<LesHouchesEvents version="3.0">
<header>
<!--
#*********************************************************************
#                                                                    *
#                        MadGraph5_aMC@NLO                           *
#                                                                    *
#                           Going Beyond                             *
#                                                                    *
#                   http://madgraph.hep.uiuc.edu                     *
#                   http://madgraph.phys.ucl.ac.be                   *
#                   http://amcatnlo.cern.ch                          *
#                                                                    *
#                     The MadGraph5_aMC@NLO team                     *
#                                                                    *
#....................................................................*
#                                                                    *
# This file contains all the information necessary to reproduce      *
# the events generated:                                              *
#                                                                    *
# 1. software version                                                *
# 2. proc_card          : code generation info including model       *
# 3. param_card         : model primary parameters in the LH format  *
# 4. run_card           : running parameters (collider and cuts)     *
# 5. pythia_card        : present only if pythia has been run        *
# 6. pgs_card           : present only if pgs has been run           *
# 7. delphes_cards      : present only if delphes has been run       *
#                                                                    *
#                                                                    *
#*********************************************************************
-->
<MGVersion>
#5.2.2.3
</MGVersion>
<MG5ProcCard>
#************************************************************
#*                     MadGraph5_aMC@NLO                    *
#*                                                          *
#*                *                       *                 *
#*                  *        * *        *                   *
#*                    * * * * 5 * * * *                     *
#*                  *        * *        *                   *
#*                *                       *                 *
#*                                                          *
#*                                                          *
#*         VERSION 2.2.3                 2015-02-10         *
#*                                                          *
#*    The MadGraph5_aMC@NLO Development Team - Find us at   *
#*    https://server06.fynu.ucl.ac.be/projects/madgraph     *
#*                                                          *
#************************************************************
#*                                                          *
#*               Command File for MadGraph5_aMC@NLO         *
#*                                                          *
#*     run as ./bin/mg5_aMC  filename                       *
#*                                                          *
#************************************************************
set group_subprocesses Auto
set ignore_six_quark_processes False
set loop_optimized_output True
set gauge unitary
set complex_mass_scheme False
import model sm
define p = g u c d s u~ c~ d~ s~
define j = g u c d s u~ c~ d~ s~
define l+ = e+ mu+
define l- = e- mu-
define vl = ve vm vt
define vl~ = ve~ vm~ vt~
import model Zprime_UFO
generate p p > zph, zph > j j
add process p p > zph, zph > b b~
output Dijet_signal
</MG5ProcCard>
<MGProcCard>
#*********************************************************************
#                        MadGraph/MadEvent                           *
#                   http://madgraph.hep.uiuc.edu                     *
#                                                                    *
#                          proc_card.dat                             *
#*********************************************************************
#                                                                    *
#            This Files is generated by MADGRAPH 5                   *
#                                                                    *
# WARNING: This Files is generated for MADEVENT (compatibility issue)*
#          This files is NOT a valid MG4 proc_card.dat               *
#          Running this in MG4 will NEVER reproduce the result of MG5*
#                                                                    *
#*********************************************************************
#*********************************************************************
# Process(es) requested : mg2 input                                  *
#*********************************************************************
# Begin PROCESS # This is TAG. Do not modify this line
p p > zph , zph > j j           #Process
# Be carefull the coupling are here in MG5 convention
          
end_coup           # End the couplings input

done               # this tells MG there are no more procs
# End PROCESS  # This is TAG. Do not modify this line
#*********************************************************************
# Model information                                                  *
#*********************************************************************
# Begin MODEL  # This is TAG. Do not modify this line
Zprime_UFO
# End   MODEL  # This is TAG. Do not modify this line
#*********************************************************************
# Start multiparticle definitions                                    *
#*********************************************************************
# Begin MULTIPARTICLES # This is TAG. Do not modify this line

# End  MULTIPARTICLES # This is TAG. Do not modify this line
</MGProcCard>
<MGRunCard>
#*********************************************************************
#                       MadGraph5_aMC@NLO                            *
#                                                                    *
#                     run_card.dat MadEvent                          *
#                                                                    *
#  This file is used to set the parameters of the run.               *
#                                                                    *
#  Some notation/conventions:                                        *
#                                                                    *
#   Lines starting with a '# ' are info or comments                  *
#                                                                    *
#   mind the format:   value    = variable     ! comment             *
#*********************************************************************
#
#*******************                                                 
# Running parameters
#*******************                                                 
#                                                                    
#*********************************************************************
# Tag name for the run (one word)                                    *
#*********************************************************************
  tag_1     = run_tag ! name of the run 
#*********************************************************************
# Run to generate the grid pack                                      *
#*********************************************************************
  .false.     = gridpack  !True = setting up the grid pack
#*********************************************************************
# Number of events and rnd seed                                      *
# Warning: Do not generate more than 1M events in a single run       *
# If you want to run Pythia, avoid more than 50k events in a run.    *
#*********************************************************************
  2000 = nevents ! Number of unweighted events requested 
 714 = iseed   ! rnd seed (0=assigned automatically=default))
#*********************************************************************
# Collider type and energy                                           *
# lpp: 0=No PDF, 1=proton, -1=antiproton, 2=photon from proton,      *
#                                         3=photon from electron     *
#*********************************************************************
        1     = lpp1    ! beam 1 type 
        1     = lpp2    ! beam 2 type
     4000     = ebeam1  ! beam 1 total energy in GeV
     4000     = ebeam2  ! beam 2 total energy in GeV
#*********************************************************************
# Beam polarization from -100 (left-handed) to 100 (right-handed)    *
#*********************************************************************
        0     = polbeam1 ! beam polarization for beam 1
        0     = polbeam2 ! beam polarization for beam 2
#*********************************************************************
# PDF CHOICE: this automatically fixes also alpha_s and its evol.    *
#*********************************************************************
 'nn23lo1'    = pdlabel     ! PDF set                                     
 230000    = lhaid     ! if pdlabel=lhapdf, this is the lhapdf number
#*********************************************************************
# Renormalization and factorization scales                           *
#*********************************************************************
 F        = fixed_ren_scale  ! if .true. use fixed ren scale
 F        = fixed_fac_scale  ! if .true. use fixed fac scale
 91.1880  = scale            ! fixed ren scale
 91.1880  = dsqrt_q2fact1    ! fixed fact scale for pdf1
 91.1880  = dsqrt_q2fact2    ! fixed fact scale for pdf2
 1        = scalefact        ! scale factor for event-by-event scales
#*********************************************************************
# Matching - Warning! ickkw > 1 is still beta
#*********************************************************************
 0        = ickkw            ! 0 no matching, 1 MLM, 2 CKKW matching
 1        = highestmult      ! for ickkw=2, highest mult group
 1        = ktscheme         ! for ickkw=1, 1 Durham kT, 2 Pythia pTE
 1        = alpsfact         ! scale factor for QCD emission vx
 F        = chcluster        ! cluster only according to channel diag
 T        = pdfwgt           ! for ickkw=1, perform pdf reweighting
 5        = asrwgtflavor     ! highest quark flavor for a_s reweight
 T        = clusinfo         ! include clustering tag in output
 3.0      = lhe_version       ! Change the way clustering information pass to shower.        
#*********************************************************************
#**********************************************************
#
#**********************************************************
# Automatic ptj and mjj cuts if xqcut > 0
# (turn off for VBF and single top processes)
#**********************************************************
   T  = auto_ptj_mjj  ! Automatic setting of ptj and mjj
#**********************************************************
#                                                                    
#**********************************
# BW cutoff (M+/-bwcutoff*Gamma)
#**********************************
  15  = bwcutoff      ! (M+/-bwcutoff*Gamma)
#**********************************************************
# Apply pt/E/eta/dr/mij cuts on decay products or not
# (note that etmiss/ptll/ptheavy/ht/sorted cuts always apply)
#**********************************************************
   T  = cut_decays    ! Cut decay products 
#*************************************************************
# Number of helicities to sum per event (0 = all helicities)
# 0 gives more stable result, but longer run time (needed for
# long decay chains e.g.).
# Use >=2 if most helicities contribute, e.g. pure QCD.
#*************************************************************
   0  = nhel          ! Number of helicities used per event
#*******************                                                 
# Standard Cuts
#*******************                                                 
#                                                                    
#*********************************************************************
# Minimum and maximum pt's (for max, -1 means no cut)                *
#*********************************************************************
 20  = ptj       ! minimum pt for the jets 
  0  = ptb       ! minimum pt for the b 
 10  = pta       ! minimum pt for the photons 
 10  = ptl       ! minimum pt for the charged leptons 
  0  = misset    ! minimum missing Et (sum of neutrino's momenta)
  0  = ptheavy   ! minimum pt for one heavy final state
 1.0 = ptonium   ! minimum pt for the quarkonium states
 -1  = ptjmax    ! maximum pt for the jets
 -1  = ptbmax    ! maximum pt for the b
 -1  = ptamax    ! maximum pt for the photons
 -1  = ptlmax    ! maximum pt for the charged leptons
 -1  = missetmax ! maximum missing Et (sum of neutrino's momenta)
#*********************************************************************
# Minimum and maximum E's (in the center of mass frame)              *
#*********************************************************************
  0  = ej     ! minimum E for the jets 
  0  = eb     ! minimum E for the b 
  0  = ea     ! minimum E for the photons 
  0  = el     ! minimum E for the charged leptons 
 -1   = ejmax ! maximum E for the jets
 -1   = ebmax ! maximum E for the b
 -1   = eamax ! maximum E for the photons
 -1   = elmax ! maximum E for the charged leptons
#*********************************************************************
# Maximum and minimum absolute rapidity (for max, -1 means no cut)   *
#*********************************************************************
   5  = etaj    ! max rap for the jets 
  -1  = etab    ! max rap for the b
 2.5  = etaa    ! max rap for the photons 
 2.5  = etal    ! max rap for the charged leptons 
 0.6  = etaonium ! max rap for the quarkonium states
   0  = etajmin ! min rap for the jets
   0  = etabmin ! min rap for the b
   0  = etaamin ! min rap for the photons
   0  = etalmin ! main rap for the charged leptons
#*********************************************************************
# Minimum and maximum DeltaR distance                                *
#*********************************************************************
 0.4 = drjj    ! min distance between jets 
 0   = drbb    ! min distance between b's 
 0.4 = drll    ! min distance between leptons 
 0.4 = draa    ! min distance between gammas 
 0   = drbj    ! min distance between b and jet 
 0.4 = draj    ! min distance between gamma and jet 
 0.4 = drjl    ! min distance between jet and lepton 
 0   = drab    ! min distance between gamma and b 
 0   = drbl    ! min distance between b and lepton 
 0.4 = dral    ! min distance between gamma and lepton 
 -1  = drjjmax ! max distance between jets
 -1  = drbbmax ! max distance between b's
 -1  = drllmax ! max distance between leptons
 -1  = draamax ! max distance between gammas
 -1  = drbjmax ! max distance between b and jet
 -1  = drajmax ! max distance between gamma and jet
 -1  = drjlmax ! max distance between jet and lepton
 -1  = drabmax ! max distance between gamma and b
 -1  = drblmax ! max distance between b and lepton
 -1  = dralmax ! maxdistance between gamma and lepton
#*********************************************************************
# Minimum and maximum invariant mass for pairs                       *
# WARNING: for four lepton final state mmll cut require to have      *
#          different lepton masses for each flavor!                  *           
#*********************************************************************
 0   = mmjj    ! min invariant mass of a jet pair 
 0   = mmbb    ! min invariant mass of a b pair 
 0   = mmaa    ! min invariant mass of gamma gamma pair
 0   = mmll    ! min invariant mass of l+l- (same flavour) lepton pair
 -1  = mmjjmax ! max invariant mass of a jet pair
 -1  = mmbbmax ! max invariant mass of a b pair
 -1  = mmaamax ! max invariant mass of gamma gamma pair
 -1  = mmllmax ! max invariant mass of l+l- (same flavour) lepton pair
#*********************************************************************
# Minimum and maximum invariant mass for all letpons                 *
#*********************************************************************
 0   = mmnl    ! min invariant mass for all letpons (l+- and vl) 
 -1  = mmnlmax ! max invariant mass for all letpons (l+- and vl) 
#*********************************************************************
# Minimum and maximum pt for 4-momenta sum of leptons                *
#*********************************************************************
 0   = ptllmin  ! Minimum pt for 4-momenta sum of leptons(l and vl)
 -1  = ptllmax  ! Maximum pt for 4-momenta sum of leptons(l and vl)
#*********************************************************************
# Inclusive cuts                                                     *
#*********************************************************************
 0  = xptj ! minimum pt for at least one jet  
 0  = xptb ! minimum pt for at least one b 
 0  = xpta ! minimum pt for at least one photon 
 0  = xptl ! minimum pt for at least one charged lepton 
#*********************************************************************
# Control the pt's of the jets sorted by pt                          *
#*********************************************************************
 0   = ptj1min ! minimum pt for the leading jet in pt
 0   = ptj2min ! minimum pt for the second jet in pt
 0   = ptj3min ! minimum pt for the third jet in pt
 0   = ptj4min ! minimum pt for the fourth jet in pt
 -1  = ptj1max ! maximum pt for the leading jet in pt 
 -1  = ptj2max ! maximum pt for the second jet in pt
 -1  = ptj3max ! maximum pt for the third jet in pt
 -1  = ptj4max ! maximum pt for the fourth jet in pt
 0   = cutuse  ! reject event if fails any (0) / all (1) jet pt cuts
#*********************************************************************
# Control the pt's of leptons sorted by pt                           *
#*********************************************************************
 0   = ptl1min ! minimum pt for the leading lepton in pt
 0   = ptl2min ! minimum pt for the second lepton in pt
 0   = ptl3min ! minimum pt for the third lepton in pt
 0   = ptl4min ! minimum pt for the fourth lepton in pt
 -1  = ptl1max ! maximum pt for the leading lepton in pt 
 -1  = ptl2max ! maximum pt for the second lepton in pt
 -1  = ptl3max ! maximum pt for the third lepton in pt
 -1  = ptl4max ! maximum pt for the fourth lepton in pt
#*********************************************************************
# Control the Ht(k)=Sum of k leading jets                            *
#*********************************************************************
 0   = htjmin ! minimum jet HT=Sum(jet pt)
 -1  = htjmax ! maximum jet HT=Sum(jet pt)
 0   = ihtmin  !inclusive Ht for all partons (including b)
 -1  = ihtmax  !inclusive Ht for all partons (including b)
 0   = ht2min ! minimum Ht for the two leading jets
 0   = ht3min ! minimum Ht for the three leading jets
 0   = ht4min ! minimum Ht for the four leading jets
 -1  = ht2max ! maximum Ht for the two leading jets
 -1  = ht3max ! maximum Ht for the three leading jets
 -1  = ht4max ! maximum Ht for the four leading jets
#***********************************************************************
# Photon-isolation cuts, according to hep-ph/9801442                   *
# When ptgmin=0, all the other parameters are ignored                  *
# When ptgmin>0, pta and draj are not going to be used                 *
#***********************************************************************
   0 = ptgmin ! Min photon transverse momentum
 0.4 = R0gamma ! Radius of isolation code
 1.0 = xn ! n parameter of eq.(3.4) in hep-ph/9801442
 1.0 = epsgamma ! epsilon_gamma parameter of eq.(3.4) in hep-ph/9801442
 .true. = isoEM ! isolate photons from EM energy (photons and leptons)
#*********************************************************************
# WBF cuts                                                           *
#*********************************************************************
 0   = xetamin ! minimum rapidity for two jets in the WBF case  
 0   = deltaeta ! minimum rapidity for two jets in the WBF case 
#*********************************************************************
# KT DURHAM CUT                                                      *
#*********************************************************************
 -1    =  ktdurham        
 0.4  =  dparameter 
#*********************************************************************
# maximal pdg code for quark to be considered as a light jet         *
# (otherwise b cuts are applied)                                     *
#*********************************************************************
 4 = maxjetflavor    ! Maximum jet pdg code
#*********************************************************************
# Jet measure cuts                                                   *
#*********************************************************************
 0   = xqcut   ! minimum kt jet measure between partons
#*********************************************************************
#
#*********************************************************************
# Store info for systematics studies                                 *
# WARNING: If use_syst is T, matched Pythia output is                *
#          meaningful ONLY if plotted taking matchscale              *
#          reweighting into account!                                 *
#*********************************************************************
   F  = use_syst      ! Enable systematics studies
#
#**************************************
# Parameter of the systematics study
#  will be used by SysCalc (if installed)
#**************************************                                  
#
0.5 1 2 = sys_scalefact  # factorization/renormalization scale factor
0.5 1 2 = sys_alpsfact  # \alpha_s emission scale factors
30 50 = sys_matchscale # variation of merging scale
# PDF sets and number of members (0 or none for all members).
CT10nlo.LHgrid = sys_pdf # matching scales
# MSTW2008nlo68cl.LHgrid 1  = sys_pdf
</MGRunCard>
<slha>
######################################################################
## PARAM_CARD AUTOMATICALY GENERATED BY MG5 FOLLOWING UFO MODEL   ####
######################################################################
##                                                                  ##
##  Width set on Auto will be computed following the information    ##
##        present in the decay.py files of the model.               ##
##        See  arXiv:1402.1178 for more details.                    ##
##                                                                  ##
######################################################################

###################################
## INFORMATION FOR CKMBLOCK
###################################
Block ckmblock 
    1 2.277360e-01 # cabi 

###################################
## INFORMATION FOR FRBLOCK
###################################
Block frblock 
    1 2.000000e-01 # gz 

###################################
## INFORMATION FOR MASS
###################################
Block mass 
    1 5.040000e-03 # MD 
    2 2.550000e-03 # MU 
    3 1.010000e-01 # MS 
    4 1.270000e+00 # MC 
    5 4.700000e+00 # MB 
    6 1.720000e+02 # MT 
   11 5.110000e-04 # Me 
   13 1.056600e-01 # MM 
   15 1.777000e+00 # MTA 
   23 9.118760e+01 # MZ 
   25 1.200000e+02 # MH 
  10030 2.900000e+03 # MZph 
  10031 3.000000e+02 # MZpl 
## Dependent parameters, given by model restrictions.
## Those values should be edited following the 
## analytical expression. MG5 ignores those values 
## but they are important for interfacing the output of MG5
## to external program such as Pythia.
  12 0.000000 # ve : 0.0 
  14 0.000000 # vm : 0.0 
  16 0.000000 # vt : 0.0 
  21 0.000000 # g : 0.0 
  22 0.000000 # a : 0.0 
  24 79.824360 # w+ : cmath.sqrt(MZ__exp__2/2. + cmath.sqrt(MZ__exp__4/4. - (aEW*cmath.pi*MZ__exp__2)/(Gf*sqrt__2))) 

###################################
## INFORMATION FOR SMINPUTS
###################################
Block sminputs 
    1 1.279000e+02 # aEWM1 
    2 1.166370e-05 # Gf 
    3 1.184000e-01 # aS 

###################################
## INFORMATION FOR YUKAWA
###################################
Block yukawa 
    1 5.040000e-03 # ymdo 
    2 2.550000e-03 # ymup 
    3 1.010000e-01 # yms 
    4 1.270000e+00 # ymc 
    5 4.700000e+00 # ymb 
    6 1.720000e+02 # ymt 
   11 5.110000e-04 # yme 
   13 1.056600e-01 # ymm 
   15 1.777000e+00 # ymtau 

###################################
## INFORMATION FOR DECAY
###################################
DECAY   6 1.508336e+00 # WT 
DECAY  23 2.495200e+00 # WZ 
DECAY  24 2.085000e+00 # WW 
DECAY  25 5.753088e-03 # WH 
## Dependent parameters, given by model restrictions.
## Those values should be edited following the 
## analytical expression. MG5 ignores those values 
## but they are important for interfacing the output of MG5
## to external program such as Pythia.
DECAY  1 0.000000 # d : 0.0 
DECAY  2 0.000000 # u : 0.0 
DECAY  3 0.000000 # s : 0.0 
DECAY  4 0.000000 # c : 0.0 
DECAY  5 0.000000 # b : 0.0 
DECAY  11 0.000000 # e- : 0.0 
DECAY  12 0.000000 # ve : 0.0 
DECAY  13 0.000000 # mu- : 0.0 
DECAY  14 0.000000 # vm : 0.0 
DECAY  15 0.000000 # ta- : 0.0 
DECAY  16 0.000000 # vt : 0.0 
DECAY  21 0.000000 # g : 0.0 
DECAY  22 0.000000 # a : 0.0 
DECAY  10030 0.308725 # zph : (gz__exp__2*MZph*(5 + cmath.sqrt(1 - (4*MT__exp__2)/MZph__exp__2)))/(144.*cmath.pi) 
DECAY  10031 0.132629 # zpl : (5*gz__exp__2*MZpl)/(144.*cmath.pi) 
#===========================================================
# QUANTUM NUMBERS OF NEW STATE(S) (NON SM PDG CODE)
#===========================================================

Block QNUMBERS 10030  # zph 
        1 0  # 3 times electric charge
        2 3  # number of spin states (2S+1)
        3 1  # colour rep (1: singlet, 3: triplet, 8: octet)
        4 0  # Particle/Antiparticle distinction (0=own anti)
Block QNUMBERS 10031  # zpl 
        1 0  # 3 times electric charge
        2 3  # number of spin states (2S+1)
        3 1  # colour rep (1: singlet, 3: triplet, 8: octet)
        4 0  # Particle/Antiparticle distinction (0=own anti)
</slha>
## END BANNER##
<MGGenerationInfo>
#  Number of Events        :         3882
#  Integrated weight (pb)  :  0.67260E-04
#  Max wgt                 :  0.26787E-07
#  Average wgt             :  0.17326E-07
</MGGenerationInfo>
</header>
<init>
     2212     2212  0.40000000000E+04  0.40000000000E+04 0 0  247000  247000 2   1
  0.67324255022E-04  0.15958230714E-06  0.26787230000E-07   0
</init>
<event>
 5   0  0.2546841E-07  0.2899924E+04  0.7818609E-02  0.8272900E-01
        2   -1    0    0  501    0  0.00000000000E+00  0.00000000000E+00  0.10972465747E+04  0.10972465747E+04  0.25500000920E-02 0. -1.
       -2   -1    0    0    0  501  0.00000000000E+00  0.00000000000E+00 -0.19160598595E+04  0.19160598595E+04  0.25500000920E-02 0.  1.
    10030    2    1    2    0    0  0.00000000000E+00  0.00000000000E+00 -0.81881328476E+03  0.30133064342E+04  0.28999242182E+04 0.  0.
        1    1    3    3  502    0  0.15848443972E+03 -0.88210442154E+03 -0.15937802945E+04  0.18284860282E+04  0.50400001928E-02 0.  1.
       -1    1    3    3    0  502 -0.15848443972E+03  0.88210442154E+03  0.77496700979E+03  0.11848204060E+04  0.50400001928E-02 0. -1.
</event>
<event>
 5   0  0.2546841E-07  0.2902451E+04  0.7818609E-02  0.8272149E-01
        2   -1    0    0  501    0  0.00000000000E+00  0.00000000000E+00  0.17309265901E+04  0.17309265901E+04  0.25500000920E-02 0. -1.
       -2   -1    0    0    0  501  0.00000000000E+00  0.00000000000E+00 -0.12167212068E+04  0.12167212068E+04  0.25500000920E-02 0.  1.
    10030    2    1    2    0    0  0.00000000000E+00  0.00000000000E+00  0.51420538329E+03  0.29476477969E+04  0.29024507504E+04 0.  0.
        1    1    3    3  502    0 -0.12191529485E+04 -0.38314798593E+03 -0.44129696905E+03  0.13519908675E+04  0.50400001928E-02 0.  1.
       -1    1    3    3    0  502  0.12191529485E+04  0.38314798593E+03  0.95550235233E+03  0.15956569294E+04  0.50400001928E-02 0. -1.
</event>
<event>
 5   0  0.2534588E-07  0.2900349E+04  0.7818609E-02  0.8272774E-01
        2   -1    0    0  501    0  0.00000000000E+00  0.00000000000E+00  0.18644541218E+04  0.18644541218E+04  0.25500000920E-02 0. -1.
       -2   -1    0    0    0  501  0.00000000000E+00  0.00000000000E+00 -0.11279475596E+04  0.11279475596E+04  0.25500000920E-02 0.  1.
    10030    2    1    2    0    0  0.00000000000E+00  0.00000000000E+00  0.73650656218E+03  0.29924016814E+04  0.29003492732E+04 0.  0.
        3    1    3    3  502    0  0.17818129216E+02 -0.88530907079E+03 -0.81663742867E+03  0.12045689423E+04  0.10100000352E+00 0.  1.
       -3    1    3    3    0  502 -0.17818129216E+02  0.88530907079E+03  0.15531439909E+04  0.17878327391E+04  0.10100000352E+00 0. -1.
</event>
<event>
 5   0  0.2546841E-07  0.2899496E+04  0.7818609E-02  0.8273027E-01
       -2   -1    0    0    0  501  0.00000000000E+00  0.00000000000E+00  0.11985086714E+04  0.11985086714E+04  0.25500000920E-02 0. -1.
        2   -1    0    0  501    0  0.00000000000E+00  0.00000000000E+00 -0.17536541153E+04  0.17536541153E+04  0.25500000920E-02 0.  1.
    10030    2    1    2    0    0  0.00000000000E+00  0.00000000000E+00 -0.55514544393E+03  0.29521627866E+04  0.28994962761E+04 0.  0.
        1    1    3    3  502    0 -0.91366460493E+03 -0.11055946700E+04 -0.62436136053E+02  0.14356255973E+04  0.50400001928E-02 0. -1.
       -1    1    3    3    0  502  0.91366460493E+03  0.11055946700E+04 -0.49270930788E+03  0.15165371893E+04  0.50400001928E-02 0.  1.
</event>
<event>
 5   0  0.2534588E-07  0.2902632E+04  0.7818609E-02  0.8272095E-01
       -2   -1    0    0    0  501  0.00000000000E+00  0.00000000000E+00  0.10404515438E+04  0.10404515438E+04  0.25500000920E-02 0. -1.
        2   -1    0    0  501    0  0.00000000000E+00  0.00000000000E+00 -0.20244273295E+04  0.20244273295E+04  0.25500000920E-02 0.  1.
    10030    2    1    2    0    0  0.00000000000E+00  0.00000000000E+00 -0.98397578576E+03  0.30648788733E+04  0.29026322814E+04 0.  0.
        3    1    3    3  502    0  0.27526569844E+03  0.42872310976E+03  0.94292197354E+03  0.10717632985E+04  0.10100000352E+00 0. -1.
       -3    1    3    3    0  502 -0.27526569844E+03 -0.42872310976E+03 -0.19268977593E+04  0.19931155748E+04  0.10100000352E+00 0.  1.
</event>
<event>
 5   0  0.9421924E-08  0.2898914E+04  0.7818609E-02  0.8273201E-01
       -1   -1    0    0    0  501  0.00000000000E+00  0.00000000000E+00  0.67980437400E+03  0.67980437402E+03  0.50400001928E-02 0. -1.
        1   -1    0    0  501    0  0.00000000000E+00  0.00000000000E+00 -0.30904863098E+04  0.30904863098E+04  0.50400001928E-02 0.  1.
    10030    2    1    2    0    0  0.00000000000E+00  0.00000000000E+00 -0.24106819358E+04  0.37702906838E+04  0.28989143562E+04 0.  0.
        1    1    3    3  502    0  0.44815760042E+03 -0.62351394357E+03 -0.28042229405E+04  0.29074526949E+04  0.50400001928E-02 0.  1.
       -1    1    3    3    0  502 -0.44815760042E+03  0.62351394357E+03  0.39354100478E+03  0.86283798891E+03  0.50400001928E-02 0. -1.
</event>
<event>
 5   0  0.9763851E-08  0.2899559E+04  0.7818609E-02  0.8273009E-01
       -1   -1    0    0    0  501  0.00000000000E+00  0.00000000000E+00  0.10553791231E+04  0.10553791231E+04  0.50400001928E-02 0. -1.
        1   -1    0    0  501    0  0.00000000000E+00  0.00000000000E+00 -0.19915687848E+04  0.19915687848E+04  0.50400001928E-02 0.  1.
    10030    2    1    2    0    0  0.00000000000E+00  0.00000000000E+00 -0.93618966174E+03  0.30469479080E+04  0.28995586683E+04 0.  0.
        3    1    3    3  502    0  0.85299430366E+02 -0.75946932509E+03  0.82651541000E+03  0.11256986194E+04  0.10100000352E+00 0. -1.
       -3    1    3    3    0  502 -0.85299430366E+02  0.75946932509E+03 -0.17627050717E+04  0.19212492885E+04  0.10100000352E+00 0.  1.
</event>
<event>
 5   0  0.2546841E-07  0.2900710E+04  0.7818609E-02  0.8272666E-01
        2   -1    0    0  501    0  0.00000000000E+00  0.00000000000E+00  0.82674406224E+03  0.82674406225E+03  0.25500000920E-02 0.  1.
       -2   -1    0    0    0  501  0.00000000000E+00  0.00000000000E+00 -0.25443548432E+04  0.25443548432E+04  0.25500000920E-02 0. -1.
    10030    2    1    2    0    0  0.00000000000E+00  0.00000000000E+00 -0.17176107809E+04  0.33710989054E+04  0.29007104363E+04 0.  0.
        1    1    3    3  502    0 -0.43932575759E+03  0.13458897137E+04 -0.12246635492E+04  0.18719580795E+04  0.50400001928E-02 0. -1.
       -1    1    3    3    0  502  0.43932575759E+03 -0.13458897137E+04 -0.49294723176E+03  0.14991408259E+04  0.50400001928E-02 0.  1.
</event>
<event>
 5   0  0.9395744E-08  0.2897253E+04  0.7818609E-02  0.8273695E-01
        1   -1    0    0  501    0  0.00000000000E+00  0.00000000000E+00  0.14227442801E+04  0.14227442801E+04  0.50400001928E-02 0.  1.
       -1   -1    0    0    0  501  0.00000000000E+00  0.00000000000E+00 -0.14749792541E+04  0.14749792541E+04  0.50400001928E-02 0. -1.
    10030    2    1    2    0    0  0.00000000000E+00  0.00000000000E+00 -0.52234974019E+02  0.28977235342E+04  0.28972526967E+04 0.  0.
        2    1    3    3  502    0  0.71983354691E+03 -0.10597711711E+04  0.65018987920E+03  0.14366705083E+04  0.25500000920E-02 0.  1.
       -2    1    3    3    0  502 -0.71983354691E+03  0.10597711711E+04 -0.70242485322E+03  0.14610530260E+04  0.25500000920E-02 0. -1.
</event>
<event>
 5   0  0.2546841E-07  0.2900474E+04  0.7818609E-02  0.8272736E-01
       -2   -1    0    0    0  501  0.00000000000E+00  0.00000000000E+00  0.10092389269E+04  0.10092389269E+04  0.25500000920E-02 0. -1.
        2   -1    0    0  501    0  0.00000000000E+00  0.00000000000E+00 -0.20839346159E+04  0.20839346159E+04  0.25500000920E-02 0.  1.
    10030    2    1    2    0    0  0.00000000000E+00  0.00000000000E+00 -0.10746956890E+04  0.30931735427E+04  0.29004743994E+04 0.  0.
        1    1    3    3  502    0 -0.69149144143E+03 -0.34182656047E+03 -0.18470186445E+04  0.20016202648E+04  0.50400001928E-02 0.  1.
       -1    1    3    3    0  502  0.69149144143E+03  0.34182656047E+03  0.77232295551E+03  0.10915532780E+04  0.50400001928E-02 0. -1.
</event>
<event>
 5   0  0.9395744E-08  0.2918741E+04  0.7818609E-02  0.8267323E-01
        1   -1    0    0  501    0  0.00000000000E+00  0.00000000000E+00  0.20661207078E+04  0.20661207078E+04  0.50400001928E-02 0. -1.
       -1   -1    0    0    0  501  0.00000000000E+00  0.00000000000E+00 -0.10308025994E+04  0.10308025994E+04  0.50400001928E-02 0.  1.
    10030    2    1    2    0    0  0.00000000000E+00  0.00000000000E+00  0.10353181084E+04  0.30969233072E+04  0.29187412329E+04 0.  0.
        2    1    3    3  502    0 -0.10964165273E+04  0.51247744656E+01 -0.50426094056E+03  0.12068283062E+04  0.25500000920E-02 0.  1.
       -2    1    3    3    0  502  0.10964165273E+04 -0.51247744656E+01  0.15395790489E+04  0.18900950009E+04  0.25500000920E-02 0. -1.
</event>
<event>
 5   0  0.2678723E-07  0.2899489E+04  0.7818609E-02  0.8273029E-01
        2   -1    0    0  501    0  0.00000000000E+00  0.00000000000E+00  0.19298535047E+04  0.19298535047E+04  0.25500000920E-02 0. -1.
       -2   -1    0    0    0  501  0.00000000000E+00  0.00000000000E+00 -0.10890772551E+04  0.10890772551E+04  0.25500000920E-02 0.  1.
    10030    2    1    2    0    0  0.00000000000E+00  0.00000000000E+00  0.84077624961E+03  0.30189307597E+04  0.28994893050E+04 0.  0.
        5    1    3    3  502    0  0.13324375482E+04 -0.29681592074E+03  0.92860166758E+03  0.16510035305E+04  0.46999998093E+01 0. -1.
       -5    1    3    3    0  502 -0.13324375482E+04  0.29681592074E+03 -0.87825417969E+02  0.13679272293E+04  0.46999998093E+01 0.  1.
</event>
<event>
 5   0  0.9388076E-08  0.2899286E+04  0.7818609E-02  0.8273090E-01
       -1   -1    0    0    0  501  0.00000000000E+00  0.00000000000E+00  0.93790753037E+03  0.93790753039E+03  0.50400001928E-02 0. -1.
        1   -1    0    0  501    0  0.00000000000E+00  0.00000000000E+00 -0.22405883417E+04  0.22405883417E+04  0.50400001928E-02 0.  1.
    10030    2    1    2    0    0  0.00000000000E+00  0.00000000000E+00 -0.13026808113E+04  0.31784958721E+04  0.28992858970E+04 0.  0.
        5    1    3    3  502    0 -0.78400048762E+01  0.52276536911E+03 -0.21336205293E+04  0.21967484494E+04  0.46999998093E+01 0.  1.
       -5    1    3    3    0  502  0.78400048762E+01 -0.52276536911E+03  0.83093971805E+03  0.98174742263E+03  0.46999998093E+01 0. -1.
</event>
<event>
 5   0  0.9421924E-08  0.2900107E+04  0.7818609E-02  0.8272846E-01
       -1   -1    0    0    0  501  0.00000000000E+00  0.00000000000E+00  0.17408593861E+04  0.17408593861E+04  0.50400001928E-02 0.  1.
        1   -1    0    0  501    0  0.00000000000E+00  0.00000000000E+00 -0.12078261478E+04  0.12078261478E+04  0.50400001928E-02 0. -1.
    10030    2    1    2    0    0  0.00000000000E+00  0.00000000000E+00  0.53303323829E+03  0.29486855339E+04  0.29001072299E+04 0.  0.
        1    1    3    3  502    0  0.75536715577E+03 -0.86512398793E+03  0.11665771392E+04  0.16370465101E+04  0.50400001928E-02 0.  1.
       -1    1    3    3    0  502 -0.75536715577E+03  0.86512398793E+03 -0.63354390089E+03  0.13116390239E+04  0.50400001928E-02 0. -1.
</event>
<event>
 5   0  0.9763851E-08  0.2900181E+04  0.7818609E-02  0.8272824E-01
        1   -1    0    0  501    0  0.00000000000E+00  0.00000000000E+00  0.11050397537E+04  0.11050397537E+04  0.50400001928E-02 0.  1.
       -1   -1    0    0    0  501  0.00000000000E+00  0.00000000000E+00 -0.19028835778E+04  0.19028835778E+04  0.50400001928E-02 0. -1.
    10030    2    1    2    0    0  0.00000000000E+00  0.00000000000E+00 -0.79784382407E+03  0.30079233315E+04  0.29001806841E+04 0.  0.
        3    1    3    3  502    0 -0.13035308127E+04 -0.23704907496E+03 -0.10102049262E+04  0.16661028920E+04  0.10100000352E+00 0. -1.
       -3    1    3    3    0  502  0.13035308127E+04  0.23704907496E+03  0.21236110215E+03  0.13418204394E+04  0.10100000352E+00 0.  1.
</event>
<event>
 5   0  0.9763851E-08  0.2899364E+04  0.7818609E-02  0.8273067E-01
        1   -1    0    0  501    0  0.00000000000E+00  0.00000000000E+00  0.14772761613E+04  0.14772761613E+04  0.50400001928E-02 0. -1.
       -1   -1    0    0    0  501  0.00000000000E+00  0.00000000000E+00 -0.14226034200E+04  0.14226034200E+04  0.50400001928E-02 0.  1.
    10030    2    1    2    0    0  0.00000000000E+00  0.00000000000E+00  0.54672741333E+02  0.28998795813E+04  0.28993641506E+04 0.  0.
        3    1    3    3  502    0 -0.80566664039E+03  0.98493404287E+03  0.72199875680E+03  0.14630365748E+04  0.10100000352E+00 0. -1.
       -3    1    3    3    0  502  0.80566664039E+03 -0.98493404287E+03 -0.66732601547E+03  0.14368430065E+04  0.10100000352E+00 0.  1.
</event>
<event>
 5   0  0.2546841E-07  0.2900455E+04  0.7818609E-02  0.8272742E-01
       -2   -1    0    0    0  501  0.00000000000E+00  0.00000000000E+00  0.15530072588E+04  0.15530072588E+04  0.25500000920E-02 0. -1.
        2   -1    0    0  501    0  0.00000000000E+00  0.00000000000E+00 -0.13542498304E+04  0.13542498304E+04  0.25500000920E-02 0.  1.
    10030    2    1    2    0    0  0.00000000000E+00  0.00000000000E+00  0.19875742834E+03  0.29072570892E+04  0.29004550104E+04 0.  0.
        1    1    3    3  502    0 -0.44704583087E+03 -0.36534591262E+03  0.14328490279E+04  0.15447925257E+04  0.50400001928E-02 0. -1.
       -1    1    3    3    0  502  0.44704583087E+03  0.36534591262E+03 -0.12340915995E+04  0.13624645635E+04  0.50400001928E-02 0.  1.
</event>
<event>
 5   0  0.9443352E-08  0.2907582E+04  0.7818609E-02  0.8270625E-01
       -1   -1    0    0    0  501  0.00000000000E+00  0.00000000000E+00  0.11144898263E+04  0.11144898263E+04  0.50400001928E-02 0. -1.
        1   -1    0    0  501    0  0.00000000000E+00  0.00000000000E+00 -0.18963909817E+04  0.18963909817E+04  0.50400001928E-02 0.  1.
    10030    2    1    2    0    0  0.00000000000E+00  0.00000000000E+00 -0.78190115543E+03  0.30108808080E+04  0.29075821266E+04 0.  0.
        4    1    3    3  502    0 -0.72776527900E+02 -0.60600526308E+03 -0.17572848823E+04  0.18602662638E+04  0.12699999809E+01 0.  1.
       -4    1    3    3    0  502  0.72776527900E+02  0.60600526308E+03  0.97538372683E+03  0.11506145442E+04  0.12699999809E+01 0. -1.
</event>
<event>
 5   0  0.9421924E-08  0.2900040E+04  0.7818609E-02  0.8272865E-01
       -1   -1    0    0    0  501  0.00000000000E+00  0.00000000000E+00  0.19125088315E+04  0.19125088315E+04  0.50400001928E-02 0. -1.
        1   -1    0    0  501    0  0.00000000000E+00  0.00000000000E+00 -0.10993719114E+04  0.10993719114E+04  0.50400001928E-02 0.  1.
    10030    2    1    2    0    0  0.00000000000E+00  0.00000000000E+00  0.81313692015E+03  0.30118807429E+04  0.29000403374E+04 0.  0.
        1    1    3    3  502    0  0.86471175166E+03  0.94346848812E+03  0.11145464180E+04  0.16970777588E+04  0.50400001928E-02 0. -1.
       -1    1    3    3    0  502 -0.86471175166E+03 -0.94346848812E+03 -0.30140949789E+03  0.13148029841E+04  0.50400001928E-02 0.  1.
</event>
<event>
 5   0  0.2608591E-07  0.2900078E+04  0.7818609E-02  0.8272854E-01
        2   -1    0    0  501    0  0.00000000000E+00  0.00000000000E+00  0.14442878609E+04  0.14442878609E+04  0.25500000920E-02 0.  1.
       -2   -1    0    0    0  501  0.00000000000E+00  0.00000000000E+00 -0.14558132121E+04  0.14558132121E+04  0.25500000920E-02 0. -1.
    10030    2    1    2    0    0  0.00000000000E+00  0.00000000000E+00 -0.11525351182E+02  0.29001010730E+04  0.29000781714E+04 0.  0.
        2    1    3    3  502    0  0.91639752826E+03 -0.11009527475E+03 -0.11241220562E+04  0.14544950315E+04  0.25500000920E-02 0. -1.
       -2    1    3    3    0  502 -0.91639752826E+03  0.11009527475E+03  0.11125967050E+04  0.14456060416E+04  0.25500000920E-02 0.  1.
</event>
<event>
 5   0  0.9763851E-08  0.2900758E+04  0.7818609E-02  0.8272652E-01
        1   -1    0    0  501    0  0.00000000000E+00  0.00000000000E+00  0.24846537366E+04  0.24846537366E+04  0.50400001928E-02 0.  1.
       -1   -1    0    0    0  501  0.00000000000E+00  0.00000000000E+00 -0.84663652453E+03  0.84663652454E+03  0.50400001928E-02 0. -1.
    10030    2    1    2    0    0  0.00000000000E+00  0.00000000000E+00  0.16380172121E+04  0.33312902612E+04  0.29007575592E+04 0.  0.
        3    1    3    3  502    0  0.10069366974E+03 -0.11506538879E+04 -0.18836984872E+03  0.11703105549E+04  0.10100000352E+00 0. -1.
       -3    1    3    3    0  502 -0.10069366974E+03  0.11506538879E+04  0.18263870608E+04  0.21609797063E+04  0.10100000352E+00 0.  1.
</event>
<event>
 5   0  0.2534588E-07  0.2903178E+04  0.7818609E-02  0.8271933E-01
        2   -1    0    0  501    0  0.00000000000E+00  0.00000000000E+00  0.18550126128E+04  0.18550126128E+04  0.25500000920E-02 0. -1.
       -2   -1    0    0    0  501  0.00000000000E+00  0.00000000000E+00 -0.11359007389E+04  0.11359007389E+04  0.25500000920E-02 0.  1.
    10030    2    1    2    0    0  0.00000000000E+00  0.00000000000E+00  0.71911187387E+03  0.29909133518E+04  0.29031777056E+04 0.  0.
        3    1    3    3  502    0 -0.13583787347E+04  0.46499644483E+03  0.57978159228E+03  0.15484060144E+04  0.10100000352E+00 0.  1.
       -3    1    3    3    0  502  0.13583787347E+04 -0.46499644483E+03  0.13933028158E+03  0.14425073373E+04  0.10100000352E+00 0. -1.
</event>
<event>
 5   0  0.9421924E-08  0.2900436E+04  0.7818609E-02  0.8272748E-01
        1   -1    0    0  501    0  0.00000000000E+00  0.00000000000E+00  0.19688180976E+04  0.19688180976E+04  0.50400001928E-02 0. -1.
       -1   -1    0    0    0  501  0.00000000000E+00  0.00000000000E+00 -0.10682208754E+04  0.10682208754E+04  0.50400001928E-02 0.  1.
    10030    2    1    2    0    0  0.00000000000E+00  0.00000000000E+00  0.90059722217E+03  0.30370389730E+04  0.29004362373E+04 0.  0.
        1    1    3    3  502    0 -0.74674274860E+03  0.89154541156E+02  0.17486820987E+04  0.19035394262E+04  0.50400001928E-02 0. -1.
       -1    1    3    3    0  502  0.74674274860E+03 -0.89154541156E+02 -0.84808487649E+03  0.11334995468E+04  0.50400001928E-02 0.  1.
</event>
<event>
 5   0  0.2608591E-07  0.2899938E+04  0.7818609E-02  0.8272896E-01
       -2   -1    0    0    0  501  0.00000000000E+00  0.00000000000E+00  0.11611063564E+04  0.11611063564E+04  0.25500000920E-02 0.  1.
        2   -1    0    0  501    0  0.00000000000E+00  0.00000000000E+00 -0.18106959516E+04  0.18106959516E+04  0.25500000920E-02 0. -1.
    10030    2    1    2    0    0  0.00000000000E+00  0.00000000000E+00 -0.64958959516E+03  0.29718023080E+04  0.28999383297E+04 0.  0.
        2    1    3    3  502    0  0.13620524549E+04 -0.40571920371E+03 -0.30242626262E+02  0.14215166473E+04  0.25500000920E-02 0. -1.
       -2    1    3    3    0  502 -0.13620524549E+04  0.40571920371E+03 -0.61934696890E+03  0.15502856608E+04  0.25500000920E-02 0.  1.
</event>
<event>
 5   0  0.9395744E-08  0.2899333E+04  0.7818609E-02  0.8273076E-01
       -1   -1    0    0    0  501  0.00000000000E+00  0.00000000000E+00  0.14379014217E+04  0.14379014218E+04  0.50400001928E-02 0.  1.
        1   -1    0    0  501    0  0.00000000000E+00  0.00000000000E+00 -0.14615275664E+04  0.14615275664E+04  0.50400001928E-02 0. -1.
    10030    2    1    2    0    0  0.00000000000E+00  0.00000000000E+00 -0.23626144642E+02  0.28994289881E+04  0.28993327271E+04 0.  0.
        2    1    3    3  502    0 -0.11158201953E+04  0.87338170241E+03 -0.31789881211E+03  0.14522086493E+04  0.25500000920E-02 0.  1.
       -2    1    3    3    0  502  0.11158201953E+04 -0.87338170241E+03  0.29427266747E+03  0.14472203388E+04  0.25500000920E-02 0. -1.
</event>
<event>
 5   0  0.2534588E-07  0.2900643E+04  0.7818609E-02  0.8272686E-01
       -2   -1    0    0    0  501  0.00000000000E+00  0.00000000000E+00  0.14245790652E+04  0.14245790652E+04  0.25500000920E-02 0.  1.
        2   -1    0    0  501    0  0.00000000000E+00  0.00000000000E+00 -0.14765289626E+04  0.14765289627E+04  0.25500000920E-02 0. -1.
    10030    2    1    2    0    0  0.00000000000E+00  0.00000000000E+00 -0.51949897452E+02  0.29011080278E+04  0.29006428593E+04 0.  0.
        3    1    3    3  502    0 -0.52294012421E+03  0.79046001282E+03  0.10719892559E+04  0.14308928613E+04  0.10100000352E+00 0.  1.
       -3    1    3    3    0  502  0.52294012421E+03 -0.79046001282E+03 -0.11239391534E+04  0.14702151666E+04  0.10100000352E+00 0. -1.
</event>
<event>
 5   0  0.2678723E-07  0.2907842E+04  0.7818609E-02  0.8270548E-01
       -2   -1    0    0    0  501  0.00000000000E+00  0.00000000000E+00  0.16071348062E+04  0.16071348062E+04  0.25500000920E-02 0.  1.
        2   -1    0    0  501    0  0.00000000000E+00  0.00000000000E+00 -0.13153131568E+04  0.13153131568E+04  0.25500000920E-02 0. -1.
    10030    2    1    2    0    0  0.00000000000E+00  0.00000000000E+00  0.29182164934E+03  0.29224479630E+04  0.29078415055E+04 0.  0.
        5    1    3    3  502    0  0.35805107747E+03  0.13875746697E+04 -0.10088206819E+03  0.14365804258E+04  0.46999998093E+01 0. -1.
       -5    1    3    3    0  502 -0.35805107747E+03 -0.13875746697E+04  0.39270371754E+03  0.14858675372E+04  0.46999998093E+01 0.  1.
</event>
<event>
 5   0  0.9395744E-08  0.2900380E+04  0.7818609E-02  0.8272764E-01
       -1   -1    0    0    0  501  0.00000000000E+00  0.00000000000E+00  0.15614264042E+04  0.15614264042E+04  0.50400001928E-02 0. -1.
        1   -1    0    0  501    0  0.00000000000E+00  0.00000000000E+00 -0.13468783103E+04  0.13468783103E+04  0.50400001928E-02 0.  1.
    10030    2    1    2    0    0  0.00000000000E+00  0.00000000000E+00  0.21454809396E+03  0.29083047145E+04  0.29003802212E+04 0.  0.
        2    1    3    3  502    0 -0.85673698420E+03 -0.66578281022E+03 -0.85753275850E+03  0.13829777447E+04  0.25500000920E-02 0.  1.
       -2    1    3    3    0  502  0.85673698420E+03  0.66578281022E+03  0.10720808525E+04  0.15253269698E+04  0.25500000920E-02 0. -1.
</event>
<event>
 5   0  0.2534588E-07  0.2902835E+04  0.7818609E-02  0.8272035E-01
        2   -1    0    0  501    0  0.00000000000E+00  0.00000000000E+00  0.12537335407E+04  0.12537335407E+04  0.25500000920E-02 0. -1.
       -2   -1    0    0    0  501  0.00000000000E+00  0.00000000000E+00 -0.16802710399E+04  0.16802710399E+04  0.25500000920E-02 0.  1.
    10030    2    1    2    0    0  0.00000000000E+00  0.00000000000E+00 -0.42653749917E+03  0.29340045806E+04  0.29028345872E+04 0.  0.
        3    1    3    3  502    0 -0.16126429023E+03 -0.33315779023E+03 -0.16317670652E+04  0.16732196657E+04  0.10100000352E+00 0.  1.
       -3    1    3    3    0  502  0.16126429023E+03  0.33315779023E+03  0.12052295660E+04  0.12607849148E+04  0.10100000352E+00 0. -1.
</event>
<event>
 5   0  0.2546841E-07  0.2899960E+04  0.7818609E-02  0.8272889E-01
       -2   -1    0    0    0  501  0.00000000000E+00  0.00000000000E+00  0.16496033535E+04  0.16496033536E+04  0.25500000920E-02 0. -1.
        2   -1    0    0  501    0  0.00000000000E+00  0.00000000000E+00 -0.12745134776E+04  0.12745134776E+04  0.25500000920E-02 0.  1.
    10030    2    1    2    0    0  0.00000000000E+00  0.00000000000E+00  0.37508987590E+03  0.29241168312E+04  0.28999597976E+04 0.  0.
        1    1    3    3  502    0  0.11153641447E+04  0.85541893631E+03  0.54640703057E+03  0.15080913020E+04  0.50400001928E-02 0.  1.
       -1    1    3    3    0  502 -0.11153641447E+04 -0.85541893631E+03 -0.17131715467E+03  0.14160255292E+04  0.50400001928E-02 0. -1.
</event>
<event>
 5   0  0.9388076E-08  0.2899990E+04  0.7818609E-02  0.8272880E-01
        1   -1    0    0  501    0  0.00000000000E+00  0.00000000000E+00  0.20826345609E+04  0.20826345609E+04  0.50400001928E-02 0.  1.
       -1   -1    0    0    0  501  0.00000000000E+00  0.00000000000E+00 -0.10095315429E+04  0.10095315429E+04  0.50400001928E-02 0. -1.
    10030    2    1    2    0    0  0.00000000000E+00  0.00000000000E+00  0.10731030180E+04  0.30921661038E+04  0.28999898494E+04 0.  0.
        5    1    3    3  502    0 -0.35390863853E+03 -0.12950118969E+04  0.11207223713E+04  0.17488132722E+04  0.46999998093E+01 0.  1.
       -5    1    3    3    0  502  0.35390863853E+03  0.12950118969E+04 -0.47619353267E+02  0.13433528317E+04  0.46999998093E+01 0. -1.
</event>
<event>
 5   0  0.2534588E-07  0.2898815E+04  0.7818609E-02  0.8273230E-01
        2   -1    0    0  501    0  0.00000000000E+00  0.00000000000E+00  0.21404377071E+04  0.21404377071E+04  0.25500000920E-02 0.  1.
       -2   -1    0    0    0  501  0.00000000000E+00  0.00000000000E+00 -0.98147335572E+03  0.98147335572E+03  0.25500000920E-02 0. -1.
    10030    2    1    2    0    0  0.00000000000E+00  0.00000000000E+00  0.11589643514E+04  0.31219110629E+04  0.28988153299E+04 0.  0.
        3    1    3    3  502    0  0.51302415444E+02 -0.56546837749E+03 -0.85671553961E+03  0.10277878914E+04  0.10100000352E+00 0. -1.
       -3    1    3    3    0  502 -0.51302415444E+02  0.56546837749E+03  0.20156798910E+04  0.20941231714E+04  0.10100000352E+00 0.  1.
</event>
<event>
 5   0  0.9443352E-08  0.2900147E+04  0.7818609E-02  0.8272834E-01
       -1   -1    0    0    0  501  0.00000000000E+00  0.00000000000E+00  0.10321369016E+04  0.10321369016E+04  0.50400001928E-02 0.  1.
        1   -1    0    0  501    0  0.00000000000E+00  0.00000000000E+00 -0.20372421504E+04  0.20372421504E+04  0.50400001928E-02 0. -1.
    10030    2    1    2    0    0  0.00000000000E+00  0.00000000000E+00 -0.10051052488E+04  0.30693790520E+04  0.29001467556E+04 0.  0.
        4    1    3    3  502    0  0.14720970997E+03  0.96372399692E+03  0.63352736693E+03  0.11626664089E+04  0.12699999809E+01 0.  1.
       -4    1    3    3    0  502 -0.14720970997E+03 -0.96372399692E+03 -0.16386326158E+04  0.19067126431E+04  0.12699999809E+01 0. -1.
</event>
<event>
 5   0  0.9421924E-08  0.2899989E+04  0.7818609E-02  0.8272881E-01
       -1   -1    0    0    0  501  0.00000000000E+00  0.00000000000E+00  0.21029999497E+04  0.21029999497E+04  0.50400001928E-02 0.  1.
        1   -1    0    0  501    0  0.00000000000E+00  0.00000000000E+00 -0.99975462658E+03  0.99975462660E+03  0.50400001928E-02 0. -1.
    10030    2    1    2    0    0  0.00000000000E+00  0.00000000000E+00  0.11032453231E+04  0.31027545763E+04  0.28999889169E+04 0.  0.
        1    1    3    3  502    0 -0.94876361493E+03  0.10445726118E+04  0.90840445316E+03  0.16782380608E+04  0.50400001928E-02 0.  1.
       -1    1    3    3    0  502  0.94876361493E+03 -0.10445726118E+04  0.19484086997E+03  0.14245165155E+04  0.50400001928E-02 0. -1.
</event>
<event>
 5   0  0.9763851E-08  0.2900362E+04  0.7818609E-02  0.8272770E-01
        1   -1    0    0  501    0  0.00000000000E+00  0.00000000000E+00  0.21357845235E+04  0.21357845236E+04  0.50400001928E-02 0. -1.
       -1   -1    0    0    0  501  0.00000000000E+00  0.00000000000E+00 -0.98466190291E+03  0.98466190292E+03  0.50400001928E-02 0.  1.
    10030    2    1    2    0    0  0.00000000000E+00  0.00000000000E+00  0.11511226206E+04  0.31204464265E+04  0.29003624968E+04 0.  0.
        3    1    3    3  502    0  0.98373800798E+03 -0.43898515336E+03  0.16200961194E+04  0.19455487348E+04  0.10100000352E+00 0. -1.
       -3    1    3    3    0  502 -0.98373800798E+03  0.43898515336E+03 -0.46897349874E+03  0.11748976917E+04  0.10100000352E+00 0.  1.
</event>
<event>
 5   0  0.2492232E-07  0.2900131E+04  0.7818609E-02  0.8272839E-01
        2   -1    0    0  501    0  0.00000000000E+00  0.00000000000E+00  0.13791053450E+04  0.13791053450E+04  0.25500000920E-02 0. -1.
       -2   -1    0    0    0  501  0.00000000000E+00  0.00000000000E+00 -0.15246764331E+04  0.15246764331E+04  0.25500000920E-02 0.  1.
    10030    2    1    2    0    0  0.00000000000E+00  0.00000000000E+00 -0.14557108813E+03  0.29037817781E+04  0.29001306303E+04 0.  0.
        4    1    3    3  502    0 -0.74864993456E+02  0.51167840128E+03  0.12836407231E+04  0.13838911346E+04  0.12699999809E+01 0. -1.
       -4    1    3    3    0  502  0.74864993456E+02 -0.51167840128E+03 -0.14292118113E+04  0.15198906434E+04  0.12699999809E+01 0.  1.
</event>
<event>
 5   0  0.2492232E-07  0.2899070E+04  0.7818609E-02  0.8273154E-01
       -2   -1    0    0    0  501  0.00000000000E+00  0.00000000000E+00  0.16306812604E+04  0.16306812604E+04  0.25500000920E-02 0.  1.
        2   -1    0    0  501    0  0.00000000000E+00  0.00000000000E+00 -0.12885118824E+04  0.12885118824E+04  0.25500000920E-02 0. -1.
    10030    2    1    2    0    0  0.00000000000E+00  0.00000000000E+00  0.34216937808E+03  0.29191931428E+04  0.28990703202E+04 0.  0.
        4    1    3    3  502    0 -0.54078857000E+03  0.13414426237E+04  0.26782431427E+03  0.14709357791E+04  0.12699999809E+01 0. -1.
       -4    1    3    3    0  502  0.54078857000E+03 -0.13414426237E+04  0.74345063817E+02  0.14482573637E+04  0.12699999809E+01 0.  1.
</event>
<event>
 5   0  0.9395744E-08  0.2900983E+04  0.7818609E-02  0.8272585E-01
        1   -1    0    0  501    0  0.00000000000E+00  0.00000000000E+00  0.22713469823E+04  0.22713469823E+04  0.50400001928E-02 0. -1.
       -1   -1    0    0    0  501  0.00000000000E+00  0.00000000000E+00 -0.92628994558E+03  0.92628994560E+03  0.50400001928E-02 0.  1.
    10030    2    1    2    0    0  0.00000000000E+00  0.00000000000E+00  0.13450570367E+04  0.31976369279E+04  0.29009831938E+04 0.  0.
        2    1    3    3  502    0  0.50075964802E+03  0.32768866423E+03 -0.78386727087E+03  0.98619875486E+03  0.25500000920E-02 0.  1.
       -2    1    3    3    0  502 -0.50075964802E+03 -0.32768866423E+03  0.21289243076E+04  0.22114381730E+04  0.25500000920E-02 0. -1.
</event>
<event>
 5   0  0.9388076E-08  0.2901937E+04  0.7818609E-02  0.8272301E-01
       -1   -1    0    0    0  501  0.00000000000E+00  0.00000000000E+00  0.20729538195E+04  0.20729538195E+04  0.50400001928E-02 0. -1.
        1   -1    0    0  501    0  0.00000000000E+00  0.00000000000E+00 -0.10156088423E+04  0.10156088423E+04  0.50400001928E-02 0.  1.
    10030    2    1    2    0    0  0.00000000000E+00  0.00000000000E+00  0.10573449772E+04  0.30885626618E+04  0.29019374416E+04 0.  0.
        5    1    3    3  502    0  0.14219917137E+04 -0.28736497207E+03  0.55578793641E+03  0.15535640898E+04  0.46999998093E+01 0. -1.
       -5    1    3    3    0  502 -0.14219917137E+04  0.28736497207E+03  0.50155704077E+03  0.15349985720E+04  0.46999998093E+01 0.  1.
</event>
<event>
 5   0  0.9388076E-08  0.2900319E+04  0.7818609E-02  0.8272782E-01
       -1   -1    0    0    0  501  0.00000000000E+00  0.00000000000E+00  0.94893985596E+03  0.94893985598E+03  0.50400001928E-02 0.  1.
        1   -1    0    0  501    0  0.00000000000E+00  0.00000000000E+00 -0.22161182588E+04  0.22161182588E+04  0.50400001928E-02 0. -1.
    10030    2    1    2    0    0  0.00000000000E+00  0.00000000000E+00 -0.12671784028E+04  0.31650581148E+04  0.29003192523E+04 0.  0.
        5    1    3    3  502    0 -0.22736039217E+03 -0.13485434484E+04 -0.10719127407E+03  0.13717777661E+04  0.46999998093E+01 0.  1.
       -5    1    3    3    0  502  0.22736039217E+03  0.13485434484E+04 -0.11599871287E+04  0.17932803487E+04  0.46999998093E+01 0. -1.
</event>
<event>
 5   0  0.2608591E-07  0.2899971E+04  0.7818609E-02  0.8272886E-01
        2   -1    0    0  501    0  0.00000000000E+00  0.00000000000E+00  0.19977847466E+04  0.19977847466E+04  0.25500000920E-02 0.  1.
       -2   -1    0    0    0  501  0.00000000000E+00  0.00000000000E+00 -0.10523943254E+04  0.10523943254E+04  0.25500000920E-02 0. -1.
    10030    2    1    2    0    0  0.00000000000E+00  0.00000000000E+00  0.94539042129E+03  0.30501790720E+04  0.28999705727E+04 0.  0.
        2    1    3    3  502    0  0.65074029725E+03  0.85703738813E+03  0.14948776848E+04  0.18419107773E+04  0.25500000920E-02 0.  1.
       -2    1    3    3    0  502 -0.65074029725E+03 -0.85703738813E+03 -0.54948726353E+03  0.12082682947E+04  0.25500000920E-02 0. -1.
</event>
<event>
 5   0  0.2534588E-07  0.2899873E+04  0.7818609E-02  0.8272915E-01
       -2   -1    0    0    0  501  0.00000000000E+00  0.00000000000E+00  0.11860735511E+04  0.11860735511E+04  0.25500000920E-02 0.  1.
        2   -1    0    0  501    0  0.00000000000E+00  0.00000000000E+00 -0.17725000923E+04  0.17725000923E+04  0.25500000920E-02 0. -1.
    10030    2    1    2    0    0  0.00000000000E+00  0.00000000000E+00 -0.58642654118E+03  0.29585736434E+04  0.28998727413E+04 0.  0.
        3    1    3    3  502    0  0.37081669936E+03  0.17365202039E+03 -0.17122879682E+04  0.17605652913E+04  0.10100000352E+00 0. -1.
       -3    1    3    3    0  502 -0.37081669936E+03 -0.17365202039E+03  0.11258614270E+04  0.11980083521E+04  0.10100000352E+00 0.  1.
</event>
<event>
 5   0  0.2546841E-07  0.2903410E+04  0.7818609E-02  0.8271864E-01
        2   -1    0    0  501    0  0.00000000000E+00  0.00000000000E+00  0.21160778324E+04  0.21160778324E+04  0.25500000920E-02 0.  1.
       -2   -1    0    0    0  501  0.00000000000E+00  0.00000000000E+00 -0.99592121675E+03  0.99592121676E+03  0.25500000920E-02 0. -1.
    10030    2    1    2    0    0  0.00000000000E+00  0.00000000000E+00  0.11201566157E+04  0.31119990492E+04  0.29034095885E+04 0.  0.
        1    1    3    3  502    0  0.12148876813E+04  0.67829814216E+02  0.14087274035E+04  0.18614687371E+04  0.50400001928E-02 0.  1.
       -1    1    3    3    0  502 -0.12148876813E+04 -0.67829814216E+02 -0.28857078785E+03  0.12505303121E+04  0.50400001928E-02 0. -1.
</event>
<event>
 5   0  0.2608591E-07  0.2899540E+04  0.7818609E-02  0.8273014E-01
       -2   -1    0    0    0  501  0.00000000000E+00  0.00000000000E+00  0.11939203714E+04  0.11939203714E+04  0.25500000920E-02 0.  1.
        2   -1    0    0  501    0  0.00000000000E+00  0.00000000000E+00 -0.17604465685E+04  0.17604465685E+04  0.25500000920E-02 0. -1.
    10030    2    1    2    0    0  0.00000000000E+00  0.00000000000E+00 -0.56652619709E+03  0.29543669399E+04  0.28995399780E+04 0.  0.
        2    1    3    3  502    0 -0.50194762401E+03 -0.11944057247E+04  0.37963602935E+03  0.13500666529E+04  0.25500000920E-02 0.  1.
       -2    1    3    3    0  502  0.50194762401E+03  0.11944057247E+04 -0.94616222644E+03  0.16043002871E+04  0.25500000920E-02 0. -1.
</event>
<event>
 5   0  0.2534588E-07  0.2901283E+04  0.7818609E-02  0.8272496E-01
       -2   -1    0    0    0  501  0.00000000000E+00  0.00000000000E+00  0.13520009927E+04  0.13520009927E+04  0.25500000920E-02 0.  1.
        2   -1    0    0  501    0  0.00000000000E+00  0.00000000000E+00 -0.15564787815E+04  0.15564787815E+04  0.25500000920E-02 0. -1.
    10030    2    1    2    0    0  0.00000000000E+00  0.00000000000E+00 -0.20447778885E+03  0.29084797742E+04  0.29012830663E+04 0.  0.
        3    1    3    3  502    0 -0.11000198321E+04 -0.87012271447E+03 -0.47356785510E+03  0.14803458018E+04  0.10100000352E+00 0. -1.
       -3    1    3    3    0  502  0.11000198321E+04  0.87012271447E+03  0.26909006626E+03  0.14281339724E+04  0.10100000352E+00 0.  1.
</event>
<event>
 5   0  0.9388076E-08  0.2899588E+04  0.7818609E-02  0.8273000E-01
       -1   -1    0    0    0  501  0.00000000000E+00  0.00000000000E+00  0.13827674136E+04  0.13827674136E+04  0.50400001928E-02 0.  1.
        1   -1    0    0  501    0  0.00000000000E+00  0.00000000000E+00 -0.15200693518E+04  0.15200693518E+04  0.50400001928E-02 0. -1.
    10030    2    1    2    0    0  0.00000000000E+00  0.00000000000E+00 -0.13730193819E+03  0.29028367654E+04  0.28995878094E+04 0.  0.
        5    1    3    3  502    0  0.87563480724E+03 -0.97399064947E+02  0.10840110871E+04  0.13968983573E+04  0.46999998093E+01 0.  1.
       -5    1    3    3    0  502 -0.87563480724E+03  0.97399064947E+02 -0.12213130253E+04  0.15059384082E+04  0.46999998093E+01 0. -1.
</event>
<event>
 5   0  0.2678723E-07  0.2896855E+04  0.7818609E-02  0.8273814E-01
       -2   -1    0    0    0  501  0.00000000000E+00  0.00000000000E+00  0.18454923144E+04  0.18454923144E+04  0.25500000920E-02 0. -1.
        2   -1    0    0  501    0  0.00000000000E+00  0.00000000000E+00 -0.11367924950E+04  0.11367924951E+04  0.25500000920E-02 0.  1.
    10030    2    1    2    0    0  0.00000000000E+00  0.00000000000E+00  0.70869981937E+03  0.29822848095E+04  0.28968547169E+04 0.  0.
        5    1    3    3  502    0 -0.63983078495E+03 -0.19718271131E+03 -0.96791660670E+03  0.11769235755E+04  0.46999998093E+01 0.  1.
       -5    1    3    3    0  502  0.63983078495E+03  0.19718271131E+03  0.16766164261E+04  0.18053612340E+04  0.46999998093E+01 0. -1.
</event>
<event>
 5   0  0.9388076E-08  0.2899866E+04  0.7818609E-02  0.8272917E-01
       -1   -1    0    0    0  501  0.00000000000E+00  0.00000000000E+00  0.91951372699E+03  0.91951372700E+03  0.50400001928E-02 0. -1.
        1   -1    0    0  501    0  0.00000000000E+00  0.00000000000E+00 -0.22863231836E+04  0.22863231836E+04  0.50400001928E-02 0.  1.
    10030    2    1    2    0    0  0.00000000000E+00  0.00000000000E+00 -0.13668094566E+04  0.32058369106E+04  0.28998658946E+04 0.  0.
        5    1    3    3  502    0 -0.55611563712E+03 -0.10105499422E+04  0.28781625521E+03  0.11888381194E+04  0.46999998093E+01 0.  1.
       -5    1    3    3    0  502  0.55611563712E+03  0.10105499422E+04 -0.16546257118E+04  0.20169987912E+04  0.46999998093E+01 0. -1.
</event>
<event>
 5   0  0.9763851E-08  0.2900098E+04  0.7818609E-02  0.8272848E-01
       -1   -1    0    0    0  501  0.00000000000E+00  0.00000000000E+00  0.16880048223E+04  0.16880048224E+04  0.50400001928E-02 0.  1.
        1   -1    0    0  501    0  0.00000000000E+00  0.00000000000E+00 -0.12456376499E+04  0.12456376499E+04  0.50400001928E-02 0. -1.
    10030    2    1    2    0    0  0.00000000000E+00  0.00000000000E+00  0.44236717247E+03  0.29336424722E+04  0.29000981776E+04 0.  0.
        3    1    3    3  502    0  0.10450365259E+03  0.14301685536E+04  0.43893899928E+03  0.14996568142E+04  0.10100000352E+00 0. -1.
       -3    1    3    3    0  502 -0.10450365259E+03 -0.14301685536E+04  0.34281731877E+01  0.14339856581E+04  0.10100000352E+00 0.  1.
</event>
<event>
 5   0  0.2534588E-07  0.2900512E+04  0.7818609E-02  0.8272725E-01
        2   -1    0    0  501    0  0.00000000000E+00  0.00000000000E+00  0.16717991107E+04  0.16717991107E+04  0.25500000920E-02 0.  1.
       -2   -1    0    0    0  501  0.00000000000E+00  0.00000000000E+00 -0.12580712679E+04  0.12580712679E+04  0.25500000920E-02 0. -1.
    10030    2    1    2    0    0  0.00000000000E+00  0.00000000000E+00  0.41372784281E+03  0.29298703787E+04  0.29005119734E+04 0.  0.
        3    1    3    3  502    0  0.95505195004E+03  0.83827009941E+03 -0.49908145768E+03  0.13652484384E+04  0.10100000352E+00 0. -1.
       -3    1    3    3    0  502 -0.95505195004E+03 -0.83827009941E+03  0.91280930049E+03  0.15646219403E+04  0.10100000352E+00 0.  1.
</event>
<event>
 5   0  0.9421924E-08  0.2899770E+04  0.7818609E-02  0.8272946E-01
       -1   -1    0    0    0  501  0.00000000000E+00  0.00000000000E+00  0.92571461604E+03  0.92571461605E+03  0.50400001928E-02 0.  1.
        1   -1    0    0  501    0  0.00000000000E+00  0.00000000000E+00 -0.22708584010E+04  0.22708584010E+04  0.50400001928E-02 0. -1.
    10030    2    1    2    0    0  0.00000000000E+00  0.00000000000E+00 -0.13451437850E+04  0.31965730171E+04  0.28997702066E+04 0.  0.
        1    1    3    3  502    0 -0.27490412204E+03 -0.12560444786E+04 -0.14111875129E+04  0.19091019368E+04  0.50400001928E-02 0. -1.
       -1    1    3    3    0  502  0.27490412204E+03  0.12560444786E+04  0.66043727912E+02  0.12874710803E+04  0.50400001928E-02 0.  1.
</event>
<event>
 5   0  0.9763851E-08  0.2906047E+04  0.7818609E-02  0.8271081E-01
        1   -1    0    0  501    0  0.00000000000E+00  0.00000000000E+00  0.19418954614E+04  0.19418954614E+04  0.50400001928E-02 0. -1.
       -1   -1    0    0    0  501  0.00000000000E+00  0.00000000000E+00 -0.10872250075E+04  0.10872250075E+04  0.50400001928E-02 0.  1.
    10030    2    1    2    0    0  0.00000000000E+00  0.00000000000E+00  0.85467045387E+03  0.30291204689E+04  0.29060470110E+04 0.  0.
        3    1    3    3  502    0  0.38158594807E+03 -0.37025143753E+03  0.18368553769E+04  0.19122582589E+04  0.10100000352E+00 0. -1.
       -3    1    3    3    0  502 -0.38158594807E+03  0.37025143753E+03 -0.98218492306E+03  0.11168622100E+04  0.10100000352E+00 0.  1.
</event>
<event>
 5   0  0.9443352E-08  0.2900189E+04  0.7818609E-02  0.8272821E-01
       -1   -1    0    0    0  501  0.00000000000E+00  0.00000000000E+00  0.82360414843E+03  0.82360414845E+03  0.50400001928E-02 0. -1.
        1   -1    0    0  501    0  0.00000000000E+00  0.00000000000E+00 -0.25531368584E+04  0.25531368584E+04  0.50400001928E-02 0.  1.
    10030    2    1    2    0    0  0.00000000000E+00  0.00000000000E+00 -0.17295327099E+04  0.33767410068E+04  0.29001890339E+04 0.  0.
        4    1    3    3  502    0 -0.75519271886E+03  0.10265223318E+04 -0.59189556661E+02  0.12757621866E+04  0.12699999809E+01 0. -1.
       -4    1    3    3    0  502  0.75519271886E+03 -0.10265223318E+04 -0.16703431533E+04  0.21009788202E+04  0.12699999809E+01 0.  1.
</event>
<event>
 5   0  0.9388076E-08  0.2904405E+04  0.7818609E-02  0.8271568E-01
       -1   -1    0    0    0  501  0.00000000000E+00  0.00000000000E+00  0.97255477595E+03  0.97255477596E+03  0.50400001928E-02 0.  1.
        1   -1    0    0  501    0  0.00000000000E+00  0.00000000000E+00 -0.21684037379E+04  0.21684037379E+04  0.50400001928E-02 0. -1.
    10030    2    1    2    0    0  0.00000000000E+00  0.00000000000E+00 -0.11958489619E+04  0.31409585138E+04  0.29044045252E+04 0.  0.
        5    1    3    3  502    0 -0.67293356987E+03 -0.45323249234E+03  0.70458362567E+03  0.10745787347E+04  0.46999998093E+01 0.  1.
       -5    1    3    3    0  502  0.67293356987E+03  0.45323249234E+03 -0.19004325876E+04  0.20663797791E+04  0.46999998093E+01 0. -1.
</event>
<event>
 5   0  0.2492232E-07  0.2896215E+04  0.7818609E-02  0.8274004E-01
       -2   -1    0    0    0  501  0.00000000000E+00  0.00000000000E+00  0.13556879523E+04  0.13556879523E+04  0.25500000920E-02 0.  1.
        2   -1    0    0  501    0  0.00000000000E+00  0.00000000000E+00 -0.15468275678E+04  0.15468275678E+04  0.25500000920E-02 0. -1.
    10030    2    1    2    0    0  0.00000000000E+00  0.00000000000E+00 -0.19113961544E+03  0.29025155201E+04  0.28962151149E+04 0.  0.
        4    1    3    3  502    0  0.96571001838E+03  0.98276135621E+03 -0.54218279458E+03  0.14806686052E+04  0.12699999809E+01 0. -1.
       -4    1    3    3    0  502 -0.96571001838E+03 -0.98276135621E+03  0.35104317914E+03  0.14218469149E+04  0.12699999809E+01 0.  1.
</event>
<event>
 5   0  0.2546841E-07  0.2898526E+04  0.7818609E-02  0.8273316E-01
       -2   -1    0    0    0  501  0.00000000000E+00  0.00000000000E+00  0.15930778833E+04  0.15930778833E+04  0.25500000920E-02 0. -1.
        2   -1    0    0  501    0  0.00000000000E+00  0.00000000000E+00 -0.13184307259E+04  0.13184307259E+04  0.25500000920E-02 0.  1.
    10030    2    1    2    0    0  0.00000000000E+00  0.00000000000E+00  0.27464715740E+03  0.29115086091E+04  0.28985257149E+04 0.  0.
        1    1    3    3  502    0  0.56400259418E+03  0.40195753054E+03 -0.11414434778E+04  0.13351262096E+04  0.50400001928E-02 0.  1.
       -1    1    3    3    0  502 -0.56400259418E+03 -0.40195753054E+03  0.14160906352E+04  0.15763823995E+04  0.50400001928E-02 0. -1.
</event>
<event>
 5   0  0.9443352E-08  0.2897454E+04  0.7818609E-02  0.8273635E-01
        1   -1    0    0  501    0  0.00000000000E+00  0.00000000000E+00  0.14772956806E+04  0.14772956806E+04  0.50400001928E-02 0. -1.
       -1   -1    0    0    0  501  0.00000000000E+00  0.00000000000E+00 -0.14207110535E+04  0.14207110535E+04  0.50400001928E-02 0.  1.
    10030    2    1    2    0    0  0.00000000000E+00  0.00000000000E+00  0.56584627098E+02  0.28980067342E+04  0.28974542639E+04 0.  0.
        4    1    3    3  502    0 -0.65504649056E+03 -0.14825795657E+03 -0.12555966177E+04  0.14239349725E+04  0.12699999809E+01 0.  1.
       -4    1    3    3    0  502  0.65504649056E+03  0.14825795657E+03  0.13121812448E+04  0.14740717617E+04  0.12699999809E+01 0. -1.
</event>
<event>
 5   0  0.2608591E-07  0.2902670E+04  0.7818609E-02  0.8272083E-01
       -2   -1    0    0    0  501  0.00000000000E+00  0.00000000000E+00  0.16490787651E+04  0.16490787651E+04  0.25500000920E-02 0.  1.
        2   -1    0    0  501    0  0.00000000000E+00  0.00000000000E+00 -0.12773033918E+04  0.12773033918E+04  0.25500000920E-02 0. -1.
    10030    2    1    2    0    0  0.00000000000E+00  0.00000000000E+00  0.37177537327E+03  0.29263821569E+04  0.29026704256E+04 0.  0.
        2    1    3    3  502    0 -0.29234290812E+03 -0.79425517584E+03 -0.10027551362E+04  0.13121827325E+04  0.25500000920E-02 0. -1.
       -2    1    3    3    0  502  0.29234290812E+03  0.79425517584E+03  0.13745305094E+04  0.16141994244E+04  0.25500000920E-02 0.  1.
</event>
<event>
 5   0  0.9388076E-08  0.2903589E+04  0.7818609E-02  0.8271810E-01
       -1   -1    0    0    0  501  0.00000000000E+00  0.00000000000E+00  0.11407421514E+04  0.11407421514E+04  0.50400001928E-02 0.  1.
        1   -1    0    0  501    0  0.00000000000E+00  0.00000000000E+00 -0.18476633310E+04  0.18476633310E+04  0.50400001928E-02 0. -1.
    10030    2    1    2    0    0  0.00000000000E+00  0.00000000000E+00 -0.70692117961E+03  0.29884054824E+04  0.29035891192E+04 0.  0.
        5    1    3    3  502    0  0.14000519156E+04 -0.23616958408E+02  0.41120960223E+02  0.14008626451E+04  0.46999998093E+01 0.  1.
       -5    1    3    3    0  502 -0.14000519156E+04  0.23616958408E+02 -0.74804213983E+03  0.15875428373E+04  0.46999998093E+01 0. -1.
</event>
<event>
 5   0  0.2608591E-07  0.2898872E+04  0.7818609E-02  0.8273213E-01
       -2   -1    0    0    0  501  0.00000000000E+00  0.00000000000E+00  0.15812396697E+04  0.15812396697E+04  0.25500000920E-02 0. -1.
        2   -1    0    0  501    0  0.00000000000E+00  0.00000000000E+00 -0.13286191192E+04  0.13286191192E+04  0.25500000920E-02 0.  1.
    10030    2    1    2    0    0  0.00000000000E+00  0.00000000000E+00  0.25262055050E+03  0.29098587889E+04  0.28988723720E+04 0.  0.
        2    1    3    3  502    0 -0.11014286423E+04  0.66211657428E+03  0.79916543256E+03  0.15133435831E+04  0.25500000920E-02 0. -1.
       -2    1    3    3    0  502  0.11014286423E+04 -0.66211657428E+03 -0.54654488206E+03  0.13965152058E+04  0.25500000920E-02 0.  1.
</event>
<event>
 5   0  0.9443352E-08  0.2903087E+04  0.7818609E-02  0.8271960E-01
        1   -1    0    0  501    0  0.00000000000E+00  0.00000000000E+00  0.16238048012E+04  0.16238048012E+04  0.50400001928E-02 0. -1.
       -1   -1    0    0    0  501  0.00000000000E+00  0.00000000000E+00 -0.12975562692E+04  0.12975562692E+04  0.50400001928E-02 0.  1.
    10030    2    1    2    0    0  0.00000000000E+00  0.00000000000E+00  0.32624853205E+03  0.29213610704E+04  0.29030867019E+04 0.  0.
        4    1    3    3  502    0  0.10004465826E+04  0.10391061983E+04  0.32644634994E+03  0.14789198383E+04  0.12699999809E+01 0. -1.
       -4    1    3    3    0  502 -0.10004465826E+04 -0.10391061983E+04 -0.19781789495E+00  0.14424412321E+04  0.12699999809E+01 0.  1.
</event>
<event>
 5   0  0.9443352E-08  0.2902069E+04  0.7818609E-02  0.8272262E-01
        1   -1    0    0  501    0  0.00000000000E+00  0.00000000000E+00  0.16437628972E+04  0.16437628972E+04  0.50400001928E-02 0.  1.
       -1   -1    0    0    0  501  0.00000000000E+00  0.00000000000E+00 -0.12809027529E+04  0.12809027529E+04  0.50400001928E-02 0. -1.
    10030    2    1    2    0    0  0.00000000000E+00  0.00000000000E+00  0.36286014429E+03  0.29246656501E+04  0.29020685175E+04 0.  0.
        4    1    3    3  502    0 -0.12927700374E+04 -0.20802669182E+03  0.81157422273E+03  0.15405141369E+04  0.12699999809E+01 0.  1.
       -4    1    3    3    0  502  0.12927700374E+04  0.20802669182E+03 -0.44871407844E+03  0.13841515131E+04  0.12699999809E+01 0. -1.
</event>
<event>
 5   0  0.9443352E-08  0.2895929E+04  0.7818609E-02  0.8274090E-01
        1   -1    0    0  501    0  0.00000000000E+00  0.00000000000E+00  0.17087333942E+04  0.17087333942E+04  0.50400001928E-02 0.  1.
       -1   -1    0    0    0  501  0.00000000000E+00  0.00000000000E+00 -0.12269918021E+04  0.12269918021E+04  0.50400001928E-02 0. -1.
    10030    2    1    2    0    0  0.00000000000E+00  0.00000000000E+00  0.48174159202E+03  0.29357251963E+04  0.28959294651E+04 0.  0.
        4    1    3    3  502    0 -0.83968520291E+03 -0.11565689222E+04  0.55661501879E+01  0.14292499804E+04  0.12699999809E+01 0. -1.
       -4    1    3    3    0  502  0.83968520291E+03  0.11565689222E+04  0.47617544183E+03  0.15064752159E+04  0.12699999809E+01 0.  1.
</event>
<event>
 5   0  0.2492232E-07  0.2900618E+04  0.7818609E-02  0.8272694E-01
       -2   -1    0    0    0  501  0.00000000000E+00  0.00000000000E+00  0.14267531474E+04  0.14267531475E+04  0.25500000920E-02 0. -1.
        2   -1    0    0  501    0  0.00000000000E+00  0.00000000000E+00 -0.14742533984E+04  0.14742533984E+04  0.25500000920E-02 0.  1.
    10030    2    1    2    0    0  0.00000000000E+00  0.00000000000E+00 -0.47500250971E+02  0.29010065459E+04  0.29006176420E+04 0.  0.
        4    1    3    3  502    0  0.12185310510E+04  0.78215190095E+03 -0.10631145116E+03  0.14518551085E+04  0.12699999809E+01 0. -1.
       -4    1    3    3    0  502 -0.12185310510E+04 -0.78215190095E+03  0.58811200194E+02  0.14491514374E+04  0.12699999809E+01 0.  1.
</event>
<event>
 5   0  0.8407500E-08  0.2899270E+04  0.7818609E-02  0.8273095E-01
        3   -1    0    0  501    0  0.00000000000E+00  0.00000000000E+00  0.12325540749E+04  0.12325540790E+04  0.10100000352E+00 0. -1.
       -3   -1    0    0    0  501  0.00000000000E+00  0.00000000000E+00 -0.17049493795E+04  0.17049493825E+04  0.10100000352E+00 0.  1.
    10030    2    1    2    0    0  0.00000000000E+00  0.00000000000E+00 -0.47239530457E+03  0.29375034615E+04  0.28992704708E+04 0.  0.
        3    1    3    3  502    0  0.89430614723E+02  0.13105487112E+04  0.38499970457E+03  0.13688537329E+04  0.10100000352E+00 0. -1.
       -3    1    3    3    0  502 -0.89430614723E+02 -0.13105487112E+04 -0.85739500915E+03  0.15686497286E+04  0.10100000352E+00 0.  1.
</event>
<event>
 5   0  0.2678723E-07  0.2906428E+04  0.7818609E-02  0.8270967E-01
       -2   -1    0    0    0  501  0.00000000000E+00  0.00000000000E+00  0.13637039139E+04  0.13637039139E+04  0.25500000920E-02 0.  1.
        2   -1    0    0  501    0  0.00000000000E+00  0.00000000000E+00 -0.15485997698E+04  0.15485997698E+04  0.25500000920E-02 0. -1.
    10030    2    1    2    0    0  0.00000000000E+00  0.00000000000E+00 -0.18489585591E+03  0.29123036837E+04  0.29064284386E+04 0.  0.
        5    1    3    3  502    0  0.14284329067E+04 -0.21140636486E+03 -0.25616810788E+03  0.14665460816E+04  0.46999998093E+01 0.  1.
       -5    1    3    3    0  502 -0.14284329067E+04  0.21140636486E+03  0.71272251974E+02  0.14457576021E+04  0.46999998093E+01 0. -1.
</event>
<event>
 5   0  0.2678723E-07  0.2900470E+04  0.7818609E-02  0.8272738E-01
        2   -1    0    0  501    0  0.00000000000E+00  0.00000000000E+00  0.22087715133E+04  0.22087715133E+04  0.25500000920E-02 0.  1.
       -2   -1    0    0    0  501  0.00000000000E+00  0.00000000000E+00 -0.95219526398E+03  0.95219526398E+03  0.25500000920E-02 0. -1.
    10030    2    1    2    0    0  0.00000000000E+00  0.00000000000E+00  0.12565762493E+04  0.31609667773E+04  0.29004701510E+04 0.  0.
        5    1    3    3  502    0 -0.97095300700E+03 -0.47934473044E+03  0.16796253818E+04  0.19984205327E+04  0.46999998093E+01 0.  1.
       -5    1    3    3    0  502  0.97095300700E+03  0.47934473044E+03 -0.42304913243E+03  0.11625462446E+04  0.46999998093E+01 0. -1.
</event>
<event>
 5   0  0.2492232E-07  0.2897889E+04  0.7818609E-02  0.8273506E-01
       -2   -1    0    0    0  501  0.00000000000E+00  0.00000000000E+00  0.77898362444E+03  0.77898362444E+03  0.25500000920E-02 0.  1.
        2   -1    0    0  501    0  0.00000000000E+00  0.00000000000E+00 -0.26951011508E+04  0.26951011508E+04  0.25500000920E-02 0. -1.
    10030    2    1    2    0    0  0.00000000000E+00  0.00000000000E+00 -0.19161175263E+04  0.34740847752E+04  0.28978886539E+04 0.  0.
        4    1    3    3  502    0  0.80651550589E+03  0.11780086433E+04 -0.12547945912E+04  0.19007058436E+04  0.12699999809E+01 0. -1.
       -4    1    3    3    0  502 -0.80651550589E+03 -0.11780086433E+04 -0.66132293510E+03  0.15733789316E+04  0.12699999809E+01 0.  1.
</event>
<event>
 5   0  0.9443352E-08  0.2899482E+04  0.7818609E-02  0.8273032E-01
       -1   -1    0    0    0  501  0.00000000000E+00  0.00000000000E+00  0.15577790664E+04  0.15577790664E+04  0.50400001928E-02 0. -1.
        1   -1    0    0  501    0  0.00000000000E+00  0.00000000000E+00 -0.13491957290E+04  0.13491957290E+04  0.50400001928E-02 0.  1.
    10030    2    1    2    0    0  0.00000000000E+00  0.00000000000E+00  0.20858333734E+03  0.29069747954E+04  0.28994819283E+04 0.  0.
        4    1    3    3  502    0 -0.37465043957E+03 -0.11238714280E+04 -0.73350966062E+03  0.13933728767E+04  0.12699999809E+01 0. -1.
       -4    1    3    3    0  502  0.37465043957E+03  0.11238714280E+04  0.94209299796E+03  0.15136019187E+04  0.12699999809E+01 0.  1.
</event>
<event>
 5   0  0.9395744E-08  0.2901241E+04  0.7818609E-02  0.8272508E-01
       -1   -1    0    0    0  501  0.00000000000E+00  0.00000000000E+00  0.10481192984E+04  0.10481192984E+04  0.50400001928E-02 0. -1.
        1   -1    0    0  501    0  0.00000000000E+00  0.00000000000E+00 -0.20076917883E+04  0.20076917883E+04  0.50400001928E-02 0.  1.
    10030    2    1    2    0    0  0.00000000000E+00  0.00000000000E+00 -0.95957248990E+03  0.30558110868E+04  0.29012414644E+04 0.  0.
        2    1    3    3  502    0 -0.84303595998E+03  0.60025327372E+02  0.76200366522E+03  0.11379640836E+04  0.25500000920E-02 0. -1.
       -2    1    3    3    0  502  0.84303595998E+03 -0.60025327372E+02 -0.17215761551E+04  0.19178470032E+04  0.25500000920E-02 0.  1.
</event>
<event>
 5   0  0.2608591E-07  0.2899492E+04  0.7818609E-02  0.8273029E-01
        2   -1    0    0  501    0  0.00000000000E+00  0.00000000000E+00  0.12856762879E+04  0.12856762879E+04  0.25500000920E-02 0. -1.
       -2   -1    0    0    0  501  0.00000000000E+00  0.00000000000E+00 -0.16347532798E+04  0.16347532798E+04  0.25500000920E-02 0.  1.
    10030    2    1    2    0    0  0.00000000000E+00  0.00000000000E+00 -0.34907699188E+03  0.29204295677E+04  0.28994920441E+04 0.  0.
        2    1    3    3  502    0 -0.14235784013E+04 -0.16042315517E+03  0.49446450552E+02  0.14334420131E+04  0.25500000920E-02 0. -1.
       -2    1    3    3    0  502  0.14235784013E+04  0.16042315517E+03 -0.39852344243E+03  0.14869875546E+04  0.25500000920E-02 0.  1.
</event>
<event>
 5   0  0.9395744E-08  0.2895054E+04  0.7818609E-02  0.8274351E-01
        1   -1    0    0  501    0  0.00000000000E+00  0.00000000000E+00  0.83669450321E+03  0.83669450323E+03  0.50400001928E-02 0. -1.
       -1   -1    0    0    0  501  0.00000000000E+00  0.00000000000E+00 -0.25042995919E+04  0.25042995919E+04  0.50400001928E-02 0.  1.
    10030    2    1    2    0    0  0.00000000000E+00  0.00000000000E+00 -0.16676050887E+04  0.33409940951E+04  0.28950535076E+04 0.  0.
        2    1    3    3  502    0 -0.44634956247E+03  0.12273820890E+04 -0.15541637416E+04  0.20300541027E+04  0.25500000920E-02 0.  1.
       -2    1    3    3    0  502  0.44634956247E+03 -0.12273820890E+04 -0.11344134705E+03  0.13109399924E+04  0.25500000920E-02 0. -1.
</event>
<event>
 5   0  0.2534588E-07  0.2899506E+04  0.7818609E-02  0.8273024E-01
        2   -1    0    0  501    0  0.00000000000E+00  0.00000000000E+00  0.15459543477E+04  0.15459543477E+04  0.25500000920E-02 0.  1.
       -2   -1    0    0    0  501  0.00000000000E+00  0.00000000000E+00 -0.13595383897E+04  0.13595383897E+04  0.25500000920E-02 0. -1.
    10030    2    1    2    0    0  0.00000000000E+00  0.00000000000E+00  0.18641595794E+03  0.29054927374E+04  0.28995063610E+04 0.  0.
        3    1    3    3  502    0 -0.11987464697E+04  0.66643313073E+02  0.90750485424E+03  0.15049915284E+04  0.10100000352E+00 0.  1.
       -3    1    3    3    0  502  0.11987464697E+04 -0.66643313073E+02 -0.72108889630E+03  0.14005012090E+04  0.10100000352E+00 0. -1.
</event>
<event>
 5   0  0.2678723E-07  0.2901298E+04  0.7818609E-02  0.8272491E-01
        2   -1    0    0  501    0  0.00000000000E+00  0.00000000000E+00  0.18734945092E+04  0.18734945092E+04  0.25500000920E-02 0. -1.
       -2   -1    0    0    0  501  0.00000000000E+00  0.00000000000E+00 -0.11232390425E+04  0.11232390425E+04  0.25500000920E-02 0.  1.
    10030    2    1    2    0    0  0.00000000000E+00  0.00000000000E+00  0.75025546672E+03  0.29967335517E+04  0.29012977638E+04 0.  0.
        5    1    3    3  502    0 -0.27729473040E+03 -0.12629450467E+04  0.10543587604E+04  0.16684175269E+04  0.46999998093E+01 0. -1.
       -5    1    3    3    0  502  0.27729473040E+03  0.12629450467E+04 -0.30410329363E+03  0.13283160248E+04  0.46999998093E+01 0.  1.
</event>
<event>
 5   0  0.9388076E-08  0.2895709E+04  0.7818609E-02  0.8274155E-01
       -1   -1    0    0    0  501  0.00000000000E+00  0.00000000000E+00  0.12033442234E+04  0.12033442234E+04  0.50400001928E-02 0.  1.
        1   -1    0    0  501    0  0.00000000000E+00  0.00000000000E+00 -0.17420475397E+04  0.17420475397E+04  0.50400001928E-02 0. -1.
    10030    2    1    2    0    0  0.00000000000E+00  0.00000000000E+00 -0.53870331629E+03  0.29453917632E+04  0.28957091317E+04 0.  0.
        5    1    3    3  502    0 -0.67328544740E+03  0.70018935723E+03  0.82269941269E+03  0.12729630173E+04  0.46999998093E+01 0.  1.
       -5    1    3    3    0  502  0.67328544740E+03 -0.70018935723E+03 -0.13614027290E+04  0.16724287459E+04  0.46999998093E+01 0. -1.
</event>
<event>
 5   0  0.9763851E-08  0.2900521E+04  0.7818609E-02  0.8272723E-01
       -1   -1    0    0    0  501  0.00000000000E+00  0.00000000000E+00  0.18448016643E+04  0.18448016643E+04  0.50400001928E-02 0. -1.
        1   -1    0    0  501    0  0.00000000000E+00  0.00000000000E+00 -0.11400983754E+04  0.11400983755E+04  0.50400001928E-02 0.  1.
    10030    2    1    2    0    0  0.00000000000E+00  0.00000000000E+00  0.70470328888E+03  0.29849000398E+04  0.29005209053E+04 0.  0.
        3    1    3    3  502    0 -0.14282429780E+04 -0.73176071863E+02  0.60023792521E+03  0.15509733456E+04  0.10100000352E+00 0. -1.
       -3    1    3    3    0  502  0.14282429780E+04  0.73176071863E+02  0.10446536367E+03  0.14339266942E+04  0.10100000352E+00 0.  1.
</event>
<event>
 5   0  0.2534588E-07  0.2896103E+04  0.7818609E-02  0.8274038E-01
       -2   -1    0    0    0  501  0.00000000000E+00  0.00000000000E+00  0.22032954104E+04  0.22032954104E+04  0.25500000920E-02 0.  1.
        2   -1    0    0  501    0  0.00000000000E+00  0.00000000000E+00 -0.95168960960E+03  0.95168960961E+03  0.25500000920E-02 0. -1.
    10030    2    1    2    0    0  0.00000000000E+00  0.00000000000E+00  0.12516058008E+04  0.31549850200E+04  0.28961031397E+04 0.  0.
        3    1    3    3  502    0  0.19752766973E+03  0.80744083934E+03 -0.66588235039E+03  0.10650714549E+04  0.10100000352E+00 0. -1.
       -3    1    3    3    0  502 -0.19752766973E+03 -0.80744083934E+03  0.19174881512E+04  0.20899135651E+04  0.10100000352E+00 0.  1.
</event>
<event>
 5   0  0.2546841E-07  0.2896439E+04  0.7818609E-02  0.8273938E-01
        2   -1    0    0  501    0  0.00000000000E+00  0.00000000000E+00  0.14407012510E+04  0.14407012510E+04  0.25500000920E-02 0. -1.
       -2   -1    0    0    0  501  0.00000000000E+00  0.00000000000E+00 -0.14557767287E+04  0.14557767287E+04  0.25500000920E-02 0.  1.
    10030    2    1    2    0    0  0.00000000000E+00  0.00000000000E+00 -0.15075477707E+02  0.28964779798E+04  0.28964387474E+04 0.  0.
        1    1    3    3  502    0 -0.17891366355E+03 -0.11612105154E+04  0.83918465703E+03  0.14438320016E+04  0.50400001928E-02 0. -1.
       -1    1    3    3    0  502  0.17891366355E+03  0.11612105154E+04 -0.85426013474E+03  0.14526459782E+04  0.50400001928E-02 0.  1.
</event>
<event>
 5   0  0.2546841E-07  0.2899743E+04  0.7818609E-02  0.8272954E-01
       -2   -1    0    0    0  501  0.00000000000E+00  0.00000000000E+00  0.10276215145E+04  0.10276215145E+04  0.25500000920E-02 0.  1.
        2   -1    0    0  501    0  0.00000000000E+00  0.00000000000E+00 -0.20456248349E+04  0.20456248349E+04  0.25500000920E-02 0. -1.
    10030    2    1    2    0    0  0.00000000000E+00  0.00000000000E+00 -0.10180033204E+04  0.30732463494E+04  0.28997434996E+04 0.  0.
        1    1    3    3  502    0 -0.60797907864E+02  0.82645683683E+03  0.75188923739E+03  0.11189569760E+04  0.50400001928E-02 0.  1.
       -1    1    3    3    0  502  0.60797907864E+02 -0.82645683683E+03 -0.17698925578E+04  0.19542893734E+04  0.50400001928E-02 0. -1.
</event>
<event>
 5   0  0.2608591E-07  0.2899889E+04  0.7818609E-02  0.8272911E-01
        2   -1    0    0  501    0  0.00000000000E+00  0.00000000000E+00  0.13428714275E+04  0.13428714275E+04  0.25500000920E-02 0. -1.
       -2   -1    0    0    0  501  0.00000000000E+00  0.00000000000E+00 -0.15655549324E+04  0.15655549324E+04  0.25500000920E-02 0.  1.
    10030    2    1    2    0    0  0.00000000000E+00  0.00000000000E+00 -0.22268350494E+03  0.29084263599E+04  0.28998889543E+04 0.  0.
        2    1    3    3  502    0 -0.10906712753E+04  0.95435428366E+03 -0.66679116772E+02  0.14507935877E+04  0.25500000920E-02 0.  1.
       -2    1    3    3    0  502  0.10906712753E+04 -0.95435428366E+03 -0.15600438817E+03  0.14576327722E+04  0.25500000920E-02 0. -1.
</event>
<event>
 5   0  0.9421924E-08  0.2900295E+04  0.7818609E-02  0.8272790E-01
       -1   -1    0    0    0  501  0.00000000000E+00  0.00000000000E+00  0.12356939856E+04  0.12356939856E+04  0.50400001928E-02 0.  1.
        1   -1    0    0  501    0  0.00000000000E+00  0.00000000000E+00 -0.17018189374E+04  0.17018189374E+04  0.50400001928E-02 0. -1.
    10030    2    1    2    0    0  0.00000000000E+00  0.00000000000E+00 -0.46612495180E+03  0.29375129230E+04  0.29002947612E+04 0.  0.
        1    1    3    3  502    0  0.11116180162E+04 -0.62808344420E+03 -0.92944948341E+03  0.15792592469E+04  0.50400001928E-02 0. -1.
       -1    1    3    3    0  502 -0.11116180162E+04  0.62808344420E+03  0.46332453161E+03  0.13582536760E+04  0.50400001928E-02 0.  1.
</event>
<event>
 5   0  0.2546841E-07  0.2899907E+04  0.7818609E-02  0.8272905E-01
        2   -1    0    0  501    0  0.00000000000E+00  0.00000000000E+00  0.29199796152E+04  0.29199796152E+04  0.25500000920E-02 0. -1.
       -2   -1    0    0    0  501  0.00000000000E+00  0.00000000000E+00 -0.71999325029E+03  0.71999325030E+03  0.25500000920E-02 0.  1.
    10030    2    1    2    0    0  0.00000000000E+00  0.00000000000E+00  0.21999863649E+04  0.36399728655E+04  0.28999073185E+04 0.  0.
        1    1    3    3  502    0 -0.64534711270E+03  0.12882155893E+04  0.13039137291E+04  0.19432352697E+04  0.50400001928E-02 0. -1.
       -1    1    3    3    0  502  0.64534711270E+03 -0.12882155893E+04  0.89607263582E+03  0.16967375958E+04  0.50400001928E-02 0.  1.
</event>
<event>
 5   0  0.2492232E-07  0.2900289E+04  0.7818609E-02  0.8272792E-01
       -2   -1    0    0    0  501  0.00000000000E+00  0.00000000000E+00  0.13175209854E+04  0.13175209854E+04  0.25500000920E-02 0. -1.
        2   -1    0    0  501    0  0.00000000000E+00  0.00000000000E+00 -0.15961176940E+04  0.15961176940E+04  0.25500000920E-02 0.  1.
    10030    2    1    2    0    0  0.00000000000E+00  0.00000000000E+00 -0.27859670864E+03  0.29136386794E+04  0.29002886457E+04 0.  0.
        4    1    3    3  502    0  0.10110484326E+03 -0.39652327410E+03  0.12583149487E+04  0.13231821564E+04  0.12699999809E+01 0. -1.
       -4    1    3    3    0  502 -0.10110484326E+03  0.39652327410E+03 -0.15369116573E+04  0.15904565230E+04  0.12699999809E+01 0.  1.
</event>
<event>
 5   0  0.2534588E-07  0.2899251E+04  0.7818609E-02  0.8273100E-01
       -2   -1    0    0    0  501  0.00000000000E+00  0.00000000000E+00  0.98430637640E+03  0.98430637640E+03  0.25500000920E-02 0. -1.
        2   -1    0    0  501    0  0.00000000000E+00  0.00000000000E+00 -0.21349183631E+04  0.21349183631E+04  0.25500000920E-02 0.  1.
    10030    2    1    2    0    0  0.00000000000E+00  0.00000000000E+00 -0.11506119867E+04  0.31192247395E+04  0.28992507707E+04 0.  0.
        3    1    3    3  502    0  0.10995972693E+04  0.37422647004E+03 -0.15084382004E+04  0.19038238942E+04  0.10100000352E+00 0.  1.
       -3    1    3    3    0  502 -0.10995972693E+04 -0.37422647004E+03  0.35782621368E+03  0.12154008453E+04  0.10100000352E+00 0. -1.
</event>
<event>
 5   0  0.9388076E-08  0.2902174E+04  0.7818609E-02  0.8272231E-01
       -1   -1    0    0    0  501  0.00000000000E+00  0.00000000000E+00  0.11100410632E+04  0.11100410633E+04  0.50400001928E-02 0. -1.
        1   -1    0    0  501    0  0.00000000000E+00  0.00000000000E+00 -0.18969151135E+04  0.18969151135E+04  0.50400001928E-02 0.  1.
    10030    2    1    2    0    0  0.00000000000E+00  0.00000000000E+00 -0.78687405023E+03  0.30069561767E+04  0.29021741295E+04 0.  0.
        5    1    3    3  502    0  0.91108063635E+03 -0.52354721667E+03 -0.14302987959E+04  0.17748088206E+04  0.46999998093E+01 0.  1.
       -5    1    3    3    0  502 -0.91108063635E+03  0.52354721667E+03  0.64342474565E+03  0.12321473562E+04  0.46999998093E+01 0. -1.
</event>
<event>
 5   0  0.9395744E-08  0.2899240E+04  0.7818609E-02  0.8273104E-01
       -1   -1    0    0    0  501  0.00000000000E+00  0.00000000000E+00  0.20223261657E+04  0.20223261657E+04  0.50400001928E-02 0.  1.
        1   -1    0    0  501    0  0.00000000000E+00  0.00000000000E+00 -0.10390993087E+04  0.10390993087E+04  0.50400001928E-02 0. -1.
    10030    2    1    2    0    0  0.00000000000E+00  0.00000000000E+00  0.98322685700E+03  0.30614254745E+04  0.28992397078E+04 0.  0.
        2    1    3    3  502    0 -0.21933510238E+03  0.49877400476E+02  0.20037862984E+04  0.20163717841E+04  0.25500000920E-02 0.  1.
       -2    1    3    3    0  502  0.21933510238E+03 -0.49877400476E+02 -0.10205594414E+04  0.10450536903E+04  0.25500000920E-02 0. -1.
</event>
<event>
 5   0  0.2546841E-07  0.2898500E+04  0.7818609E-02  0.8273324E-01
        2   -1    0    0  501    0  0.00000000000E+00  0.00000000000E+00  0.27560418315E+04  0.27560418315E+04  0.25500000920E-02 0.  1.
       -2   -1    0    0    0  501  0.00000000000E+00  0.00000000000E+00 -0.76208019706E+03  0.76208019707E+03  0.25500000920E-02 0. -1.
    10030    2    1    2    0    0  0.00000000000E+00  0.00000000000E+00  0.19939616344E+04  0.35181220286E+04  0.28984995443E+04 0.  0.
        1    1    3    3  502    0 -0.78800528849E+01  0.17391626229E+03 -0.74934191640E+03  0.76929985651E+03  0.50400001928E-02 0. -1.
       -1    1    3    3    0  502  0.78800528849E+01 -0.17391626229E+03  0.27433035508E+04  0.27488221720E+04  0.50400001928E-02 0.  1.
</event>
<event>
 5   0  0.2492232E-07  0.2897314E+04  0.7818609E-02  0.8273677E-01
       -2   -1    0    0    0  501  0.00000000000E+00  0.00000000000E+00  0.24906742206E+04  0.24906742206E+04  0.25500000920E-02 0. -1.
        2   -1    0    0  501    0  0.00000000000E+00  0.00000000000E+00 -0.84258608222E+03  0.84258608223E+03  0.25500000920E-02 0.  1.
    10030    2    1    2    0    0  0.00000000000E+00  0.00000000000E+00  0.16480881384E+04  0.33332603028E+04  0.28973142278E+04 0.  0.
        4    1    3    3  502    0  0.10541124785E+03 -0.11786539057E+04  0.17854019545E+04  0.21419613238E+04  0.12699999809E+01 0. -1.
       -4    1    3    3    0  502 -0.10541124785E+03  0.11786539057E+04 -0.13731381606E+03  0.11912989791E+04  0.12699999809E+01 0.  1.
</event>
<event>
 5   0  0.2534588E-07  0.2900119E+04  0.7818609E-02  0.8272842E-01
        2   -1    0    0  501    0  0.00000000000E+00  0.00000000000E+00  0.12856826074E+04  0.12856826074E+04  0.25500000920E-02 0.  1.
       -2   -1    0    0    0  501  0.00000000000E+00  0.00000000000E+00 -0.16354528164E+04  0.16354528164E+04  0.25500000920E-02 0. -1.
    10030    2    1    2    0    0  0.00000000000E+00  0.00000000000E+00 -0.34977020896E+03  0.29211354238E+04  0.29001194743E+04 0.  0.
        3    1    3    3  502    0 -0.46263204452E+03  0.10962128493E+04 -0.10097231367E+04  0.15605293469E+04  0.10100000352E+00 0. -1.
       -3    1    3    3    0  502  0.46263204452E+03 -0.10962128493E+04  0.65995292777E+03  0.13606060769E+04  0.10100000352E+00 0.  1.
</event>
<event>
 5   0  0.9421924E-08  0.2900429E+04  0.7818609E-02  0.8272750E-01
        1   -1    0    0  501    0  0.00000000000E+00  0.00000000000E+00  0.20122733976E+04  0.20122733976E+04  0.50400001928E-02 0. -1.
       -1   -1    0    0    0  501  0.00000000000E+00  0.00000000000E+00 -0.10451474766E+04  0.10451474766E+04  0.50400001928E-02 0.  1.
    10030    2    1    2    0    0  0.00000000000E+00  0.00000000000E+00  0.96712592094E+03  0.30574208742E+04  0.29004292536E+04 0.  0.
        1    1    3    3  502    0  0.96778405409E+03 -0.10785303427E+04  0.54401499277E+03  0.15478326744E+04  0.50400001928E-02 0. -1.
       -1    1    3    3    0  502 -0.96778405409E+03  0.10785303427E+04  0.42311092817E+03  0.15095881998E+04  0.50400001928E-02 0.  1.
</event>
<event>
 5   0  0.2608591E-07  0.2900833E+04  0.7818609E-02  0.8272630E-01
       -2   -1    0    0    0  501  0.00000000000E+00  0.00000000000E+00  0.13709650521E+04  0.13709650521E+04  0.25500000920E-02 0.  1.
        2   -1    0    0  501    0  0.00000000000E+00  0.00000000000E+00 -0.15344720957E+04  0.15344720957E+04  0.25500000920E-02 0. -1.
    10030    2    1    2    0    0  0.00000000000E+00  0.00000000000E+00 -0.16350704360E+03  0.29054371479E+04  0.29008327196E+04 0.  0.
        2    1    3    3  502    0 -0.12980787494E+03  0.93372115580E+03  0.10222766198E+04  0.13905879219E+04  0.25500000920E-02 0.  1.
       -2    1    3    3    0  502  0.12980787494E+03 -0.93372115580E+03 -0.11857836634E+04  0.15148492260E+04  0.25500000920E-02 0. -1.
</event>
<event>
 5   0  0.9421924E-08  0.2900390E+04  0.7818609E-02  0.8272761E-01
       -1   -1    0    0    0  501  0.00000000000E+00  0.00000000000E+00  0.17259099209E+04  0.17259099210E+04  0.50400001928E-02 0. -1.
        1   -1    0    0  501    0  0.00000000000E+00  0.00000000000E+00 -0.12185256464E+04  0.12185256464E+04  0.50400001928E-02 0.  1.
    10030    2    1    2    0    0  0.00000000000E+00  0.00000000000E+00  0.50738427459E+03  0.29444355673E+04  0.29003899752E+04 0.  0.
        1    1    3    3  502    0 -0.65414147085E+03  0.48043342038E+02 -0.10593388477E+04  0.12459566689E+04  0.50400001928E-02 0.  1.
       -1    1    3    3    0  502  0.65414147085E+03 -0.48043342038E+02  0.15667231222E+04  0.16984788984E+04  0.50400001928E-02 0. -1.
</event>
<event>
 5   0  0.9395744E-08  0.2891045E+04  0.7818609E-02  0.8275547E-01
        1   -1    0    0  501    0  0.00000000000E+00  0.00000000000E+00  0.14843722500E+04  0.14843722500E+04  0.50400001928E-02 0. -1.
       -1   -1    0    0    0  501  0.00000000000E+00  0.00000000000E+00 -0.14076897487E+04  0.14076897487E+04  0.50400001928E-02 0.  1.
    10030    2    1    2    0    0  0.00000000000E+00  0.00000000000E+00  0.76682501337E+02  0.28920619987E+04  0.28910452086E+04 0.  0.
        2    1    3    3  502    0 -0.60780926686E+02 -0.74186286570E+03 -0.12012397367E+04  0.14131637335E+04  0.25500000920E-02 0.  1.
       -2    1    3    3    0  502  0.60780926686E+02  0.74186286570E+03  0.12779222380E+04  0.14788982653E+04  0.25500000920E-02 0. -1.
</event>
<event>
 5   0  0.2678723E-07  0.2898902E+04  0.7818609E-02  0.8273204E-01
        2   -1    0    0  501    0  0.00000000000E+00  0.00000000000E+00  0.24590287501E+04  0.24590287501E+04  0.25500000920E-02 0.  1.
       -2   -1    0    0    0  501  0.00000000000E+00  0.00000000000E+00 -0.85436533033E+03  0.85436533034E+03  0.25500000920E-02 0. -1.
    10030    2    1    2    0    0  0.00000000000E+00  0.00000000000E+00  0.16046634197E+04  0.33133940804E+04  0.28989024891E+04 0.  0.
        5    1    3    3  502    0  0.35876199981E+03 -0.13853594349E+04  0.53930697237E+03  0.15293152183E+04  0.46999998093E+01 0.  1.
       -5    1    3    3    0  502 -0.35876199981E+03  0.13853594349E+04  0.10653564474E+04  0.17840788621E+04  0.46999998093E+01 0. -1.
</event>
<event>
 5   0  0.9421924E-08  0.2899183E+04  0.7818609E-02  0.8273121E-01
       -1   -1    0    0    0  501  0.00000000000E+00  0.00000000000E+00  0.22706538035E+04  0.22706538035E+04  0.50400001928E-02 0.  1.
        1   -1    0    0  501    0  0.00000000000E+00  0.00000000000E+00 -0.92542327402E+03  0.92542327403E+03  0.50400001928E-02 0. -1.
    10030    2    1    2    0    0  0.00000000000E+00  0.00000000000E+00  0.13452305295E+04  0.31960770776E+04  0.28991832485E+04 0.  0.
        1    1    3    3  502    0  0.87920086337E+02 -0.22082317505E+03  0.22490262220E+04  0.22615507430E+04  0.50400001928E-02 0.  1.
       -1    1    3    3    0  502 -0.87920086337E+02  0.22082317505E+03 -0.90379569245E+03  0.93452633453E+03  0.50400001928E-02 0. -1.
</event>
<event>
 5   0  0.2492232E-07  0.2898221E+04  0.7818609E-02  0.8273407E-01
        2   -1    0    0  501    0  0.00000000000E+00  0.00000000000E+00  0.20680369847E+04  0.20680369847E+04  0.25500000920E-02 0. -1.
       -2   -1    0    0    0  501  0.00000000000E+00  0.00000000000E+00 -0.10154176604E+04  0.10154176604E+04  0.25500000920E-02 0.  1.
    10030    2    1    2    0    0  0.00000000000E+00  0.00000000000E+00  0.10526193243E+04  0.30834546451E+04  0.28982210244E+04 0.  0.
        4    1    3    3  502    0  0.31377762571E+03 -0.13195411263E+04 -0.16467863712E+02  0.13564357654E+04  0.12699999809E+01 0. -1.
       -4    1    3    3    0  502 -0.31377762571E+03  0.13195411263E+04  0.10690871881E+04  0.17270188797E+04  0.12699999809E+01 0.  1.
</event>
<event>
 5   0  0.8407500E-08  0.2899256E+04  0.7818609E-02  0.8273099E-01
       -3   -1    0    0    0  501  0.00000000000E+00  0.00000000000E+00  0.14359259175E+04  0.14359259211E+04  0.10100000352E+00 0.  1.
        3   -1    0    0  501    0  0.00000000000E+00  0.00000000000E+00 -0.14634605558E+04  0.14634605593E+04  0.10100000352E+00 0. -1.
    10030    2    1    2    0    0  0.00000000000E+00  0.00000000000E+00 -0.27534638258E+02  0.28993864803E+04  0.28992557331E+04 0.  0.
        5    1    3    3  502    0  0.16263880920E+03  0.17502894835E+03  0.14160916720E+04  0.14361142812E+04  0.46999998093E+01 0.  1.
       -5    1    3    3    0  502 -0.16263880920E+03 -0.17502894835E+03 -0.14436263103E+04  0.14632721991E+04  0.46999998093E+01 0. -1.
</event>
<event>
 5   0  0.2534588E-07  0.2900222E+04  0.7818609E-02  0.8272811E-01
        2   -1    0    0  501    0  0.00000000000E+00  0.00000000000E+00  0.21007004028E+04  0.21007004028E+04  0.25500000920E-02 0. -1.
       -2   -1    0    0    0  501  0.00000000000E+00  0.00000000000E+00 -0.10010102238E+04  0.10010102238E+04  0.25500000920E-02 0.  1.
    10030    2    1    2    0    0  0.00000000000E+00  0.00000000000E+00  0.10996901790E+04  0.31017106266E+04  0.29002224606E+04 0.  0.
        3    1    3    3  502    0  0.23901818762E+03  0.11640151496E+04  0.14387065209E+04  0.18659950230E+04  0.10100000352E+00 0. -1.
       -3    1    3    3    0  502 -0.23901818762E+03 -0.11640151496E+04 -0.33901634186E+03  0.12357156035E+04  0.10100000352E+00 0.  1.
</event>
<event>
 5   0  0.2534588E-07  0.2899766E+04  0.7818609E-02  0.8272947E-01
        2   -1    0    0  501    0  0.00000000000E+00  0.00000000000E+00  0.13742544405E+04  0.13742544405E+04  0.25500000920E-02 0.  1.
       -2   -1    0    0    0  501  0.00000000000E+00  0.00000000000E+00 -0.15296734097E+04  0.15296734097E+04  0.25500000920E-02 0. -1.
    10030    2    1    2    0    0  0.00000000000E+00  0.00000000000E+00 -0.15541896922E+03  0.29039278502E+04  0.28997658359E+04 0.  0.
        3    1    3    3  502    0  0.11494080737E+04  0.26863013675E+02 -0.96232321393E+03  0.14993086805E+04  0.10100000352E+00 0.  1.
       -3    1    3    3    0  502 -0.11494080737E+04 -0.26863013675E+02  0.80690424472E+03  0.14046191696E+04  0.10100000352E+00 0. -1.
</event>
<event>
 5   0  0.9763851E-08  0.2904203E+04  0.7818609E-02  0.8271628E-01
        1   -1    0    0  501    0  0.00000000000E+00  0.00000000000E+00  0.21735019280E+04  0.21735019280E+04  0.50400001928E-02 0. -1.
       -1   -1    0    0    0  501  0.00000000000E+00  0.00000000000E+00 -0.97013909892E+03  0.97013909893E+03  0.50400001928E-02 0.  1.
    10030    2    1    2    0    0  0.00000000000E+00  0.00000000000E+00  0.12033628291E+04  0.31436410270E+04  0.29042033000E+04 0.  0.
        3    1    3    3  502    0 -0.24715586981E+03 -0.60100064097E+02  0.21492000140E+04  0.21641993328E+04  0.10100000352E+00 0. -1.
       -3    1    3    3    0  502  0.24715586981E+03  0.60100064097E+02 -0.94583718491E+03  0.97944169415E+03  0.10100000352E+00 0.  1.
</event>
<event>
 5   0  0.2608591E-07  0.2900685E+04  0.7818609E-02  0.8272674E-01
        2   -1    0    0  501    0  0.00000000000E+00  0.00000000000E+00  0.15997779261E+04  0.15997779261E+04  0.25500000920E-02 0.  1.
       -2   -1    0    0    0  501  0.00000000000E+00  0.00000000000E+00 -0.13148657962E+04  0.13148657962E+04  0.25500000920E-02 0. -1.
    10030    2    1    2    0    0  0.00000000000E+00  0.00000000000E+00  0.28491212996E+03  0.29146437223E+04  0.29006849374E+04 0.  0.
        2    1    3    3  502    0 -0.12780709869E+04 -0.54485736912E+03  0.56058145740E+03  0.14981944369E+04  0.25500000920E-02 0. -1.
       -2    1    3    3    0  502  0.12780709869E+04  0.54485736912E+03 -0.27566932744E+03  0.14164492855E+04  0.25500000920E-02 0.  1.
</event>
<event>
 5   0  0.2492232E-07  0.2896238E+04  0.7818609E-02  0.8273998E-01
        2   -1    0    0  501    0  0.00000000000E+00  0.00000000000E+00  0.15846333554E+04  0.15846333554E+04  0.25500000920E-02 0.  1.
       -2   -1    0    0    0  501  0.00000000000E+00  0.00000000000E+00 -0.13233652467E+04  0.13233652467E+04  0.25500000920E-02 0. -1.
    10030    2    1    2    0    0  0.00000000000E+00  0.00000000000E+00  0.26126810870E+03  0.29079986020E+04  0.28962380504E+04 0.  0.
        4    1    3    3  502    0 -0.83171998206E+03  0.40998458014E+03 -0.98617821727E+03  0.13536596964E+04  0.12699999809E+01 0. -1.
       -4    1    3    3    0  502  0.83171998206E+03 -0.40998458014E+03  0.12474463260E+04  0.15543389056E+04  0.12699999809E+01 0.  1.
</event>
<event>
 5   0  0.2492232E-07  0.2899210E+04  0.7818609E-02  0.8273113E-01
        2   -1    0    0  501    0  0.00000000000E+00  0.00000000000E+00  0.18976767356E+04  0.18976767356E+04  0.25500000920E-02 0. -1.
       -2   -1    0    0    0  501  0.00000000000E+00  0.00000000000E+00 -0.11073301494E+04  0.11073301494E+04  0.25500000920E-02 0.  1.
    10030    2    1    2    0    0  0.00000000000E+00  0.00000000000E+00  0.79034658624E+03  0.30050068850E+04  0.28992100049E+04 0.  0.
        4    1    3    3  502    0  0.10935984088E+04  0.13274827173E+03 -0.58142706043E+03  0.12456478727E+04  0.12699999809E+01 0. -1.
       -4    1    3    3    0  502 -0.10935984088E+04 -0.13274827173E+03  0.13717736467E+04  0.17593590122E+04  0.12699999809E+01 0.  1.
</event>
<event>
 5   0  0.9443352E-08  0.2900025E+04  0.7818609E-02  0.8272870E-01
       -1   -1    0    0    0  501  0.00000000000E+00  0.00000000000E+00  0.11779765884E+04  0.11779765884E+04  0.50400001928E-02 0. -1.
        1   -1    0    0  501    0  0.00000000000E+00  0.00000000000E+00 -0.17848714500E+04  0.17848714500E+04  0.50400001928E-02 0.  1.
    10030    2    1    2    0    0  0.00000000000E+00  0.00000000000E+00 -0.60689486159E+03  0.29628480383E+04  0.29000253663E+04 0.  0.
        4    1    3    3  502    0  0.88914984304E+03 -0.10328826571E+04  0.20235422645E+03  0.13778181566E+04  0.12699999809E+01 0. -1.
       -4    1    3    3    0  502 -0.88914984304E+03  0.10328826571E+04 -0.80924908804E+03  0.15850298818E+04  0.12699999809E+01 0.  1.
</event>
<event>
 5   0  0.9388076E-08  0.2894424E+04  0.7818609E-02  0.8274538E-01
       -1   -1    0    0    0  501  0.00000000000E+00  0.00000000000E+00  0.12902315432E+04  0.12902315432E+04  0.50400001928E-02 0.  1.
        1   -1    0    0  501    0  0.00000000000E+00  0.00000000000E+00 -0.16232924444E+04  0.16232924444E+04  0.50400001928E-02 0. -1.
    10030    2    1    2    0    0  0.00000000000E+00  0.00000000000E+00 -0.33306090114E+03  0.29135239876E+04  0.28944243750E+04 0.  0.
        5    1    3    3  502    0  0.31606551112E+03  0.10553905339E+04 -0.11111548422E+04  0.15647471871E+04  0.46999998093E+01 0. -1.
       -5    1    3    3    0  502 -0.31606551112E+03 -0.10553905339E+04  0.77809394107E+03  0.13487768004E+04  0.46999998093E+01 0.  1.
</event>
<event>
 5   0  0.9421924E-08  0.2900011E+04  0.7818609E-02  0.8272874E-01
       -1   -1    0    0    0  501  0.00000000000E+00  0.00000000000E+00  0.11430370485E+04  0.11430370485E+04  0.50400001928E-02 0. -1.
        1   -1    0    0  501    0  0.00000000000E+00  0.00000000000E+00 -0.18394121694E+04  0.18394121694E+04  0.50400001928E-02 0.  1.
    10030    2    1    2    0    0  0.00000000000E+00  0.00000000000E+00 -0.69637512086E+03  0.29824492179E+04  0.29000112117E+04 0.  0.
        1    1    3    3  502    0 -0.28203350746E+03  0.20482875322E+03  0.10993093676E+04  0.11532470695E+04  0.50400001928E-02 0. -1.
       -1    1    3    3    0  502  0.28203350746E+03 -0.20482875322E+03 -0.17956844885E+04  0.18292021484E+04  0.50400001928E-02 0.  1.
</event>
<event>
 5   0  0.9443352E-08  0.2899722E+04  0.7818609E-02  0.8272960E-01
       -1   -1    0    0    0  501  0.00000000000E+00  0.00000000000E+00  0.13561209365E+04  0.13561209365E+04  0.50400001928E-02 0. -1.
        1   -1    0    0  501    0  0.00000000000E+00  0.00000000000E+00 -0.15500803606E+04  0.15500803606E+04  0.50400001928E-02 0.  1.
    10030    2    1    2    0    0  0.00000000000E+00  0.00000000000E+00 -0.19395942407E+03  0.29062012971E+04  0.28997216627E+04 0.  0.
        4    1    3    3  502    0  0.28497669975E+03  0.21195619286E+02 -0.15215756333E+04  0.15481779595E+04  0.12699999809E+01 0.  1.
       -4    1    3    3    0  502 -0.28497669975E+03 -0.21195619286E+02  0.13276162092E+04  0.13580233376E+04  0.12699999809E+01 0. -1.
</event>
<event>
 5   0  0.9421924E-08  0.2900143E+04  0.7818609E-02  0.8272835E-01
        1   -1    0    0  501    0  0.00000000000E+00  0.00000000000E+00  0.23383474630E+04  0.23383474630E+04  0.50400001928E-02 0. -1.
       -1   -1    0    0    0  501  0.00000000000E+00  0.00000000000E+00 -0.89922788107E+03  0.89922788108E+03  0.50400001928E-02 0.  1.
    10030    2    1    2    0    0  0.00000000000E+00  0.00000000000E+00  0.14391195820E+04  0.32375753441E+04  0.29001429168E+04 0.  0.
        1    1    3    3  502    0  0.13494917045E+04  0.32516648558E+03  0.25142934000E+03  0.14107011791E+04  0.50400001928E-02 0.  1.
       -1    1    3    3    0  502 -0.13494917045E+04 -0.32516648558E+03  0.11876902420E+04  0.18268741650E+04  0.50400001928E-02 0. -1.
</event>
<event>
 5   0  0.2608591E-07  0.2898066E+04  0.7818609E-02  0.8273453E-01
        2   -1    0    0  501    0  0.00000000000E+00  0.00000000000E+00  0.11894778070E+04  0.11894778070E+04  0.25500000920E-02 0. -1.
       -2   -1    0    0    0  501  0.00000000000E+00  0.00000000000E+00 -0.17652255946E+04  0.17652255946E+04  0.25500000920E-02 0.  1.
    10030    2    1    2    0    0  0.00000000000E+00  0.00000000000E+00 -0.57574778763E+03  0.29547034016E+04  0.28980660235E+04 0.  0.
        2    1    3    3  502    0 -0.13099984940E+04 -0.61103077948E+03 -0.18469329753E+03  0.14572461295E+04  0.25500000920E-02 0. -1.
       -2    1    3    3    0  502  0.13099984940E+04  0.61103077948E+03 -0.39105449009E+03  0.14974572722E+04  0.25500000920E-02 0.  1.
</event>
<event>
 5   0  0.9443352E-08  0.2901821E+04  0.7818609E-02  0.8272336E-01
        1   -1    0    0  501    0  0.00000000000E+00  0.00000000000E+00  0.78408177442E+03  0.78408177444E+03  0.50400001928E-02 0.  1.
       -1   -1    0    0    0  501  0.00000000000E+00  0.00000000000E+00 -0.26848485246E+04  0.26848485246E+04  0.50400001928E-02 0. -1.
    10030    2    1    2    0    0  0.00000000000E+00  0.00000000000E+00 -0.19007667502E+04  0.34689302991E+04  0.29018206666E+04 0.  0.
        4    1    3    3  502    0  0.86458862069E+03  0.62271571294E+03 -0.21276571710E+04  0.23795409205E+04  0.12699999809E+01 0. -1.
       -4    1    3    3    0  502 -0.86458862069E+03 -0.62271571294E+03  0.22689042079E+03  0.10893893786E+04  0.12699999809E+01 0.  1.
</event>
<event>
 5   0  0.2492232E-07  0.2900739E+04  0.7818609E-02  0.8272658E-01
        2   -1    0    0  501    0  0.00000000000E+00  0.00000000000E+00  0.17627108672E+04  0.17627108672E+04  0.25500000920E-02 0.  1.
       -2   -1    0    0    0  501  0.00000000000E+00  0.00000000000E+00 -0.11933730825E+04  0.11933730825E+04  0.25500000920E-02 0. -1.
    10030    2    1    2    0    0  0.00000000000E+00  0.00000000000E+00  0.56933778469E+03  0.29560839498E+04  0.29007390101E+04 0.  0.
        4    1    3    3  502    0  0.54288562495E+03  0.64798816685E+03 -0.91635721844E+03  0.12467259646E+04  0.12699999809E+01 0. -1.
       -4    1    3    3    0  502 -0.54288562495E+03 -0.64798816685E+03  0.14856950031E+04  0.17093579851E+04  0.12699999809E+01 0.  1.
</event>
<event>
 5   0  0.9421924E-08  0.2905660E+04  0.7818609E-02  0.8271195E-01
        1   -1    0    0  501    0  0.00000000000E+00  0.00000000000E+00  0.81635655638E+03  0.81635655640E+03  0.50400001928E-02 0.  1.
       -1   -1    0    0    0  501  0.00000000000E+00  0.00000000000E+00 -0.25855314320E+04  0.25855314320E+04  0.50400001928E-02 0. -1.
    10030    2    1    2    0    0  0.00000000000E+00  0.00000000000E+00 -0.17691748756E+04  0.34018879884E+04  0.29056603630E+04 0.  0.
        1    1    3    3  502    0  0.83232348604E+03 -0.29648692213E+03  0.46564620571E+03  0.99874584821E+03  0.50400001928E-02 0.  1.
       -1    1    3    3    0  502 -0.83232348604E+03  0.29648692213E+03 -0.22348210813E+04  0.24031421402E+04  0.50400001928E-02 0. -1.
</event>
<event>
 5   0  0.9763851E-08  0.2901069E+04  0.7818609E-02  0.8272559E-01
        1   -1    0    0  501    0  0.00000000000E+00  0.00000000000E+00  0.22017517744E+04  0.22017517745E+04  0.50400001928E-02 0. -1.
       -1   -1    0    0    0  501  0.00000000000E+00  0.00000000000E+00 -0.95562572548E+03  0.95562572549E+03  0.50400001928E-02 0.  1.
    10030    2    1    2    0    0  0.00000000000E+00  0.00000000000E+00  0.12461260490E+04  0.31573774999E+04  0.29010692076E+04 0.  0.
        3    1    3    3  502    0  0.12862647804E+04 -0.17134925395E+03  0.13285729843E+04  0.18571332308E+04  0.10100000352E+00 0. -1.
       -3    1    3    3    0  502 -0.12862647804E+04  0.17134925395E+03 -0.82446935300E+02  0.13002442692E+04  0.10100000352E+00 0.  1.
</event>
<event>
 5   0  0.2608591E-07  0.2898834E+04  0.7818609E-02  0.8273225E-01
       -2   -1    0    0    0  501  0.00000000000E+00  0.00000000000E+00  0.79361451821E+03  0.79361451822E+03  0.25500000920E-02 0.  1.
        2   -1    0    0  501    0  0.00000000000E+00  0.00000000000E+00 -0.26471408441E+04  0.26471408441E+04  0.25500000920E-02 0. -1.
    10030    2    1    2    0    0  0.00000000000E+00  0.00000000000E+00 -0.18535263259E+04  0.34407553623E+04  0.28988338384E+04 0.  0.
        2    1    3    3  502    0  0.52637795370E+03  0.10849714679E+04  0.27655913246E+02  0.12062345070E+04  0.25500000920E-02 0.  1.
       -2    1    3    3    0  502 -0.52637795370E+03 -0.10849714679E+04 -0.18811822392E+04  0.22345208554E+04  0.25500000920E-02 0. -1.
</event>
<event>
 5   0  0.2546841E-07  0.2903173E+04  0.7818609E-02  0.8271934E-01
       -2   -1    0    0    0  501  0.00000000000E+00  0.00000000000E+00  0.82427339252E+03  0.82427339253E+03  0.25500000920E-02 0. -1.
        2   -1    0    0  501    0  0.00000000000E+00  0.00000000000E+00 -0.25563167300E+04  0.25563167300E+04  0.25500000920E-02 0.  1.
    10030    2    1    2    0    0  0.00000000000E+00  0.00000000000E+00 -0.17320433374E+04  0.33805901225E+04  0.29031733420E+04 0.  0.
        1    1    3    3  502    0 -0.58303011121E+03  0.10725342409E+04  0.48532333588E+02  0.12217238624E+04  0.50400001928E-02 0.  1.
       -1    1    3    3    0  502  0.58303011121E+03 -0.10725342409E+04 -0.17805756710E+04  0.21588662601E+04  0.50400001928E-02 0. -1.
</event>
<event>
 5   0  0.2678723E-07  0.2899974E+04  0.7818609E-02  0.8272885E-01
       -2   -1    0    0    0  501  0.00000000000E+00  0.00000000000E+00  0.10368275655E+04  0.10368275655E+04  0.25500000920E-02 0.  1.
        2   -1    0    0  501    0  0.00000000000E+00  0.00000000000E+00 -0.20277839485E+04  0.20277839485E+04  0.25500000920E-02 0. -1.
    10030    2    1    2    0    0  0.00000000000E+00  0.00000000000E+00 -0.99095638301E+03  0.30646115139E+04  0.28999739961E+04 0.  0.
        5    1    3    3  502    0 -0.43725286121E+03 -0.93152215211E+03  0.58404259822E+03  0.11832376900E+04  0.46999998093E+01 0.  1.
       -5    1    3    3    0  502  0.43725286121E+03  0.93152215211E+03 -0.15749989812E+04  0.18813738239E+04  0.46999998093E+01 0. -1.
</event>
<event>
 5   0  0.9443352E-08  0.2898992E+04  0.7818609E-02  0.8273177E-01
       -1   -1    0    0    0  501  0.00000000000E+00  0.00000000000E+00  0.10275517468E+04  0.10275517468E+04  0.50400001928E-02 0. -1.
        1   -1    0    0  501    0  0.00000000000E+00  0.00000000000E+00 -0.20447041721E+04  0.20447041721E+04  0.50400001928E-02 0.  1.
    10030    2    1    2    0    0  0.00000000000E+00  0.00000000000E+00 -0.10171524253E+04  0.30722559190E+04  0.28989924759E+04 0.  0.
        4    1    3    3  502    0  0.12158353476E+04  0.21045150469E+03 -0.13146208514E+04  0.18029905780E+04  0.12699999809E+01 0.  1.
       -4    1    3    3    0  502 -0.12158353476E+04 -0.21045150469E+03  0.29746842614E+03  0.12692653410E+04  0.12699999809E+01 0. -1.
</event>
<event>
 5   0  0.9421924E-08  0.2899169E+04  0.7818609E-02  0.8273125E-01
       -1   -1    0    0    0  501  0.00000000000E+00  0.00000000000E+00  0.20237648256E+04  0.20237648257E+04  0.50400001928E-02 0. -1.
        1   -1    0    0  501    0  0.00000000000E+00  0.00000000000E+00 -0.10383101599E+04  0.10383101599E+04  0.50400001928E-02 0.  1.
    10030    2    1    2    0    0  0.00000000000E+00  0.00000000000E+00  0.98545466573E+03  0.30620749856E+04  0.28991692464E+04 0.  0.
        1    1    3    3  502    0  0.12001621359E+04  0.77047115227E+03  0.76668741032E+03  0.16192049080E+04  0.50400001928E-02 0. -1.
       -1    1    3    3    0  502 -0.12001621359E+04 -0.77047115227E+03  0.21876725541E+03  0.14428700776E+04  0.50400001928E-02 0.  1.
</event>
<event>
 5   0  0.9388076E-08  0.2898919E+04  0.7818609E-02  0.8273199E-01
        1   -1    0    0  501    0  0.00000000000E+00  0.00000000000E+00  0.83622582600E+03  0.83622582601E+03  0.50400001928E-02 0. -1.
       -1   -1    0    0    0  501  0.00000000000E+00  0.00000000000E+00 -0.25123994690E+04  0.25123994690E+04  0.50400001928E-02 0.  1.
    10030    2    1    2    0    0  0.00000000000E+00  0.00000000000E+00 -0.16761736430E+04  0.33486252950E+04  0.28989193305E+04 0.  0.
        5    1    3    3  502    0 -0.77640154473E+03 -0.12239120407E+04 -0.85229017821E+03  0.16814222194E+04  0.46999998093E+01 0.  1.
       -5    1    3    3    0  502  0.77640154473E+03  0.12239120407E+04 -0.82388346483E+03  0.16672030757E+04  0.46999998093E+01 0. -1.
</event>
<event>
 5   0  0.2534588E-07  0.2896998E+04  0.7818609E-02  0.8273771E-01
        2   -1    0    0  501    0  0.00000000000E+00  0.00000000000E+00  0.19742253222E+04  0.19742253222E+04  0.25500000920E-02 0.  1.
       -2   -1    0    0    0  501  0.00000000000E+00  0.00000000000E+00 -0.10627706976E+04  0.10627706976E+04  0.25500000920E-02 0. -1.
    10030    2    1    2    0    0  0.00000000000E+00  0.00000000000E+00  0.91145462466E+03  0.30369960198E+04  0.28969976340E+04 0.  0.
        3    1    3    3  502    0  0.91261356554E+03  0.82839746006E+03 -0.34199450129E+03  0.12790880036E+04  0.10100000352E+00 0. -1.
       -3    1    3    3    0  502 -0.91261356554E+03 -0.82839746006E+03  0.12534491259E+04  0.17579080162E+04  0.10100000352E+00 0.  1.
</event>
<event>
 5   0  0.2608591E-07  0.2900954E+04  0.7818609E-02  0.8272594E-01
        2   -1    0    0  501    0  0.00000000000E+00  0.00000000000E+00  0.10629492255E+04  0.10629492255E+04  0.25500000920E-02 0. -1.
       -2   -1    0    0    0  501  0.00000000000E+00  0.00000000000E+00 -0.19792885841E+04  0.19792885841E+04  0.25500000920E-02 0.  1.
    10030    2    1    2    0    0  0.00000000000E+00  0.00000000000E+00 -0.91633935855E+03  0.30422378096E+04  0.29009538207E+04 0.  0.
        2    1    3    3  502    0 -0.12085956417E+04  0.42092000380E+03 -0.11740627983E+04  0.17367499904E+04  0.25500000920E-02 0.  1.
       -2    1    3    3    0  502  0.12085956417E+04 -0.42092000380E+03  0.25772343977E+03  0.13054878192E+04  0.25500000920E-02 0. -1.
</event>
<event>
 5   0  0.9395744E-08  0.2900088E+04  0.7818609E-02  0.8272851E-01
        1   -1    0    0  501    0  0.00000000000E+00  0.00000000000E+00  0.17071960078E+04  0.17071960078E+04  0.50400001928E-02 0. -1.
       -1   -1    0    0    0  501  0.00000000000E+00  0.00000000000E+00 -0.12316265404E+04  0.12316265404E+04  0.50400001928E-02 0.  1.
    10030    2    1    2    0    0  0.00000000000E+00  0.00000000000E+00  0.47556946736E+03  0.29388225482E+04  0.29000882145E+04 0.  0.
        2    1    3    3  502    0  0.26458304421E+03 -0.67371646199E+03  0.15110417141E+04  0.16754537057E+04  0.25500000920E-02 0. -1.
       -2    1    3    3    0  502 -0.26458304421E+03  0.67371646199E+03 -0.10354722467E+04  0.12633688425E+04  0.25500000920E-02 0.  1.
</event>
<event>
 5   0  0.9395744E-08  0.2900904E+04  0.7818609E-02  0.8272609E-01
       -1   -1    0    0    0  501  0.00000000000E+00  0.00000000000E+00  0.22174621206E+04  0.22174621206E+04  0.50400001928E-02 0.  1.
        1   -1    0    0  501    0  0.00000000000E+00  0.00000000000E+00 -0.94874702246E+03  0.94874702247E+03  0.50400001928E-02 0. -1.
    10030    2    1    2    0    0  0.00000000000E+00  0.00000000000E+00  0.12687150981E+04  0.31662091430E+04  0.29009037104E+04 0.  0.
        2    1    3    3  502    0 -0.75412404626E+03 -0.35723264091E+03  0.19292369027E+04  0.21019689017E+04  0.25500000920E-02 0.  1.
       -2    1    3    3    0  502  0.75412404626E+03  0.35723264091E+03 -0.66052180463E+03  0.10642402413E+04  0.25500000920E-02 0. -1.
</event>
<event>
 5   0  0.2546841E-07  0.2896371E+04  0.7818609E-02  0.8273958E-01
        2   -1    0    0  501    0  0.00000000000E+00  0.00000000000E+00  0.11985853373E+04  0.11985853373E+04  0.25500000920E-02 0.  1.
       -2   -1    0    0    0  501  0.00000000000E+00  0.00000000000E+00 -0.17497632453E+04  0.17497632453E+04  0.25500000920E-02 0. -1.
    10030    2    1    2    0    0  0.00000000000E+00  0.00000000000E+00 -0.55117790804E+03  0.29483485826E+04  0.28963705354E+04 0.  0.
        1    1    3    3  502    0  0.14573202764E+03 -0.91729379861E+03  0.85546524845E+03  0.12627297922E+04  0.50400001928E-02 0.  1.
       -1    1    3    3    0  502 -0.14573202764E+03  0.91729379861E+03 -0.14066431565E+04  0.16856187904E+04  0.50400001928E-02 0. -1.
</event>
<event>
 5   0  0.9763851E-08  0.2900755E+04  0.7818609E-02  0.8272653E-01
        1   -1    0    0  501    0  0.00000000000E+00  0.00000000000E+00  0.15366559988E+04  0.15366559988E+04  0.50400001928E-02 0. -1.
       -1   -1    0    0    0  501  0.00000000000E+00  0.00000000000E+00 -0.13689429435E+04  0.13689429435E+04  0.50400001928E-02 0.  1.
    10030    2    1    2    0    0  0.00000000000E+00  0.00000000000E+00  0.16771305533E+03  0.29055989424E+04  0.29007546509E+04 0.  0.
        3    1    3    3  502    0 -0.69901303205E+03  0.74372381467E+03 -0.94832543688E+03  0.13932212588E+04  0.10100000352E+00 0.  1.
       -3    1    3    3    0  502  0.69901303205E+03 -0.74372381467E+03  0.11160384922E+04  0.15123776836E+04  0.10100000352E+00 0. -1.
</event>
<event>
 5   0  0.2546841E-07  0.2902278E+04  0.7818609E-02  0.8272200E-01
       -2   -1    0    0    0  501  0.00000000000E+00  0.00000000000E+00  0.18537955102E+04  0.18537955103E+04  0.25500000920E-02 0. -1.
        2   -1    0    0  501    0  0.00000000000E+00  0.00000000000E+00 -0.11359423601E+04  0.11359423601E+04  0.25500000920E-02 0.  1.
    10030    2    1    2    0    0  0.00000000000E+00  0.00000000000E+00  0.71785315014E+03  0.29897378704E+04  0.29022783099E+04 0.  0.
        1    1    3    3  502    0  0.43187470422E+03  0.87381376705E+03  0.14663759012E+04  0.17607738479E+04  0.50400001928E-02 0. -1.
       -1    1    3    3    0  502 -0.43187470422E+03 -0.87381376705E+03 -0.74852275110E+03  0.12289640225E+04  0.50400001928E-02 0.  1.
</event>
<event>
 5   0  0.9395744E-08  0.2901475E+04  0.7818609E-02  0.8272439E-01
       -1   -1    0    0    0  501  0.00000000000E+00  0.00000000000E+00  0.13071019702E+04  0.13071019702E+04  0.50400001928E-02 0.  1.
        1   -1    0    0  501    0  0.00000000000E+00  0.00000000000E+00 -0.16101566514E+04  0.16101566514E+04  0.50400001928E-02 0. -1.
    10030    2    1    2    0    0  0.00000000000E+00  0.00000000000E+00 -0.30305468122E+03  0.29172586216E+04  0.29014747501E+04 0.  0.
        2    1    3    3  502    0  0.12249188196E+03  0.21153419731E+03  0.12862475499E+04  0.13092683978E+04  0.25500000920E-02 0.  1.
       -2    1    3    3    0  502 -0.12249188196E+03 -0.21153419731E+03 -0.15893022312E+04  0.16079902238E+04  0.25500000920E-02 0. -1.
</event>
<event>
 5   0  0.9443352E-08  0.2898156E+04  0.7818609E-02  0.8273426E-01
        1   -1    0    0  501    0  0.00000000000E+00  0.00000000000E+00  0.16753109641E+04  0.16753109642E+04  0.50400001928E-02 0.  1.
       -1   -1    0    0    0  501  0.00000000000E+00  0.00000000000E+00 -0.12533950677E+04  0.12533950677E+04  0.50400001928E-02 0. -1.
    10030    2    1    2    0    0  0.00000000000E+00  0.00000000000E+00  0.42191589649E+03  0.29287060318E+04  0.28981556199E+04 0.  0.
        4    1    3    3  502    0  0.89323123470E+03 -0.29430913909E+03  0.13250058510E+04  0.16248452314E+04  0.12699999809E+01 0.  1.
       -4    1    3    3    0  502 -0.89323123470E+03  0.29430913909E+03 -0.90308995449E+03  0.13038608004E+04  0.12699999809E+01 0. -1.
</event>
<event>
 5   0  0.2492232E-07  0.2901568E+04  0.7818609E-02  0.8272411E-01
        2   -1    0    0  501    0  0.00000000000E+00  0.00000000000E+00  0.15039493688E+04  0.15039493688E+04  0.25500000920E-02 0.  1.
       -2   -1    0    0    0  501  0.00000000000E+00  0.00000000000E+00 -0.13994979661E+04  0.13994979661E+04  0.25500000920E-02 0. -1.
    10030    2    1    2    0    0  0.00000000000E+00  0.00000000000E+00  0.10445140267E+03  0.29034473349E+04  0.29015679090E+04 0.  0.
        4    1    3    3  502    0 -0.74850799578E+03  0.58269686464E+03  0.11506491660E+04  0.14912394080E+04  0.12699999809E+01 0.  1.
       -4    1    3    3    0  502  0.74850799578E+03 -0.58269686464E+03 -0.10461977633E+04  0.14122079269E+04  0.12699999809E+01 0. -1.
</event>
<event>
 5   0  0.2608591E-07  0.2898009E+04  0.7818609E-02  0.8273470E-01
        2   -1    0    0  501    0  0.00000000000E+00  0.00000000000E+00  0.16651605396E+04  0.16651605396E+04  0.25500000920E-02 0. -1.
       -2   -1    0    0    0  501  0.00000000000E+00  0.00000000000E+00 -0.12609080353E+04  0.12609080354E+04  0.25500000920E-02 0.  1.
    10030    2    1    2    0    0  0.00000000000E+00  0.00000000000E+00  0.40425250425E+03  0.29260685749E+04  0.28980091819E+04 0.  0.
        2    1    3    3  502    0 -0.15611205800E+03 -0.10318879020E+04 -0.81281827190E+03  0.13228141064E+04  0.25500000920E-02 0.  1.
       -2    1    3    3    0  502  0.15611205800E+03  0.10318879020E+04  0.12170707761E+04  0.16032544686E+04  0.25500000920E-02 0. -1.
</event>
<event>
 5   0  0.9388076E-08  0.2900137E+04  0.7818609E-02  0.8272837E-01
       -1   -1    0    0    0  501  0.00000000000E+00  0.00000000000E+00  0.12939024397E+04  0.12939024397E+04  0.50400001928E-02 0.  1.
        1   -1    0    0  501    0  0.00000000000E+00  0.00000000000E+00 -0.16250829013E+04  0.16250829013E+04  0.50400001928E-02 0. -1.
    10030    2    1    2    0    0  0.00000000000E+00  0.00000000000E+00 -0.33118046167E+03  0.29189853410E+04  0.29001370524E+04 0.  0.
        5    1    3    3  502    0  0.69687064143E+03  0.61272793499E+03  0.95592820618E+03  0.13322481145E+04  0.46999998093E+01 0.  1.
       -5    1    3    3    0  502 -0.69687064143E+03 -0.61272793499E+03 -0.12871086679E+04  0.15867372265E+04  0.46999998093E+01 0. -1.
</event>
<event>
 5   0  0.2678723E-07  0.2900005E+04  0.7818609E-02  0.8272876E-01
        2   -1    0    0  501    0  0.00000000000E+00  0.00000000000E+00  0.25172982009E+04  0.25172982009E+04  0.25500000920E-02 0.  1.
       -2   -1    0    0    0  501  0.00000000000E+00  0.00000000000E+00 -0.83522387676E+03  0.83522387676E+03  0.25500000920E-02 0. -1.
    10030    2    1    2    0    0  0.00000000000E+00  0.00000000000E+00  0.16820743242E+04  0.33525220777E+04  0.29000052154E+04 0.  0.
        5    1    3    3  502    0  0.73850712068E+03  0.71600627542E+03  0.20224782272E+04  0.22690301945E+04  0.46999998093E+01 0.  1.
       -5    1    3    3    0  502 -0.73850712068E+03 -0.71600627542E+03 -0.34040390309E+03  0.10834918832E+04  0.46999998093E+01 0. -1.
</event>
<event>
 5   0  0.2608591E-07  0.2899668E+04  0.7818609E-02  0.8272976E-01
        2   -1    0    0  501    0  0.00000000000E+00  0.00000000000E+00  0.17688816360E+04  0.17688816360E+04  0.25500000920E-02 0. -1.
       -2   -1    0    0    0  501  0.00000000000E+00  0.00000000000E+00 -0.11883316000E+04  0.11883316000E+04  0.25500000920E-02 0.  1.
    10030    2    1    2    0    0  0.00000000000E+00  0.00000000000E+00  0.58055003597E+03  0.29572132360E+04  0.28996675291E+04 0.  0.
        2    1    3    3  502    0  0.13212880382E+04  0.10885094433E+03 -0.30819915334E+03  0.13611162059E+04  0.25500000920E-02 0. -1.
       -2    1    3    3    0  502 -0.13212880382E+04 -0.10885094433E+03  0.88874918931E+03  0.15960970301E+04  0.25500000920E-02 0.  1.
</event>
<event>
 5   0  0.9395744E-08  0.2900083E+04  0.7818609E-02  0.8272853E-01
       -1   -1    0    0    0  501  0.00000000000E+00  0.00000000000E+00  0.20647997183E+04  0.20647997183E+04  0.50400001928E-02 0.  1.
        1   -1    0    0  501    0  0.00000000000E+00  0.00000000000E+00 -0.10183170813E+04  0.10183170813E+04  0.50400001928E-02 0. -1.
    10030    2    1    2    0    0  0.00000000000E+00  0.00000000000E+00  0.10464826370E+04  0.30831167997E+04  0.29000833248E+04 0.  0.
        2    1    3    3  502    0 -0.54620308310E+03 -0.13203479727E+04  0.78573394250E+03  0.16306545941E+04  0.25500000920E-02 0.  1.
       -2    1    3    3    0  502  0.54620308310E+03  0.13203479727E+04  0.26074869450E+03  0.14524622056E+04  0.25500000920E-02 0. -1.
</event>
<event>
 5   0  0.9763851E-08  0.2899156E+04  0.7818609E-02  0.8273129E-01
       -1   -1    0    0    0  501  0.00000000000E+00  0.00000000000E+00  0.16837344545E+04  0.16837344545E+04  0.50400001928E-02 0.  1.
        1   -1    0    0  501    0  0.00000000000E+00  0.00000000000E+00 -0.12479852778E+04  0.12479852778E+04  0.50400001928E-02 0. -1.
    10030    2    1    2    0    0  0.00000000000E+00  0.00000000000E+00  0.43574917670E+03  0.29317197323E+04  0.28991556088E+04 0.  0.
        3    1    3    3  502    0 -0.29869843927E+03  0.53503184405E+02 -0.12155065749E+04  0.12528126724E+04  0.10100000352E+00 0. -1.
       -3    1    3    3    0  502  0.29869843927E+03 -0.53503184405E+02  0.16512557516E+04  0.16789070599E+04  0.10100000352E+00 0.  1.
</event>
<event>
 5   0  0.2546841E-07  0.2906355E+04  0.7818609E-02  0.8270989E-01
        2   -1    0    0  501    0  0.00000000000E+00  0.00000000000E+00  0.19574456433E+04  0.19574456433E+04  0.25500000920E-02 0.  1.
       -2   -1    0    0    0  501  0.00000000000E+00  0.00000000000E+00 -0.10788167429E+04  0.10788167429E+04  0.25500000920E-02 0. -1.
    10030    2    1    2    0    0  0.00000000000E+00  0.00000000000E+00  0.87862890048E+03  0.30362623862E+04  0.29063551973E+04 0.  0.
        1    1    3    3  502    0 -0.68335621879E+03  0.63277579200E+03 -0.72604760952E+03  0.11809005276E+04  0.50400001928E-02 0. -1.
       -1    1    3    3    0  502  0.68335621879E+03 -0.63277579200E+03  0.16046765100E+04  0.18553618586E+04  0.50400001928E-02 0.  1.
</event>
<event>
 5   0  0.9763851E-08  0.2899736E+04  0.7818609E-02  0.8272956E-01
       -1   -1    0    0    0  501  0.00000000000E+00  0.00000000000E+00  0.15890628985E+04  0.15890628985E+04  0.50400001928E-02 0. -1.
        1   -1    0    0  501    0  0.00000000000E+00  0.00000000000E+00 -0.13228656828E+04  0.13228656828E+04  0.50400001928E-02 0.  1.
    10030    2    1    2    0    0  0.00000000000E+00  0.00000000000E+00  0.26619721576E+03  0.29119285813E+04  0.28997356957E+04 0.  0.
        3    1    3    3  502    0 -0.91446207483E+03  0.10927374701E+04  0.40218184714E+03  0.14805628366E+04  0.10100000352E+00 0.  1.
       -3    1    3    3    0  502  0.91446207483E+03 -0.10927374701E+04 -0.13598463138E+03  0.14313657447E+04  0.10100000352E+00 0. -1.
</event>
<event>
 5   0  0.2608591E-07  0.2899648E+04  0.7818609E-02  0.8272982E-01
        2   -1    0    0  501    0  0.00000000000E+00  0.00000000000E+00  0.18773523229E+04  0.18773523229E+04  0.25500000920E-02 0.  1.
       -2   -1    0    0    0  501  0.00000000000E+00  0.00000000000E+00 -0.11196565878E+04  0.11196565878E+04  0.25500000920E-02 0. -1.
    10030    2    1    2    0    0  0.00000000000E+00  0.00000000000E+00  0.75769573503E+03  0.29970089107E+04  0.28996481828E+04 0.  0.
        2    1    3    3  502    0 -0.11591412491E+04 -0.10861782502E+03 -0.51421484644E+03  0.12727227411E+04  0.25500000920E-02 0. -1.
       -2    1    3    3    0  502  0.11591412491E+04  0.10861782502E+03  0.12719105815E+04  0.17242861696E+04  0.25500000920E-02 0.  1.
</event>
<event>
 5   0  0.2534588E-07  0.2899788E+04  0.7818609E-02  0.8272940E-01
        2   -1    0    0  501    0  0.00000000000E+00  0.00000000000E+00  0.20809024475E+04  0.20809024475E+04  0.25500000920E-02 0. -1.
       -2   -1    0    0    0  501  0.00000000000E+00  0.00000000000E+00 -0.10102313601E+04  0.10102313601E+04  0.25500000920E-02 0.  1.
    10030    2    1    2    0    0  0.00000000000E+00  0.00000000000E+00  0.10706710874E+04  0.30911338076E+04  0.28997882059E+04 0.  0.
        3    1    3    3  502    0  0.93478241747E+03 -0.66019472713E+03 -0.41364213746E+03  0.12168710177E+04  0.10100000352E+00 0.  1.
       -3    1    3    3    0  502 -0.93478241747E+03  0.66019472713E+03  0.14843132249E+04  0.18742627899E+04  0.10100000352E+00 0. -1.
</event>
<event>
 5   0  0.2546841E-07  0.2897435E+04  0.7818609E-02  0.8273641E-01
       -2   -1    0    0    0  501  0.00000000000E+00  0.00000000000E+00  0.17345688626E+04  0.17345688627E+04  0.25500000920E-02 0.  1.
        2   -1    0    0  501    0  0.00000000000E+00  0.00000000000E+00 -0.12099739317E+04  0.12099739317E+04  0.25500000920E-02 0. -1.
    10030    2    1    2    0    0  0.00000000000E+00  0.00000000000E+00  0.52459493095E+03  0.29445427943E+04  0.28974354913E+04 0.  0.
        1    1    3    3  502    0  0.17359392138E+03  0.68779751463E+02  0.17222887809E+04  0.17323810634E+04  0.50400001928E-02 0.  1.
       -1    1    3    3    0  502 -0.17359392138E+03 -0.68779751463E+02 -0.11976938500E+04  0.12121617310E+04  0.50400001928E-02 0. -1.
</event>
<event>
 5   0  0.2678723E-07  0.2877165E+04  0.7818609E-02  0.8279704E-01
        2   -1    0    0  501    0  0.00000000000E+00  0.00000000000E+00  0.17243040352E+04  0.17243040352E+04  0.25500000920E-02 0.  1.
       -2   -1    0    0    0  501  0.00000000000E+00  0.00000000000E+00 -0.12002061299E+04  0.12002061299E+04  0.25500000920E-02 0. -1.
    10030    2    1    2    0    0  0.00000000000E+00  0.00000000000E+00  0.52409790534E+03  0.29245101651E+04  0.28771654612E+04 0.  0.
        5    1    3    3  502    0 -0.35050039599E+03 -0.11521755062E+04  0.10618509204E+04  0.16055866192E+04  0.46999998093E+01 0.  1.
       -5    1    3    3    0  502  0.35050039599E+03  0.11521755062E+04 -0.53775301509E+03  0.13189235459E+04  0.46999998093E+01 0. -1.
</event>
<event>
 5   0  0.9443352E-08  0.2901278E+04  0.7818609E-02  0.8272497E-01
       -1   -1    0    0    0  501  0.00000000000E+00  0.00000000000E+00  0.12484490554E+04  0.12484490554E+04  0.50400001928E-02 0. -1.
        1   -1    0    0  501    0  0.00000000000E+00  0.00000000000E+00 -0.16855743290E+04  0.16855743291E+04  0.50400001928E-02 0.  1.
    10030    2    1    2    0    0  0.00000000000E+00  0.00000000000E+00 -0.43712527362E+03  0.29340233845E+04  0.29012781176E+04 0.  0.
        4    1    3    3  502    0  0.81558463382E+03 -0.24218217092E+03  0.96965448566E+03  0.12899852454E+04  0.12699999809E+01 0. -1.
       -4    1    3    3    0  502 -0.81558463382E+03  0.24218217092E+03 -0.14067797593E+04  0.16440381391E+04  0.12699999809E+01 0.  1.
</event>
<event>
 5   0  0.9388076E-08  0.2919425E+04  0.7818609E-02  0.8267121E-01
        1   -1    0    0  501    0  0.00000000000E+00  0.00000000000E+00  0.19521006549E+04  0.19521006549E+04  0.50400001928E-02 0.  1.
       -1   -1    0    0    0  501  0.00000000000E+00  0.00000000000E+00 -0.10915215524E+04  0.10915215524E+04  0.50400001928E-02 0. -1.
    10030    2    1    2    0    0  0.00000000000E+00  0.00000000000E+00  0.86057910249E+03  0.30436222072E+04  0.29194245578E+04 0.  0.
        5    1    3    3  502    0 -0.45914213500E+02  0.10389268629E+04  0.14982008754E+04  0.18237612493E+04  0.46999998093E+01 0.  1.
       -5    1    3    3    0  502  0.45914213500E+02 -0.10389268629E+04 -0.63762177293E+03  0.12198609579E+04  0.46999998093E+01 0. -1.
</event>
<event>
 5   0  0.2492232E-07  0.2900831E+04  0.7818609E-02  0.8272630E-01
        2   -1    0    0  501    0  0.00000000000E+00  0.00000000000E+00  0.11250872617E+04  0.11250872617E+04  0.25500000920E-02 0.  1.
       -2   -1    0    0    0  501  0.00000000000E+00  0.00000000000E+00 -0.18698154543E+04  0.18698154543E+04  0.25500000920E-02 0. -1.
    10030    2    1    2    0    0  0.00000000000E+00  0.00000000000E+00 -0.74472819253E+03  0.29949027160E+04  0.29008312942E+04 0.  0.
        4    1    3    3  502    0  0.51719329189E+03  0.67781328804E+03  0.83905155831E+03  0.11962143976E+04  0.12699999809E+01 0.  1.
       -4    1    3    3    0  502 -0.51719329189E+03 -0.67781328804E+03 -0.15837797508E+04  0.17986883184E+04  0.12699999809E+01 0. -1.
</event>
<event>
 5   0  0.9443352E-08  0.2897261E+04  0.7818609E-02  0.8273693E-01
        1   -1    0    0  501    0  0.00000000000E+00  0.00000000000E+00  0.19868066990E+04  0.19868066990E+04  0.50400001928E-02 0.  1.
       -1   -1    0    0    0  501  0.00000000000E+00  0.00000000000E+00 -0.10562327963E+04  0.10562327963E+04  0.50400001928E-02 0. -1.
    10030    2    1    2    0    0  0.00000000000E+00  0.00000000000E+00  0.93057390272E+03  0.30430394953E+04  0.28972610483E+04 0.  0.
        4    1    3    3  502    0 -0.22138748482E+03 -0.13217636293E+04  0.10429199257E+04  0.16981622698E+04  0.12699999809E+01 0.  1.
       -4    1    3    3    0  502  0.22138748482E+03  0.13217636293E+04 -0.11234602296E+03  0.13448772256E+04  0.12699999809E+01 0. -1.
</event>
<event>
 5   0  0.9763851E-08  0.2899271E+04  0.7818609E-02  0.8273094E-01
        1   -1    0    0  501    0  0.00000000000E+00  0.00000000000E+00  0.23206688584E+04  0.23206688584E+04  0.50400001928E-02 0. -1.
       -1   -1    0    0    0  501  0.00000000000E+00  0.00000000000E+00 -0.90553325368E+03  0.90553325370E+03  0.50400001928E-02 0.  1.
    10030    2    1    2    0    0  0.00000000000E+00  0.00000000000E+00  0.14151356047E+04  0.32262021121E+04  0.28992708201E+04 0.  0.
        3    1    3    3  502    0  0.67553698605E+03  0.74036497201E+03 -0.45789028065E+03  0.11018865779E+04  0.10100000352E+00 0.  1.
       -3    1    3    3    0  502 -0.67553698605E+03 -0.74036497201E+03  0.18730258853E+04  0.21243155341E+04  0.10100000352E+00 0. -1.
</event>
<event>
 5   0  0.2546841E-07  0.2901371E+04  0.7818609E-02  0.8272470E-01
       -2   -1    0    0    0  501  0.00000000000E+00  0.00000000000E+00  0.14824172564E+04  0.14824172564E+04  0.25500000920E-02 0.  1.
        2   -1    0    0  501    0  0.00000000000E+00  0.00000000000E+00 -0.14196327448E+04  0.14196327448E+04  0.25500000920E-02 0. -1.
    10030    2    1    2    0    0  0.00000000000E+00  0.00000000000E+00  0.62784511525E+02  0.29020500012E+04  0.29013707648E+04 0.  0.
        1    1    3    3  502    0  0.11540013035E+04 -0.24173056894E+03 -0.81398925915E+03  0.14327355620E+04  0.50400001928E-02 0. -1.
       -1    1    3    3    0  502 -0.11540013035E+04  0.24173056894E+03  0.87677377068E+03  0.14693144393E+04  0.50400001928E-02 0.  1.
</event>
<event>
 5   0  0.9388076E-08  0.2898223E+04  0.7818609E-02  0.8273406E-01
       -1   -1    0    0    0  501  0.00000000000E+00  0.00000000000E+00  0.80459152957E+03  0.80459152958E+03  0.50400001928E-02 0. -1.
        1   -1    0    0  501    0  0.00000000000E+00  0.00000000000E+00 -0.26099264875E+04  0.26099264875E+04  0.50400001928E-02 0.  1.
    10030    2    1    2    0    0  0.00000000000E+00  0.00000000000E+00 -0.18053349579E+04  0.34145180170E+04  0.28982234176E+04 0.  0.
        5    1    3    3  502    0 -0.12468699774E+04  0.66547790256E+03 -0.52574114432E+03  0.15079693035E+04  0.46999998093E+01 0. -1.
       -5    1    3    3    0  502  0.12468699774E+04 -0.66547790256E+03 -0.12795938136E+04  0.19065487136E+04  0.46999998093E+01 0.  1.
</event>
<event>
 5   0  0.2492232E-07  0.2897336E+04  0.7818609E-02  0.8273670E-01
       -2   -1    0    0    0  501  0.00000000000E+00  0.00000000000E+00  0.14663741341E+04  0.14663741341E+04  0.25500000920E-02 0. -1.
        2   -1    0    0  501    0  0.00000000000E+00  0.00000000000E+00 -0.14311758048E+04  0.14311758048E+04  0.25500000920E-02 0.  1.
    10030    2    1    2    0    0  0.00000000000E+00  0.00000000000E+00  0.35198329246E+02  0.28975499389E+04  0.28973361431E+04 0.  0.
        4    1    3    3  502    0  0.70762765149E+03 -0.96457234324E+03 -0.79946838717E+03  0.14388495451E+04  0.12699999809E+01 0.  1.
       -4    1    3    3    0  502 -0.70762765149E+03  0.96457234324E+03  0.83466671642E+03  0.14587003938E+04  0.12699999809E+01 0. -1.
</event>
<event>
 5   0  0.2546841E-07  0.2901178E+04  0.7818609E-02  0.8272527E-01
        2   -1    0    0  501    0  0.00000000000E+00  0.00000000000E+00  0.18191979306E+04  0.18191979306E+04  0.25500000920E-02 0.  1.
       -2   -1    0    0    0  501  0.00000000000E+00  0.00000000000E+00 -0.11566678374E+04  0.11566678374E+04  0.25500000920E-02 0. -1.
    10030    2    1    2    0    0  0.00000000000E+00  0.00000000000E+00  0.66253009315E+03  0.29758657680E+04  0.29011775100E+04 0.  0.
        1    1    3    3  502    0 -0.11313362465E+04  0.74673312381E+03 -0.19843588577E+03  0.13700032341E+04  0.50400001928E-02 0. -1.
       -1    1    3    3    0  502  0.11313362465E+04 -0.74673312381E+03  0.86096597892E+03  0.16058625338E+04  0.50400001928E-02 0.  1.
</event>
<event>
 5   0  0.2534588E-07  0.2900666E+04  0.7818609E-02  0.8272679E-01
       -2   -1    0    0    0  501  0.00000000000E+00  0.00000000000E+00  0.18310735443E+04  0.18310735443E+04  0.25500000920E-02 0. -1.
        2   -1    0    0  501    0  0.00000000000E+00  0.00000000000E+00 -0.11487605999E+04  0.11487605999E+04  0.25500000920E-02 0.  1.
    10030    2    1    2    0    0  0.00000000000E+00  0.00000000000E+00  0.68231294440E+03  0.29798341443E+04  0.29006655397E+04 0.  0.
        3    1    3    3  502    0  0.85118785774E+03 -0.50732925837E+03 -0.74678607462E+03  0.12408034482E+04  0.10100000352E+00 0.  1.
       -3    1    3    3    0  502 -0.85118785774E+03  0.50732925837E+03  0.14290990190E+04  0.17390306961E+04  0.10100000352E+00 0. -1.
</event>
<event>
 5   0  0.2608591E-07  0.2899149E+04  0.7818609E-02  0.8273131E-01
       -2   -1    0    0    0  501  0.00000000000E+00  0.00000000000E+00  0.31224893187E+04  0.31224893187E+04  0.25500000920E-02 0. -1.
        2   -1    0    0  501    0  0.00000000000E+00  0.00000000000E+00 -0.67294573595E+03  0.67294573595E+03  0.25500000920E-02 0.  1.
    10030    2    1    2    0    0  0.00000000000E+00  0.00000000000E+00  0.24495435827E+04  0.37954350546E+04  0.28991487527E+04 0.  0.
        2    1    3    3  502    0  0.13924800747E+04 -0.33803752380E+03  0.15115805711E+04  0.20828216315E+04  0.25500000920E-02 0.  1.
       -2    1    3    3    0  502 -0.13924800747E+04  0.33803752380E+03  0.93796301169E+03  0.17126134232E+04  0.25500000920E-02 0. -1.
</event>
<event>
 5   0  0.2546841E-07  0.2897788E+04  0.7818609E-02  0.8273536E-01
       -2   -1    0    0    0  501  0.00000000000E+00  0.00000000000E+00  0.14812730027E+04  0.14812730027E+04  0.25500000920E-02 0.  1.
        2   -1    0    0  501    0  0.00000000000E+00  0.00000000000E+00 -0.14172226801E+04  0.14172226801E+04  0.25500000920E-02 0. -1.
    10030    2    1    2    0    0  0.00000000000E+00  0.00000000000E+00  0.64050322609E+02  0.28984956827E+04  0.28977879113E+04 0.  0.
        1    1    3    3  502    0  0.75489591797E+03 -0.12366943664E+04  0.35616568243E+02  0.14493272035E+04  0.50400001928E-02 0. -1.
       -1    1    3    3    0  502 -0.75489591797E+03  0.12366943664E+04  0.28433754367E+02  0.14491684792E+04  0.50400001928E-02 0.  1.
</event>
<event>
 5   0  0.2678723E-07  0.2907450E+04  0.7818609E-02  0.8270664E-01
       -2   -1    0    0    0  501  0.00000000000E+00  0.00000000000E+00  0.81485575628E+03  0.81485575628E+03  0.25500000920E-02 0. -1.
        2   -1    0    0  501    0  0.00000000000E+00  0.00000000000E+00 -0.25934848445E+04  0.25934848445E+04  0.25500000920E-02 0.  1.
    10030    2    1    2    0    0  0.00000000000E+00  0.00000000000E+00 -0.17786290882E+04  0.34083406008E+04  0.29074497790E+04 0.  0.
        5    1    3    3  502    0 -0.50305924657E+03 -0.46538012423E+03 -0.23922315620E+04  0.24884616134E+04  0.46999998093E+01 0.  1.
       -5    1    3    3    0  502  0.50305924657E+03  0.46538012423E+03  0.61360247373E+03  0.91987898734E+03  0.46999998093E+01 0. -1.
</event>
<event>
 5   0  0.2608591E-07  0.2899789E+04  0.7818609E-02  0.8272940E-01
        2   -1    0    0  501    0  0.00000000000E+00  0.00000000000E+00  0.15904663017E+04  0.15904663017E+04  0.25500000920E-02 0.  1.
       -2   -1    0    0    0  501  0.00000000000E+00  0.00000000000E+00 -0.13217471702E+04  0.13217471702E+04  0.25500000920E-02 0. -1.
    10030    2    1    2    0    0  0.00000000000E+00  0.00000000000E+00  0.26871913147E+03  0.29122134720E+04  0.28997891880E+04 0.  0.
        2    1    3    3  502    0  0.11830143607E+04 -0.80512181440E+02  0.97231400097E+03  0.15334274373E+04  0.25500000920E-02 0.  1.
       -2    1    3    3    0  502 -0.11830143607E+04  0.80512181440E+02 -0.70359486950E+03  0.13787860347E+04  0.25500000920E-02 0. -1.
</event>
<event>
 5   0  0.9763851E-08  0.2898841E+04  0.7818609E-02  0.8273222E-01
       -1   -1    0    0    0  501  0.00000000000E+00  0.00000000000E+00  0.10296809489E+04  0.10296809489E+04  0.50400001928E-02 0. -1.
        1   -1    0    0  501    0  0.00000000000E+00  0.00000000000E+00 -0.20402625146E+04  0.20402625146E+04  0.50400001928E-02 0.  1.
    10030    2    1    2    0    0  0.00000000000E+00  0.00000000000E+00 -0.10105815657E+04  0.30699434636E+04  0.28988407629E+04 0.  0.
        3    1    3    3  502    0  0.60978663172E+02  0.94581271455E+03 -0.16666208360E+04  0.19172650076E+04  0.10100000352E+00 0.  1.
       -3    1    3    3    0  502 -0.60978663172E+02 -0.94581271455E+03  0.65603927031E+03  0.11526784559E+04  0.10100000352E+00 0. -1.
</event>
<event>
 5   0  0.9421924E-08  0.2901401E+04  0.7818609E-02  0.8272461E-01
       -1   -1    0    0    0  501  0.00000000000E+00  0.00000000000E+00  0.99253382215E+03  0.99253382217E+03  0.50400001928E-02 0.  1.
        1   -1    0    0  501    0  0.00000000000E+00  0.00000000000E+00 -0.21203628635E+04  0.21203628635E+04  0.50400001928E-02 0. -1.
    10030    2    1    2    0    0  0.00000000000E+00  0.00000000000E+00 -0.11278290413E+04  0.31128966857E+04  0.29014009425E+04 0.  0.
        1    1    3    3  502    0  0.99862312016E+03  0.73264515914E+03  0.24646865070E+03  0.12628396023E+04  0.50400001928E-02 0.  1.
       -1    1    3    3    0  502 -0.99862312016E+03 -0.73264515914E+03 -0.13742976920E+04  0.18500570834E+04  0.50400001928E-02 0. -1.
</event>
<event>
 5   0  0.2492232E-07  0.2899272E+04  0.7818609E-02  0.8273094E-01
       -2   -1    0    0    0  501  0.00000000000E+00  0.00000000000E+00  0.15577086288E+04  0.15577086288E+04  0.25500000920E-02 0. -1.
        2   -1    0    0  501    0  0.00000000000E+00  0.00000000000E+00 -0.13490614870E+04  0.13490614870E+04  0.25500000920E-02 0.  1.
    10030    2    1    2    0    0  0.00000000000E+00  0.00000000000E+00  0.20864714184E+03  0.29067701157E+04  0.28992721287E+04 0.  0.
        4    1    3    3  502    0  0.23493853476E+03 -0.36296741769E+03 -0.12829099609E+04  0.13538098249E+04  0.12699999809E+01 0.  1.
       -4    1    3    3    0  502 -0.23493853476E+03  0.36296741769E+03  0.14915571027E+04  0.15529602908E+04  0.12699999809E+01 0. -1.
</event>
<event>
 5   0  0.2678723E-07  0.2898174E+04  0.7818609E-02  0.8273421E-01
       -2   -1    0    0    0  501  0.00000000000E+00  0.00000000000E+00  0.11343629426E+04  0.11343629426E+04  0.25500000920E-02 0. -1.
        2   -1    0    0  501    0  0.00000000000E+00  0.00000000000E+00 -0.18511300546E+04  0.18511300546E+04  0.25500000920E-02 0.  1.
    10030    2    1    2    0    0  0.00000000000E+00  0.00000000000E+00 -0.71676711202E+03  0.29854929972E+04  0.28981741396E+04 0.  0.
        5    1    3    3  502    0  0.43254769152E+03  0.63665868418E+03 -0.16231366707E+04  0.17963926429E+04  0.46999998093E+01 0.  1.
       -5    1    3    3    0  502 -0.43254769152E+03 -0.63665868418E+03  0.90636955872E+03  0.11891003543E+04  0.46999998093E+01 0. -1.
</event>
<event>
 5   0  0.2678723E-07  0.2905042E+04  0.7818609E-02  0.8271379E-01
        2   -1    0    0  501    0  0.00000000000E+00  0.00000000000E+00  0.21339902736E+04  0.21339902736E+04  0.25500000920E-02 0.  1.
       -2   -1    0    0    0  501  0.00000000000E+00  0.00000000000E+00 -0.98867214435E+03  0.98867214435E+03  0.25500000920E-02 0. -1.
    10030    2    1    2    0    0  0.00000000000E+00  0.00000000000E+00  0.11453181292E+04  0.31226624179E+04  0.29050416450E+04 0.  0.
        5    1    3    3  502    0 -0.30471677689E+03 -0.63028740676E+03  0.19406628521E+04  0.20630823844E+04  0.46999998093E+01 0.  1.
       -5    1    3    3    0  502  0.30471677689E+03  0.63028740676E+03 -0.79534472289E+03  0.10595800335E+04  0.46999998093E+01 0. -1.
</event>
<event>
 5   0  0.9443352E-08  0.2883797E+04  0.7818609E-02  0.8277715E-01
        1   -1    0    0  501    0  0.00000000000E+00  0.00000000000E+00  0.16814517917E+04  0.16814517918E+04  0.50400001928E-02 0. -1.
       -1   -1    0    0    0  501  0.00000000000E+00  0.00000000000E+00 -0.12364738376E+04  0.12364738376E+04  0.50400001928E-02 0.  1.
    10030    2    1    2    0    0  0.00000000000E+00  0.00000000000E+00  0.44497795416E+03  0.29179256294E+04  0.28837969066E+04 0.  0.
        4    1    3    3  502    0  0.13643196335E+04 -0.25230381821E+03 -0.17464066454E+03  0.13984013207E+04  0.12699999809E+01 0. -1.
       -4    1    3    3    0  502 -0.13643196335E+04  0.25230381821E+03  0.61961861870E+03  0.15195243087E+04  0.12699999809E+01 0.  1.
</event>
<event>
 5   0  0.9388076E-08  0.2900120E+04  0.7818609E-02  0.8272842E-01
        1   -1    0    0  501    0  0.00000000000E+00  0.00000000000E+00  0.14775414586E+04  0.14775414586E+04  0.50400001928E-02 0.  1.
       -1   -1    0    0    0  501  0.00000000000E+00  0.00000000000E+00 -0.14230893373E+04  0.14230893374E+04  0.50400001928E-02 0. -1.
    10030    2    1    2    0    0  0.00000000000E+00  0.00000000000E+00  0.54452121211E+02  0.29006307959E+04  0.29001196494E+04 0.  0.
        5    1    3    3  502    0 -0.42547719436E+03 -0.25069227635E+03  0.13908349565E+04  0.14759137599E+04  0.46999998093E+01 0.  1.
       -5    1    3    3    0  502  0.42547719436E+03  0.25069227635E+03 -0.13363828353E+04  0.14247170360E+04  0.46999998093E+01 0. -1.
</event>
<event>
 5   0  0.2546841E-07  0.2900326E+04  0.7818609E-02  0.8272780E-01
       -2   -1    0    0    0  501  0.00000000000E+00  0.00000000000E+00  0.18577097557E+04  0.18577097557E+04  0.25500000920E-02 0. -1.
        2   -1    0    0  501    0  0.00000000000E+00  0.00000000000E+00 -0.11320244800E+04  0.11320244800E+04  0.25500000920E-02 0.  1.
    10030    2    1    2    0    0  0.00000000000E+00  0.00000000000E+00  0.72568527566E+03  0.29897342358E+04  0.29003261336E+04 0.  0.
        1    1    3    3  502    0 -0.63097701163E+03 -0.67886928899E+03 -0.78687712696E+03  0.12158006061E+04  0.50400001928E-02 0.  1.
       -1    1    3    3    0  502  0.63097701163E+03  0.67886928899E+03  0.15125624026E+04  0.17739336297E+04  0.50400001928E-02 0. -1.
</event>
<event>
 5   0  0.2492232E-07  0.2898728E+04  0.7818609E-02  0.8273256E-01
       -2   -1    0    0    0  501  0.00000000000E+00  0.00000000000E+00  0.97996469366E+03  0.97996469366E+03  0.25500000920E-02 0. -1.
        2   -1    0    0  501    0  0.00000000000E+00  0.00000000000E+00 -0.21436041665E+04  0.21436041665E+04  0.25500000920E-02 0.  1.
    10030    2    1    2    0    0  0.00000000000E+00  0.00000000000E+00 -0.11636394728E+04  0.31235688602E+04  0.28987282731E+04 0.  0.
        4    1    3    3  502    0 -0.13745881266E+04  0.34299491938E+03 -0.25229479441E+03  0.14390247769E+04  0.12699999809E+01 0. -1.
       -4    1    3    3    0  502  0.13745881266E+04 -0.34299491938E+03 -0.91134467843E+03  0.16845440832E+04  0.12699999809E+01 0.  1.
</event>
<event>
 5   0  0.2608591E-07  0.2899260E+04  0.7818609E-02  0.8273098E-01
        2   -1    0    0  501    0  0.00000000000E+00  0.00000000000E+00  0.19243084878E+04  0.19243084878E+04  0.25500000920E-02 0. -1.
       -2   -1    0    0    0  501  0.00000000000E+00  0.00000000000E+00 -0.10920427453E+04  0.10920427453E+04  0.25500000920E-02 0.  1.
    10030    2    1    2    0    0  0.00000000000E+00  0.00000000000E+00  0.83226574252E+03  0.30163512331E+04  0.28992599910E+04 0.  0.
        2    1    3    3  502    0 -0.81044963509E+03  0.10771482775E+04  0.97091369586E+03  0.16612496584E+04  0.25500000920E-02 0. -1.
       -2    1    3    3    0  502  0.81044963509E+03 -0.10771482775E+04 -0.13864795333E+03  0.13551015747E+04  0.25500000920E-02 0.  1.
</event>
<event>
 5   0  0.2608591E-07  0.2895704E+04  0.7818609E-02  0.8274157E-01
       -2   -1    0    0    0  501  0.00000000000E+00  0.00000000000E+00  0.11886649253E+04  0.11886649253E+04  0.25500000920E-02 0.  1.
        2   -1    0    0  501    0  0.00000000000E+00  0.00000000000E+00 -0.17635549733E+04  0.17635549733E+04  0.25500000920E-02 0. -1.
    10030    2    1    2    0    0  0.00000000000E+00  0.00000000000E+00 -0.57489004801E+03  0.29522198987E+04  0.28957043638E+04 0.  0.
        2    1    3    3  502    0 -0.67931927993E+03  0.53165444368E+03 -0.14729573811E+04  0.17069664842E+04  0.25500000920E-02 0. -1.
       -2    1    3    3    0  502  0.67931927993E+03 -0.53165444368E+03  0.89806733307E+03  0.12452534145E+04  0.25500000920E-02 0.  1.
</event>
<event>
 5   0  0.9395744E-08  0.2899875E+04  0.7818609E-02  0.8272915E-01
       -1   -1    0    0    0  501  0.00000000000E+00  0.00000000000E+00  0.13366015074E+04  0.13366015074E+04  0.50400001928E-02 0.  1.
        1   -1    0    0  501    0  0.00000000000E+00  0.00000000000E+00 -0.15728835680E+04  0.15728835680E+04  0.50400001928E-02 0. -1.
    10030    2    1    2    0    0  0.00000000000E+00  0.00000000000E+00 -0.23628206064E+03  0.29094850754E+04  0.28998748580E+04 0.  0.
        2    1    3    3  502    0  0.37175922154E+03 -0.12127092921E+04 -0.82292881238E+03  0.15119790264E+04  0.25500000920E-02 0. -1.
       -2    1    3    3    0  502 -0.37175922154E+03  0.12127092921E+04  0.58664675173E+03  0.13975060491E+04  0.25500000920E-02 0.  1.
</event>
<event>
 5   0  0.9763851E-08  0.2899558E+04  0.7818609E-02  0.8273009E-01
       -1   -1    0    0    0  501  0.00000000000E+00  0.00000000000E+00  0.15005167246E+04  0.15005167246E+04  0.50400001928E-02 0.  1.
        1   -1    0    0  501    0  0.00000000000E+00  0.00000000000E+00 -0.14007571708E+04  0.14007571708E+04  0.50400001928E-02 0. -1.
    10030    2    1    2    0    0  0.00000000000E+00  0.00000000000E+00  0.99759553798E+02  0.29012738955E+04  0.28995582850E+04 0.  0.
        3    1    3    3  502    0 -0.11406035255E+04  0.30046998235E+03 -0.79359048614E+03  0.14216344405E+04  0.10100000352E+00 0. -1.
       -3    1    3    3    0  502  0.11406035255E+04 -0.30046998235E+03  0.89335003994E+03  0.14796394550E+04  0.10100000352E+00 0.  1.
</event>
<event>
 5   0  0.2678723E-07  0.2900588E+04  0.7818609E-02  0.8272703E-01
       -2   -1    0    0    0  501  0.00000000000E+00  0.00000000000E+00  0.78072858753E+03  0.78072858754E+03  0.25500000920E-02 0.  1.
        2   -1    0    0  501    0  0.00000000000E+00  0.00000000000E+00 -0.26940895498E+04  0.26940895498E+04  0.25500000920E-02 0. -1.
    10030    2    1    2    0    0  0.00000000000E+00  0.00000000000E+00 -0.19133609623E+04  0.34748181373E+04  0.29005880293E+04 0.  0.
        5    1    3    3  502    0  0.11570627361E+04  0.53116235905E+03 -0.17887335654E+04  0.21955676908E+04  0.46999998093E+01 0. -1.
       -5    1    3    3    0  502 -0.11570627361E+04 -0.53116235905E+03 -0.12462739687E+03  0.12792504465E+04  0.46999998093E+01 0.  1.
</event>
<event>
 5   0  0.2546841E-07  0.2899547E+04  0.7818609E-02  0.8273012E-01
       -2   -1    0    0    0  501  0.00000000000E+00  0.00000000000E+00  0.10851550235E+04  0.10851550235E+04  0.25500000920E-02 0.  1.
        2   -1    0    0  501    0  0.00000000000E+00  0.00000000000E+00 -0.19369058995E+04  0.19369058995E+04  0.25500000920E-02 0. -1.
    10030    2    1    2    0    0  0.00000000000E+00  0.00000000000E+00 -0.85175087592E+03  0.30220609230E+04  0.28995469763E+04 0.  0.
        1    1    3    3  502    0  0.21679542985E+03  0.95104665319E+03  0.69198777155E+03  0.11959670025E+04  0.50400001928E-02 0.  1.
       -1    1    3    3    0  502 -0.21679542985E+03 -0.95104665319E+03 -0.15437386475E+04  0.18260939206E+04  0.50400001928E-02 0. -1.
</event>
<event>
 5   0  0.9443352E-08  0.2902334E+04  0.7818609E-02  0.8272183E-01
       -1   -1    0    0    0  501  0.00000000000E+00  0.00000000000E+00  0.95885071450E+03  0.95885071451E+03  0.50400001928E-02 0.  1.
        1   -1    0    0  501    0  0.00000000000E+00  0.00000000000E+00 -0.21962608314E+04  0.21962608314E+04  0.50400001928E-02 0. -1.
    10030    2    1    2    0    0  0.00000000000E+00  0.00000000000E+00 -0.12374101169E+04  0.31551115459E+04  0.29023344173E+04 0.  0.
        4    1    3    3  502    0  0.65851326130E+02  0.94409965078E+03  0.57720953562E+03  0.11085274055E+04  0.12699999809E+01 0.  1.
       -4    1    3    3    0  502 -0.65851326130E+02 -0.94409965078E+03 -0.18146196525E+04  0.20465841405E+04  0.12699999809E+01 0. -1.
</event>
<event>
 5   0  0.9763851E-08  0.2900328E+04  0.7818609E-02  0.8272780E-01
       -1   -1    0    0    0  501  0.00000000000E+00  0.00000000000E+00  0.15476678739E+04  0.15476678739E+04  0.50400001928E-02 0. -1.
        1   -1    0    0  501    0  0.00000000000E+00  0.00000000000E+00 -0.13588026589E+04  0.13588026589E+04  0.50400001928E-02 0.  1.
    10030    2    1    2    0    0  0.00000000000E+00  0.00000000000E+00  0.18886521497E+03  0.29064705328E+04  0.29003277209E+04 0.  0.
        3    1    3    3  502    0  0.80702939187E+03 -0.12042792869E+04  0.13179658368E+03  0.14556632131E+04  0.10100000352E+00 0.  1.
       -3    1    3    3    0  502 -0.80702939187E+03  0.12042792869E+04  0.57068631289E+02  0.14508073198E+04  0.10100000352E+00 0. -1.
</event>
<event>
 5   0  0.2678723E-07  0.2900132E+04  0.7818609E-02  0.8272838E-01
       -2   -1    0    0    0  501  0.00000000000E+00  0.00000000000E+00  0.68008605593E+03  0.68008605593E+03  0.25500000920E-02 0. -1.
        2   -1    0    0  501    0  0.00000000000E+00  0.00000000000E+00 -0.30918015293E+04  0.30918015293E+04  0.25500000920E-02 0.  1.
    10030    2    1    2    0    0  0.00000000000E+00  0.00000000000E+00 -0.24117154733E+04  0.37718875852E+04  0.29001317955E+04 0.  0.
        5    1    3    3  502    0 -0.14228111633E+03  0.80297976366E+03 -0.27652931023E+04  0.28830345902E+04  0.46999998093E+01 0.  1.
       -5    1    3    3    0  502  0.14228111633E+03 -0.80297976366E+03  0.35357762898E+03  0.88885299494E+03  0.46999998093E+01 0. -1.
</event>
<event>
 5   0  0.8407500E-08  0.2899311E+04  0.7818609E-02  0.8273083E-01
       -4   -1    0    0    0  501  0.00000000000E+00  0.00000000000E+00  0.17598069989E+04  0.17598074572E+04  0.12699999809E+01 0. -1.
        4   -1    0    0  501    0  0.00000000000E+00  0.00000000000E+00 -0.11941646267E+04  0.11941653020E+04  0.12699999809E+01 0.  1.
    10030    2    1    2    0    0  0.00000000000E+00  0.00000000000E+00  0.56564237229E+03  0.29539727592E+04  0.28993109127E+04 0.  0.
        4    1    3    3  502    0  0.11795695281E+04  0.69986131558E+03  0.76104148789E+03  0.15685585395E+04  0.12699999809E+01 0.  1.
       -4    1    3    3    0  502 -0.11795695281E+04 -0.69986131558E+03 -0.19539911560E+03  0.13854142197E+04  0.12699999809E+01 0. -1.
</event>
<event>
 5   0  0.2608591E-07  0.2900830E+04  0.7818609E-02  0.8272631E-01
        2   -1    0    0  501    0  0.00000000000E+00  0.00000000000E+00  0.14878408542E+04  0.14878408542E+04  0.25500000920E-02 0.  1.
       -2   -1    0    0    0  501  0.00000000000E+00  0.00000000000E+00 -0.14139305945E+04  0.14139305945E+04  0.25500000920E-02 0. -1.
    10030    2    1    2    0    0  0.00000000000E+00  0.00000000000E+00  0.73910259680E+02  0.29017714487E+04  0.29008300216E+04 0.  0.
        2    1    3    3  502    0 -0.18481199406E+03 -0.10453927127E+04  0.10255583677E+04  0.14760661782E+04  0.25500000920E-02 0.  1.
       -2    1    3    3    0  502  0.18481199406E+03  0.10453927127E+04 -0.95164810797E+03  0.14257052705E+04  0.25500000920E-02 0. -1.
</event>
<event>
 5   0  0.2492232E-07  0.2902120E+04  0.7818609E-02  0.8272247E-01
        2   -1    0    0  501    0  0.00000000000E+00  0.00000000000E+00  0.20899595984E+04  0.20899595984E+04  0.25500000920E-02 0. -1.
       -2   -1    0    0    0  501  0.00000000000E+00  0.00000000000E+00 -0.10074719008E+04  0.10074719008E+04  0.25500000920E-02 0.  1.
    10030    2    1    2    0    0  0.00000000000E+00  0.00000000000E+00  0.10824876975E+04  0.30974314992E+04  0.29021203071E+04 0.  0.
        4    1    3    3  502    0  0.25514740686E+03 -0.10863119256E+04  0.15312469136E+04  0.18947011696E+04  0.12699999809E+01 0. -1.
       -4    1    3    3    0  502 -0.25514740686E+03  0.10863119256E+04 -0.44875921606E+03  0.12027303296E+04  0.12699999809E+01 0.  1.
</event>
<event>
 5   0  0.9421924E-08  0.2899105E+04  0.7818609E-02  0.8273144E-01
       -1   -1    0    0    0  501  0.00000000000E+00  0.00000000000E+00  0.15914478236E+04  0.15914478236E+04  0.50400001928E-02 0. -1.
        1   -1    0    0  501    0  0.00000000000E+00  0.00000000000E+00 -0.13203082967E+04  0.13203082967E+04  0.50400001928E-02 0.  1.
    10030    2    1    2    0    0  0.00000000000E+00  0.00000000000E+00  0.27113952694E+03  0.29117561203E+04  0.28991045274E+04 0.  0.
        1    1    3    3  502    0 -0.13951527927E+04 -0.60657017823E+02  0.52594470177E+03  0.14922293450E+04  0.50400001928E-02 0.  1.
       -1    1    3    3    0  502  0.13951527927E+04  0.60657017823E+02 -0.25480517484E+03  0.14195267753E+04  0.50400001928E-02 0. -1.
</event>
<event>
 5   0  0.9421924E-08  0.2898843E+04  0.7818609E-02  0.8273222E-01
       -1   -1    0    0    0  501  0.00000000000E+00  0.00000000000E+00  0.14669822118E+04  0.14669822118E+04  0.50400001928E-02 0. -1.
        1   -1    0    0  501    0  0.00000000000E+00  0.00000000000E+00 -0.14320707939E+04  0.14320707939E+04  0.50400001928E-02 0.  1.
    10030    2    1    2    0    0  0.00000000000E+00  0.00000000000E+00  0.34911417893E+02  0.28990530058E+04  0.28988427904E+04 0.  0.
        1    1    3    3  502    0  0.31244401565E+03  0.13180758200E+04 -0.49821454725E+03  0.14433166199E+04  0.50400001928E-02 0.  1.
       -1    1    3    3    0  502 -0.31244401565E+03 -0.13180758200E+04  0.53312596514E+03  0.14557363858E+04  0.50400001928E-02 0. -1.
</event>
<event>
 5   0  0.9388076E-08  0.2899588E+04  0.7818609E-02  0.8273000E-01
       -1   -1    0    0    0  501  0.00000000000E+00  0.00000000000E+00  0.90666313442E+03  0.90666313444E+03  0.50400001928E-02 0. -1.
        1   -1    0    0  501    0  0.00000000000E+00  0.00000000000E+00 -0.23182836949E+04  0.23182836949E+04  0.50400001928E-02 0.  1.
    10030    2    1    2    0    0  0.00000000000E+00  0.00000000000E+00 -0.14116205605E+04  0.32249468293E+04  0.28995878061E+04 0.  0.
        5    1    3    3  502    0 -0.83298823885E+03  0.74330482658E+03 -0.17345334810E+04  0.20627651243E+04  0.46999998093E+01 0.  1.
       -5    1    3    3    0  502  0.83298823885E+03 -0.74330482658E+03  0.32291292053E+03  0.11621817050E+04  0.46999998093E+01 0. -1.
</event>
<event>
 5   0  0.2546841E-07  0.2898595E+04  0.7818609E-02  0.8273296E-01
        2   -1    0    0  501    0  0.00000000000E+00  0.00000000000E+00  0.24034311737E+04  0.24034311737E+04  0.25500000920E-02 0.  1.
       -2   -1    0    0    0  501  0.00000000000E+00  0.00000000000E+00 -0.87394345036E+03  0.87394345036E+03  0.25500000920E-02 0. -1.
    10030    2    1    2    0    0  0.00000000000E+00  0.00000000000E+00  0.15294877234E+04  0.32773746241E+04  0.28985947855E+04 0.  0.
        1    1    3    3  502    0 -0.57342707713E+03 -0.12136235715E+04  0.13827622054E+04  0.19271045905E+04  0.50400001928E-02 0.  1.
       -1    1    3    3    0  502  0.57342707713E+03  0.12136235715E+04  0.14672551799E+03  0.13502700336E+04  0.50400001928E-02 0. -1.
</event>
<event>
 5   0  0.2492232E-07  0.2915765E+04  0.7818609E-02  0.8268202E-01
       -2   -1    0    0    0  501  0.00000000000E+00  0.00000000000E+00  0.79747494755E+03  0.79747494756E+03  0.25500000920E-02 0.  1.
        2   -1    0    0  501    0  0.00000000000E+00  0.00000000000E+00 -0.26651883913E+04  0.26651883913E+04  0.25500000920E-02 0. -1.
    10030    2    1    2    0    0  0.00000000000E+00  0.00000000000E+00 -0.18677134438E+04  0.34626633389E+04  0.29157647179E+04 0.  0.
        4    1    3    3  502    0  0.92453725635E+03 -0.13236187866E+03 -0.22632575715E+04  0.24483923814E+04  0.12699999809E+01 0. -1.
       -4    1    3    3    0  502 -0.92453725635E+03  0.13236187866E+03  0.39554412776E+03  0.10142709575E+04  0.12699999809E+01 0.  1.
</event>
<event>
 5   0  0.9443352E-08  0.2901506E+04  0.7818609E-02  0.8272430E-01
        1   -1    0    0  501    0  0.00000000000E+00  0.00000000000E+00  0.16271606993E+04  0.16271606993E+04  0.50400001928E-02 0. -1.
       -1   -1    0    0    0  501  0.00000000000E+00  0.00000000000E+00 -0.12934703432E+04  0.12934703432E+04  0.50400001928E-02 0.  1.
    10030    2    1    2    0    0  0.00000000000E+00  0.00000000000E+00  0.33369035615E+03  0.29206310426E+04  0.29015058906E+04 0.  0.
        4    1    3    3  502    0 -0.53696566438E+03 -0.99161999598E+03 -0.75188124728E+03  0.13553484290E+04  0.12699999809E+01 0.  1.
       -4    1    3    3    0  502  0.53696566438E+03  0.99161999598E+03  0.10855716034E+04  0.15652826135E+04  0.12699999809E+01 0. -1.
</event>
<event>
 5   0  0.9388076E-08  0.2900534E+04  0.7818609E-02  0.8272719E-01
        1   -1    0    0  501    0  0.00000000000E+00  0.00000000000E+00  0.74644035609E+03  0.74644035610E+03  0.50400001928E-02 0. -1.
       -1   -1    0    0    0  501  0.00000000000E+00  0.00000000000E+00 -0.28177396698E+04  0.28177396698E+04  0.50400001928E-02 0.  1.
    10030    2    1    2    0    0  0.00000000000E+00  0.00000000000E+00 -0.20712993137E+04  0.35641800259E+04  0.29005341595E+04 0.  0.
        5    1    3    3  502    0  0.10141760412E+04 -0.95430506043E+03 -0.15332782445E+04  0.20712835286E+04  0.46999998093E+01 0.  1.
       -5    1    3    3    0  502 -0.10141760412E+04  0.95430506043E+03 -0.53802106927E+03  0.14928964974E+04  0.46999998093E+01 0. -1.
</event>
<event>
 5   0  0.2546841E-07  0.2899335E+04  0.7818609E-02  0.8273075E-01
       -2   -1    0    0    0  501  0.00000000000E+00  0.00000000000E+00  0.10339379163E+04  0.10339379163E+04  0.25500000920E-02 0. -1.
        2   -1    0    0  501    0  0.00000000000E+00  0.00000000000E+00 -0.20325555456E+04  0.20325555456E+04  0.25500000920E-02 0.  1.
    10030    2    1    2    0    0  0.00000000000E+00  0.00000000000E+00 -0.99861762935E+03  0.30664934619E+04  0.28993352656E+04 0.  0.
        1    1    3    3  502    0 -0.64196240247E+03  0.10708942517E+04  0.27977809850E+03  0.12795335123E+04  0.50400001928E-02 0. -1.
       -1    1    3    3    0  502  0.64196240247E+03 -0.10708942517E+04 -0.12783957279E+04  0.17869599496E+04  0.50400001928E-02 0.  1.
</event>
<event>
 5   0  0.9763851E-08  0.2899990E+04  0.7818609E-02  0.8272880E-01
        1   -1    0    0  501    0  0.00000000000E+00  0.00000000000E+00  0.13451939952E+04  0.13451939952E+04  0.50400001928E-02 0.  1.
       -1   -1    0    0    0  501  0.00000000000E+00  0.00000000000E+00 -0.15629608437E+04  0.15629608437E+04  0.50400001928E-02 0. -1.
    10030    2    1    2    0    0  0.00000000000E+00  0.00000000000E+00 -0.21776684851E+03  0.29081548389E+04  0.28999900288E+04 0.  0.
        3    1    3    3  502    0  0.48115437174E+03  0.13510262172E+04 -0.32327064769E+03  0.14701310454E+04  0.10100000352E+00 0. -1.
       -3    1    3    3    0  502 -0.48115437174E+03 -0.13510262172E+04  0.10550379918E+03  0.14380237935E+04  0.10100000352E+00 0.  1.
</event>
<event>
 5   0  0.2608591E-07  0.2900271E+04  0.7818609E-02  0.8272797E-01
        2   -1    0    0  501    0  0.00000000000E+00  0.00000000000E+00  0.14451188798E+04  0.14451188798E+04  0.25500000920E-02 0. -1.
       -2   -1    0    0    0  501  0.00000000000E+00  0.00000000000E+00 -0.14551695829E+04  0.14551695829E+04  0.25500000920E-02 0.  1.
    10030    2    1    2    0    0  0.00000000000E+00  0.00000000000E+00 -0.10050703057E+02  0.29002884627E+04  0.29002710477E+04 0.  0.
        2    1    3    3  502    0  0.32638311241E+02 -0.24909632476E+03  0.14231914721E+04  0.14451948674E+04  0.25500000920E-02 0. -1.
       -2    1    3    3    0  502 -0.32638311241E+02  0.24909632476E+03 -0.14332421752E+04  0.14550935953E+04  0.25500000920E-02 0.  1.
</event>
<event>
 5   0  0.2608591E-07  0.2899721E+04  0.7818609E-02  0.8272961E-01
        2   -1    0    0  501    0  0.00000000000E+00  0.00000000000E+00  0.21487647884E+04  0.21487647884E+04  0.25500000920E-02 0.  1.
       -2   -1    0    0    0  501  0.00000000000E+00  0.00000000000E+00 -0.97828077171E+03  0.97828077171E+03  0.25500000920E-02 0. -1.
    10030    2    1    2    0    0  0.00000000000E+00  0.00000000000E+00  0.11704840167E+04  0.31270455601E+04  0.28997208662E+04 0.  0.
        2    1    3    3  502    0 -0.13971364048E+04  0.18627678767E+03  0.95158880439E+03  0.17006500016E+04  0.25500000920E-02 0. -1.
       -2    1    3    3    0  502  0.13971364048E+04 -0.18627678767E+03  0.21889521228E+03  0.14263955585E+04  0.25500000920E-02 0.  1.
</event>
<event>
 5   0  0.2492232E-07  0.2900793E+04  0.7818609E-02  0.8272642E-01
       -2   -1    0    0    0  501  0.00000000000E+00  0.00000000000E+00  0.10401848679E+04  0.10401848679E+04  0.25500000920E-02 0. -1.
        2   -1    0    0  501    0  0.00000000000E+00  0.00000000000E+00 -0.20223806593E+04  0.20223806593E+04  0.25500000920E-02 0.  1.
    10030    2    1    2    0    0  0.00000000000E+00  0.00000000000E+00 -0.98219579141E+03  0.30625655272E+04  0.29007928288E+04 0.  0.
        4    1    3    3  502    0  0.40483281357E+03 -0.13767166376E+04 -0.71358675800E+03  0.16026371958E+04  0.12699999809E+01 0.  1.
       -4    1    3    3    0  502 -0.40483281357E+03  0.13767166376E+04 -0.26860903342E+03  0.14599283314E+04  0.12699999809E+01 0. -1.
</event>
<event>
 5   0  0.2534588E-07  0.2900713E+04  0.7818609E-02  0.8272665E-01
       -2   -1    0    0    0  501  0.00000000000E+00  0.00000000000E+00  0.92155429704E+03  0.92155429705E+03  0.25500000920E-02 0.  1.
        2   -1    0    0  501    0  0.00000000000E+00  0.00000000000E+00 -0.22825936127E+04  0.22825936127E+04  0.25500000920E-02 0. -1.
    10030    2    1    2    0    0  0.00000000000E+00  0.00000000000E+00 -0.13610393156E+04  0.32041479097E+04  0.29007129828E+04 0.  0.
        3    1    3    3  502    0 -0.33866455492E+03 -0.10657412644E+04 -0.17007340144E+04  0.20354346763E+04  0.10100000352E+00 0. -1.
       -3    1    3    3    0  502  0.33866455492E+03  0.10657412644E+04  0.33969469880E+03  0.11687132334E+04  0.10100000352E+00 0.  1.
</event>
<event>
 5   0  0.2546841E-07  0.2901022E+04  0.7818609E-02  0.8272573E-01
       -2   -1    0    0    0  501  0.00000000000E+00  0.00000000000E+00  0.11061510108E+04  0.11061510108E+04  0.25500000920E-02 0. -1.
        2   -1    0    0  501    0  0.00000000000E+00  0.00000000000E+00 -0.19020752737E+04  0.19020752737E+04  0.25500000920E-02 0.  1.
    10030    2    1    2    0    0  0.00000000000E+00  0.00000000000E+00 -0.79592426288E+03  0.30082262845E+04  0.29010222244E+04 0.  0.
        1    1    3    3  502    0 -0.11446852822E+04  0.55000471809E+03 -0.11246980824E+04  0.16963948130E+04  0.50400001928E-02 0.  1.
       -1    1    3    3    0  502  0.11446852822E+04 -0.55000471809E+03  0.32877381950E+03  0.13118314715E+04  0.50400001928E-02 0. -1.
</event>
<event>
 5   0  0.2678723E-07  0.2898536E+04  0.7818609E-02  0.8273313E-01
       -2   -1    0    0    0  501  0.00000000000E+00  0.00000000000E+00  0.12984170199E+04  0.12984170199E+04  0.25500000920E-02 0. -1.
        2   -1    0    0  501    0  0.00000000000E+00  0.00000000000E+00 -0.16176450746E+04  0.16176450746E+04  0.25500000920E-02 0.  1.
    10030    2    1    2    0    0  0.00000000000E+00  0.00000000000E+00 -0.31922805475E+03  0.29160620945E+04  0.28985361112E+04 0.  0.
        5    1    3    3  502    0 -0.13657835397E+04  0.41383292706E+03  0.94367263368E+02  0.14302271286E+04  0.46999998093E+01 0.  1.
       -5    1    3    3    0  502  0.13657835397E+04 -0.41383292706E+03 -0.41359531812E+03  0.14858349659E+04  0.46999998093E+01 0. -1.
</event>
<event>
 5   0  0.9443352E-08  0.2899386E+04  0.7818609E-02  0.8273060E-01
       -1   -1    0    0    0  501  0.00000000000E+00  0.00000000000E+00  0.21882141104E+04  0.21882141104E+04  0.50400001928E-02 0.  1.
        1   -1    0    0  501    0  0.00000000000E+00  0.00000000000E+00 -0.96042253577E+03  0.96042253578E+03  0.50400001928E-02 0. -1.
    10030    2    1    2    0    0  0.00000000000E+00  0.00000000000E+00  0.12277915747E+04  0.31486366462E+04  0.28993862418E+04 0.  0.
        4    1    3    3  502    0  0.60474207370E+03  0.68424379257E+03  0.18366122032E+04  0.20511091003E+04  0.12699999809E+01 0.  1.
       -4    1    3    3    0  502 -0.60474207370E+03 -0.68424379257E+03 -0.60882062857E+03  0.10975275459E+04  0.12699999809E+01 0. -1.
</event>
<event>
 5   0  0.9388076E-08  0.2899750E+04  0.7818609E-02  0.8272952E-01
       -1   -1    0    0    0  501  0.00000000000E+00  0.00000000000E+00  0.13334593216E+04  0.13334593216E+04  0.50400001928E-02 0.  1.
        1   -1    0    0  501    0  0.00000000000E+00  0.00000000000E+00 -0.15764536922E+04  0.15764536922E+04  0.50400001928E-02 0. -1.
    10030    2    1    2    0    0  0.00000000000E+00  0.00000000000E+00 -0.24299437058E+03  0.29099130138E+04  0.28997495553E+04 0.  0.
        5    1    3    3  502    0 -0.89588191902E+03  0.10304734439E+04 -0.61068381856E+03  0.14958063871E+04  0.46999998093E+01 0. -1.
       -5    1    3    3    0  502  0.89588191902E+03 -0.10304734439E+04  0.36768944798E+03  0.14141066267E+04  0.46999998093E+01 0.  1.
</event>
<event>
 5   0  0.2492232E-07  0.2899877E+04  0.7818609E-02  0.8272914E-01
       -2   -1    0    0    0  501  0.00000000000E+00  0.00000000000E+00  0.14408354655E+04  0.14408354655E+04  0.25500000920E-02 0. -1.
        2   -1    0    0  501    0  0.00000000000E+00  0.00000000000E+00 -0.14590987798E+04  0.14590987798E+04  0.25500000920E-02 0.  1.
    10030    2    1    2    0    0  0.00000000000E+00  0.00000000000E+00 -0.18263314371E+02  0.28999342453E+04  0.28998767350E+04 0.  0.
        4    1    3    3  502    0 -0.35188951039E+03  0.10353947453E+04  0.94296450620E+03  0.14439709758E+04  0.12699999809E+01 0. -1.
       -4    1    3    3    0  502  0.35188951039E+03 -0.10353947453E+04 -0.96122782057E+03  0.14559632695E+04  0.12699999809E+01 0.  1.
</event>
<event>
 5   0  0.2608591E-07  0.2899051E+04  0.7818609E-02  0.8273160E-01
        2   -1    0    0  501    0  0.00000000000E+00  0.00000000000E+00  0.21045009132E+04  0.21045009132E+04  0.25500000920E-02 0.  1.
       -2   -1    0    0    0  501  0.00000000000E+00  0.00000000000E+00 -0.99839564610E+03  0.99839564610E+03  0.25500000920E-02 0. -1.
    10030    2    1    2    0    0  0.00000000000E+00  0.00000000000E+00  0.11061052671E+04  0.31028965593E+04  0.28990512579E+04 0.  0.
        2    1    3    3  502    0  0.10611232043E+04 -0.17110064884E+03 -0.48788896181E+03  0.11803785519E+04  0.25500000920E-02 0. -1.
       -2    1    3    3    0  502 -0.10611232043E+04  0.17110064884E+03  0.15939942289E+04  0.19225180074E+04  0.25500000920E-02 0.  1.
</event>
<event>
 5   0  0.9388076E-08  0.2897496E+04  0.7818609E-02  0.8273623E-01
        1   -1    0    0  501    0  0.00000000000E+00  0.00000000000E+00  0.14475189985E+04  0.14475189985E+04  0.50400001928E-02 0. -1.
       -1   -1    0    0    0  501  0.00000000000E+00  0.00000000000E+00 -0.14499780204E+04  0.14499780204E+04  0.50400001928E-02 0.  1.
    10030    2    1    2    0    0  0.00000000000E+00  0.00000000000E+00 -0.24590219490E+01  0.28974970189E+04  0.28974959754E+04 0.  0.
        5    1    3    3  502    0 -0.89798159474E+03 -0.39239470411E+03 -0.10682369681E+04  0.14496540478E+04  0.46999998093E+01 0.  1.
       -5    1    3    3    0  502  0.89798159474E+03  0.39239470411E+03  0.10657779462E+04  0.14478429711E+04  0.46999998093E+01 0. -1.
</event>
<event>
 5   0  0.9443352E-08  0.2900946E+04  0.7818609E-02  0.8272596E-01
        1   -1    0    0  501    0  0.00000000000E+00  0.00000000000E+00  0.15978369058E+04  0.15978369059E+04  0.50400001928E-02 0.  1.
       -1   -1    0    0    0  501  0.00000000000E+00  0.00000000000E+00 -0.13166998317E+04  0.13166998317E+04  0.50400001928E-02 0. -1.
    10030    2    1    2    0    0  0.00000000000E+00  0.00000000000E+00  0.28113707417E+03  0.29145367375E+04  0.29009457665E+04 0.  0.
        4    1    3    3  502    0 -0.51371453506E+03  0.12008677912E+04 -0.49316706477E+03  0.13961380455E+04  0.12699999809E+01 0. -1.
       -4    1    3    3    0  502  0.51371453506E+03 -0.12008677912E+04  0.77430413894E+03  0.15183986920E+04  0.12699999809E+01 0.  1.
</event>
<event>
 5   0  0.2678723E-07  0.2903222E+04  0.7818609E-02  0.8271919E-01
        2   -1    0    0  501    0  0.00000000000E+00  0.00000000000E+00  0.13678340003E+04  0.13678340003E+04  0.25500000920E-02 0. -1.
       -2   -1    0    0    0  501  0.00000000000E+00  0.00000000000E+00 -0.15405191318E+04  0.15405191318E+04  0.25500000920E-02 0.  1.
    10030    2    1    2    0    0  0.00000000000E+00  0.00000000000E+00 -0.17268513141E+03  0.29083531321E+04  0.29032219664E+04 0.  0.
        5    1    3    3  502    0  0.13650598504E+04  0.12329509598E+03  0.39258427475E+03  0.14257400109E+04  0.46999998093E+01 0. -1.
       -5    1    3    3    0  502 -0.13650598504E+04 -0.12329509598E+03 -0.56526940616E+03  0.14826131212E+04  0.46999998093E+01 0.  1.
</event>
<event>
 5   0  0.9395744E-08  0.2900126E+04  0.7818609E-02  0.8272840E-01
       -1   -1    0    0    0  501  0.00000000000E+00  0.00000000000E+00  0.95846606086E+03  0.95846606088E+03  0.50400001928E-02 0. -1.
        1   -1    0    0  501    0  0.00000000000E+00  0.00000000000E+00 -0.21937991879E+04  0.21937991879E+04  0.50400001928E-02 0.  1.
    10030    2    1    2    0    0  0.00000000000E+00  0.00000000000E+00 -0.12353331271E+04  0.31522652488E+04  0.29001255600E+04 0.  0.
        2    1    3    3  502    0 -0.68038346115E+03 -0.12511910152E+04 -0.32142488828E+03  0.14600392356E+04  0.25500000920E-02 0. -1.
       -2    1    3    3    0  502  0.68038346115E+03  0.12511910152E+04 -0.91390823878E+03  0.16922260132E+04  0.25500000920E-02 0.  1.
</event>
<event>
 5   0  0.9763851E-08  0.2899301E+04  0.7818609E-02  0.8273086E-01
        1   -1    0    0  501    0  0.00000000000E+00  0.00000000000E+00  0.24894325725E+04  0.24894325725E+04  0.50400001928E-02 0. -1.
       -1   -1    0    0    0  501  0.00000000000E+00  0.00000000000E+00 -0.84416278280E+03  0.84416278281E+03  0.50400001928E-02 0.  1.
    10030    2    1    2    0    0  0.00000000000E+00  0.00000000000E+00  0.16452697897E+04  0.33335953553E+04  0.28993008316E+04 0.  0.
        3    1    3    3  502    0  0.58924776488E+03 -0.24587260566E+03  0.23190539751E+04  0.24053435547E+04  0.10100000352E+00 0. -1.
       -3    1    3    3    0  502 -0.58924776488E+03  0.24587260566E+03 -0.67378418539E+03  0.92825180060E+03  0.10100000352E+00 0.  1.
</event>
<event>
 5   0  0.9421924E-08  0.2902072E+04  0.7818609E-02  0.8272261E-01
        1   -1    0    0  501    0  0.00000000000E+00  0.00000000000E+00  0.13574310543E+04  0.13574310543E+04  0.50400001928E-02 0. -1.
       -1   -1    0    0    0  501  0.00000000000E+00  0.00000000000E+00 -0.15510955020E+04  0.15510955020E+04  0.50400001928E-02 0.  1.
    10030    2    1    2    0    0  0.00000000000E+00  0.00000000000E+00 -0.19366444777E+03  0.29085265563E+04  0.29020718134E+04 0.  0.
        1    1    3    3  502    0 -0.91991192845E+03  0.66763609008E+03 -0.10007969359E+04  0.15144538328E+04  0.50400001928E-02 0.  1.
       -1    1    3    3    0  502  0.91991192845E+03 -0.66763609008E+03  0.80713248813E+03  0.13940727235E+04  0.50400001928E-02 0. -1.
</event>
<event>
 5   0  0.2546841E-07  0.2899682E+04  0.7818609E-02  0.8272972E-01
       -2   -1    0    0    0  501  0.00000000000E+00  0.00000000000E+00  0.93888945211E+03  0.93888945212E+03  0.25500000920E-02 0. -1.
        2   -1    0    0  501    0  0.00000000000E+00  0.00000000000E+00 -0.22388572958E+04  0.22388572958E+04  0.25500000920E-02 0.  1.
    10030    2    1    2    0    0  0.00000000000E+00  0.00000000000E+00 -0.12999678437E+04  0.31777467479E+04  0.28996823963E+04 0.  0.
        1    1    3    3  502    0  0.88230711486E+03 -0.14899933314E+03 -0.19001557915E+04  0.21002996639E+04  0.50400001928E-02 0.  1.
       -1    1    3    3    0  502 -0.88230711486E+03  0.14899933314E+03  0.60018794779E+03  0.10774470840E+04  0.50400001928E-02 0. -1.
</event>
<event>
 5   0  0.2534588E-07  0.2901393E+04  0.7818609E-02  0.8272463E-01
        2   -1    0    0  501    0  0.00000000000E+00  0.00000000000E+00  0.27771293488E+04  0.27771293488E+04  0.25500000920E-02 0. -1.
       -2   -1    0    0    0  501  0.00000000000E+00  0.00000000000E+00 -0.75780420790E+03  0.75780420790E+03  0.25500000920E-02 0.  1.
    10030    2    1    2    0    0  0.00000000000E+00  0.00000000000E+00  0.20193251409E+04  0.35349335567E+04  0.29013929802E+04 0.  0.
        3    1    3    3  502    0  0.12608621439E+04 -0.44047252881E+03  0.31966890810E+03  0.13733090022E+04  0.10100000352E+00 0.  1.
       -3    1    3    3    0  502 -0.12608621439E+04  0.44047252881E+03  0.16996562328E+04  0.21616245545E+04  0.10100000352E+00 0. -1.
</event>
<event>
 5   0  0.2678723E-07  0.2899383E+04  0.7818609E-02  0.8273061E-01
       -2   -1    0    0    0  501  0.00000000000E+00  0.00000000000E+00  0.12312445536E+04  0.12312445536E+04  0.25500000920E-02 0.  1.
        2   -1    0    0  501    0  0.00000000000E+00  0.00000000000E+00 -0.17068954895E+04  0.17068954895E+04  0.25500000920E-02 0. -1.
    10030    2    1    2    0    0  0.00000000000E+00  0.00000000000E+00 -0.47565093594E+03  0.29381400432E+04  0.28993832276E+04 0.  0.
        5    1    3    3  502    0  0.17202077982E+03 -0.31425208460E+03  0.11856717511E+04  0.12386222639E+04  0.46999998093E+01 0.  1.
       -5    1    3    3    0  502 -0.17202077982E+03  0.31425208460E+03 -0.16613226870E+04  0.16995177792E+04  0.46999998093E+01 0. -1.
</event>
<event>
 5   0  0.2492232E-07  0.2905743E+04  0.7818609E-02  0.8271171E-01
        2   -1    0    0  501    0  0.00000000000E+00  0.00000000000E+00  0.16800003408E+04  0.16800003408E+04  0.25500000920E-02 0.  1.
       -2   -1    0    0    0  501  0.00000000000E+00  0.00000000000E+00 -0.12564491113E+04  0.12564491113E+04  0.25500000920E-02 0. -1.
    10030    2    1    2    0    0  0.00000000000E+00  0.00000000000E+00  0.42355122950E+03  0.29364494521E+04  0.29057425455E+04 0.  0.
        4    1    3    3  502    0  0.40574996908E+03  0.10215798962E+04  0.11718546781E+04  0.16067057980E+04  0.12699999809E+01 0.  1.
       -4    1    3    3    0  502 -0.40574996908E+03 -0.10215798962E+04 -0.74830344858E+03  0.13297436542E+04  0.12699999809E+01 0. -1.
</event>
<event>
 5   0  0.2546841E-07  0.2900523E+04  0.7818609E-02  0.8272722E-01
       -2   -1    0    0    0  501  0.00000000000E+00  0.00000000000E+00  0.20203553939E+04  0.20203553939E+04  0.25500000920E-02 0.  1.
        2   -1    0    0  501    0  0.00000000000E+00  0.00000000000E+00 -0.10410337683E+04  0.10410337683E+04  0.25500000920E-02 0. -1.
    10030    2    1    2    0    0  0.00000000000E+00  0.00000000000E+00  0.97932162556E+03  0.30613891623E+04  0.29005228419E+04 0.  0.
        1    1    3    3  502    0  0.69162109602E+03  0.35073493493E+03  0.17831513578E+04  0.19444751219E+04  0.50400001928E-02 0.  1.
       -1    1    3    3    0  502 -0.69162109602E+03 -0.35073493493E+03 -0.80382973222E+03  0.11169140403E+04  0.50400001928E-02 0. -1.
</event>
<event>
 5   0  0.9395744E-08  0.2899765E+04  0.7818609E-02  0.8272947E-01
        1   -1    0    0  501    0  0.00000000000E+00  0.00000000000E+00  0.10816924390E+04  0.10816924390E+04  0.50400001928E-02 0.  1.
       -1   -1    0    0    0  501  0.00000000000E+00  0.00000000000E+00 -0.19433988560E+04  0.19433988560E+04  0.50400001928E-02 0. -1.
    10030    2    1    2    0    0  0.00000000000E+00  0.00000000000E+00 -0.86170641699E+03  0.30250912950E+04  0.28997654032E+04 0.  0.
        2    1    3    3  502    0  0.56045483173E+03  0.10793385735E+04  0.39261530042E+03  0.12779781488E+04  0.25500000920E-02 0.  1.
       -2    1    3    3    0  502 -0.56045483173E+03 -0.10793385735E+04 -0.12543217174E+04  0.17471131462E+04  0.25500000920E-02 0. -1.
</event>
<event>
 5   0  0.9763851E-08  0.2905091E+04  0.7818609E-02  0.8271364E-01
       -1   -1    0    0    0  501  0.00000000000E+00  0.00000000000E+00  0.80083762401E+03  0.80083762403E+03  0.50400001928E-02 0. -1.
        1   -1    0    0  501    0  0.00000000000E+00  0.00000000000E+00 -0.26346028472E+04  0.26346028472E+04  0.50400001928E-02 0.  1.
    10030    2    1    2    0    0  0.00000000000E+00  0.00000000000E+00 -0.18337652232E+04  0.34354404712E+04  0.29050914508E+04 0.  0.
        3    1    3    3  502    0 -0.27590098512E+03 -0.43974611761E+03 -0.25211534094E+04  0.25740459447E+04  0.10100000352E+00 0.  1.
       -3    1    3    3    0  502  0.27590098512E+03  0.43974611761E+03  0.68738818623E+03  0.86139452651E+03  0.10100000352E+00 0. -1.
</event>
<event>
 5   0  0.2534588E-07  0.2900008E+04  0.7818609E-02  0.8272875E-01
        2   -1    0    0  501    0  0.00000000000E+00  0.00000000000E+00  0.15644354620E+04  0.15644354620E+04  0.25500000920E-02 0.  1.
       -2   -1    0    0    0  501  0.00000000000E+00  0.00000000000E+00 -0.13439425909E+04  0.13439425909E+04  0.25500000920E-02 0. -1.
    10030    2    1    2    0    0  0.00000000000E+00  0.00000000000E+00  0.22049287103E+03  0.29083780529E+04  0.29000078952E+04 0.  0.
        3    1    3    3  502    0 -0.75000604553E+03 -0.33004993534E+03  0.13099723163E+04  0.15451438470E+04  0.10100000352E+00 0.  1.
       -3    1    3    3    0  502  0.75000604553E+03  0.33004993534E+03 -0.10894794453E+04  0.13632342059E+04  0.10100000352E+00 0. -1.
</event>
<event>
 5   0  0.2534588E-07  0.2918851E+04  0.7818609E-02  0.8267291E-01
        2   -1    0    0  501    0  0.00000000000E+00  0.00000000000E+00  0.15475720991E+04  0.15475720991E+04  0.25500000920E-02 0.  1.
       -2   -1    0    0    0  501  0.00000000000E+00  0.00000000000E+00 -0.13762996943E+04  0.13762996943E+04  0.25500000920E-02 0. -1.
    10030    2    1    2    0    0  0.00000000000E+00  0.00000000000E+00  0.17127240485E+03  0.29238717934E+04  0.29188511486E+04 0.  0.
        3    1    3    3  502    0  0.57416279573E+03 -0.76702200115E+03  0.11884100523E+04  0.15265333697E+04  0.10100000352E+00 0.  1.
       -3    1    3    3    0  502 -0.57416279573E+03  0.76702200115E+03 -0.10171376475E+04  0.13973384237E+04  0.10100000352E+00 0. -1.
</event>
<event>
 5   0  0.9443352E-08  0.2900170E+04  0.7818609E-02  0.8272827E-01
        1   -1    0    0  501    0  0.00000000000E+00  0.00000000000E+00  0.19644078196E+04  0.19644078196E+04  0.50400001928E-02 0.  1.
       -1   -1    0    0    0  501  0.00000000000E+00  0.00000000000E+00 -0.10704228078E+04  0.10704228079E+04  0.50400001928E-02 0. -1.
    10030    2    1    2    0    0  0.00000000000E+00  0.00000000000E+00  0.89398501177E+03  0.30348306275E+04  0.29001702943E+04 0.  0.
        4    1    3    3  502    0  0.35371400034E+03 -0.11866809769E+04 -0.34264417013E+03  0.12848081472E+04  0.12699999809E+01 0. -1.
       -4    1    3    3    0  502 -0.35371400034E+03  0.11866809769E+04  0.12366291819E+04  0.17500224803E+04  0.12699999809E+01 0.  1.
</event>
<event>
 5   0  0.9421924E-08  0.2899184E+04  0.7818609E-02  0.8273120E-01
       -1   -1    0    0    0  501  0.00000000000E+00  0.00000000000E+00  0.98234944502E+03  0.98234944503E+03  0.50400001928E-02 0. -1.
        1   -1    0    0  501    0  0.00000000000E+00  0.00000000000E+00 -0.21390730123E+04  0.21390730123E+04  0.50400001928E-02 0.  1.
    10030    2    1    2    0    0  0.00000000000E+00  0.00000000000E+00 -0.11567235673E+04  0.31214224573E+04  0.28991841518E+04 0.  0.
        1    1    3    3  502    0 -0.10793132082E+04  0.45985778563E+03  0.33833368617E+03  0.12210060883E+04  0.50400001928E-02 0. -1.
       -1    1    3    3    0  502  0.10793132082E+04 -0.45985778563E+03 -0.14950572534E+04  0.19004163690E+04  0.50400001928E-02 0.  1.
</event>
<event>
 5   0  0.2678723E-07  0.2900102E+04  0.7818609E-02  0.8272847E-01
       -2   -1    0    0    0  501  0.00000000000E+00  0.00000000000E+00  0.16080926703E+04  0.16080926703E+04  0.25500000920E-02 0.  1.
        2   -1    0    0  501    0  0.00000000000E+00  0.00000000000E+00 -0.13075413249E+04  0.13075413249E+04  0.25500000920E-02 0. -1.
    10030    2    1    2    0    0  0.00000000000E+00  0.00000000000E+00  0.30055134538E+03  0.29156339953E+04  0.29001018057E+04 0.  0.
        5    1    3    3  502    0 -0.40325096492E+03 -0.12332626164E+04 -0.50055339061E+03  0.13907277982E+04  0.46999998093E+01 0. -1.
       -5    1    3    3    0  502  0.40325096492E+03  0.12332626164E+04  0.80110473599E+03  0.15249061971E+04  0.46999998093E+01 0.  1.
</event>
<event>
 5   0  0.9443352E-08  0.2899646E+04  0.7818609E-02  0.8272983E-01
        1   -1    0    0  501    0  0.00000000000E+00  0.00000000000E+00  0.11951228779E+04  0.11951228780E+04  0.50400001928E-02 0.  1.
       -1   -1    0    0    0  501  0.00000000000E+00  0.00000000000E+00 -0.17588036690E+04  0.17588036690E+04  0.50400001928E-02 0. -1.
    10030    2    1    2    0    0  0.00000000000E+00  0.00000000000E+00 -0.56368079106E+03  0.29539265470E+04  0.28996458423E+04 0.  0.
        4    1    3    3  502    0  0.15977685860E+02 -0.64492147240E+03  0.10408509719E+04  0.12245616973E+04  0.12699999809E+01 0.  1.
       -4    1    3    3    0  502 -0.15977685860E+02  0.64492147240E+03 -0.16045317629E+04  0.17293648496E+04  0.12699999809E+01 0. -1.
</event>
<event>
 5   0  0.9421924E-08  0.2900567E+04  0.7818609E-02  0.8272709E-01
       -1   -1    0    0    0  501  0.00000000000E+00  0.00000000000E+00  0.18486083118E+04  0.18486083118E+04  0.50400001928E-02 0. -1.
        1   -1    0    0  501    0  0.00000000000E+00  0.00000000000E+00 -0.11377870444E+04  0.11377870445E+04  0.50400001928E-02 0.  1.
    10030    2    1    2    0    0  0.00000000000E+00  0.00000000000E+00  0.71082126734E+03  0.29863953562E+04  0.29005672462E+04 0.  0.
        1    1    3    3  502    0  0.57296162138E+03  0.87596761232E+02  0.17241709688E+04  0.18189897585E+04  0.50400001928E-02 0. -1.
       -1    1    3    3    0  502 -0.57296162138E+03 -0.87596761232E+02 -0.10133497014E+04  0.11674055977E+04  0.50400001928E-02 0.  1.
</event>
<event>
 5   0  0.2492232E-07  0.2910294E+04  0.7818609E-02  0.8269821E-01
        2   -1    0    0  501    0  0.00000000000E+00  0.00000000000E+00  0.15148246951E+04  0.15148246951E+04  0.25500000920E-02 0. -1.
       -2   -1    0    0    0  501  0.00000000000E+00  0.00000000000E+00 -0.13978202971E+04  0.13978202971E+04  0.25500000920E-02 0.  1.
    10030    2    1    2    0    0  0.00000000000E+00  0.00000000000E+00  0.11700439796E+03  0.29126449922E+04  0.29102939407E+04 0.  0.
        4    1    3    3  502    0  0.32737285706E+03 -0.47486361106E+03  0.13955390189E+04  0.15100328482E+04  0.12699999809E+01 0. -1.
       -4    1    3    3    0  502 -0.32737285706E+03  0.47486361106E+03 -0.12785346209E+04  0.14026121440E+04  0.12699999809E+01 0.  1.
</event>
<event>
 5   0  0.9763851E-08  0.2899994E+04  0.7818609E-02  0.8272879E-01
       -1   -1    0    0    0  501  0.00000000000E+00  0.00000000000E+00  0.11474094598E+04  0.11474094598E+04  0.50400001928E-02 0. -1.
        1   -1    0    0  501    0  0.00000000000E+00  0.00000000000E+00 -0.18323807234E+04  0.18323807234E+04  0.50400001928E-02 0.  1.
    10030    2    1    2    0    0  0.00000000000E+00  0.00000000000E+00 -0.68497126364E+03  0.29797901832E+04  0.28999937765E+04 0.  0.
        3    1    3    3  502    0  0.33763716465E+01  0.56050423252E+03 -0.17165610705E+04  0.18057569918E+04  0.10100000352E+00 0.  1.
       -3    1    3    3    0  502 -0.33763716465E+01 -0.56050423252E+03  0.10315898069E+04  0.11740331913E+04  0.10100000352E+00 0. -1.
</event>
<event>
 5   0  0.9763851E-08  0.2900383E+04  0.7818609E-02  0.8272764E-01
       -1   -1    0    0    0  501  0.00000000000E+00  0.00000000000E+00  0.12102376175E+04  0.12102376175E+04  0.50400001928E-02 0. -1.
        1   -1    0    0  501    0  0.00000000000E+00  0.00000000000E+00 -0.17377206179E+04  0.17377206179E+04  0.50400001928E-02 0.  1.
    10030    2    1    2    0    0  0.00000000000E+00  0.00000000000E+00 -0.52748300048E+03  0.29479582354E+04  0.29003826372E+04 0.  0.
        3    1    3    3  502    0 -0.10887674645E+04 -0.95558875351E+03 -0.19563192172E+03  0.14617921592E+04  0.10100000352E+00 0. -1.
       -3    1    3    3    0  502  0.10887674645E+04  0.95558875351E+03 -0.33185107876E+03  0.14861660763E+04  0.10100000352E+00 0.  1.
</event>
<event>
 5   0  0.9421924E-08  0.2902076E+04  0.7818609E-02  0.8272260E-01
       -1   -1    0    0    0  501  0.00000000000E+00  0.00000000000E+00  0.22306828161E+04  0.22306828161E+04  0.50400001928E-02 0. -1.
        1   -1    0    0  501    0  0.00000000000E+00  0.00000000000E+00 -0.94388668056E+03  0.94388668058E+03  0.50400001928E-02 0.  1.
    10030    2    1    2    0    0  0.00000000000E+00  0.00000000000E+00  0.12867961355E+04  0.31745694967E+04  0.29020763592E+04 0.  0.
        1    1    3    3  502    0  0.10742620910E+04  0.69958213210E+03 -0.10017570346E+03  0.12858807765E+04  0.50400001928E-02 0.  1.
       -1    1    3    3    0  502 -0.10742620910E+04 -0.69958213210E+03  0.13869718390E+04  0.18886887202E+04  0.50400001928E-02 0. -1.
</event>
<event>
 5   0  0.9388076E-08  0.2902128E+04  0.7818609E-02  0.8272245E-01
        1   -1    0    0  501    0  0.00000000000E+00  0.00000000000E+00  0.23751996605E+04  0.23751996605E+04  0.50400001928E-02 0. -1.
       -1   -1    0    0    0  501  0.00000000000E+00  0.00000000000E+00 -0.88648846276E+03  0.88648846277E+03  0.50400001928E-02 0.  1.
    10030    2    1    2    0    0  0.00000000000E+00  0.00000000000E+00  0.14887111978E+04  0.32616881233E+04  0.29021282507E+04 0.  0.
        5    1    3    3  502    0 -0.14004637777E+04  0.37953594884E+03  0.76097545019E+03  0.16384297528E+04  0.46999998093E+01 0. -1.
       -5    1    3    3    0  502  0.14004637777E+04 -0.37953594884E+03  0.72773574758E+03  0.16232583705E+04  0.46999998093E+01 0.  1.
</event>
<event>
 5   0  0.9388076E-08  0.2899264E+04  0.7818609E-02  0.8273096E-01
       -1   -1    0    0    0  501  0.00000000000E+00  0.00000000000E+00  0.14352225073E+04  0.14352225074E+04  0.50400001928E-02 0.  1.
        1   -1    0    0  501    0  0.00000000000E+00  0.00000000000E+00 -0.14641864804E+04  0.14641864804E+04  0.50400001928E-02 0. -1.
    10030    2    1    2    0    0  0.00000000000E+00  0.00000000000E+00 -0.28963973029E+02  0.28994089877E+04  0.28992643147E+04 0.  0.
        5    1    3    3  502    0 -0.62355397872E+03  0.24509138867E+03  0.12710867102E+04  0.14368621604E+04  0.46999998093E+01 0.  1.
       -5    1    3    3    0  502  0.62355397872E+03 -0.24509138867E+03 -0.13000506832E+04  0.14625468273E+04  0.46999998093E+01 0. -1.
</event>
<event>
 5   0  0.9395744E-08  0.2900445E+04  0.7818609E-02  0.8272745E-01
       -1   -1    0    0    0  501  0.00000000000E+00  0.00000000000E+00  0.14229328153E+04  0.14229328153E+04  0.50400001928E-02 0. -1.
        1   -1    0    0  501    0  0.00000000000E+00  0.00000000000E+00 -0.14780350653E+04  0.14780350653E+04  0.50400001928E-02 0.  1.
    10030    2    1    2    0    0  0.00000000000E+00  0.00000000000E+00 -0.55102250016E+02  0.29009678806E+04  0.29004445153E+04 0.  0.
        2    1    3    3  502    0  0.14462678819E+04  0.10623841181E+03 -0.40484441531E+02  0.14507296014E+04  0.25500000920E-02 0. -1.
       -2    1    3    3    0  502 -0.14462678819E+04 -0.10623841181E+03 -0.14617808485E+02  0.14502382793E+04  0.25500000920E-02 0.  1.
</event>
<event>
 5   0  0.9395744E-08  0.2902337E+04  0.7818609E-02  0.8272182E-01
        1   -1    0    0  501    0  0.00000000000E+00  0.00000000000E+00  0.19777877320E+04  0.19777877320E+04  0.50400001928E-02 0. -1.
       -1   -1    0    0    0  501  0.00000000000E+00  0.00000000000E+00 -0.10647704889E+04  0.10647704889E+04  0.50400001928E-02 0.  1.
    10030    2    1    2    0    0  0.00000000000E+00  0.00000000000E+00  0.91301724311E+03  0.30425582208E+04  0.29023369965E+04 0.  0.
        2    1    3    3  502    0  0.94906312991E+03 -0.57677891001E+03  0.14357113193E+04  0.18151203068E+04  0.25500000920E-02 0. -1.
       -2    1    3    3    0  502 -0.94906312991E+03  0.57677891001E+03 -0.52269407623E+03  0.12274379141E+04  0.25500000920E-02 0.  1.
</event>
<event>
 5   0  0.9395744E-08  0.2903359E+04  0.7818609E-02  0.8271879E-01
       -1   -1    0    0    0  501  0.00000000000E+00  0.00000000000E+00  0.90609870625E+03  0.90609870626E+03  0.50400001928E-02 0. -1.
        1   -1    0    0  501    0  0.00000000000E+00  0.00000000000E+00 -0.23257651566E+04  0.23257651566E+04  0.50400001928E-02 0.  1.
    10030    2    1    2    0    0  0.00000000000E+00  0.00000000000E+00 -0.14196664503E+04  0.32318638628E+04  0.29033586065E+04 0.  0.
        2    1    3    3  502    0  0.22392920110E+03 -0.12422718930E+03  0.88075793549E+03  0.91723019063E+03  0.25500000920E-02 0. -1.
       -2    1    3    3    0  502 -0.22392920110E+03  0.12422718930E+03 -0.23004243858E+04  0.23146336722E+04  0.25500000920E-02 0.  1.
</event>
<event>
 5   0  0.2678723E-07  0.2900872E+04  0.7818609E-02  0.8272618E-01
        2   -1    0    0  501    0  0.00000000000E+00  0.00000000000E+00  0.17255898205E+04  0.17255898205E+04  0.25500000920E-02 0.  1.
       -2   -1    0    0    0  501  0.00000000000E+00  0.00000000000E+00 -0.12191564314E+04  0.12191564314E+04  0.25500000920E-02 0. -1.
    10030    2    1    2    0    0  0.00000000000E+00  0.00000000000E+00  0.50643338913E+03  0.29447462520E+04  0.29008715433E+04 0.  0.
        5    1    3    3  502    0 -0.21789935934E+03  0.90453273679E+03 -0.87630382749E+03  0.12781197482E+04  0.46999998093E+01 0. -1.
       -5    1    3    3    0  502  0.21789935934E+03 -0.90453273679E+03  0.13827372166E+04  0.16666265037E+04  0.46999998093E+01 0.  1.
</event>
<event>
 5   0  0.9421924E-08  0.2901149E+04  0.7818609E-02  0.8272536E-01
       -1   -1    0    0    0  501  0.00000000000E+00  0.00000000000E+00  0.12408478409E+04  0.12408478409E+04  0.50400001928E-02 0. -1.
        1   -1    0    0  501    0  0.00000000000E+00  0.00000000000E+00 -0.16957489356E+04  0.16957489356E+04  0.50400001928E-02 0.  1.
    10030    2    1    2    0    0  0.00000000000E+00  0.00000000000E+00 -0.45490109472E+03  0.29365967765E+04  0.29011490175E+04 0.  0.
        1    1    3    3  502    0  0.95185635825E+03 -0.28287008348E+02 -0.13350487721E+04  0.16398737468E+04  0.50400001928E-02 0.  1.
       -1    1    3    3    0  502 -0.95185635825E+03  0.28287008348E+02  0.88014767741E+03  0.12967230297E+04  0.50400001928E-02 0. -1.
</event>
<event>
 5   0  0.2534588E-07  0.2895888E+04  0.7818609E-02  0.8274102E-01
        2   -1    0    0  501    0  0.00000000000E+00  0.00000000000E+00  0.11934006442E+04  0.11934006442E+04  0.25500000920E-02 0.  1.
       -2   -1    0    0    0  501  0.00000000000E+00  0.00000000000E+00 -0.17567800405E+04  0.17567800405E+04  0.25500000920E-02 0. -1.
    10030    2    1    2    0    0  0.00000000000E+00  0.00000000000E+00 -0.56337939633E+03  0.29501806847E+04  0.28958884178E+04 0.  0.
        3    1    3    3  502    0  0.60781110993E+03  0.13027368027E+04 -0.45809762217E+03  0.15087779704E+04  0.10100000352E+00 0. -1.
       -3    1    3    3    0  502 -0.60781110993E+03 -0.13027368027E+04 -0.10528177416E+03  0.14414027142E+04  0.10100000352E+00 0.  1.
</event>
<event>
 5   0  0.9443352E-08  0.2896976E+04  0.7818609E-02  0.8273778E-01
        1   -1    0    0  501    0  0.00000000000E+00  0.00000000000E+00  0.22289110178E+04  0.22289110178E+04  0.50400001928E-02 0.  1.
       -1   -1    0    0    0  501  0.00000000000E+00  0.00000000000E+00 -0.94131954697E+03  0.94131954698E+03  0.50400001928E-02 0. -1.
    10030    2    1    2    0    0  0.00000000000E+00  0.00000000000E+00  0.12875914708E+04  0.31702305647E+04  0.28969760161E+04 0.  0.
        4    1    3    3  502    0  0.46736083369E+03  0.24552995565E+03 -0.83228671143E+03  0.98560331316E+03  0.12699999809E+01 0. -1.
       -4    1    3    3    0  502 -0.46736083369E+03 -0.24552995565E+03  0.21198781822E+04  0.21846272516E+04  0.12699999809E+01 0.  1.
</event>
<event>
 5   0  0.2492232E-07  0.2899232E+04  0.7818609E-02  0.8273106E-01
        2   -1    0    0  501    0  0.00000000000E+00  0.00000000000E+00  0.23760518686E+04  0.23760518686E+04  0.25500000920E-02 0. -1.
       -2   -1    0    0    0  501  0.00000000000E+00  0.00000000000E+00 -0.88440242930E+03  0.88440242930E+03  0.25500000920E-02 0.  1.
    10030    2    1    2    0    0  0.00000000000E+00  0.00000000000E+00  0.14916494393E+04  0.32604542979E+04  0.28992316532E+04 0.  0.
        4    1    3    3  502    0 -0.33198018268E+03  0.58102838995E+03  0.21919561074E+04  0.22918285322E+04  0.12699999809E+01 0. -1.
       -4    1    3    3    0  502  0.33198018268E+03 -0.58102838995E+03 -0.70030666809E+03  0.96862576565E+03  0.12699999809E+01 0.  1.
</event>
<event>
 5   0  0.2546841E-07  0.2907070E+04  0.7818609E-02  0.8270777E-01
       -2   -1    0    0    0  501  0.00000000000E+00  0.00000000000E+00  0.11030485553E+04  0.11030485553E+04  0.25500000920E-02 0.  1.
        2   -1    0    0  501    0  0.00000000000E+00  0.00000000000E+00 -0.19153861014E+04  0.19153861014E+04  0.25500000920E-02 0. -1.
    10030    2    1    2    0    0  0.00000000000E+00  0.00000000000E+00 -0.81233754608E+03  0.30184346566E+04  0.29070699145E+04 0.  0.
        1    1    3    3  502    0  0.11015541342E+04  0.88396854157E+03 -0.49585877553E+02  0.14132518007E+04  0.50400001928E-02 0. -1.
       -1    1    3    3    0  502 -0.11015541342E+04 -0.88396854157E+03 -0.76275166853E+03  0.16051828559E+04  0.50400001928E-02 0.  1.
</event>
<event>
 5   0  0.9763851E-08  0.2900371E+04  0.7818609E-02  0.8272767E-01
       -1   -1    0    0    0  501  0.00000000000E+00  0.00000000000E+00  0.11360390381E+04  0.11360390381E+04  0.50400001928E-02 0.  1.
        1   -1    0    0  501    0  0.00000000000E+00  0.00000000000E+00 -0.18512021501E+04  0.18512021501E+04  0.50400001928E-02 0. -1.
    10030    2    1    2    0    0  0.00000000000E+00  0.00000000000E+00 -0.71516311197E+03  0.29872411882E+04  0.29003709486E+04 0.  0.
        3    1    3    3  502    0  0.92215228718E+03  0.21211995688E+03 -0.14894406189E+04  0.17645943116E+04  0.10100000352E+00 0. -1.
       -3    1    3    3    0  502 -0.92215228718E+03 -0.21211995688E+03  0.77427750698E+03  0.12226468766E+04  0.10100000352E+00 0.  1.
</event>
<event>
 5   0  0.2534588E-07  0.2899254E+04  0.7818609E-02  0.8273099E-01
        2   -1    0    0  501    0  0.00000000000E+00  0.00000000000E+00  0.22726847165E+04  0.22726847165E+04  0.25500000920E-02 0. -1.
       -2   -1    0    0    0  501  0.00000000000E+00  0.00000000000E+00 -0.92464145094E+03  0.92464145094E+03  0.25500000920E-02 0.  1.
    10030    2    1    2    0    0  0.00000000000E+00  0.00000000000E+00  0.13480432655E+04  0.31973261674E+04  0.28992540377E+04 0.  0.
        3    1    3    3  502    0  0.53261539432E+03 -0.35017684159E+03  0.21098426942E+04  0.22040279452E+04  0.10100000352E+00 0. -1.
       -3    1    3    3    0  502 -0.53261539432E+03  0.35017684159E+03 -0.76179942865E+03  0.99329822226E+03  0.10100000352E+00 0.  1.
</event>
<event>
 5   0  0.9443352E-08  0.2885210E+04  0.7818609E-02  0.8277292E-01
        1   -1    0    0  501    0  0.00000000000E+00  0.00000000000E+00  0.19486352693E+04  0.19486352693E+04  0.50400001928E-02 0.  1.
       -1   -1    0    0    0  501  0.00000000000E+00  0.00000000000E+00 -0.10679829438E+04  0.10679829438E+04  0.50400001928E-02 0. -1.
    10030    2    1    2    0    0  0.00000000000E+00  0.00000000000E+00  0.88065232551E+03  0.30166182131E+04  0.28852100314E+04 0.  0.
        4    1    3    3  502    0  0.48450623098E+03  0.13587683271E+04  0.42936219413E+03  0.15051083553E+04  0.12699999809E+01 0. -1.
       -4    1    3    3    0  502 -0.48450623098E+03 -0.13587683271E+04  0.45129013139E+03  0.15115098578E+04  0.12699999809E+01 0.  1.
</event>
<event>
 5   0  0.2608591E-07  0.2900730E+04  0.7818609E-02  0.8272660E-01
       -2   -1    0    0    0  501  0.00000000000E+00  0.00000000000E+00  0.84774364379E+03  0.84774364379E+03  0.25500000920E-02 0.  1.
        2   -1    0    0  501    0  0.00000000000E+00  0.00000000000E+00 -0.24813611040E+04  0.24813611040E+04  0.25500000920E-02 0. -1.
    10030    2    1    2    0    0  0.00000000000E+00  0.00000000000E+00 -0.16336174602E+04  0.33291047478E+04  0.29007296350E+04 0.  0.
        2    1    3    3  502    0  0.13215912892E+04 -0.72537439467E+02 -0.14974244902E+04  0.19985357940E+04  0.25500000920E-02 0. -1.
       -2    1    3    3    0  502 -0.13215912892E+04  0.72537439467E+02 -0.13619297001E+03  0.13305689538E+04  0.25500000920E-02 0.  1.
</event>
<event>
 5   0  0.9443352E-08  0.2898035E+04  0.7818609E-02  0.8273462E-01
        1   -1    0    0  501    0  0.00000000000E+00  0.00000000000E+00  0.15949746904E+04  0.15949746904E+04  0.50400001928E-02 0.  1.
       -1   -1    0    0    0  501  0.00000000000E+00  0.00000000000E+00 -0.13164170553E+04  0.13164170553E+04  0.50400001928E-02 0. -1.
    10030    2    1    2    0    0  0.00000000000E+00  0.00000000000E+00  0.27855763511E+03  0.29113917457E+04  0.28980351172E+04 0.  0.
        4    1    3    3  502    0 -0.52041708228E+03 -0.13127463579E+04  0.46560406245E+03  0.14869181873E+04  0.12699999809E+01 0. -1.
       -4    1    3    3    0  502  0.52041708228E+03  0.13127463579E+04 -0.18704642734E+03  0.14244735584E+04  0.12699999809E+01 0.  1.
</event>
<event>
 5   0  0.9443352E-08  0.2899180E+04  0.7818609E-02  0.8273121E-01
       -1   -1    0    0    0  501  0.00000000000E+00  0.00000000000E+00  0.14410584933E+04  0.14410584933E+04  0.50400001928E-02 0. -1.
        1   -1    0    0  501    0  0.00000000000E+00  0.00000000000E+00 -0.14581722706E+04  0.14581722706E+04  0.50400001928E-02 0.  1.
    10030    2    1    2    0    0  0.00000000000E+00  0.00000000000E+00 -0.17113777339E+02  0.28992307639E+04  0.28991802533E+04 0.  0.
        4    1    3    3  502    0 -0.68705098655E+03  0.12681492149E+04 -0.15370910923E+03  0.14504721964E+04  0.12699999809E+01 0.  1.
       -4    1    3    3    0  502  0.68705098655E+03 -0.12681492149E+04  0.13659533189E+03  0.14487585675E+04  0.12699999809E+01 0. -1.
</event>
<event>
 5   0  0.9395744E-08  0.2899456E+04  0.7818609E-02  0.8273039E-01
       -1   -1    0    0    0  501  0.00000000000E+00  0.00000000000E+00  0.16426398041E+04  0.16426398041E+04  0.50400001928E-02 0.  1.
        1   -1    0    0  501    0  0.00000000000E+00  0.00000000000E+00 -0.12794715753E+04  0.12794715753E+04  0.50400001928E-02 0. -1.
    10030    2    1    2    0    0  0.00000000000E+00  0.00000000000E+00  0.36316822881E+03  0.29221113794E+04  0.28994557681E+04 0.  0.
        2    1    3    3  502    0 -0.12684440838E+04 -0.98791307722E+02  0.88199713721E+03  0.15481049920E+04  0.25500000920E-02 0.  1.
       -2    1    3    3    0  502  0.12684440838E+04  0.98791307722E+02 -0.51882890840E+03  0.13740063874E+04  0.25500000920E-02 0. -1.
</event>
<event>
 5   0  0.2608591E-07  0.2900839E+04  0.7818609E-02  0.8272628E-01
        2   -1    0    0  501    0  0.00000000000E+00  0.00000000000E+00  0.11911135008E+04  0.11911135008E+04  0.25500000920E-02 0.  1.
       -2   -1    0    0    0  501  0.00000000000E+00  0.00000000000E+00 -0.17661763712E+04  0.17661763712E+04  0.25500000920E-02 0. -1.
    10030    2    1    2    0    0  0.00000000000E+00  0.00000000000E+00 -0.57506287036E+03  0.29572898720E+04  0.29008388583E+04 0.  0.
        2    1    3    3  502    0  0.31679932310E+03 -0.49177706859E+03  0.10655154661E+04  0.12155367970E+04  0.25500000920E-02 0.  1.
       -2    1    3    3    0  502 -0.31679932310E+03  0.49177706859E+03 -0.16405783364E+04  0.17417530750E+04  0.25500000920E-02 0. -1.
</event>
<event>
 5   0  0.2546841E-07  0.2910440E+04  0.7818609E-02  0.8269778E-01
       -2   -1    0    0    0  501  0.00000000000E+00  0.00000000000E+00  0.16281271582E+04  0.16281271582E+04  0.25500000920E-02 0. -1.
        2   -1    0    0  501    0  0.00000000000E+00  0.00000000000E+00 -0.13006758326E+04  0.13006758326E+04  0.25500000920E-02 0.  1.
    10030    2    1    2    0    0  0.00000000000E+00  0.00000000000E+00  0.32745132558E+03  0.29288029908E+04  0.29104402740E+04 0.  0.
        1    1    3    3  502    0  0.11007225354E+03 -0.83240002008E+03 -0.10323269517E+04  0.13306782592E+04  0.50400001928E-02 0.  1.
       -1    1    3    3    0  502 -0.11007225354E+03  0.83240002008E+03  0.13597782772E+04  0.15981247316E+04  0.50400001928E-02 0. -1.
</event>
<event>
 5   0  0.8407500E-08  0.2902056E+04  0.7818609E-02  0.8272266E-01
        4   -1    0    0  501    0  0.00000000000E+00  0.00000000000E+00  0.15868393901E+04  0.15868398983E+04  0.12699999809E+01 0. -1.
       -4   -1    0    0    0  501  0.00000000000E+00  0.00000000000E+00 -0.13268388937E+04  0.13268395015E+04  0.12699999809E+01 0.  1.
    10030    2    1    2    0    0  0.00000000000E+00  0.00000000000E+00  0.26000049646E+03  0.29136793998E+04  0.29020557174E+04 0.  0.
        5    1    3    3  502    0  0.95170524840E+03  0.66289997877E+03  0.10054333045E+04  0.15349584625E+04  0.46999998093E+01 0. -1.
       -5    1    3    3    0  502 -0.95170524840E+03 -0.66289997877E+03 -0.74543280807E+03  0.13787209373E+04  0.46999998093E+01 0.  1.
</event>
<event>
 5   0  0.2546841E-07  0.2898030E+04  0.7818609E-02  0.8273464E-01
       -2   -1    0    0    0  501  0.00000000000E+00  0.00000000000E+00  0.10347393944E+04  0.10347393944E+04  0.25500000920E-02 0. -1.
        2   -1    0    0  501    0  0.00000000000E+00  0.00000000000E+00 -0.20291530937E+04  0.20291530937E+04  0.25500000920E-02 0.  1.
    10030    2    1    2    0    0  0.00000000000E+00  0.00000000000E+00 -0.99441369929E+03  0.30638924880E+04  0.28980301194E+04 0.  0.
        1    1    3    3  502    0  0.97590305749E+03 -0.10075907866E+04 -0.11306793279E+03  0.14072705242E+04  0.50400001928E-02 0. -1.
       -1    1    3    3    0  502 -0.97590305749E+03  0.10075907866E+04 -0.88134576650E+03  0.16566219638E+04  0.50400001928E-02 0.  1.
</event>
<event>
 5   0  0.9421924E-08  0.2902037E+04  0.7818609E-02  0.8272272E-01
        1   -1    0    0  501    0  0.00000000000E+00  0.00000000000E+00  0.17995210635E+04  0.17995210635E+04  0.50400001928E-02 0. -1.
       -1   -1    0    0    0  501  0.00000000000E+00  0.00000000000E+00 -0.11700081442E+04  0.11700081442E+04  0.50400001928E-02 0.  1.
    10030    2    1    2    0    0  0.00000000000E+00  0.00000000000E+00  0.62951291930E+03  0.29695292077E+04  0.29020367331E+04 0.  0.
        1    1    3    3  502    0  0.88772818054E+03 -0.61485002666E+02  0.14875413014E+04  0.17333842192E+04  0.50400001928E-02 0. -1.
       -1    1    3    3    0  502 -0.88772818054E+03  0.61485002666E+02 -0.85802838212E+03  0.12361449885E+04  0.50400001928E-02 0.  1.
</event>
<event>
 5   0  0.2678723E-07  0.2903666E+04  0.7818609E-02  0.8271788E-01
        2   -1    0    0  501    0  0.00000000000E+00  0.00000000000E+00  0.14493397934E+04  0.14493397934E+04  0.25500000920E-02 0. -1.
       -2   -1    0    0    0  501  0.00000000000E+00  0.00000000000E+00 -0.14543305407E+04  0.14543305407E+04  0.25500000920E-02 0.  1.
    10030    2    1    2    0    0  0.00000000000E+00  0.00000000000E+00 -0.49907473154E+01  0.29036703340E+04  0.29036660451E+04 0.  0.
        5    1    3    3  502    0  0.47721079876E+03 -0.90880982431E+03  0.10242152507E+04  0.14500704855E+04  0.46999998093E+01 0. -1.
       -5    1    3    3    0  502 -0.47721079876E+03  0.90880982431E+03 -0.10292059980E+04  0.14535998485E+04  0.46999998093E+01 0.  1.
</event>
<event>
 5   0  0.2492232E-07  0.2900105E+04  0.7818609E-02  0.8272846E-01
        2   -1    0    0  501    0  0.00000000000E+00  0.00000000000E+00  0.14040452281E+04  0.14040452281E+04  0.25500000920E-02 0.  1.
       -2   -1    0    0    0  501  0.00000000000E+00  0.00000000000E+00 -0.14975674639E+04  0.14975674639E+04  0.25500000920E-02 0. -1.
    10030    2    1    2    0    0  0.00000000000E+00  0.00000000000E+00 -0.93522235796E+02  0.29016126920E+04  0.29001051370E+04 0.  0.
        4    1    3    3  502    0  0.12157758594E+04  0.31830315074E+03  0.67695644821E+03  0.14274801161E+04  0.12699999809E+01 0.  1.
       -4    1    3    3    0  502 -0.12157758594E+04 -0.31830315074E+03 -0.77047868400E+03  0.14741325759E+04  0.12699999809E+01 0. -1.
</event>
<event>
 5   0  0.2492232E-07  0.2900179E+04  0.7818609E-02  0.8272824E-01
       -2   -1    0    0    0  501  0.00000000000E+00  0.00000000000E+00  0.10494644177E+04  0.10494644177E+04  0.25500000920E-02 0. -1.
        2   -1    0    0  501    0  0.00000000000E+00  0.00000000000E+00 -0.20036499878E+04  0.20036499878E+04  0.25500000920E-02 0.  1.
    10030    2    1    2    0    0  0.00000000000E+00  0.00000000000E+00 -0.95418557013E+03  0.30531144054E+04  0.29001788687E+04 0.  0.
        4    1    3    3  502    0 -0.10854119980E+04  0.89435330819E+03 -0.10523693642E+03  0.14103416150E+04  0.12699999809E+01 0.  1.
       -4    1    3    3    0  502  0.10854119980E+04 -0.89435330819E+03 -0.84894863371E+03  0.16427727904E+04  0.12699999809E+01 0. -1.
</event>
<event>
 5   0  0.9395744E-08  0.2901238E+04  0.7818609E-02  0.8272509E-01
       -1   -1    0    0    0  501  0.00000000000E+00  0.00000000000E+00  0.16076582908E+04  0.16076582908E+04  0.50400001928E-02 0.  1.
        1   -1    0    0  501    0  0.00000000000E+00  0.00000000000E+00 -0.13089193519E+04  0.13089193519E+04  0.50400001928E-02 0. -1.
    10030    2    1    2    0    0  0.00000000000E+00  0.00000000000E+00  0.29873893890E+03  0.29165776426E+04  0.29012377000E+04 0.  0.
        2    1    3    3  502    0  0.99301871090E+03 -0.86554612856E+03 -0.46132816425E+03  0.13957363419E+04  0.25500000920E-02 0. -1.
       -2    1    3    3    0  502 -0.99301871090E+03  0.86554612856E+03  0.76006710314E+03  0.15208413008E+04  0.25500000920E-02 0.  1.
</event>
<event>
 5   0  0.9763851E-08  0.2900959E+04  0.7818609E-02  0.8272592E-01
        1   -1    0    0  501    0  0.00000000000E+00  0.00000000000E+00  0.13142089434E+04  0.13142089434E+04  0.50400001928E-02 0.  1.
       -1   -1    0    0    0  501  0.00000000000E+00  0.00000000000E+00 -0.16008803672E+04  0.16008803673E+04  0.50400001928E-02 0. -1.
    10030    2    1    2    0    0  0.00000000000E+00  0.00000000000E+00 -0.28667142382E+03  0.29150893107E+04  0.29009593558E+04 0.  0.
        3    1    3    3  502    0  0.69624248895E+03  0.55416715778E+03 -0.12943565071E+04  0.15707366488E+04  0.10100000352E+00 0. -1.
       -3    1    3    3    0  502 -0.69624248895E+03 -0.55416715778E+03  0.10076850833E+04  0.13443526619E+04  0.10100000352E+00 0.  1.
</event>
<event>
 5   0  0.9388076E-08  0.2900162E+04  0.7818609E-02  0.8272829E-01
        1   -1    0    0  501    0  0.00000000000E+00  0.00000000000E+00  0.25019964398E+04  0.25019964398E+04  0.50400001928E-02 0. -1.
       -1   -1    0    0    0  501  0.00000000000E+00  0.00000000000E+00 -0.84042280409E+03  0.84042280411E+03  0.50400001928E-02 0.  1.
    10030    2    1    2    0    0  0.00000000000E+00  0.00000000000E+00  0.16615736357E+04  0.33424192439E+04  0.29001619705E+04 0.  0.
        5    1    3    3  502    0 -0.16958029793E+03 -0.13910798851E+04  0.40133463251E+03  0.14577216132E+04  0.46999998093E+01 0.  1.
       -5    1    3    3    0  502  0.16958029793E+03  0.13910798851E+04  0.12602390032E+04  0.18846976308E+04  0.46999998093E+01 0. -1.
</event>
<event>
 5   0  0.2492232E-07  0.2899965E+04  0.7818609E-02  0.8272888E-01
        2   -1    0    0  501    0  0.00000000000E+00  0.00000000000E+00  0.20875483087E+04  0.20875483087E+04  0.25500000920E-02 0. -1.
       -2   -1    0    0    0  501  0.00000000000E+00  0.00000000000E+00 -0.10071379011E+04  0.10071379011E+04  0.25500000920E-02 0.  1.
    10030    2    1    2    0    0  0.00000000000E+00  0.00000000000E+00  0.10804104076E+04  0.30946862098E+04  0.28999648426E+04 0.  0.
        4    1    3    3  502    0 -0.26221543840E+03  0.59754920445E+03 -0.84158436617E+03  0.10649356066E+04  0.12699999809E+01 0.  1.
       -4    1    3    3    0  502  0.26221543840E+03 -0.59754920445E+03  0.19219947738E+04  0.20297506032E+04  0.12699999809E+01 0. -1.
</event>
<event>
 5   0  0.2678723E-07  0.2896923E+04  0.7818609E-02  0.8273794E-01
       -2   -1    0    0    0  501  0.00000000000E+00  0.00000000000E+00  0.78594127456E+03  0.78594127457E+03  0.25500000920E-02 0.  1.
        2   -1    0    0  501    0  0.00000000000E+00  0.00000000000E+00 -0.26694624616E+04  0.26694624616E+04  0.25500000920E-02 0. -1.
    10030    2    1    2    0    0  0.00000000000E+00  0.00000000000E+00 -0.18835211870E+04  0.34554037361E+04  0.28969230086E+04 0.  0.
        5    1    3    3  502    0 -0.86184679772E+03  0.99143201023E+02  0.44177095935E+03  0.97354658212E+03  0.46999998093E+01 0.  1.
       -5    1    3    3    0  502  0.86184679772E+03 -0.99143201023E+02 -0.23252921464E+04  0.24818571540E+04  0.46999998093E+01 0. -1.
</event>
<event>
 5   0  0.2546841E-07  0.2898392E+04  0.7818609E-02  0.8273356E-01
       -2   -1    0    0    0  501  0.00000000000E+00  0.00000000000E+00  0.28203935741E+04  0.28203935741E+04  0.25500000920E-02 0.  1.
        2   -1    0    0  501    0  0.00000000000E+00  0.00000000000E+00 -0.74463694187E+03  0.74463694187E+03  0.25500000920E-02 0. -1.
    10030    2    1    2    0    0  0.00000000000E+00  0.00000000000E+00  0.20757566323E+04  0.35650305160E+04  0.28983921377E+04 0.  0.
        1    1    3    3  502    0 -0.14277583249E+04  0.11156306668E+03  0.76496983683E+03  0.16236129475E+04  0.50400001928E-02 0.  1.
       -1    1    3    3    0  502  0.14277583249E+04 -0.11156306668E+03  0.13107867954E+04  0.19414175685E+04  0.50400001928E-02 0. -1.
</event>
<event>
 5   0  0.2546841E-07  0.2907350E+04  0.7818609E-02  0.8270694E-01
       -2   -1    0    0    0  501  0.00000000000E+00  0.00000000000E+00  0.18407212736E+04  0.18407212736E+04  0.25500000920E-02 0.  1.
        2   -1    0    0  501    0  0.00000000000E+00  0.00000000000E+00 -0.11480121598E+04  0.11480121598E+04  0.25500000920E-02 0. -1.
    10030    2    1    2    0    0  0.00000000000E+00  0.00000000000E+00  0.69270911384E+03  0.29887334334E+04  0.29073495867E+04 0.  0.
        1    1    3    3  502    0 -0.50066497535E+03  0.11320007363E+04  0.11299783902E+04  0.16759899304E+04  0.50400001928E-02 0.  1.
       -1    1    3    3    0  502  0.50066497535E+03 -0.11320007363E+04 -0.43726927634E+03  0.13127435030E+04  0.50400001928E-02 0. -1.
</event>
<event>
 5   0  0.8407500E-08  0.2899900E+04  0.7818609E-02  0.8272907E-01
       -3   -1    0    0    0  501  0.00000000000E+00  0.00000000000E+00  0.18714318600E+04  0.18714318627E+04  0.10100000352E+00 0. -1.
        3   -1    0    0  501    0  0.00000000000E+00  0.00000000000E+00 -0.11233938200E+04  0.11233938246E+04  0.10100000352E+00 0.  1.
    10030    2    1    2    0    0  0.00000000000E+00  0.00000000000E+00  0.74803803997E+03  0.29948256873E+04  0.28998999962E+04 0.  0.
        1    1    3    3  502    0  0.16873985192E+03 -0.15276752277E+03  0.18528654200E+04  0.18667943964E+04  0.50400001928E-02 0. -1.
       -1    1    3    3    0  502 -0.16873985192E+03  0.15276752277E+03 -0.11048273800E+04  0.11280312909E+04  0.50400001928E-02 0.  1.
</event>
<event>
 5   0  0.8407500E-08  0.2900654E+04  0.7818609E-02  0.8272683E-01
        3   -1    0    0  501    0  0.00000000000E+00  0.00000000000E+00  0.15864035275E+04  0.15864035308E+04  0.10100000352E+00 0.  1.
       -3   -1    0    0    0  501  0.00000000000E+00  0.00000000000E+00 -0.13259222732E+04  0.13259222770E+04  0.10100000352E+00 0. -1.
    10030    2    1    2    0    0  0.00000000000E+00  0.00000000000E+00  0.26048125438E+03  0.29123258078E+04  0.29006535689E+04 0.  0.
        3    1    3    3  502    0  0.10830973977E+04  0.22282894885E+03  0.10724705133E+04  0.15404368618E+04  0.10100000352E+00 0.  1.
       -3    1    3    3    0  502 -0.10830973977E+04 -0.22282894885E+03 -0.81198925888E+03  0.13718889459E+04  0.10100000352E+00 0. -1.
</event>
<event>
 5   0  0.2492232E-07  0.2899751E+04  0.7818609E-02  0.8272952E-01
        2   -1    0    0  501    0  0.00000000000E+00  0.00000000000E+00  0.23256100003E+04  0.23256100003E+04  0.25500000920E-02 0.  1.
       -2   -1    0    0    0  501  0.00000000000E+00  0.00000000000E+00 -0.90390847316E+03  0.90390847317E+03  0.25500000920E-02 0. -1.
    10030    2    1    2    0    0  0.00000000000E+00  0.00000000000E+00  0.14217015271E+04  0.32295184735E+04  0.28997507372E+04 0.  0.
        4    1    3    3  502    0  0.28404678408E+02  0.14240183431E+04  0.40890676546E+03  0.14818371783E+04  0.12699999809E+01 0. -1.
       -4    1    3    3    0  502 -0.28404678408E+02 -0.14240183431E+04  0.10127947617E+04  0.17476812952E+04  0.12699999809E+01 0.  1.
</event>
<event>
 5   0  0.9443352E-08  0.2898755E+04  0.7818609E-02  0.8273248E-01
       -1   -1    0    0    0  501  0.00000000000E+00  0.00000000000E+00  0.12534634662E+04  0.12534634662E+04  0.50400001928E-02 0. -1.
        1   -1    0    0  501    0  0.00000000000E+00  0.00000000000E+00 -0.16759127381E+04  0.16759127381E+04  0.50400001928E-02 0.  1.
    10030    2    1    2    0    0  0.00000000000E+00  0.00000000000E+00 -0.42244927195E+03  0.29293762043E+04  0.28987551741E+04 0.  0.
        4    1    3    3  502    0  0.14025466164E+04 -0.25369755930E+03  0.54602197041E+02  0.14263528580E+04  0.12699999809E+01 0.  1.
       -4    1    3    3    0  502 -0.14025466164E+04  0.25369755930E+03 -0.47705146899E+03  0.15030233463E+04  0.12699999809E+01 0. -1.
</event>
<event>
 5   0  0.2492232E-07  0.2898706E+04  0.7818609E-02  0.8273263E-01
        2   -1    0    0  501    0  0.00000000000E+00  0.00000000000E+00  0.11739911146E+04  0.11739911146E+04  0.25500000920E-02 0. -1.
       -2   -1    0    0    0  501  0.00000000000E+00  0.00000000000E+00 -0.17893015651E+04  0.17893015651E+04  0.25500000920E-02 0.  1.
    10030    2    1    2    0    0  0.00000000000E+00  0.00000000000E+00 -0.61531045057E+03  0.29632926797E+04  0.28987060139E+04 0.  0.
        4    1    3    3  502    0 -0.11210646517E+04  0.21142799658E+03  0.60620629597E+03  0.12918883223E+04  0.12699999809E+01 0. -1.
       -4    1    3    3    0  502  0.11210646517E+04 -0.21142799658E+03 -0.12215167465E+04  0.16714043574E+04  0.12699999809E+01 0.  1.
</event>
<event>
 5   0  0.9763851E-08  0.2898947E+04  0.7818609E-02  0.8273191E-01
        1   -1    0    0  501    0  0.00000000000E+00  0.00000000000E+00  0.22037545154E+04  0.22037545154E+04  0.50400001928E-02 0. -1.
       -1   -1    0    0    0  501  0.00000000000E+00  0.00000000000E+00 -0.95336082697E+03  0.95336082698E+03  0.50400001928E-02 0.  1.
    10030    2    1    2    0    0  0.00000000000E+00  0.00000000000E+00  0.12503936884E+04  0.31571153424E+04  0.28989468621E+04 0.  0.
        3    1    3    3  502    0  0.11196552375E+04  0.13982900921E+03  0.16160541708E+04  0.19709924140E+04  0.10100000352E+00 0. -1.
       -3    1    3    3    0  502 -0.11196552375E+04 -0.13982900921E+03 -0.36566048239E+03  0.11861229284E+04  0.10100000352E+00 0.  1.
</event>
<event>
 5   0  0.9443352E-08  0.2894898E+04  0.7818609E-02  0.8274397E-01
        1   -1    0    0  501    0  0.00000000000E+00  0.00000000000E+00  0.11722805049E+04  0.11722805049E+04  0.50400001928E-02 0. -1.
       -1   -1    0    0    0  501  0.00000000000E+00  0.00000000000E+00 -0.17872074912E+04  0.17872074912E+04  0.50400001928E-02 0.  1.
    10030    2    1    2    0    0  0.00000000000E+00  0.00000000000E+00 -0.61492698632E+03  0.29594879960E+04  0.28948979257E+04 0.  0.
        4    1    3    3  502    0  0.36202442425E+03  0.86891102012E+03  0.81663264158E+03  0.12461775671E+04  0.12699999809E+01 0. -1.
       -4    1    3    3    0  502 -0.36202442425E+03 -0.86891102012E+03 -0.14315596279E+04  0.17133104289E+04  0.12699999809E+01 0.  1.
</event>
<event>
 5   0  0.9395744E-08  0.2899899E+04  0.7818609E-02  0.8272908E-01
        1   -1    0    0  501    0  0.00000000000E+00  0.00000000000E+00  0.10074078686E+04  0.10074078686E+04  0.50400001928E-02 0. -1.
       -1   -1    0    0    0  501  0.00000000000E+00  0.00000000000E+00 -0.20868938096E+04  0.20868938096E+04  0.50400001928E-02 0.  1.
    10030    2    1    2    0    0  0.00000000000E+00  0.00000000000E+00 -0.10794859410E+04  0.30943016782E+04  0.28998987877E+04 0.  0.
        2    1    3    3  502    0  0.59040744646E+03  0.38117971719E+03 -0.18930205217E+04  0.20192586821E+04  0.25500000920E-02 0.  1.
       -2    1    3    3    0  502 -0.59040744646E+03 -0.38117971719E+03  0.81353458062E+03  0.10750429961E+04  0.25500000920E-02 0. -1.
</event>
<event>
 5   0  0.2546841E-07  0.2901808E+04  0.7818609E-02  0.8272340E-01
        2   -1    0    0  501    0  0.00000000000E+00  0.00000000000E+00  0.17534280382E+04  0.17534280382E+04  0.25500000920E-02 0.  1.
       -2   -1    0    0    0  501  0.00000000000E+00  0.00000000000E+00 -0.12005749027E+04  0.12005749027E+04  0.25500000920E-02 0. -1.
    10030    2    1    2    0    0  0.00000000000E+00  0.00000000000E+00  0.55285313554E+03  0.29540029410E+04  0.29018075032E+04 0.  0.
        1    1    3    3  502    0  0.82066486871E+03  0.36015908972E+03 -0.88511259236E+03  0.12596149006E+04  0.50400001928E-02 0. -1.
       -1    1    3    3    0  502 -0.82066486871E+03 -0.36015908972E+03  0.14379657279E+04  0.16943880404E+04  0.50400001928E-02 0.  1.
</event>
<event>
 5   0  0.9763851E-08  0.2899938E+04  0.7818609E-02  0.8272896E-01
       -1   -1    0    0    0  501  0.00000000000E+00  0.00000000000E+00  0.14935993543E+04  0.14935993543E+04  0.50400001928E-02 0.  1.
        1   -1    0    0  501    0  0.00000000000E+00  0.00000000000E+00 -0.14076134294E+04  0.14076134294E+04  0.50400001928E-02 0. -1.
    10030    2    1    2    0    0  0.00000000000E+00  0.00000000000E+00  0.85985924945E+02  0.29012127837E+04  0.28999382816E+04 0.  0.
        3    1    3    3  502    0  0.11164404683E+04 -0.63173828085E+03  0.71921748263E+03  0.14706482830E+04  0.10100000352E+00 0.  1.
       -3    1    3    3    0  502 -0.11164404683E+04  0.63173828085E+03 -0.63323155769E+03  0.14305645007E+04  0.10100000352E+00 0. -1.
</event>
<event>
 5   0  0.2546841E-07  0.2900460E+04  0.7818609E-02  0.8272741E-01
       -2   -1    0    0    0  501  0.00000000000E+00  0.00000000000E+00  0.16968713654E+04  0.16968713654E+04  0.25500000920E-02 0.  1.
        2   -1    0    0  501    0  0.00000000000E+00  0.00000000000E+00 -0.12394379313E+04  0.12394379313E+04  0.25500000920E-02 0. -1.
    10030    2    1    2    0    0  0.00000000000E+00  0.00000000000E+00  0.45743343409E+03  0.29363092967E+04  0.29004597807E+04 0.  0.
        1    1    3    3  502    0  0.78093732322E+03  0.96745749633E+03 -0.52705566353E+03  0.13504165218E+04  0.50400001928E-02 0. -1.
       -1    1    3    3    0  502 -0.78093732322E+03 -0.96745749633E+03  0.98448909762E+03  0.15858927749E+04  0.50400001928E-02 0.  1.
</event>
<event>
 5   0  0.2608591E-07  0.2899503E+04  0.7818609E-02  0.8273025E-01
       -2   -1    0    0    0  501  0.00000000000E+00  0.00000000000E+00  0.84219713655E+03  0.84219713656E+03  0.25500000920E-02 0.  1.
        2   -1    0    0  501    0  0.00000000000E+00  0.00000000000E+00 -0.24955906613E+04  0.24955906613E+04  0.25500000920E-02 0. -1.
    10030    2    1    2    0    0  0.00000000000E+00  0.00000000000E+00 -0.16533935247E+04  0.33377877978E+04  0.28995029291E+04 0.  0.
        2    1    3    3  502    0 -0.13935920240E+04 -0.35118667888E+03 -0.60722512986E+03  0.15601772884E+04  0.25500000920E-02 0. -1.
       -2    1    3    3    0  502  0.13935920240E+04  0.35118667888E+03 -0.10461683949E+04  0.17776105094E+04  0.25500000920E-02 0.  1.
</event>
<event>
 5   0  0.2492232E-07  0.2899228E+04  0.7818609E-02  0.8273107E-01
        2   -1    0    0  501    0  0.00000000000E+00  0.00000000000E+00  0.15004591315E+04  0.15004591315E+04  0.25500000920E-02 0. -1.
       -2   -1    0    0    0  501  0.00000000000E+00  0.00000000000E+00 -0.14004914156E+04  0.14004914156E+04  0.25500000920E-02 0.  1.
    10030    2    1    2    0    0  0.00000000000E+00  0.00000000000E+00  0.99967715874E+02  0.29009505471E+04  0.28992275752E+04 0.  0.
        4    1    3    3  502    0  0.12513728559E+04  0.73070129991E+03  0.10972149944E+02  0.14491309172E+04  0.12699999809E+01 0.  1.
       -4    1    3    3    0  502 -0.12513728559E+04 -0.73070129991E+03  0.88995565930E+02  0.14518196299E+04  0.12699999809E+01 0. -1.
</event>
<event>
 5   0  0.9443352E-08  0.2898385E+04  0.7818609E-02  0.8273358E-01
        1   -1    0    0  501    0  0.00000000000E+00  0.00000000000E+00  0.17088585903E+04  0.17088585903E+04  0.50400001928E-02 0. -1.
       -1   -1    0    0    0  501  0.00000000000E+00  0.00000000000E+00 -0.12289830221E+04  0.12289830222E+04  0.50400001928E-02 0.  1.
    10030    2    1    2    0    0  0.00000000000E+00  0.00000000000E+00  0.47987556819E+03  0.29378416125E+04  0.28983845120E+04 0.  0.
        4    1    3    3  502    0 -0.10926468058E+04 -0.18375006835E+03  0.11867392925E+04  0.16235741102E+04  0.12699999809E+01 0. -1.
       -4    1    3    3    0  502  0.10926468058E+04  0.18375006835E+03 -0.70686372433E+03  0.13142675023E+04  0.12699999809E+01 0.  1.
</event>
<event>
 5   0  0.9421924E-08  0.2899067E+04  0.7818609E-02  0.8273155E-01
       -1   -1    0    0    0  501  0.00000000000E+00  0.00000000000E+00  0.14573878091E+04  0.14573878091E+04  0.50400001928E-02 0. -1.
        1   -1    0    0  501    0  0.00000000000E+00  0.00000000000E+00 -0.14417210999E+04  0.14417210999E+04  0.50400001928E-02 0.  1.
    10030    2    1    2    0    0  0.00000000000E+00  0.00000000000E+00  0.15666709148E+02  0.28991089090E+04  0.28990665775E+04 0.  0.
        1    1    3    3  502    0  0.86667456772E+03  0.12312311591E+03 -0.11475460767E+04  0.14433108141E+04  0.50400001928E-02 0.  1.
       -1    1    3    3    0  502 -0.86667456772E+03 -0.12312311591E+03  0.11632127858E+04  0.14557980949E+04  0.50400001928E-02 0. -1.
</event>
<event>
 5   0  0.2492232E-07  0.2901263E+04  0.7818609E-02  0.8272502E-01
        2   -1    0    0  501    0  0.00000000000E+00  0.00000000000E+00  0.24228176757E+04  0.24228176757E+04  0.25500000920E-02 0. -1.
       -2   -1    0    0    0  501  0.00000000000E+00  0.00000000000E+00 -0.86854714717E+03  0.86854714717E+03  0.25500000920E-02 0.  1.
    10030    2    1    2    0    0  0.00000000000E+00  0.00000000000E+00  0.15542705285E+04  0.32913648229E+04  0.29012627460E+04 0.  0.
        4    1    3    3  502    0  0.20372816009E+03  0.14123732188E+04  0.10730237121E+04  0.17854088529E+04  0.12699999809E+01 0.  1.
       -4    1    3    3    0  502 -0.20372816009E+03 -0.14123732188E+04  0.48124681643E+03  0.15059559700E+04  0.12699999809E+01 0. -1.
</event>
<event>
 5   0  0.2678723E-07  0.2903999E+04  0.7818609E-02  0.8271689E-01
       -2   -1    0    0    0  501  0.00000000000E+00  0.00000000000E+00  0.11719930443E+04  0.11719930443E+04  0.25500000920E-02 0. -1.
        2   -1    0    0  501    0  0.00000000000E+00  0.00000000000E+00 -0.17989038758E+04  0.17989038758E+04  0.25500000920E-02 0.  1.
    10030    2    1    2    0    0  0.00000000000E+00  0.00000000000E+00 -0.62691083144E+03  0.29708969201E+04  0.29039991941E+04 0.  0.
        5    1    3    3  502    0  0.13573501740E+03  0.80604000099E+03  0.91425488748E+03  0.12263802703E+04  0.46999998093E+01 0. -1.
       -5    1    3    3    0  502 -0.13573501740E+03 -0.80604000099E+03 -0.15411657189E+04  0.17445166498E+04  0.46999998093E+01 0.  1.
</event>
<event>
 5   0  0.9395744E-08  0.2895769E+04  0.7818609E-02  0.8274137E-01
       -1   -1    0    0    0  501  0.00000000000E+00  0.00000000000E+00  0.10178281748E+04  0.10178281748E+04  0.50400001928E-02 0. -1.
        1   -1    0    0  501    0  0.00000000000E+00  0.00000000000E+00 -0.20596499366E+04  0.20596499366E+04  0.50400001928E-02 0.  1.
    10030    2    1    2    0    0  0.00000000000E+00  0.00000000000E+00 -0.10418217617E+04  0.30774781114E+04  0.28957691453E+04 0.  0.
        2    1    3    3  502    0 -0.74085619579E+03 -0.11313632075E+04 -0.10705890062E+04  0.17248221446E+04  0.25500000920E-02 0.  1.
       -2    1    3    3    0  502  0.74085619579E+03  0.11313632075E+04  0.28767244509E+02  0.13526559668E+04  0.25500000920E-02 0. -1.
</event>
<event>
 5   0  0.9763851E-08  0.2898482E+04  0.7818609E-02  0.8273329E-01
       -1   -1    0    0    0  501  0.00000000000E+00  0.00000000000E+00  0.14785995458E+04  0.14785995458E+04  0.50400001928E-02 0. -1.
        1   -1    0    0  501    0  0.00000000000E+00  0.00000000000E+00 -0.14204655285E+04  0.14204655285E+04  0.50400001928E-02 0.  1.
    10030    2    1    2    0    0  0.00000000000E+00  0.00000000000E+00  0.58134017226E+02  0.28990650743E+04  0.28984821444E+04 0.  0.
        3    1    3    3  502    0  0.89356425949E+03 -0.16828928798E+03 -0.10996639630E+04  0.14268984589E+04  0.10100000352E+00 0.  1.
       -3    1    3    3    0  502 -0.89356425949E+03  0.16828928798E+03  0.11577979802E+04  0.14721666154E+04  0.10100000352E+00 0. -1.
</event>
<event>
 5   0  0.2608591E-07  0.2900442E+04  0.7818609E-02  0.8272746E-01
       -2   -1    0    0    0  501  0.00000000000E+00  0.00000000000E+00  0.14089737836E+04  0.14089737836E+04  0.25500000920E-02 0.  1.
        2   -1    0    0  501    0  0.00000000000E+00  0.00000000000E+00 -0.14926756073E+04  0.14926756073E+04  0.25500000920E-02 0. -1.
    10030    2    1    2    0    0  0.00000000000E+00  0.00000000000E+00 -0.83701823706E+02  0.29016493910E+04  0.29004418961E+04 0.  0.
        2    1    3    3  502    0  0.17904767153E+03 -0.10913679913E+04  0.89662205066E+03  0.14237532310E+04  0.25500000920E-02 0.  1.
       -2    1    3    3    0  502 -0.17904767153E+03  0.10913679913E+04 -0.98032387437E+03  0.14778961600E+04  0.25500000920E-02 0. -1.
</event>
<event>
 5   0  0.2492232E-07  0.2899117E+04  0.7818609E-02  0.8273140E-01
       -2   -1    0    0    0  501  0.00000000000E+00  0.00000000000E+00  0.14442727064E+04  0.14442727064E+04  0.25500000920E-02 0. -1.
        2   -1    0    0  501    0  0.00000000000E+00  0.00000000000E+00 -0.14548632461E+04  0.14548632461E+04  0.25500000920E-02 0.  1.
    10030    2    1    2    0    0  0.00000000000E+00  0.00000000000E+00 -0.10590539700E+02  0.28991359525E+04  0.28991166088E+04 0.  0.
        4    1    3    3  502    0  0.10715892679E+04  0.96834834749E+03  0.11805701753E+03  0.14491173705E+04  0.12699999809E+01 0.  1.
       -4    1    3    3    0  502 -0.10715892679E+04 -0.96834834749E+03 -0.12864755723E+03  0.14500185820E+04  0.12699999809E+01 0. -1.
</event>
<event>
 5   0  0.9421924E-08  0.2899609E+04  0.7818609E-02  0.8272994E-01
        1   -1    0    0  501    0  0.00000000000E+00  0.00000000000E+00  0.12265549398E+04  0.12265549398E+04  0.50400001928E-02 0.  1.
       -1   -1    0    0    0  501  0.00000000000E+00  0.00000000000E+00 -0.17136887912E+04  0.17136887912E+04  0.50400001928E-02 0. -1.
    10030    2    1    2    0    0  0.00000000000E+00  0.00000000000E+00 -0.48713385142E+03  0.29402437310E+04  0.28996092510E+04 0.  0.
        1    1    3    3  502    0  0.99448320571E+03  0.93202051413E+03  0.25760046383E+03  0.13870894291E+04  0.50400001928E-02 0.  1.
       -1    1    3    3    0  502 -0.99448320571E+03 -0.93202051413E+03 -0.74473431525E+03  0.15531543019E+04  0.50400001928E-02 0. -1.
</event>
<event>
 5   0  0.9421924E-08  0.2899984E+04  0.7818609E-02  0.8272882E-01
       -1   -1    0    0    0  501  0.00000000000E+00  0.00000000000E+00  0.94268486667E+03  0.94268486668E+03  0.50400001928E-02 0. -1.
        1   -1    0    0  501    0  0.00000000000E+00  0.00000000000E+00 -0.22303075696E+04  0.22303075696E+04  0.50400001928E-02 0.  1.
    10030    2    1    2    0    0  0.00000000000E+00  0.00000000000E+00 -0.12876227029E+04  0.31729924363E+04  0.28999842716E+04 0.  0.
        1    1    3    3  502    0 -0.11508562181E+04 -0.43510563208E+03 -0.14833038411E+04  0.19271681896E+04  0.50400001928E-02 0. -1.
       -1    1    3    3    0  502  0.11508562181E+04  0.43510563208E+03  0.19568113812E+03  0.12458242467E+04  0.50400001928E-02 0.  1.
</event>
<event>
 5   0  0.2534588E-07  0.2900840E+04  0.7818609E-02  0.8272627E-01
        2   -1    0    0  501    0  0.00000000000E+00  0.00000000000E+00  0.12665370147E+04  0.12665370147E+04  0.25500000920E-02 0.  1.
       -2   -1    0    0    0  501  0.00000000000E+00  0.00000000000E+00 -0.16610005454E+04  0.16610005454E+04  0.25500000920E-02 0. -1.
    10030    2    1    2    0    0  0.00000000000E+00  0.00000000000E+00 -0.39446353064E+03  0.29275375601E+04  0.29008403418E+04 0.  0.
        3    1    3    3  502    0 -0.90295336035E+03  0.25498519158E+03  0.91901112577E+03  0.13133634982E+04  0.10100000352E+00 0.  1.
       -3    1    3    3    0  502  0.90295336035E+03 -0.25498519158E+03 -0.13134746564E+04  0.16141740619E+04  0.10100000352E+00 0. -1.
</event>
<event>
 5   0  0.9443352E-08  0.2899363E+04  0.7818609E-02  0.8273067E-01
       -1   -1    0    0    0  501  0.00000000000E+00  0.00000000000E+00  0.78948909078E+03  0.78948909079E+03  0.50400001928E-02 0.  1.
        1   -1    0    0  501    0  0.00000000000E+00  0.00000000000E+00 -0.26619444452E+04  0.26619444452E+04  0.50400001928E-02 0. -1.
    10030    2    1    2    0    0  0.00000000000E+00  0.00000000000E+00 -0.18724553544E+04  0.34514335360E+04  0.28993627574E+04 0.  0.
        4    1    3    3  502    0  0.27062055725E+03  0.13977143238E+04 -0.12616558243E+04  0.19022665031E+04  0.12699999809E+01 0. -1.
       -4    1    3    3    0  502 -0.27062055725E+03 -0.13977143238E+04 -0.61079953011E+03  0.15491670329E+04  0.12699999809E+01 0.  1.
</event>
<event>
 5   0  0.9763851E-08  0.2901905E+04  0.7818609E-02  0.8272311E-01
       -1   -1    0    0    0  501  0.00000000000E+00  0.00000000000E+00  0.20416664952E+04  0.20416664952E+04  0.50400001928E-02 0.  1.
        1   -1    0    0  501    0  0.00000000000E+00  0.00000000000E+00 -0.10311496024E+04  0.10311496024E+04  0.50400001928E-02 0. -1.
    10030    2    1    2    0    0  0.00000000000E+00  0.00000000000E+00  0.10105168928E+04  0.30728160977E+04  0.29019053016E+04 0.  0.
        3    1    3    3  502    0  0.88116273871E+03  0.87434970428E+02  0.17223768784E+04  0.19366658895E+04  0.10100000352E+00 0.  1.
       -3    1    3    3    0  502 -0.88116273871E+03 -0.87434970428E+02 -0.71185998563E+03  0.11361502082E+04  0.10100000352E+00 0. -1.
</event>
<event>
 5   0  0.9421924E-08  0.2899469E+04  0.7818609E-02  0.8273036E-01
       -1   -1    0    0    0  501  0.00000000000E+00  0.00000000000E+00  0.11899422357E+04  0.11899422357E+04  0.50400001928E-02 0. -1.
        1   -1    0    0  501    0  0.00000000000E+00  0.00000000000E+00 -0.17662452115E+04  0.17662452115E+04  0.50400001928E-02 0.  1.
    10030    2    1    2    0    0  0.00000000000E+00  0.00000000000E+00 -0.57630297580E+03  0.29561874473E+04  0.28994687623E+04 0.  0.
        1    1    3    3  502    0 -0.66699294086E+03 -0.21713867451E+03 -0.15817101835E+04  0.17302704678E+04  0.50400001928E-02 0.  1.
       -1    1    3    3    0  502  0.66699294086E+03  0.21713867451E+03  0.10054072077E+04  0.12259169794E+04  0.50400001928E-02 0. -1.
</event>
<event>
 5   0  0.9763851E-08  0.2900656E+04  0.7818609E-02  0.8272682E-01
        1   -1    0    0  501    0  0.00000000000E+00  0.00000000000E+00  0.23240514104E+04  0.23240514104E+04  0.50400001928E-02 0.  1.
       -1   -1    0    0    0  501  0.00000000000E+00  0.00000000000E+00 -0.90507964903E+03  0.90507964905E+03  0.50400001928E-02 0. -1.
    10030    2    1    2    0    0  0.00000000000E+00  0.00000000000E+00  0.14189717614E+04  0.32291310595E+04  0.29006562257E+04 0.  0.
        3    1    3    3  502    0 -0.23630202457E+03  0.93362367129E+03 -0.49773197997E+03  0.10840797667E+04  0.10100000352E+00 0. -1.
       -3    1    3    3    0  502  0.23630202457E+03 -0.93362367129E+03  0.19167037414E+04  0.21450512928E+04  0.10100000352E+00 0.  1.
</event>
<event>
 5   0  0.2678723E-07  0.2901226E+04  0.7818609E-02  0.8272513E-01
       -2   -1    0    0    0  501  0.00000000000E+00  0.00000000000E+00  0.76623749485E+03  0.76623749486E+03  0.25500000920E-02 0. -1.
        2   -1    0    0  501    0  0.00000000000E+00  0.00000000000E+00 -0.27462484210E+04  0.27462484210E+04  0.25500000920E-02 0.  1.
    10030    2    1    2    0    0  0.00000000000E+00  0.00000000000E+00 -0.19800109261E+04  0.35124859158E+04  0.29012262996E+04 0.  0.
        5    1    3    3  502    0  0.58771041211E+03  0.58467715552E+03 -0.24311872206E+04  0.25686463938E+04  0.46999998093E+01 0.  1.
       -5    1    3    3    0  502 -0.58771041211E+03 -0.58467715552E+03  0.45117629448E+03  0.94383952205E+03  0.46999998093E+01 0. -1.
</event>
<event>
 5   0  0.9443352E-08  0.2900548E+04  0.7818609E-02  0.8272715E-01
       -1   -1    0    0    0  501  0.00000000000E+00  0.00000000000E+00  0.84244363603E+03  0.84244363604E+03  0.50400001928E-02 0.  1.
        1   -1    0    0  501    0  0.00000000000E+00  0.00000000000E+00 -0.24966584358E+04  0.24966584358E+04  0.50400001928E-02 0. -1.
    10030    2    1    2    0    0  0.00000000000E+00  0.00000000000E+00 -0.16542147997E+04  0.33391020718E+04  0.29005475418E+04 0.  0.
        4    1    3    3  502    0  0.13440626315E+04  0.40922863775E+03 -0.12410903846E+04  0.18746411366E+04  0.12699999809E+01 0. -1.
       -4    1    3    3    0  502 -0.13440626315E+04 -0.40922863775E+03 -0.41312441511E+03  0.14644609352E+04  0.12699999809E+01 0.  1.
</event>
<event>
 5   0  0.9421924E-08  0.2900169E+04  0.7818609E-02  0.8272827E-01
       -1   -1    0    0    0  501  0.00000000000E+00  0.00000000000E+00  0.11256938107E+04  0.11256938107E+04  0.50400001928E-02 0. -1.
        1   -1    0    0  501    0  0.00000000000E+00  0.00000000000E+00 -0.18679551318E+04  0.18679551318E+04  0.50400001928E-02 0.  1.
    10030    2    1    2    0    0  0.00000000000E+00  0.00000000000E+00 -0.74226132105E+03  0.29936489425E+04  0.29001693265E+04 0.  0.
        1    1    3    3  502    0 -0.77174497500E+03 -0.85667354734E+02  0.89301335831E+03  0.11833858459E+04  0.50400001928E-02 0. -1.
       -1    1    3    3    0  502  0.77174497500E+03  0.85667354734E+02 -0.16352746794E+04  0.18102630967E+04  0.50400001928E-02 0.  1.
</event>
<event>
 5   0  0.9763851E-08  0.2899524E+04  0.7818609E-02  0.8273019E-01
        1   -1    0    0  501    0  0.00000000000E+00  0.00000000000E+00  0.15361818298E+04  0.15361818298E+04  0.50400001928E-02 0.  1.
       -1   -1    0    0    0  501  0.00000000000E+00  0.00000000000E+00 -0.13682034008E+04  0.13682034008E+04  0.50400001928E-02 0. -1.
    10030    2    1    2    0    0  0.00000000000E+00  0.00000000000E+00  0.16797842905E+03  0.29043852306E+04  0.28995235496E+04 0.  0.
        3    1    3    3  502    0 -0.45682827900E+02 -0.76294524312E+03 -0.11500004090E+04  0.13808234194E+04  0.10100000352E+00 0. -1.
       -3    1    3    3    0  502  0.45682827900E+02  0.76294524312E+03  0.13179788380E+04  0.15235618112E+04  0.10100000352E+00 0.  1.
</event>
<event>
 5   0  0.2678723E-07  0.2898173E+04  0.7818609E-02  0.8273421E-01
       -2   -1    0    0    0  501  0.00000000000E+00  0.00000000000E+00  0.93395774416E+03  0.93395774416E+03  0.25500000920E-02 0.  1.
        2   -1    0    0  501    0  0.00000000000E+00  0.00000000000E+00 -0.22483361783E+04  0.22483361783E+04  0.25500000920E-02 0. -1.
    10030    2    1    2    0    0  0.00000000000E+00  0.00000000000E+00 -0.13143784342E+04  0.31822939225E+04  0.28981725174E+04 0.  0.
        5    1    3    3  502    0 -0.14352048986E+04  0.15416926413E+03 -0.51722690945E+03  0.15333385239E+04  0.46999998093E+01 0. -1.
       -5    1    3    3    0  502  0.14352048986E+04 -0.15416926413E+03 -0.79715152471E+03  0.16489553986E+04  0.46999998093E+01 0.  1.
</event>
<event>
 5   0  0.2492232E-07  0.2899795E+04  0.7818609E-02  0.8272939E-01
        2   -1    0    0  501    0  0.00000000000E+00  0.00000000000E+00  0.17111308549E+04  0.17111308549E+04  0.25500000920E-02 0. -1.
       -2   -1    0    0    0  501  0.00000000000E+00  0.00000000000E+00 -0.12285456199E+04  0.12285456199E+04  0.25500000920E-02 0.  1.
    10030    2    1    2    0    0  0.00000000000E+00  0.00000000000E+00  0.48258523499E+03  0.29396764749E+04  0.28997946941E+04 0.  0.
        4    1    3    3  502    0 -0.81633166480E+03 -0.48015767417E+03 -0.87164597650E+03  0.12871352300E+04  0.12699999809E+01 0.  1.
       -4    1    3    3    0  502  0.81633166480E+03  0.48015767417E+03  0.13542312115E+04  0.16525412449E+04  0.12699999809E+01 0. -1.
</event>
<event>
 5   0  0.9388076E-08  0.2898664E+04  0.7818609E-02  0.8273275E-01
        1   -1    0    0  501    0  0.00000000000E+00  0.00000000000E+00  0.20237126686E+04  0.20237126686E+04  0.50400001928E-02 0.  1.
       -1   -1    0    0    0  501  0.00000000000E+00  0.00000000000E+00 -0.10379752610E+04  0.10379752610E+04  0.50400001928E-02 0. -1.
    10030    2    1    2    0    0  0.00000000000E+00  0.00000000000E+00  0.98573740761E+03  0.30616879296E+04  0.28986643030E+04 0.  0.
        5    1    3    3  502    0  0.10062161138E+04 -0.95565205212E+03  0.51264124204E+02  0.13886654791E+04  0.46999998093E+01 0. -1.
       -5    1    3    3    0  502 -0.10062161138E+04  0.95565205212E+03  0.93447328341E+03  0.16730224505E+04  0.46999998093E+01 0.  1.
</event>
<event>
 5   0  0.2492232E-07  0.2900409E+04  0.7818609E-02  0.8272756E-01
       -2   -1    0    0    0  501  0.00000000000E+00  0.00000000000E+00  0.11460380991E+04  0.11460380991E+04  0.25500000920E-02 0. -1.
        2   -1    0    0  501    0  0.00000000000E+00  0.00000000000E+00 -0.18350991003E+04  0.18350991003E+04  0.25500000920E-02 0.  1.
    10030    2    1    2    0    0  0.00000000000E+00  0.00000000000E+00 -0.68906100118E+03  0.29811371994E+04  0.29004092708E+04 0.  0.
        4    1    3    3  502    0  0.40431000346E+03 -0.11413837701E+04  0.47572192520E+03  0.13009751929E+04  0.12699999809E+01 0. -1.
       -4    1    3    3    0  502 -0.40431000346E+03  0.11413837701E+04 -0.11647829264E+04  0.16801620065E+04  0.12699999809E+01 0.  1.
</event>
<event>
 5   0  0.9388076E-08  0.2907594E+04  0.7818609E-02  0.8270622E-01
       -1   -1    0    0    0  501  0.00000000000E+00  0.00000000000E+00  0.98468407572E+03  0.98468407573E+03  0.50400001928E-02 0. -1.
        1   -1    0    0  501    0  0.00000000000E+00  0.00000000000E+00 -0.21464002851E+04  0.21464002851E+04  0.50400001928E-02 0.  1.
    10030    2    1    2    0    0  0.00000000000E+00  0.00000000000E+00 -0.11617162094E+04  0.31310843608E+04  0.29075943189E+04 0.  0.
        5    1    3    3  502    0 -0.79618662633E+03  0.30938342147E+03 -0.18476610113E+04  0.20355600084E+04  0.46999998093E+01 0.  1.
       -5    1    3    3    0  502  0.79618662633E+03 -0.30938342147E+03  0.68594480189E+03  0.10955243524E+04  0.46999998093E+01 0. -1.
</event>
<event>
 5   0  0.2608591E-07  0.2901435E+04  0.7818609E-02  0.8272451E-01
        2   -1    0    0  501    0  0.00000000000E+00  0.00000000000E+00  0.20528662390E+04  0.20528662390E+04  0.25500000920E-02 0.  1.
       -2   -1    0    0    0  501  0.00000000000E+00  0.00000000000E+00 -0.10251918894E+04  0.10251918894E+04  0.25500000920E-02 0. -1.
    10030    2    1    2    0    0  0.00000000000E+00  0.00000000000E+00  0.10276743495E+04  0.30780581284E+04  0.29014353815E+04 0.  0.
        2    1    3    3  502    0 -0.95885402827E+03 -0.17190763536E+03  0.16542787544E+04  0.19197894364E+04  0.25500000920E-02 0.  1.
       -2    1    3    3    0  502  0.95885402827E+03  0.17190763536E+03 -0.62660440489E+03  0.11582686920E+04  0.25500000920E-02 0. -1.
</event>
<event>
 5   0  0.2546841E-07  0.2900279E+04  0.7818609E-02  0.8272794E-01
       -2   -1    0    0    0  501  0.00000000000E+00  0.00000000000E+00  0.14834973890E+04  0.14834973890E+04  0.25500000920E-02 0.  1.
        2   -1    0    0  501    0  0.00000000000E+00  0.00000000000E+00 -0.14175319237E+04  0.14175319237E+04  0.25500000920E-02 0. -1.
    10030    2    1    2    0    0  0.00000000000E+00  0.00000000000E+00  0.65965465369E+02  0.29010293127E+04  0.29002792332E+04 0.  0.
        1    1    3    3  502    0 -0.88956432306E+03  0.11451770096E+04  0.20738678346E+02  0.14502362432E+04  0.50400001928E-02 0.  1.
       -1    1    3    3    0  502  0.88956432306E+03 -0.11451770096E+04  0.45226787023E+02  0.14507930695E+04  0.50400001928E-02 0. -1.
</event>
<event>
 5   0  0.9443352E-08  0.2899492E+04  0.7818609E-02  0.8273029E-01
        1   -1    0    0  501    0  0.00000000000E+00  0.00000000000E+00  0.20464171522E+04  0.20464171522E+04  0.50400001928E-02 0. -1.
       -1   -1    0    0    0  501  0.00000000000E+00  0.00000000000E+00 -0.10270457166E+04  0.10270457166E+04  0.50400001928E-02 0.  1.
    10030    2    1    2    0    0  0.00000000000E+00  0.00000000000E+00  0.10193714356E+04  0.30734628688E+04  0.28994923491E+04 0.  0.
        4    1    3    3  502    0 -0.10298696254E+04  0.92902997661E+03  0.95694332964E+03  0.16850727853E+04  0.12699999809E+01 0.  1.
       -4    1    3    3    0  502  0.10298696254E+04 -0.92902997661E+03  0.62428105959E+02  0.13883900835E+04  0.12699999809E+01 0. -1.
</event>
<event>
 5   0  0.2546841E-07  0.2900097E+04  0.7818609E-02  0.8272849E-01
        2   -1    0    0  501    0  0.00000000000E+00  0.00000000000E+00  0.28374751964E+04  0.28374751964E+04  0.25500000920E-02 0.  1.
       -2   -1    0    0    0  501  0.00000000000E+00  0.00000000000E+00 -0.74102515752E+03  0.74102515753E+03  0.25500000920E-02 0. -1.
    10030    2    1    2    0    0  0.00000000000E+00  0.00000000000E+00  0.20964500389E+04  0.35785003539E+04  0.29000968980E+04 0.  0.
        1    1    3    3  502    0 -0.87454254771E+03 -0.10931844996E+04  0.15144517056E+04  0.20623872058E+04  0.50400001928E-02 0.  1.
       -1    1    3    3    0  502  0.87454254771E+03  0.10931844996E+04  0.58199833323E+03  0.15161131481E+04  0.50400001928E-02 0. -1.
</event>
<event>
 5   0  0.9395744E-08  0.2900864E+04  0.7818609E-02  0.8272620E-01
        1   -1    0    0  501    0  0.00000000000E+00  0.00000000000E+00  0.24150539337E+04  0.24150539337E+04  0.50400001928E-02 0. -1.
       -1   -1    0    0    0  501  0.00000000000E+00  0.00000000000E+00 -0.87109981763E+03  0.87109981765E+03  0.50400001928E-02 0.  1.
    10030    2    1    2    0    0  0.00000000000E+00  0.00000000000E+00  0.15439541161E+04  0.32861537513E+04  0.29008640377E+04 0.  0.
        2    1    3    3  502    0 -0.86930237518E+03 -0.11200350582E+04  0.42542352290E+03  0.14802534665E+04  0.25500000920E-02 0.  1.
       -2    1    3    3    0  502  0.86930237518E+03  0.11200350582E+04  0.11185305932E+04  0.18059002849E+04  0.25500000920E-02 0. -1.
</event>
<event>
 5   0  0.2492232E-07  0.2899311E+04  0.7818609E-02  0.8273083E-01
        2   -1    0    0  501    0  0.00000000000E+00  0.00000000000E+00  0.16466742212E+04  0.16466742212E+04  0.25500000920E-02 0.  1.
       -2   -1    0    0    0  501  0.00000000000E+00  0.00000000000E+00 -0.12762093440E+04  0.12762093440E+04  0.25500000920E-02 0. -1.
    10030    2    1    2    0    0  0.00000000000E+00  0.00000000000E+00  0.37046487719E+03  0.29228835652E+04  0.28993109717E+04 0.  0.
        4    1    3    3  502    0 -0.14367276972E+04 -0.18944251887E+03  0.14718341609E+03  0.14566192072E+04  0.12699999809E+01 0.  1.
       -4    1    3    3    0  502  0.14367276972E+04  0.18944251887E+03  0.22328146110E+03  0.14662643580E+04  0.12699999809E+01 0. -1.
</event>
<event>
 5   0  0.2534588E-07  0.2897489E+04  0.7818609E-02  0.8273625E-01
       -2   -1    0    0    0  501  0.00000000000E+00  0.00000000000E+00  0.14287240682E+04  0.14287240682E+04  0.25500000920E-02 0. -1.
        2   -1    0    0  501    0  0.00000000000E+00  0.00000000000E+00 -0.14690453617E+04  0.14690453617E+04  0.25500000920E-02 0.  1.
    10030    2    1    2    0    0  0.00000000000E+00  0.00000000000E+00 -0.40321293563E+02  0.28977694299E+04  0.28974888891E+04 0.  0.
        3    1    3    3  502    0 -0.82254533773E+03 -0.11663384998E+04 -0.26905042214E+03  0.14523479159E+04  0.10100000352E+00 0.  1.
       -3    1    3    3    0  502  0.82254533773E+03  0.11663384998E+04  0.22872912858E+03  0.14454215141E+04  0.10100000352E+00 0. -1.
</event>
<event>
 5   0  0.9395744E-08  0.2899329E+04  0.7818609E-02  0.8273077E-01
       -1   -1    0    0    0  501  0.00000000000E+00  0.00000000000E+00  0.80264969513E+03  0.80264969514E+03  0.50400001928E-02 0. -1.
        1   -1    0    0  501    0  0.00000000000E+00  0.00000000000E+00 -0.26182361493E+04  0.26182361493E+04  0.50400001928E-02 0.  1.
    10030    2    1    2    0    0  0.00000000000E+00  0.00000000000E+00 -0.18155864542E+04  0.34208858445E+04  0.28993285064E+04 0.  0.
        2    1    3    3  502    0 -0.12649619948E+04  0.52968539763E+03 -0.35333203461E+03  0.14161705389E+04  0.25500000920E-02 0. -1.
       -2    1    3    3    0  502  0.12649619948E+04 -0.52968539763E+03 -0.14622544196E+04  0.20047153055E+04  0.25500000920E-02 0.  1.
</event>
<event>
 5   0  0.9443352E-08  0.2897578E+04  0.7818609E-02  0.8273598E-01
       -1   -1    0    0    0  501  0.00000000000E+00  0.00000000000E+00  0.10644083238E+04  0.10644083238E+04  0.50400001928E-02 0. -1.
        1   -1    0    0  501    0  0.00000000000E+00  0.00000000000E+00 -0.19719783354E+04  0.19719783354E+04  0.50400001928E-02 0.  1.
    10030    2    1    2    0    0  0.00000000000E+00  0.00000000000E+00 -0.90757001165E+03  0.30363866592E+04  0.28975784059E+04 0.  0.
        4    1    3    3  502    0 -0.54250576478E+03 -0.18290027757E+03  0.94084358452E+03  0.11013415818E+04  0.12699999809E+01 0. -1.
       -4    1    3    3    0  502  0.54250576478E+03  0.18290027757E+03 -0.18484135962E+04  0.19350450774E+04  0.12699999809E+01 0.  1.
</event>
<event>
 5   0  0.9763851E-08  0.2900441E+04  0.7818609E-02  0.8272746E-01
       -1   -1    0    0    0  501  0.00000000000E+00  0.00000000000E+00  0.13112432542E+04  0.13112432542E+04  0.50400001928E-02 0.  1.
        1   -1    0    0  501    0  0.00000000000E+00  0.00000000000E+00 -0.16039279333E+04  0.16039279333E+04  0.50400001928E-02 0. -1.
    10030    2    1    2    0    0  0.00000000000E+00  0.00000000000E+00 -0.29268467916E+03  0.29151711875E+04  0.29004411270E+04 0.  0.
        3    1    3    3  502    0  0.13984525307E+04 -0.36128928386E+03 -0.27715803557E+03  0.14707195566E+04  0.10100000352E+00 0.  1.
       -3    1    3    3    0  502 -0.13984525307E+04  0.36128928386E+03 -0.15526643591E+02  0.14444516309E+04  0.10100000352E+00 0. -1.
</event>
<event>
 5   0  0.9763851E-08  0.2903203E+04  0.7818609E-02  0.8271925E-01
        1   -1    0    0  501    0  0.00000000000E+00  0.00000000000E+00  0.17406259016E+04  0.17406259016E+04  0.50400001928E-02 0. -1.
       -1   -1    0    0    0  501  0.00000000000E+00  0.00000000000E+00 -0.12105683902E+04  0.12105683903E+04  0.50400001928E-02 0.  1.
    10030    2    1    2    0    0  0.00000000000E+00  0.00000000000E+00  0.53005751138E+03  0.29511942919E+04  0.29032028491E+04 0.  0.
        3    1    3    3  502    0  0.79408899740E+02  0.13333791054E+04 -0.31264423596E+03  0.13718425713E+04  0.10100000352E+00 0.  1.
       -3    1    3    3    0  502 -0.79408899740E+02 -0.13333791054E+04  0.84270174734E+03  0.15793517205E+04  0.10100000352E+00 0. -1.
</event>
<event>
 5   0  0.2546841E-07  0.2899946E+04  0.7818609E-02  0.8272894E-01
       -2   -1    0    0    0  501  0.00000000000E+00  0.00000000000E+00  0.13973446605E+04  0.13973446605E+04  0.25500000920E-02 0.  1.
        2   -1    0    0  501    0  0.00000000000E+00  0.00000000000E+00 -0.15045834783E+04  0.15045834783E+04  0.25500000920E-02 0. -1.
    10030    2    1    2    0    0  0.00000000000E+00  0.00000000000E+00 -0.10723881782E+03  0.29019281388E+04  0.28999459923E+04 0.  0.
        1    1    3    3  502    0  0.65686153283E+03 -0.70030716399E+03 -0.11408814969E+04  0.14911431143E+04  0.50400001928E-02 0. -1.
       -1    1    3    3    0  502 -0.65686153283E+03  0.70030716399E+03  0.10336426791E+04  0.14107850245E+04  0.50400001928E-02 0.  1.
</event>
<event>
 5   0  0.2678723E-07  0.2900242E+04  0.7818609E-02  0.8272806E-01
       -2   -1    0    0    0  501  0.00000000000E+00  0.00000000000E+00  0.12853255097E+04  0.12853255097E+04  0.25500000920E-02 0.  1.
        2   -1    0    0  501    0  0.00000000000E+00  0.00000000000E+00 -0.16360450506E+04  0.16360450506E+04  0.25500000920E-02 0. -1.
    10030    2    1    2    0    0  0.00000000000E+00  0.00000000000E+00 -0.35071954090E+03  0.29213705604E+04  0.29002416717E+04 0.  0.
        5    1    3    3  502    0 -0.69992056204E+03 -0.12691455045E+04 -0.12801475152E+03  0.14550013647E+04  0.46999998093E+01 0.  1.
       -5    1    3    3    0  502  0.69992056204E+03  0.12691455045E+04 -0.22270478938E+03  0.14663691956E+04  0.46999998093E+01 0. -1.
</event>
<event>
 5   0  0.2608591E-07  0.2900704E+04  0.7818609E-02  0.8272668E-01
        2   -1    0    0  501    0  0.00000000000E+00  0.00000000000E+00  0.17564084308E+04  0.17564084308E+04  0.25500000920E-02 0. -1.
       -2   -1    0    0    0  501  0.00000000000E+00  0.00000000000E+00 -0.11976260662E+04  0.11976260662E+04  0.25500000920E-02 0.  1.
    10030    2    1    2    0    0  0.00000000000E+00  0.00000000000E+00  0.55878236456E+03  0.29540344970E+04  0.29007037212E+04 0.  0.
        2    1    3    3  502    0 -0.22430718831E+03  0.10776452842E+04 -0.68236993710E+03  0.12950914270E+04  0.25500000920E-02 0.  1.
       -2    1    3    3    0  502  0.22430718831E+03 -0.10776452842E+04  0.12411523017E+04  0.16589430699E+04  0.25500000920E-02 0. -1.
</event>
<event>
 5   0  0.9763851E-08  0.2895030E+04  0.7818609E-02  0.8274358E-01
       -1   -1    0    0    0  501  0.00000000000E+00  0.00000000000E+00  0.16627928590E+04  0.16627928590E+04  0.50400001928E-02 0. -1.
        1   -1    0    0  501    0  0.00000000000E+00  0.00000000000E+00 -0.12601082617E+04  0.12601082617E+04  0.50400001928E-02 0.  1.
    10030    2    1    2    0    0  0.00000000000E+00  0.00000000000E+00  0.40268459730E+03  0.29229011207E+04  0.28950295468E+04 0.  0.
        3    1    3    3  502    0 -0.12080695993E+04  0.58459371652E+03 -0.34620446418E+03  0.13860156967E+04  0.10100000352E+00 0.  1.
       -3    1    3    3    0  502  0.12080695993E+04 -0.58459371652E+03  0.74888906148E+03  0.15368854241E+04  0.10100000352E+00 0. -1.
</event>
<event>
 5   0  0.2608591E-07  0.2900112E+04  0.7818609E-02  0.8272844E-01
        2   -1    0    0  501    0  0.00000000000E+00  0.00000000000E+00  0.24961440076E+04  0.24961440076E+04  0.25500000920E-02 0.  1.
       -2   -1    0    0    0  501  0.00000000000E+00  0.00000000000E+00 -0.84236431886E+03  0.84236431887E+03  0.25500000920E-02 0. -1.
    10030    2    1    2    0    0  0.00000000000E+00  0.00000000000E+00  0.16537796887E+04  0.33385083265E+04  0.29001121680E+04 0.  0.
        2    1    3    3  502    0 -0.55248800340E+03 -0.79526844607E+03 -0.41560507047E+03  0.10537658515E+04  0.25500000920E-02 0. -1.
       -2    1    3    3    0  502  0.55248800340E+03  0.79526844607E+03  0.20693847592E+04  0.22847424749E+04  0.25500000920E-02 0.  1.
</event>
<event>
 5   0  0.9421924E-08  0.2903549E+04  0.7818609E-02  0.8271822E-01
       -1   -1    0    0    0  501  0.00000000000E+00  0.00000000000E+00  0.89853863734E+03  0.89853863735E+03  0.50400001928E-02 0. -1.
        1   -1    0    0  501    0  0.00000000000E+00  0.00000000000E+00 -0.23456417348E+04  0.23456417348E+04  0.50400001928E-02 0.  1.
    10030    2    1    2    0    0  0.00000000000E+00  0.00000000000E+00 -0.14471030975E+04  0.32441803722E+04  0.29035493646E+04 0.  0.
        1    1    3    3  502    0  0.14292389945E+04  0.16213125391E+03 -0.94318029036E+03  0.17200580534E+04  0.50400001928E-02 0.  1.
       -1    1    3    3    0  502 -0.14292389945E+04 -0.16213125391E+03 -0.50392280711E+03  0.15241223188E+04  0.50400001928E-02 0. -1.
</event>
<event>
 5   0  0.9388076E-08  0.2899667E+04  0.7818609E-02  0.8272977E-01
       -1   -1    0    0    0  501  0.00000000000E+00  0.00000000000E+00  0.16399414191E+04  0.16399414191E+04  0.50400001928E-02 0.  1.
        1   -1    0    0  501    0  0.00000000000E+00  0.00000000000E+00 -0.12817637453E+04  0.12817637453E+04  0.50400001928E-02 0. -1.
    10030    2    1    2    0    0  0.00000000000E+00  0.00000000000E+00  0.35817767378E+03  0.29217051644E+04  0.28996671915E+04 0.  0.
        5    1    3    3  502    0  0.15847839830E+03  0.10881560303E+04  0.11311491298E+04  0.15775675557E+04  0.46999998093E+01 0.  1.
       -5    1    3    3    0  502 -0.15847839830E+03 -0.10881560303E+04 -0.77297145605E+03  0.13441376086E+04  0.46999998093E+01 0. -1.
</event>
<event>
 5   0  0.2492232E-07  0.2902698E+04  0.7818609E-02  0.8272075E-01
        2   -1    0    0  501    0  0.00000000000E+00  0.00000000000E+00  0.14430849720E+04  0.14430849720E+04  0.25500000920E-02 0. -1.
       -2   -1    0    0    0  501  0.00000000000E+00  0.00000000000E+00 -0.14596602869E+04  0.14596602869E+04  0.25500000920E-02 0.  1.
    10030    2    1    2    0    0  0.00000000000E+00  0.00000000000E+00 -0.16575314897E+02  0.29027452589E+04  0.29026979342E+04 0.  0.
        4    1    3    3  502    0 -0.32549477409E+03 -0.38398558986E+03  0.13529914664E+04  0.14435994258E+04  0.12699999809E+01 0. -1.
       -4    1    3    3    0  502  0.32549477409E+03  0.38398558986E+03 -0.13695667813E+04  0.14591458331E+04  0.12699999809E+01 0.  1.
</event>
<event>
 5   0  0.9763851E-08  0.2898971E+04  0.7818609E-02  0.8273184E-01
       -1   -1    0    0    0  501  0.00000000000E+00  0.00000000000E+00  0.89755902958E+03  0.89755902960E+03  0.50400001928E-02 0.  1.
        1   -1    0    0  501    0  0.00000000000E+00  0.00000000000E+00 -0.23408016861E+04  0.23408016861E+04  0.50400001928E-02 0. -1.
    10030    2    1    2    0    0  0.00000000000E+00  0.00000000000E+00 -0.14432426565E+04  0.32383607157E+04  0.28989706379E+04 0.  0.
        3    1    3    3  502    0 -0.11509710521E+04  0.82532244925E+03 -0.37710597023E+03  0.14656399390E+04  0.10100000352E+00 0.  1.
       -3    1    3    3    0  502  0.11509710521E+04 -0.82532244925E+03 -0.10661366863E+04  0.17727207767E+04  0.10100000352E+00 0. -1.
</event>
<event>
 5   0  0.9421924E-08  0.2901128E+04  0.7818609E-02  0.8272542E-01
        1   -1    0    0  501    0  0.00000000000E+00  0.00000000000E+00  0.10411074760E+04  0.10411074760E+04  0.50400001928E-02 0. -1.
       -1   -1    0    0    0  501  0.00000000000E+00  0.00000000000E+00 -0.20210558171E+04  0.20210558171E+04  0.50400001928E-02 0.  1.
    10030    2    1    2    0    0  0.00000000000E+00  0.00000000000E+00 -0.97994834114E+03  0.30621632931E+04  0.29011282775E+04 0.  0.
        1    1    3    3  502    0 -0.12442424768E+04 -0.74218916906E+03 -0.41421094067E+03  0.15068360253E+04  0.50400001928E-02 0. -1.
       -1    1    3    3    0  502  0.12442424768E+04  0.74218916906E+03 -0.56573740048E+03  0.15553272678E+04  0.50400001928E-02 0.  1.
</event>
<event>
 5   0  0.9395744E-08  0.2899835E+04  0.7818609E-02  0.8272927E-01
        1   -1    0    0  501    0  0.00000000000E+00  0.00000000000E+00  0.12137487520E+04  0.12137487520E+04  0.50400001928E-02 0. -1.
       -1   -1    0    0    0  501  0.00000000000E+00  0.00000000000E+00 -0.17320390241E+04  0.17320390241E+04  0.50400001928E-02 0.  1.
    10030    2    1    2    0    0  0.00000000000E+00  0.00000000000E+00 -0.51829027207E+03  0.29457877761E+04  0.28998346186E+04 0.  0.
        2    1    3    3  502    0 -0.52260402096E+03 -0.13312261493E+04 -0.16652945181E+02  0.14302291229E+04  0.25500000920E-02 0. -1.
       -2    1    3    3    0  502  0.52260402096E+03  0.13312261493E+04 -0.50163732689E+03  0.15155586532E+04  0.25500000920E-02 0.  1.
</event>
<event>
 5   0  0.9443352E-08  0.2899317E+04  0.7818609E-02  0.8273081E-01
        1   -1    0    0  501    0  0.00000000000E+00  0.00000000000E+00  0.14373028887E+04  0.14373028887E+04  0.50400001928E-02 0.  1.
       -1   -1    0    0    0  501  0.00000000000E+00  0.00000000000E+00 -0.14621203812E+04  0.14621203812E+04  0.50400001928E-02 0. -1.
    10030    2    1    2    0    0  0.00000000000E+00  0.00000000000E+00 -0.24817492482E+02  0.28994232698E+04  0.28993170557E+04 0.  0.
        4    1    3    3  502    0  0.58246490187E+03 -0.11920077150E+04  0.57187328435E+03  0.14447104973E+04  0.12699999809E+01 0. -1.
       -4    1    3    3    0  502 -0.58246490187E+03  0.11920077150E+04 -0.59669077684E+03  0.14547127726E+04  0.12699999809E+01 0.  1.
</event>
<event>
 5   0  0.8407500E-08  0.2900486E+04  0.7818609E-02  0.8272733E-01
       -3   -1    0    0    0  501  0.00000000000E+00  0.00000000000E+00  0.27734407996E+04  0.27734408014E+04  0.10100000352E+00 0.  1.
        3   -1    0    0  501    0  0.00000000000E+00  0.00000000000E+00 -0.75833761123E+03  0.75833761796E+03  0.10100000352E+00 0. -1.
    10030    2    1    2    0    0  0.00000000000E+00  0.00000000000E+00  0.20151031884E+04  0.35317784194E+04  0.29004858117E+04 0.  0.
        1    1    3    3  502    0 -0.10841075533E+04 -0.90673406314E+03  0.61158359081E+03  0.15399643947E+04  0.50400001928E-02 0.  1.
       -1    1    3    3    0  502  0.10841075533E+04  0.90673406314E+03  0.14035195976E+04  0.19918140247E+04  0.50400001928E-02 0. -1.
</event>
<event>
 5   0  0.2546841E-07  0.2898772E+04  0.7818609E-02  0.8273243E-01
        2   -1    0    0  501    0  0.00000000000E+00  0.00000000000E+00  0.19157260849E+04  0.19157260850E+04  0.25500000920E-02 0. -1.
       -2   -1    0    0    0  501  0.00000000000E+00  0.00000000000E+00 -0.10965659609E+04  0.10965659609E+04  0.25500000920E-02 0.  1.
    10030    2    1    2    0    0  0.00000000000E+00  0.00000000000E+00  0.81916012401E+03  0.30122920459E+04  0.28987721644E+04 0.  0.
        1    1    3    3  502    0 -0.27572574535E+02 -0.11733911659E+04  0.12932418176E+04  0.17464482454E+04  0.50400001928E-02 0. -1.
       -1    1    3    3    0  502  0.27572574535E+02  0.11733911659E+04 -0.47408169363E+03  0.12658438005E+04  0.50400001928E-02 0.  1.
</event>
<event>
 5   0  0.9395744E-08  0.2898919E+04  0.7818609E-02  0.8273199E-01
        1   -1    0    0  501    0  0.00000000000E+00  0.00000000000E+00  0.23550110584E+04  0.23550110584E+04  0.50400001928E-02 0. -1.
       -1   -1    0    0    0  501  0.00000000000E+00  0.00000000000E+00 -0.89211184722E+03  0.89211184724E+03  0.50400001928E-02 0.  1.
    10030    2    1    2    0    0  0.00000000000E+00  0.00000000000E+00  0.14628992112E+04  0.32471229056E+04  0.28989192921E+04 0.  0.
        2    1    3    3  502    0  0.45622554478E+03  0.11643114392E+04  0.15524032510E+04  0.19934188543E+04  0.25500000920E-02 0. -1.
       -2    1    3    3    0  502 -0.45622554478E+03 -0.11643114392E+04 -0.89504039820E+02  0.12537040513E+04  0.25500000920E-02 0.  1.
</event>
<event>
 5   0  0.2534588E-07  0.2901051E+04  0.7818609E-02  0.8272565E-01
       -2   -1    0    0    0  501  0.00000000000E+00  0.00000000000E+00  0.10275290412E+04  0.10275290412E+04  0.25500000920E-02 0.  1.
        2   -1    0    0  501    0  0.00000000000E+00  0.00000000000E+00 -0.20476543676E+04  0.20476543676E+04  0.25500000920E-02 0. -1.
    10030    2    1    2    0    0  0.00000000000E+00  0.00000000000E+00 -0.10201253264E+04  0.30751834088E+04  0.29010510709E+04 0.  0.
        3    1    3    3  502    0 -0.97111555253E+03  0.10711671793E+04 -0.38662664193E+03  0.14966444844E+04  0.10100000352E+00 0. -1.
       -3    1    3    3    0  502  0.97111555253E+03 -0.10711671793E+04 -0.63349868447E+03  0.15785389244E+04  0.10100000352E+00 0.  1.
</event>
<event>
 5   0  0.9443352E-08  0.2899779E+04  0.7818609E-02  0.8272943E-01
       -1   -1    0    0    0  501  0.00000000000E+00  0.00000000000E+00  0.13816917213E+04  0.13816917213E+04  0.50400001928E-02 0. -1.
        1   -1    0    0  501    0  0.00000000000E+00  0.00000000000E+00 -0.15214535262E+04  0.15214535262E+04  0.50400001928E-02 0.  1.
    10030    2    1    2    0    0  0.00000000000E+00  0.00000000000E+00 -0.13976180488E+03  0.29031452476E+04  0.28997791237E+04 0.  0.
        4    1    3    3  502    0 -0.27086549170E+03 -0.79326072527E+03 -0.12542788800E+04  0.15085913345E+04  0.12699999809E+01 0.  1.
       -4    1    3    3    0  502  0.27086549170E+03  0.79326072527E+03  0.11145170751E+04  0.13945539131E+04  0.12699999809E+01 0. -1.
</event>
<event>
 5   0  0.2546841E-07  0.2900983E+04  0.7818609E-02  0.8272585E-01
        2   -1    0    0  501    0  0.00000000000E+00  0.00000000000E+00  0.20028734464E+04  0.20028734464E+04  0.25500000920E-02 0.  1.
       -2   -1    0    0    0  501  0.00000000000E+00  0.00000000000E+00 -0.10504537410E+04  0.10504537410E+04  0.25500000920E-02 0. -1.
    10030    2    1    2    0    0  0.00000000000E+00  0.00000000000E+00  0.95241970537E+03  0.30533271874E+04  0.29009832158E+04 0.  0.
        1    1    3    3  502    0 -0.10146621620E+04 -0.36223945336E+03 -0.54595967306E+03  0.12078198083E+04  0.50400001928E-02 0. -1.
       -1    1    3    3    0  502  0.10146621620E+04  0.36223945336E+03  0.14983793784E+04  0.18455073791E+04  0.50400001928E-02 0.  1.
</event>
<event>
 5   0  0.9763851E-08  0.2898424E+04  0.7818609E-02  0.8273346E-01
        1   -1    0    0  501    0  0.00000000000E+00  0.00000000000E+00  0.20221905890E+04  0.20221905890E+04  0.50400001928E-02 0. -1.
       -1   -1    0    0    0  501  0.00000000000E+00  0.00000000000E+00 -0.10385844622E+04  0.10385844622E+04  0.50400001928E-02 0.  1.
    10030    2    1    2    0    0  0.00000000000E+00  0.00000000000E+00  0.98360612683E+03  0.30607750512E+04  0.28984242101E+04 0.  0.
        3    1    3    3  502    0 -0.68923492747E+03  0.37269842979E+03  0.17792159559E+04  0.19441086216E+04  0.10100000352E+00 0. -1.
       -3    1    3    3    0  502  0.68923492747E+03 -0.37269842979E+03 -0.79560982903E+03  0.11166664296E+04  0.10100000352E+00 0.  1.
</event>
<event>
 5   0  0.2492232E-07  0.2899812E+04  0.7818609E-02  0.8272933E-01
       -2   -1    0    0    0  501  0.00000000000E+00  0.00000000000E+00  0.12571786472E+04  0.12571786472E+04  0.25500000920E-02 0. -1.
        2   -1    0    0  501    0  0.00000000000E+00  0.00000000000E+00 -0.16721792366E+04  0.16721792366E+04  0.25500000920E-02 0.  1.
    10030    2    1    2    0    0  0.00000000000E+00  0.00000000000E+00 -0.41500058935E+03  0.29293578838E+04  0.28998124288E+04 0.  0.
        4    1    3    3  502    0 -0.28292267275E+03 -0.13628269691E+04 -0.61769642717E+03  0.15227912121E+04  0.12699999809E+01 0.  1.
       -4    1    3    3    0  502  0.28292267275E+03  0.13628269691E+04  0.20269583781E+03  0.14065666717E+04  0.12699999809E+01 0. -1.
</event>
<event>
 5   0  0.2492232E-07  0.2900564E+04  0.7818609E-02  0.8272710E-01
       -2   -1    0    0    0  501  0.00000000000E+00  0.00000000000E+00  0.15199636605E+04  0.15199636605E+04  0.25500000920E-02 0. -1.
        2   -1    0    0  501    0  0.00000000000E+00  0.00000000000E+00 -0.13837948858E+04  0.13837948858E+04  0.25500000920E-02 0.  1.
    10030    2    1    2    0    0  0.00000000000E+00  0.00000000000E+00  0.13616877467E+03  0.29037585463E+04  0.29005640417E+04 0.  0.
        4    1    3    3  502    0  0.35547880070E+03  0.57626555082E+03  0.13520214095E+04  0.15120881811E+04  0.12699999809E+01 0. -1.
       -4    1    3    3    0  502 -0.35547880070E+03 -0.57626555082E+03 -0.12158526348E+04  0.13916703652E+04  0.12699999809E+01 0.  1.
</event>
<event>
 5   0  0.2678723E-07  0.2900873E+04  0.7818609E-02  0.8272618E-01
       -2   -1    0    0    0  501  0.00000000000E+00  0.00000000000E+00  0.10762327866E+04  0.10762327866E+04  0.25500000920E-02 0.  1.
        2   -1    0    0  501    0  0.00000000000E+00  0.00000000000E+00 -0.19547499226E+04  0.19547499226E+04  0.25500000920E-02 0. -1.
    10030    2    1    2    0    0  0.00000000000E+00  0.00000000000E+00 -0.87851713596E+03  0.30309827092E+04  0.29008729420E+04 0.  0.
        5    1    3    3  502    0  0.10787122948E+04  0.33560748272E+03  0.51120716039E+03  0.12400030033E+04  0.46999998093E+01 0.  1.
       -5    1    3    3    0  502 -0.10787122948E+04 -0.33560748272E+03 -0.13897242963E+04  0.17909797060E+04  0.46999998093E+01 0. -1.
</event>
<event>
 5   0  0.2608591E-07  0.2902626E+04  0.7818609E-02  0.8272097E-01
        2   -1    0    0  501    0  0.00000000000E+00  0.00000000000E+00  0.25834220703E+04  0.25834220703E+04  0.25500000920E-02 0.  1.
       -2   -1    0    0    0  501  0.00000000000E+00  0.00000000000E+00 -0.81531746451E+03  0.81531746452E+03  0.25500000920E-02 0. -1.
    10030    2    1    2    0    0  0.00000000000E+00  0.00000000000E+00  0.17681046057E+04  0.33987395348E+04  0.29026257989E+04 0.  0.
        2    1    3    3  502    0  0.46889435972E+02  0.14106021441E+04  0.48816375265E+03  0.14934191902E+04  0.25500000920E-02 0. -1.
       -2    1    3    3    0  502 -0.46889435972E+02 -0.14106021441E+04  0.12799408531E+04  0.19053203446E+04  0.25500000920E-02 0.  1.
</event>
<event>
 5   0  0.2534588E-07  0.2898191E+04  0.7818609E-02  0.8273416E-01
        2   -1    0    0  501    0  0.00000000000E+00  0.00000000000E+00  0.23344361894E+04  0.23344361894E+04  0.25500000920E-02 0.  1.
       -2   -1    0    0    0  501  0.00000000000E+00  0.00000000000E+00 -0.89952241941E+03  0.89952241941E+03  0.25500000920E-02 0. -1.
    10030    2    1    2    0    0  0.00000000000E+00  0.00000000000E+00  0.14349137700E+04  0.32339586088E+04  0.28981909454E+04 0.  0.
        3    1    3    3  502    0  0.11085974478E+04 -0.95721527485E+02 -0.31838210283E+03  0.11573755163E+04  0.10100000352E+00 0. -1.
       -3    1    3    3    0  502 -0.11085974478E+04  0.95721527485E+02  0.17532958728E+04  0.20765830925E+04  0.10100000352E+00 0.  1.
</event>
<event>
 5   0  0.2534588E-07  0.2888498E+04  0.7818609E-02  0.8276308E-01
       -2   -1    0    0    0  501  0.00000000000E+00  0.00000000000E+00  0.17741354017E+04  0.17741354017E+04  0.25500000920E-02 0.  1.
        2   -1    0    0  501    0  0.00000000000E+00  0.00000000000E+00 -0.11757022467E+04  0.11757022467E+04  0.25500000920E-02 0. -1.
    10030    2    1    2    0    0  0.00000000000E+00  0.00000000000E+00  0.59843315499E+03  0.29498376483E+04  0.28884978640E+04 0.  0.
        3    1    3    3  502    0 -0.14379384210E+04 -0.12806332561E+03  0.34239746254E+03  0.14836789243E+04  0.10100000352E+00 0.  1.
       -3    1    3    3    0  502  0.14379384210E+04  0.12806332561E+03  0.25603569245E+03  0.14661587240E+04  0.10100000352E+00 0. -1.
</event>
<event>
 5   0  0.2608591E-07  0.2899675E+04  0.7818609E-02  0.8272974E-01
       -2   -1    0    0    0  501  0.00000000000E+00  0.00000000000E+00  0.83946112988E+03  0.83946112988E+03  0.25500000920E-02 0. -1.
        2   -1    0    0  501    0  0.00000000000E+00  0.00000000000E+00 -0.25040210465E+04  0.25040210465E+04  0.25500000920E-02 0.  1.
    10030    2    1    2    0    0  0.00000000000E+00  0.00000000000E+00 -0.16645599166E+04  0.33434821763E+04  0.28996746969E+04 0.  0.
        2    1    3    3  502    0  0.11836119816E+04 -0.81810094535E+03 -0.10379049860E+04  0.17741119581E+04  0.25500000920E-02 0. -1.
       -2    1    3    3    0  502 -0.11836119816E+04  0.81810094535E+03 -0.62665493057E+03  0.15693702182E+04  0.25500000920E-02 0.  1.
</event>
<event>
 5   0  0.8407500E-08  0.2900429E+04  0.7818609E-02  0.8272750E-01
       -4   -1    0    0    0  501  0.00000000000E+00  0.00000000000E+00  0.19040087507E+04  0.19040091742E+04  0.12699999809E+01 0. -1.
        4   -1    0    0  501    0  0.00000000000E+00  0.00000000000E+00 -0.11045746187E+04  0.11045753488E+04  0.12699999809E+01 0.  1.
    10030    2    1    2    0    0  0.00000000000E+00  0.00000000000E+00  0.79943413195E+03  0.30085845230E+04  0.29004285719E+04 0.  0.
        5    1    3    3  502    0  0.12591868541E+04  0.43265455607E+03 -0.19648349743E+03  0.13458712246E+04  0.46999998093E+01 0. -1.
       -5    1    3    3    0  502 -0.12591868541E+04 -0.43265455607E+03  0.99591762939E+03  0.16627132984E+04  0.46999998093E+01 0.  1.
</event>
<event>
 5   0  0.2534588E-07  0.2901711E+04  0.7818609E-02  0.8272369E-01
        2   -1    0    0  501    0  0.00000000000E+00  0.00000000000E+00  0.19777445456E+04  0.19777445456E+04  0.25500000920E-02 0. -1.
       -2   -1    0    0    0  501  0.00000000000E+00  0.00000000000E+00 -0.10643342888E+04  0.10643342888E+04  0.25500000920E-02 0.  1.
    10030    2    1    2    0    0  0.00000000000E+00  0.00000000000E+00  0.91341025677E+03  0.30420788345E+04  0.29017107606E+04 0.  0.
        3    1    3    3  502    0  0.30108477088E+03  0.10092063198E+04  0.15028922242E+04  0.18351660641E+04  0.10100000352E+00 0. -1.
       -3    1    3    3    0  502 -0.30108477088E+03 -0.10092063198E+04 -0.58948196742E+03  0.12069127704E+04  0.10100000352E+00 0.  1.
</event>
<event>
 5   0  0.9421924E-08  0.2900889E+04  0.7818609E-02  0.8272613E-01
       -1   -1    0    0    0  501  0.00000000000E+00  0.00000000000E+00  0.93723189674E+03  0.93723189676E+03  0.50400001928E-02 0. -1.
        1   -1    0    0  501    0  0.00000000000E+00  0.00000000000E+00 -0.22446840532E+04  0.22446840533E+04  0.50400001928E-02 0.  1.
    10030    2    1    2    0    0  0.00000000000E+00  0.00000000000E+00 -0.13074521565E+04  0.31819159500E+04  0.29008891691E+04 0.  0.
        1    1    3    3  502    0 -0.11414013393E+04 -0.89391293836E+03 -0.60576192916E+03  0.15712494625E+04  0.50400001928E-02 0. -1.
       -1    1    3    3    0  502  0.11414013393E+04  0.89391293836E+03 -0.70169022735E+03  0.16106664875E+04  0.50400001928E-02 0.  1.
</event>
<event>
 5   0  0.2546841E-07  0.2901626E+04  0.7818609E-02  0.8272394E-01
        2   -1    0    0  501    0  0.00000000000E+00  0.00000000000E+00  0.22550276451E+04  0.22550276451E+04  0.25500000920E-02 0. -1.
       -2   -1    0    0    0  501  0.00000000000E+00  0.00000000000E+00 -0.93340689735E+03  0.93340689735E+03  0.25500000920E-02 0.  1.
    10030    2    1    2    0    0  0.00000000000E+00  0.00000000000E+00  0.13216207477E+04  0.31884345424E+04  0.29016259977E+04 0.  0.
        1    1    3    3  502    0  0.28242321364E+03 -0.13931368488E+04  0.34183275147E+03  0.14619995831E+04  0.50400001928E-02 0. -1.
       -1    1    3    3    0  502 -0.28242321364E+03  0.13931368488E+04  0.97978799628E+03  0.17264349593E+04  0.50400001928E-02 0.  1.
</event>
<event>
 5   0  0.2608591E-07  0.2900824E+04  0.7818609E-02  0.8272632E-01
        2   -1    0    0  501    0  0.00000000000E+00  0.00000000000E+00  0.17548370660E+04  0.17548370660E+04  0.25500000920E-02 0. -1.
       -2   -1    0    0    0  501  0.00000000000E+00  0.00000000000E+00 -0.11987978871E+04  0.11987978871E+04  0.25500000920E-02 0.  1.
    10030    2    1    2    0    0  0.00000000000E+00  0.00000000000E+00  0.55603917889E+03  0.29536349530E+04  0.29008239980E+04 0.  0.
        2    1    3    3  502    0  0.92276076231E+03 -0.85632093125E+03 -0.45545738170E+03  0.13387361160E+04  0.25500000920E-02 0.  1.
       -2    1    3    3    0  502 -0.92276076231E+03  0.85632093125E+03  0.10114965606E+04  0.16148988370E+04  0.25500000920E-02 0. -1.
</event>
<event>
 5   0  0.9395744E-08  0.2900329E+04  0.7818609E-02  0.8272780E-01
       -1   -1    0    0    0  501  0.00000000000E+00  0.00000000000E+00  0.25551593053E+04  0.25551593053E+04  0.50400001928E-02 0. -1.
        1   -1    0    0  501    0  0.00000000000E+00  0.00000000000E+00 -0.82303172637E+03  0.82303172639E+03  0.50400001928E-02 0.  1.
    10030    2    1    2    0    0  0.00000000000E+00  0.00000000000E+00  0.17321275790E+04  0.33781910317E+04  0.29003290670E+04 0.  0.
        2    1    3    3  502    0 -0.24579653117E+03  0.40712491380E+03 -0.72962115300E+03  0.87092689537E+03  0.25500000920E-02 0.  1.
       -2    1    3    3    0  502  0.24579653117E+03 -0.40712491380E+03  0.24617487320E+04  0.25072641364E+04  0.25500000920E-02 0. -1.
</event>
<event>
 5   0  0.2678723E-07  0.2901907E+04  0.7818609E-02  0.8272310E-01
       -2   -1    0    0    0  501  0.00000000000E+00  0.00000000000E+00  0.10377370650E+04  0.10377370650E+04  0.25500000920E-02 0.  1.
        2   -1    0    0  501    0  0.00000000000E+00  0.00000000000E+00 -0.20287089907E+04  0.20287089907E+04  0.25500000920E-02 0. -1.
    10030    2    1    2    0    0  0.00000000000E+00  0.00000000000E+00 -0.99097192575E+03  0.30664460557E+04  0.29019073132E+04 0.  0.
        5    1    3    3  502    0  0.12571678314E+04  0.29100778170E+03 -0.11964916236E+04  0.17597644106E+04  0.46999998093E+01 0. -1.
       -5    1    3    3    0  502 -0.12571678314E+04 -0.29100778170E+03  0.20551969789E+03  0.13066816451E+04  0.46999998093E+01 0.  1.
</event>
<event>
 5   0  0.9763851E-08  0.2901184E+04  0.7818609E-02  0.8272525E-01
        1   -1    0    0  501    0  0.00000000000E+00  0.00000000000E+00  0.12066912903E+04  0.12066912903E+04  0.50400001928E-02 0.  1.
       -1   -1    0    0    0  501  0.00000000000E+00  0.00000000000E+00 -0.17437909197E+04  0.17437909197E+04  0.50400001928E-02 0. -1.
    10030    2    1    2    0    0  0.00000000000E+00  0.00000000000E+00 -0.53709962943E+03  0.29504822100E+04  0.29011841134E+04 0.  0.
        3    1    3    3  502    0 -0.57513750753E+03  0.75996170280E+03 -0.13807008127E+04  0.16776947537E+04  0.10100000352E+00 0. -1.
       -3    1    3    3    0  502  0.57513750753E+03 -0.75996170280E+03  0.84360118326E+03  0.12727874563E+04  0.10100000352E+00 0.  1.
</event>
<event>
 5   0  0.9763851E-08  0.2902005E+04  0.7818609E-02  0.8272281E-01
       -1   -1    0    0    0  501  0.00000000000E+00  0.00000000000E+00  0.13472252946E+04  0.13472252947E+04  0.50400001928E-02 0. -1.
        1   -1    0    0  501    0  0.00000000000E+00  0.00000000000E+00 -0.15627735232E+04  0.15627735232E+04  0.50400001928E-02 0.  1.
    10030    2    1    2    0    0  0.00000000000E+00  0.00000000000E+00 -0.21554822851E+03  0.29099988178E+04  0.29020048382E+04 0.  0.
        3    1    3    3  502    0  0.93361378117E+03  0.43518101703E+03  0.91699540472E+03  0.13790931051E+04  0.10100000352E+00 0. -1.
       -3    1    3    3    0  502 -0.93361378117E+03 -0.43518101703E+03 -0.11325436332E+04  0.15309057128E+04  0.10100000352E+00 0.  1.
</event>
<event>
 5   0  0.9443352E-08  0.2904386E+04  0.7818609E-02  0.8271574E-01
       -1   -1    0    0    0  501  0.00000000000E+00  0.00000000000E+00  0.11389825122E+04  0.11389825122E+04  0.50400001928E-02 0. -1.
        1   -1    0    0  501    0  0.00000000000E+00  0.00000000000E+00 -0.18515334851E+04  0.18515334851E+04  0.50400001928E-02 0.  1.
    10030    2    1    2    0    0  0.00000000000E+00  0.00000000000E+00 -0.71255097297E+03  0.29905159973E+04  0.29043858286E+04 0.  0.
        4    1    3    3  502    0 -0.14226139829E+03  0.58151954068E+03 -0.17185600571E+04  0.18198498742E+04  0.12699999809E+01 0.  1.
       -4    1    3    3    0  502  0.14226139829E+03 -0.58151954068E+03  0.10060090842E+04  0.11706661232E+04  0.12699999809E+01 0. -1.
</event>
<event>
 5   0  0.2492232E-07  0.2899256E+04  0.7818609E-02  0.8273099E-01
        2   -1    0    0  501    0  0.00000000000E+00  0.00000000000E+00  0.23748086052E+04  0.23748086052E+04  0.25500000920E-02 0.  1.
       -2   -1    0    0    0  501  0.00000000000E+00  0.00000000000E+00 -0.88488024900E+03  0.88488024901E+03  0.25500000920E-02 0. -1.
    10030    2    1    2    0    0  0.00000000000E+00  0.00000000000E+00  0.14899283562E+04  0.32596888542E+04  0.28992559252E+04 0.  0.
        4    1    3    3  502    0 -0.10827954438E+04 -0.63581838118E+03 -0.69456323432E+02  0.12575916590E+04  0.12699999809E+01 0. -1.
       -4    1    3    3    0  502  0.10827954438E+04  0.63581838118E+03  0.15593846796E+04  0.20020971952E+04  0.12699999809E+01 0.  1.
</event>
<event>
 5   0  0.2608591E-07  0.2900289E+04  0.7818609E-02  0.8272791E-01
        2   -1    0    0  501    0  0.00000000000E+00  0.00000000000E+00  0.26420702646E+04  0.26420702646E+04  0.25500000920E-02 0.  1.
       -2   -1    0    0    0  501  0.00000000000E+00  0.00000000000E+00 -0.79593616788E+03  0.79593616789E+03  0.25500000920E-02 0. -1.
    10030    2    1    2    0    0  0.00000000000E+00  0.00000000000E+00  0.18461340967E+04  0.34380064325E+04  0.29002891454E+04 0.  0.
        2    1    3    3  502    0  0.99686373788E+02  0.13862648925E+04  0.14136163383E+04  0.19824174326E+04  0.25500000920E-02 0. -1.
       -2    1    3    3    0  502 -0.99686373788E+02 -0.13862648925E+04  0.43251775847E+03  0.14555889999E+04  0.25500000920E-02 0.  1.
</event>
<event>
 5   0  0.2492232E-07  0.2909216E+04  0.7818609E-02  0.8270141E-01
       -2   -1    0    0    0  501  0.00000000000E+00  0.00000000000E+00  0.15992430605E+04  0.15992430605E+04  0.25500000920E-02 0.  1.
        2   -1    0    0  501    0  0.00000000000E+00  0.00000000000E+00 -0.13230534044E+04  0.13230534044E+04  0.25500000920E-02 0. -1.
    10030    2    1    2    0    0  0.00000000000E+00  0.00000000000E+00  0.27618965611E+03  0.29222964649E+04  0.29092156851E+04 0.  0.
        4    1    3    3  502    0 -0.53233217260E+03  0.76025794327E+03  0.12631812411E+04  0.15674814650E+04  0.12699999809E+01 0.  1.
       -4    1    3    3    0  502  0.53233217260E+03 -0.76025794327E+03 -0.98699158499E+03  0.13548149999E+04  0.12699999809E+01 0. -1.
</event>
<event>
 5   0  0.2546841E-07  0.2900195E+04  0.7818609E-02  0.8272819E-01
        2   -1    0    0  501    0  0.00000000000E+00  0.00000000000E+00  0.13991188650E+04  0.13991188650E+04  0.25500000920E-02 0. -1.
       -2   -1    0    0    0  501  0.00000000000E+00  0.00000000000E+00 -0.15029337285E+04  0.15029337285E+04  0.25500000920E-02 0.  1.
    10030    2    1    2    0    0  0.00000000000E+00  0.00000000000E+00 -0.10381486347E+03  0.29020525935E+04  0.29001951192E+04 0.  0.
        1    1    3    3  502    0 -0.12467223654E+04  0.40086316643E+03 -0.67502208381E+03  0.14733169205E+04  0.50400001928E-02 0. -1.
       -1    1    3    3    0  502  0.12467223654E+04 -0.40086316643E+03  0.57120722034E+03  0.14287356730E+04  0.50400001928E-02 0.  1.
</event>
<event>
 5   0  0.2534588E-07  0.2898667E+04  0.7818609E-02  0.8273274E-01
       -2   -1    0    0    0  501  0.00000000000E+00  0.00000000000E+00  0.11140810597E+04  0.11140810597E+04  0.25500000920E-02 0.  1.
        2   -1    0    0  501    0  0.00000000000E+00  0.00000000000E+00 -0.18854709399E+04  0.18854709399E+04  0.25500000920E-02 0. -1.
    10030    2    1    2    0    0  0.00000000000E+00  0.00000000000E+00 -0.77138988022E+03  0.29995519995E+04  0.28986669092E+04 0.  0.
        3    1    3    3  502    0  0.13195237588E+04 -0.98465954457E+02  0.22626624862E+03  0.13423989421E+04  0.10100000352E+00 0.  1.
       -3    1    3    3    0  502 -0.13195237588E+04  0.98465954457E+02 -0.99765612884E+03  0.16571530575E+04  0.10100000352E+00 0. -1.
</event>
<event>
 5   0  0.9421924E-08  0.2897215E+04  0.7818609E-02  0.8273707E-01
       -1   -1    0    0    0  501  0.00000000000E+00  0.00000000000E+00  0.15033431114E+04  0.15033431114E+04  0.50400001928E-02 0. -1.
        1   -1    0    0  501    0  0.00000000000E+00  0.00000000000E+00 -0.13958648358E+04  0.13958648358E+04  0.50400001928E-02 0.  1.
    10030    2    1    2    0    0  0.00000000000E+00  0.00000000000E+00  0.10747827566E+03  0.28992079472E+04  0.28972150665E+04 0.  0.
        1    1    3    3  502    0  0.14481430601E+04 -0.26002482030E+02  0.27849853877E+02  0.14486442164E+04  0.50400001928E-02 0.  1.
       -1    1    3    3    0  502 -0.14481430601E+04  0.26002482030E+02  0.79628421787E+02  0.14505637308E+04  0.50400001928E-02 0. -1.
</event>
<event>
 5   0  0.2608591E-07  0.2900094E+04  0.7818609E-02  0.8272849E-01
       -2   -1    0    0    0  501  0.00000000000E+00  0.00000000000E+00  0.22506562213E+04  0.22506562213E+04  0.25500000920E-02 0. -1.
        2   -1    0    0  501    0  0.00000000000E+00  0.00000000000E+00 -0.93423256521E+03  0.93423256521E+03  0.25500000920E-02 0.  1.
    10030    2    1    2    0    0  0.00000000000E+00  0.00000000000E+00  0.13164236561E+04  0.31848887865E+04  0.29000940226E+04 0.  0.
        2    1    3    3  502    0  0.13825518392E+04  0.14352427353E+03  0.11117938511E+04  0.17799253840E+04  0.25500000920E-02 0.  1.
       -2    1    3    3    0  502 -0.13825518392E+04 -0.14352427353E+03  0.20462980495E+03  0.14049634025E+04  0.25500000920E-02 0. -1.
</event>
<event>
 5   0  0.9443352E-08  0.2898570E+04  0.7818609E-02  0.8273303E-01
        1   -1    0    0  501    0  0.00000000000E+00  0.00000000000E+00  0.22211321745E+04  0.22211321745E+04  0.50400001928E-02 0.  1.
       -1   -1    0    0    0  501  0.00000000000E+00  0.00000000000E+00 -0.94565595610E+03  0.94565595611E+03  0.50400001928E-02 0. -1.
    10030    2    1    2    0    0  0.00000000000E+00  0.00000000000E+00  0.12754762184E+04  0.31667881306E+04  0.28985699027E+04 0.  0.
        4    1    3    3  502    0 -0.13369129617E+04  0.24722330087E+03  0.11861531142E+04  0.18042772655E+04  0.12699999809E+01 0.  1.
       -4    1    3    3    0  502  0.13369129617E+04 -0.24722330087E+03  0.89323104183E+02  0.13625108651E+04  0.12699999809E+01 0. -1.
</event>
<event>
 5   0  0.2492232E-07  0.2894885E+04  0.7818609E-02  0.8274401E-01
       -2   -1    0    0    0  501  0.00000000000E+00  0.00000000000E+00  0.10024209366E+04  0.10024209366E+04  0.25500000920E-02 0. -1.
        2   -1    0    0  501    0  0.00000000000E+00  0.00000000000E+00 -0.20900295421E+04  0.20900295421E+04  0.25500000920E-02 0.  1.
    10030    2    1    2    0    0  0.00000000000E+00  0.00000000000E+00 -0.10876086054E+04  0.30924504787E+04  0.28948847101E+04 0.  0.
        4    1    3    3  502    0 -0.26099254244E+02  0.82611598521E+02 -0.20872567147E+04  0.20890543443E+04  0.12699999809E+01 0.  1.
       -4    1    3    3    0  502  0.26099254244E+02 -0.82611598521E+02  0.99964810928E+03  0.10033961344E+04  0.12699999809E+01 0. -1.
</event>
<event>
 5   0  0.2492232E-07  0.2901421E+04  0.7818609E-02  0.8272455E-01
        2   -1    0    0  501    0  0.00000000000E+00  0.00000000000E+00  0.10508818614E+04  0.10508818614E+04  0.25500000920E-02 0.  1.
       -2   -1    0    0    0  501  0.00000000000E+00  0.00000000000E+00 -0.20026619538E+04  0.20026619538E+04  0.25500000920E-02 0. -1.
    10030    2    1    2    0    0  0.00000000000E+00  0.00000000000E+00 -0.95178009234E+03  0.30535438152E+04  0.29014211151E+04 0.  0.
        4    1    3    3  502    0  0.76343760431E+03  0.48146501273E+03 -0.16711813577E+04  0.18993404849E+04  0.12699999809E+01 0. -1.
       -4    1    3    3    0  502 -0.76343760431E+03 -0.48146501273E+03  0.71940126538E+03  0.11542033303E+04  0.12699999809E+01 0.  1.
</event>
<event>
 5   0  0.9421924E-08  0.2898496E+04  0.7818609E-02  0.8273325E-01
       -1   -1    0    0    0  501  0.00000000000E+00  0.00000000000E+00  0.15155971410E+04  0.15155971411E+04  0.50400001928E-02 0. -1.
        1   -1    0    0  501    0  0.00000000000E+00  0.00000000000E+00 -0.13858033651E+04  0.13858033651E+04  0.50400001928E-02 0.  1.
    10030    2    1    2    0    0  0.00000000000E+00  0.00000000000E+00  0.12979377593E+03  0.29014005062E+04  0.28984958984E+04 0.  0.
        1    1    3    3  502    0 -0.39590352023E+03 -0.10801692009E+04 -0.81735715906E+03  0.14112327325E+04  0.50400001928E-02 0.  1.
       -1    1    3    3    0  502  0.39590352023E+03  0.10801692009E+04  0.94715093500E+03  0.14901677736E+04  0.50400001928E-02 0. -1.
</event>
<event>
 5   0  0.9763851E-08  0.2907301E+04  0.7818609E-02  0.8270708E-01
        1   -1    0    0  501    0  0.00000000000E+00  0.00000000000E+00  0.11658898296E+04  0.11658898296E+04  0.50400001928E-02 0. -1.
       -1   -1    0    0    0  501  0.00000000000E+00  0.00000000000E+00 -0.18124356023E+04  0.18124356023E+04  0.50400001928E-02 0.  1.
    10030    2    1    2    0    0  0.00000000000E+00  0.00000000000E+00 -0.64654577272E+03  0.29783254319E+04  0.29073013161E+04 0.  0.
        3    1    3    3  502    0 -0.12683731768E+04 -0.57176911886E+03 -0.75476303932E+03  0.15828321758E+04  0.10100000352E+00 0.  1.
       -3    1    3    3    0  502  0.12683731768E+04  0.57176911886E+03  0.10821726659E+03  0.13954932562E+04  0.10100000352E+00 0. -1.
</event>
<event>
 5   0  0.2534588E-07  0.2901623E+04  0.7818609E-02  0.8272395E-01
       -2   -1    0    0    0  501  0.00000000000E+00  0.00000000000E+00  0.15424966493E+04  0.15424966493E+04  0.25500000920E-02 0.  1.
        2   -1    0    0  501    0  0.00000000000E+00  0.00000000000E+00 -0.13645762358E+04  0.13645762358E+04  0.25500000920E-02 0. -1.
    10030    2    1    2    0    0  0.00000000000E+00  0.00000000000E+00  0.17792041342E+03  0.29070728851E+04  0.29016231812E+04 0.  0.
        3    1    3    3  502    0  0.11356975181E+04  0.49961482496E+03  0.84232357464E+03  0.14996442380E+04  0.10100000352E+00 0. -1.
       -3    1    3    3    0  502 -0.11356975181E+04 -0.49961482496E+03 -0.66440316122E+03  0.14074286471E+04  0.10100000352E+00 0.  1.
</event>
<event>
 5   0  0.9388076E-08  0.2900413E+04  0.7818609E-02  0.8272755E-01
       -1   -1    0    0    0  501  0.00000000000E+00  0.00000000000E+00  0.14779921066E+04  0.14779921066E+04  0.50400001928E-02 0. -1.
        1   -1    0    0  501    0  0.00000000000E+00  0.00000000000E+00 -0.14229428887E+04  0.14229428888E+04  0.50400001928E-02 0.  1.
    10030    2    1    2    0    0  0.00000000000E+00  0.00000000000E+00  0.55049217803E+02  0.29009349953E+04  0.29004126311E+04 0.  0.
        5    1    3    3  502    0 -0.99962593219E+03 -0.29878957200E+03  0.10349542732E+04  0.14695848564E+04  0.46999998093E+01 0.  1.
       -5    1    3    3    0  502  0.99962593219E+03  0.29878957200E+03 -0.97990505536E+03  0.14313501389E+04  0.46999998093E+01 0. -1.
</event>
<event>
 5   0  0.9443352E-08  0.2900156E+04  0.7818609E-02  0.8272831E-01
       -1   -1    0    0    0  501  0.00000000000E+00  0.00000000000E+00  0.12393553295E+04  0.12393553295E+04  0.50400001928E-02 0. -1.
        1   -1    0    0  501    0  0.00000000000E+00  0.00000000000E+00 -0.16966288809E+04  0.16966288809E+04  0.50400001928E-02 0.  1.
    10030    2    1    2    0    0  0.00000000000E+00  0.00000000000E+00 -0.45727355140E+03  0.29359842104E+04  0.29001558895E+04 0.  0.
        4    1    3    3  502    0 -0.75640080145E+03 -0.11538652406E+04 -0.68044304958E+03  0.15383600107E+04  0.12699999809E+01 0.  1.
       -4    1    3    3    0  502  0.75640080145E+03  0.11538652406E+04  0.22316949818E+03  0.13976241997E+04  0.12699999809E+01 0. -1.
</event>
<event>
 5   0  0.2492232E-07  0.2899429E+04  0.7818609E-02  0.8273047E-01
       -2   -1    0    0    0  501  0.00000000000E+00  0.00000000000E+00  0.10762130704E+04  0.10762130704E+04  0.25500000920E-02 0.  1.
        2   -1    0    0  501    0  0.00000000000E+00  0.00000000000E+00 -0.19528396560E+04  0.19528396560E+04  0.25500000920E-02 0. -1.
    10030    2    1    2    0    0  0.00000000000E+00  0.00000000000E+00 -0.87662658565E+03  0.30290527264E+04  0.28994286072E+04 0.  0.
        4    1    3    3  502    0 -0.67777918548E+03  0.86780985497E+03  0.54681328397E+03  0.12294246415E+04  0.12699999809E+01 0.  1.
       -4    1    3    3    0  502  0.67777918548E+03 -0.86780985497E+03 -0.14234398696E+04  0.17996280849E+04  0.12699999809E+01 0. -1.
</event>
<event>
 5   0  0.2546841E-07  0.2901208E+04  0.7818609E-02  0.8272518E-01
       -2   -1    0    0    0  501  0.00000000000E+00  0.00000000000E+00  0.81988273366E+03  0.81988273366E+03  0.25500000920E-02 0. -1.
        2   -1    0    0  501    0  0.00000000000E+00  0.00000000000E+00 -0.25665288504E+04  0.25665288504E+04  0.25500000920E-02 0.  1.
    10030    2    1    2    0    0  0.00000000000E+00  0.00000000000E+00 -0.17466461167E+04  0.33864115841E+04  0.29012084998E+04 0.  0.
        1    1    3    3  502    0 -0.37207612847E+03 -0.11648652779E+04  0.37500212932E+02  0.12234206255E+04  0.50400001928E-02 0. -1.
       -1    1    3    3    0  502  0.37207612847E+03  0.11648652779E+04 -0.17841463297E+04  0.21629909585E+04  0.50400001928E-02 0.  1.
</event>
<event>
 5   0  0.9395744E-08  0.2903004E+04  0.7818609E-02  0.8271984E-01
       -1   -1    0    0    0  501  0.00000000000E+00  0.00000000000E+00  0.12267766590E+04  0.12267766590E+04  0.50400001928E-02 0. -1.
        1   -1    0    0  501    0  0.00000000000E+00  0.00000000000E+00 -0.17173929795E+04  0.17173929795E+04  0.50400001928E-02 0.  1.
    10030    2    1    2    0    0  0.00000000000E+00  0.00000000000E+00 -0.49061632044E+03  0.29441696385E+04  0.29030037007E+04 0.  0.
        2    1    3    3  502    0  0.87629587797E+03  0.70758857358E+03  0.68325232507E+03  0.13173495341E+04  0.25500000920E-02 0. -1.
       -2    1    3    3    0  502 -0.87629587797E+03 -0.70758857358E+03 -0.11738686455E+04  0.16268201044E+04  0.25500000920E-02 0.  1.
</event>
<event>
 5   0  0.2608591E-07  0.2900015E+04  0.7818609E-02  0.8272873E-01
        2   -1    0    0  501    0  0.00000000000E+00  0.00000000000E+00  0.11906829561E+04  0.11906829561E+04  0.25500000920E-02 0. -1.
       -2   -1    0    0    0  501  0.00000000000E+00  0.00000000000E+00 -0.17658112626E+04  0.17658112626E+04  0.25500000920E-02 0.  1.
    10030    2    1    2    0    0  0.00000000000E+00  0.00000000000E+00 -0.57512830656E+03  0.29564942187E+04  0.29000147407E+04 0.  0.
        2    1    3    3  502    0  0.86956341395E+03  0.88897368314E+03  0.47268486257E+03  0.13303554861E+04  0.25500000920E-02 0. -1.
       -2    1    3    3    0  502 -0.86956341395E+03 -0.88897368314E+03 -0.10478131691E+04  0.16261387326E+04  0.25500000920E-02 0.  1.
</event>
<event>
 5   0  0.2546841E-07  0.2900255E+04  0.7818609E-02  0.8272802E-01
        2   -1    0    0  501    0  0.00000000000E+00  0.00000000000E+00  0.15394420425E+04  0.15394420425E+04  0.25500000920E-02 0.  1.
       -2   -1    0    0    0  501  0.00000000000E+00  0.00000000000E+00 -0.13659950167E+04  0.13659950167E+04  0.25500000920E-02 0. -1.
    10030    2    1    2    0    0  0.00000000000E+00  0.00000000000E+00  0.17344702578E+03  0.29054370592E+04  0.29002552705E+04 0.  0.
        1    1    3    3  502    0 -0.11798966526E+04  0.40154470828E+03  0.82931432163E+03  0.14970492669E+04  0.50400001928E-02 0.  1.
       -1    1    3    3    0  502  0.11798966526E+04 -0.40154470828E+03 -0.65586729586E+03  0.14083877922E+04  0.50400001928E-02 0. -1.
</event>
<event>
 5   0  0.2534588E-07  0.2900882E+04  0.7818609E-02  0.8272615E-01
       -2   -1    0    0    0  501  0.00000000000E+00  0.00000000000E+00  0.88161028084E+03  0.88161028084E+03  0.25500000920E-02 0.  1.
        2   -1    0    0  501    0  0.00000000000E+00  0.00000000000E+00 -0.23862911187E+04  0.23862911187E+04  0.25500000920E-02 0. -1.
    10030    2    1    2    0    0  0.00000000000E+00  0.00000000000E+00 -0.15046808379E+04  0.32679013996E+04  0.29008817855E+04 0.  0.
        3    1    3    3  502    0  0.51735426523E+03 -0.13546835152E+04 -0.71751088678E+03  0.16179137014E+04  0.10100000352E+00 0.  1.
       -3    1    3    3    0  502 -0.51735426523E+03  0.13546835152E+04 -0.78716995113E+03  0.16499876982E+04  0.10100000352E+00 0. -1.
</event>
<event>
 5   0  0.2608591E-07  0.2883629E+04  0.7818609E-02  0.8277765E-01
       -2   -1    0    0    0  501  0.00000000000E+00  0.00000000000E+00  0.14482114494E+04  0.14482114494E+04  0.25500000920E-02 0. -1.
        2   -1    0    0  501    0  0.00000000000E+00  0.00000000000E+00 -0.14354460846E+04  0.14354460846E+04  0.25500000920E-02 0.  1.
    10030    2    1    2    0    0  0.00000000000E+00  0.00000000000E+00  0.12765364892E+02  0.28836575340E+04  0.28836292790E+04 0.  0.
        2    1    3    3  502    0 -0.14082888589E+04  0.29628127520E+03 -0.81762100922E+02  0.14414385680E+04  0.25500000920E-02 0.  1.
       -2    1    3    3    0  502  0.14082888589E+04 -0.29628127520E+03  0.94527465814E+02  0.14422189660E+04  0.25500000920E-02 0. -1.
</event>
<event>
 5   0  0.9388076E-08  0.2899308E+04  0.7818609E-02  0.8273084E-01
       -1   -1    0    0    0  501  0.00000000000E+00  0.00000000000E+00  0.11437587834E+04  0.11437587835E+04  0.50400001928E-02 0. -1.
        1   -1    0    0  501    0  0.00000000000E+00  0.00000000000E+00 -0.18373595330E+04  0.18373595330E+04  0.50400001928E-02 0.  1.
    10030    2    1    2    0    0  0.00000000000E+00  0.00000000000E+00 -0.69360074951E+03  0.29811183164E+04  0.28993075754E+04 0.  0.
        5    1    3    3  502    0 -0.12905118336E+04 -0.58918064534E+03 -0.40192604642E+02  0.14192223790E+04  0.46999998093E+01 0.  1.
       -5    1    3    3    0  502  0.12905118336E+04  0.58918064534E+03 -0.65340814487E+03  0.15618959374E+04  0.46999998093E+01 0. -1.
</event>
<event>
 5   0  0.2492232E-07  0.2900918E+04  0.7818609E-02  0.8272604E-01
       -2   -1    0    0    0  501  0.00000000000E+00  0.00000000000E+00  0.85603662705E+03  0.85603662705E+03  0.25500000920E-02 0. -1.
        2   -1    0    0  501    0  0.00000000000E+00  0.00000000000E+00 -0.24576416336E+04  0.24576416336E+04  0.25500000920E-02 0.  1.
    10030    2    1    2    0    0  0.00000000000E+00  0.00000000000E+00 -0.16016050065E+04  0.33136782606E+04  0.29009179613E+04 0.  0.
        4    1    3    3  502    0  0.67672968271E+03  0.30759252704E+03 -0.22235121194E+04  0.23444794698E+04  0.12699999809E+01 0.  1.
       -4    1    3    3    0  502 -0.67672968271E+03 -0.30759252704E+03  0.62190711291E+03  0.96919879083E+03  0.12699999809E+01 0. -1.
</event>
<event>
 5   0  0.9763851E-08  0.2899042E+04  0.7818609E-02  0.8273162E-01
       -1   -1    0    0    0  501  0.00000000000E+00  0.00000000000E+00  0.14702477525E+04  0.14702477525E+04  0.50400001928E-02 0.  1.
        1   -1    0    0  501    0  0.00000000000E+00  0.00000000000E+00 -0.14290866851E+04  0.14290866851E+04  0.50400001928E-02 0. -1.
    10030    2    1    2    0    0  0.00000000000E+00  0.00000000000E+00  0.41161067356E+02  0.28993344376E+04  0.28990422466E+04 0.  0.
        3    1    3    3  502    0  0.69844911405E+02  0.98672564630E+02 -0.14240361983E+04  0.14291583855E+04  0.10100000352E+00 0. -1.
       -3    1    3    3    0  502 -0.69844911405E+02 -0.98672564630E+02  0.14651972657E+04  0.14701760521E+04  0.10100000352E+00 0.  1.
</event>
<event>
 5   0  0.9763851E-08  0.2899874E+04  0.7818609E-02  0.8272915E-01
       -1   -1    0    0    0  501  0.00000000000E+00  0.00000000000E+00  0.11949871131E+04  0.11949871131E+04  0.50400001928E-02 0. -1.
        1   -1    0    0  501    0  0.00000000000E+00  0.00000000000E+00 -0.17592800113E+04  0.17592800113E+04  0.50400001928E-02 0.  1.
    10030    2    1    2    0    0  0.00000000000E+00  0.00000000000E+00 -0.56429289818E+03  0.29542671243E+04  0.28998737502E+04 0.  0.
        3    1    3    3  502    0  0.46927186944E+03 -0.13653594546E+04 -0.41842555874E+03  0.15031641581E+04  0.10100000352E+00 0. -1.
       -3    1    3    3    0  502 -0.46927186944E+03  0.13653594546E+04 -0.14586733944E+03  0.14511029663E+04  0.10100000352E+00 0.  1.
</event>
<event>
 5   0  0.2534588E-07  0.2899619E+04  0.7818609E-02  0.8272991E-01
       -2   -1    0    0    0  501  0.00000000000E+00  0.00000000000E+00  0.12161159689E+04  0.12161159689E+04  0.25500000920E-02 0. -1.
        2   -1    0    0  501    0  0.00000000000E+00  0.00000000000E+00 -0.17284103405E+04  0.17284103405E+04  0.25500000920E-02 0.  1.
    10030    2    1    2    0    0  0.00000000000E+00  0.00000000000E+00 -0.51229437169E+03  0.29445263094E+04  0.28996188825E+04 0.  0.
        3    1    3    3  502    0 -0.15895408187E+03  0.73541155345E+03 -0.15146350776E+04  0.16912173076E+04  0.10100000352E+00 0.  1.
       -3    1    3    3    0  502  0.15895408187E+03 -0.73541155345E+03  0.10023407059E+04  0.12533090018E+04  0.10100000352E+00 0. -1.
</event>
<event>
 5   0  0.9763851E-08  0.2898204E+04  0.7818609E-02  0.8273412E-01
        1   -1    0    0  501    0  0.00000000000E+00  0.00000000000E+00  0.21625013453E+04  0.21625013453E+04  0.50400001928E-02 0.  1.
       -1   -1    0    0    0  501  0.00000000000E+00  0.00000000000E+00 -0.97105004024E+03  0.97105004025E+03  0.50400001928E-02 0. -1.
    10030    2    1    2    0    0  0.00000000000E+00  0.00000000000E+00  0.11914513051E+04  0.31335513856E+04  0.28982042843E+04 0.  0.
        3    1    3    3  502    0 -0.77403810202E+03  0.12079312596E+04  0.37503252303E+03  0.14828628780E+04  0.10100000352E+00 0. -1.
       -3    1    3    3    0  502  0.77403810202E+03 -0.12079312596E+04  0.81641878205E+03  0.16506885076E+04  0.10100000352E+00 0.  1.
</event>
<event>
 5   0  0.9443352E-08  0.2900300E+04  0.7818609E-02  0.8272788E-01
        1   -1    0    0  501    0  0.00000000000E+00  0.00000000000E+00  0.29648217836E+04  0.29648217836E+04  0.50400001928E-02 0.  1.
       -1   -1    0    0    0  501  0.00000000000E+00  0.00000000000E+00 -0.70929546906E+03  0.70929546908E+03  0.50400001928E-02 0. -1.
    10030    2    1    2    0    0  0.00000000000E+00  0.00000000000E+00  0.22555263146E+04  0.36741172527E+04  0.29002997485E+04 0.  0.
        4    1    3    3  502    0  0.11262549202E+04  0.77617202262E+03  0.17379902047E+04  0.22116746412E+04  0.12699999809E+01 0.  1.
       -4    1    3    3    0  502 -0.11262549202E+04 -0.77617202262E+03  0.51753610989E+03  0.14624426115E+04  0.12699999809E+01 0. -1.
</event>
<event>
 5   0  0.9388076E-08  0.2900068E+04  0.7818609E-02  0.8272857E-01
       -1   -1    0    0    0  501  0.00000000000E+00  0.00000000000E+00  0.96910042886E+03  0.96910042888E+03  0.50400001928E-02 0. -1.
        1   -1    0    0  501    0  0.00000000000E+00  0.00000000000E+00 -0.21696395037E+04  0.21696395037E+04  0.50400001928E-02 0.  1.
    10030    2    1    2    0    0  0.00000000000E+00  0.00000000000E+00 -0.12005390749E+04  0.31387399326E+04  0.29000679810E+04 0.  0.
        5    1    3    3  502    0  0.62690692091E+03 -0.12576537421E+04 -0.21324934155E+03  0.14213383110E+04  0.46999998093E+01 0.  1.
       -5    1    3    3    0  502 -0.62690692091E+03  0.12576537421E+04 -0.98728973333E+03  0.17174016217E+04  0.46999998093E+01 0. -1.
</event>
<event>
 5   0  0.9443352E-08  0.2900169E+04  0.7818609E-02  0.8272827E-01
       -1   -1    0    0    0  501  0.00000000000E+00  0.00000000000E+00  0.14055131187E+04  0.14055131187E+04  0.50400001928E-02 0. -1.
        1   -1    0    0  501    0  0.00000000000E+00  0.00000000000E+00 -0.14960688203E+04  0.14960688203E+04  0.50400001928E-02 0.  1.
    10030    2    1    2    0    0  0.00000000000E+00  0.00000000000E+00 -0.90555701576E+02  0.29015819391E+04  0.29001685148E+04 0.  0.
        4    1    3    3  502    0 -0.65620469909E+03  0.21755385152E+02 -0.13388367543E+04  0.14911617523E+04  0.12699999809E+01 0.  1.
       -4    1    3    3    0  502  0.65620469909E+03 -0.21755385152E+02  0.12482810527E+04  0.14104201868E+04  0.12699999809E+01 0. -1.
</event>
<event>
 5   0  0.2534588E-07  0.2899049E+04  0.7818609E-02  0.8273161E-01
       -2   -1    0    0    0  501  0.00000000000E+00  0.00000000000E+00  0.14164108032E+04  0.14164108032E+04  0.25500000920E-02 0. -1.
        2   -1    0    0  501    0  0.00000000000E+00  0.00000000000E+00 -0.14834119475E+04  0.14834119476E+04  0.25500000920E-02 0.  1.
    10030    2    1    2    0    0  0.00000000000E+00  0.00000000000E+00 -0.67001144320E+02  0.28998227508E+04  0.28990486082E+04 0.  0.
        3    1    3    3  502    0  0.20429735446E+03  0.46596822516E+03  0.13241595184E+04  0.14185422927E+04  0.10100000352E+00 0. -1.
       -3    1    3    3    0  502 -0.20429735446E+03 -0.46596822516E+03 -0.13911606627E+04  0.14812804581E+04  0.10100000352E+00 0.  1.
</event>
<event>
 5   0  0.9421924E-08  0.2899489E+04  0.7818609E-02  0.8273029E-01
       -1   -1    0    0    0  501  0.00000000000E+00  0.00000000000E+00  0.11334219436E+04  0.11334219436E+04  0.50400001928E-02 0. -1.
        1   -1    0    0  501    0  0.00000000000E+00  0.00000000000E+00 -0.18543484684E+04  0.18543484684E+04  0.50400001928E-02 0.  1.
    10030    2    1    2    0    0  0.00000000000E+00  0.00000000000E+00 -0.72092652482E+03  0.29877704120E+04  0.28994890896E+04 0.  0.
        1    1    3    3  502    0 -0.59475432356E+03  0.81924266569E+03  0.70885498517E+03  0.12358667569E+04  0.50400001928E-02 0. -1.
       -1    1    3    3    0  502  0.59475432356E+03 -0.81924266569E+03 -0.14297815100E+04  0.17519036552E+04  0.50400001928E-02 0.  1.
</event>
<event>
 5   0  0.2534588E-07  0.2899861E+04  0.7818609E-02  0.8272919E-01
        2   -1    0    0  501    0  0.00000000000E+00  0.00000000000E+00  0.13732114265E+04  0.13732114265E+04  0.25500000920E-02 0.  1.
       -2   -1    0    0    0  501  0.00000000000E+00  0.00000000000E+00 -0.15309354145E+04  0.15309354145E+04  0.25500000920E-02 0. -1.
    10030    2    1    2    0    0  0.00000000000E+00  0.00000000000E+00 -0.15772398797E+03  0.29041468410E+04  0.28998606893E+04 0.  0.
        3    1    3    3  502    0  0.74993928438E+03 -0.74320683987E+03 -0.10740775829E+04  0.15061235013E+04  0.10100000352E+00 0. -1.
       -3    1    3    3    0  502 -0.74993928438E+03  0.74320683987E+03  0.91635359490E+03  0.13980233396E+04  0.10100000352E+00 0.  1.
</event>
<event>
 5   0  0.2492232E-07  0.2899180E+04  0.7818609E-02  0.8273122E-01
        2   -1    0    0  501    0  0.00000000000E+00  0.00000000000E+00  0.11743011868E+04  0.11743011868E+04  0.25500000920E-02 0.  1.
       -2   -1    0    0    0  501  0.00000000000E+00  0.00000000000E+00 -0.17894140748E+04  0.17894140748E+04  0.25500000920E-02 0. -1.
    10030    2    1    2    0    0  0.00000000000E+00  0.00000000000E+00 -0.61511288800E+03  0.29637152617E+04  0.28991799336E+04 0.  0.
        4    1    3    3  502    0 -0.94745735915E+03 -0.10753391495E+04 -0.52983561977E+03  0.15279912077E+04  0.12699999809E+01 0. -1.
       -4    1    3    3    0  502  0.94745735915E+03  0.10753391495E+04 -0.85277268231E+02  0.14357240540E+04  0.12699999809E+01 0.  1.
</event>
<event>
 5   0  0.9443352E-08  0.2899365E+04  0.7818609E-02  0.8273067E-01
       -1   -1    0    0    0  501  0.00000000000E+00  0.00000000000E+00  0.11405797554E+04  0.11405797554E+04  0.50400001928E-02 0. -1.
        1   -1    0    0  501    0  0.00000000000E+00  0.00000000000E+00 -0.18425531695E+04  0.18425531695E+04  0.50400001928E-02 0.  1.
    10030    2    1    2    0    0  0.00000000000E+00  0.00000000000E+00 -0.70197341411E+03  0.29831329249E+04  0.28993646500E+04 0.  0.
        4    1    3    3  502    0 -0.11297730745E+04  0.68830787923E+03 -0.96092292247E+03  0.16350930898E+04  0.12699999809E+01 0. -1.
       -4    1    3    3    0  502  0.11297730745E+04 -0.68830787923E+03  0.25894950836E+03  0.13480398352E+04  0.12699999809E+01 0.  1.
</event>
<event>
 5   0  0.9421924E-08  0.2901753E+04  0.7818609E-02  0.8272356E-01
       -1   -1    0    0    0  501  0.00000000000E+00  0.00000000000E+00  0.16988116746E+04  0.16988116746E+04  0.50400001928E-02 0. -1.
        1   -1    0    0  501    0  0.00000000000E+00  0.00000000000E+00 -0.12391267703E+04  0.12391267703E+04  0.50400001928E-02 0.  1.
    10030    2    1    2    0    0  0.00000000000E+00  0.00000000000E+00  0.45968490428E+03  0.29379384449E+04  0.29017532794E+04 0.  0.
        1    1    3    3  502    0  0.10736684610E+04  0.41924400135E+03  0.11220311578E+04  0.16085656393E+04  0.50400001928E-02 0. -1.
       -1    1    3    3    0  502 -0.10736684610E+04 -0.41924400135E+03 -0.66234625347E+03  0.13293728056E+04  0.50400001928E-02 0.  1.
</event>
<event>
 5   0  0.2608591E-07  0.2899909E+04  0.7818609E-02  0.8272905E-01
        2   -1    0    0  501    0  0.00000000000E+00  0.00000000000E+00  0.14301454104E+04  0.14301454104E+04  0.25500000920E-02 0.  1.
       -2   -1    0    0    0  501  0.00000000000E+00  0.00000000000E+00 -0.14700377047E+04  0.14700377047E+04  0.25500000920E-02 0. -1.
    10030    2    1    2    0    0  0.00000000000E+00  0.00000000000E+00 -0.39892294316E+02  0.29001831152E+04  0.28999087410E+04 0.  0.
        2    1    3    3  502    0  0.59988567278E+03  0.85213398754E+03  0.98830226480E+03  0.14362230049E+04  0.25500000920E-02 0.  1.
       -2    1    3    3    0  502 -0.59988567278E+03 -0.85213398754E+03 -0.10281945591E+04  0.14639601103E+04  0.25500000920E-02 0. -1.
</event>
<event>
 5   0  0.2534588E-07  0.2902395E+04  0.7818609E-02  0.8272165E-01
        2   -1    0    0  501    0  0.00000000000E+00  0.00000000000E+00  0.15864095061E+04  0.15864095061E+04  0.25500000920E-02 0.  1.
       -2   -1    0    0    0  501  0.00000000000E+00  0.00000000000E+00 -0.13275095852E+04  0.13275095852E+04  0.25500000920E-02 0. -1.
    10030    2    1    2    0    0  0.00000000000E+00  0.00000000000E+00  0.25889992082E+03  0.29139190913E+04  0.29023947529E+04 0.  0.
        3    1    3    3  502    0  0.36029789447E+03  0.10701398174E+04 -0.78573962955E+03  0.13756455129E+04  0.10100000352E+00 0.  1.
       -3    1    3    3    0  502 -0.36029789447E+03 -0.10701398174E+04  0.10446395504E+04  0.15382735784E+04  0.10100000352E+00 0. -1.
</event>
<event>
 5   0  0.9443352E-08  0.2900894E+04  0.7818609E-02  0.8272612E-01
        1   -1    0    0  501    0  0.00000000000E+00  0.00000000000E+00  0.12177319200E+04  0.12177319200E+04  0.50400001928E-02 0. -1.
       -1   -1    0    0    0  501  0.00000000000E+00  0.00000000000E+00 -0.17276346658E+04  0.17276346658E+04  0.50400001928E-02 0.  1.
    10030    2    1    2    0    0  0.00000000000E+00  0.00000000000E+00 -0.50990274578E+03  0.29453665858E+04  0.29008935717E+04 0.  0.
        4    1    3    3  502    0  0.27101387518E+03  0.11966368893E+04  0.53047502466E+03  0.13367100396E+04  0.12699999809E+01 0. -1.
       -4    1    3    3    0  502 -0.27101387518E+03 -0.11966368893E+04 -0.10403777704E+04  0.16086565461E+04  0.12699999809E+01 0.  1.
</event>
<event>
 5   0  0.9395744E-08  0.2899376E+04  0.7818609E-02  0.8273063E-01
       -1   -1    0    0    0  501  0.00000000000E+00  0.00000000000E+00  0.13972942111E+04  0.13972942111E+04  0.50400001928E-02 0. -1.
        1   -1    0    0  501    0  0.00000000000E+00  0.00000000000E+00 -0.15040467664E+04  0.15040467664E+04  0.50400001928E-02 0.  1.
    10030    2    1    2    0    0  0.00000000000E+00  0.00000000000E+00 -0.10675255524E+03  0.29013409775E+04  0.28993763743E+04 0.  0.
        2    1    3    3  502    0 -0.18113829392E+03  0.72136933807E+03  0.11918185420E+04  0.14048545265E+04  0.25500000920E-02 0. -1.
       -2    1    3    3    0  502  0.18113829392E+03 -0.72136933807E+03 -0.12985710973E+04  0.14964864510E+04  0.25500000920E-02 0.  1.
</event>
<event>
 5   0  0.9421924E-08  0.2900415E+04  0.7818609E-02  0.8272754E-01
        1   -1    0    0  501    0  0.00000000000E+00  0.00000000000E+00  0.27217035936E+04  0.27217035936E+04  0.50400001928E-02 0. -1.
       -1   -1    0    0    0  501  0.00000000000E+00  0.00000000000E+00 -0.77271512177E+03  0.77271512179E+03  0.50400001928E-02 0.  1.
    10030    2    1    2    0    0  0.00000000000E+00  0.00000000000E+00  0.19489884718E+04  0.34944187154E+04  0.29004148143E+04 0.  0.
        1    1    3    3  502    0  0.36438593144E+03 -0.63160720111E+03  0.24847752216E+04  0.25895583920E+04  0.50400001928E-02 0. -1.
       -1    1    3    3    0  502 -0.36438593144E+03  0.63160720111E+03 -0.53578674982E+03  0.90486032338E+03  0.50400001928E-02 0.  1.
</event>
<event>
 5   0  0.2608591E-07  0.2898078E+04  0.7818609E-02  0.8273450E-01
        2   -1    0    0  501    0  0.00000000000E+00  0.00000000000E+00  0.19260630305E+04  0.19260630305E+04  0.25500000920E-02 0.  1.
       -2   -1    0    0    0  501  0.00000000000E+00  0.00000000000E+00 -0.10901582641E+04  0.10901582641E+04  0.25500000920E-02 0. -1.
    10030    2    1    2    0    0  0.00000000000E+00  0.00000000000E+00  0.83590476634E+03  0.30162212946E+04  0.28980776593E+04 0.  0.
        2    1    3    3  502    0 -0.76286497809E+03 -0.10669447514E+04 -0.22309493174E+03  0.13304530905E+04  0.25500000920E-02 0. -1.
       -2    1    3    3    0  502  0.76286497809E+03  0.10669447514E+04  0.10589996981E+04  0.16857682041E+04  0.25500000920E-02 0.  1.
</event>
<event>
 5   0  0.9388076E-08  0.2898296E+04  0.7818609E-02  0.8273385E-01
        1   -1    0    0  501    0  0.00000000000E+00  0.00000000000E+00  0.19204423132E+04  0.19204423132E+04  0.50400001928E-02 0.  1.
       -1   -1    0    0    0  501  0.00000000000E+00  0.00000000000E+00 -0.10935140218E+04  0.10935140218E+04  0.50400001928E-02 0. -1.
    10030    2    1    2    0    0  0.00000000000E+00  0.00000000000E+00  0.82692829144E+03  0.30139563351E+04  0.28982964635E+04 0.  0.
        5    1    3    3  502    0  0.55399734145E+03 -0.13363429815E+04  0.50220957505E+03  0.15313269298E+04  0.46999998093E+01 0.  1.
       -5    1    3    3    0  502 -0.55399734145E+03  0.13363429815E+04  0.32471871639E+03  0.14826294053E+04  0.46999998093E+01 0. -1.
</event>
<event>
 5   0  0.9763851E-08  0.2902467E+04  0.7818609E-02  0.8272144E-01
       -1   -1    0    0    0  501  0.00000000000E+00  0.00000000000E+00  0.11478475663E+04  0.11478475663E+04  0.50400001928E-02 0. -1.
        1   -1    0    0  501    0  0.00000000000E+00  0.00000000000E+00 -0.18348074997E+04  0.18348074997E+04  0.50400001928E-02 0.  1.
    10030    2    1    2    0    0  0.00000000000E+00  0.00000000000E+00 -0.68695993338E+03  0.29826550660E+04  0.29024674490E+04 0.  0.
        3    1    3    3  502    0  0.51256024676E+03  0.10954538704E+04 -0.11677256248E+04  0.16811663611E+04  0.10100000352E+00 0.  1.
       -3    1    3    3    0  502 -0.51256024676E+03 -0.10954538704E+04  0.48076569145E+03  0.13014887049E+04  0.10100000352E+00 0. -1.
</event>
<event>
 5   0  0.2534588E-07  0.2900953E+04  0.7818609E-02  0.8272594E-01
        2   -1    0    0  501    0  0.00000000000E+00  0.00000000000E+00  0.12719435517E+04  0.12719435517E+04  0.25500000920E-02 0.  1.
       -2   -1    0    0    0  501  0.00000000000E+00  0.00000000000E+00 -0.16540691429E+04  0.16540691429E+04  0.25500000920E-02 0. -1.
    10030    2    1    2    0    0  0.00000000000E+00  0.00000000000E+00 -0.38212559115E+03  0.29260126946E+04  0.29009533470E+04 0.  0.
        3    1    3    3  502    0  0.37201296020E+03  0.66196461320E+03  0.10554492178E+04  0.13002168485E+04  0.10100000352E+00 0.  1.
       -3    1    3    3    0  502 -0.37201296020E+03 -0.66196461320E+03 -0.14375748089E+04  0.16257958461E+04  0.10100000352E+00 0. -1.
</event>
<event>
 5   0  0.2534588E-07  0.2898726E+04  0.7818609E-02  0.8273257E-01
        2   -1    0    0  501    0  0.00000000000E+00  0.00000000000E+00  0.25193928780E+04  0.25193928780E+04  0.25500000920E-02 0.  1.
       -2   -1    0    0    0  501  0.00000000000E+00  0.00000000000E+00 -0.83379320784E+03  0.83379320784E+03  0.25500000920E-02 0. -1.
    10030    2    1    2    0    0  0.00000000000E+00  0.00000000000E+00  0.16855996701E+04  0.33531860858E+04  0.28987256990E+04 0.  0.
        3    1    3    3  502    0  0.18773386150E+01  0.12909360159E+04  0.16049878284E+04  0.20597342696E+04  0.10100000352E+00 0.  1.
       -3    1    3    3    0  502 -0.18773386150E+01 -0.12909360159E+04  0.80611841671E+02  0.12934518162E+04  0.10100000352E+00 0. -1.
</event>
<event>
 5   0  0.9421924E-08  0.2899561E+04  0.7818609E-02  0.8273008E-01
        1   -1    0    0  501    0  0.00000000000E+00  0.00000000000E+00  0.32196935289E+04  0.32196935289E+04  0.50400001928E-02 0. -1.
       -1   -1    0    0    0  501  0.00000000000E+00  0.00000000000E+00 -0.65281466672E+03  0.65281466674E+03  0.50400001928E-02 0.  1.
    10030    2    1    2    0    0  0.00000000000E+00  0.00000000000E+00  0.25668788622E+04  0.38725081957E+04  0.28995607654E+04 0.  0.
        1    1    3    3  502    0  0.71168426928E+03 -0.44457966912E+03  0.28623947635E+04  0.29828592597E+04  0.50400001928E-02 0. -1.
       -1    1    3    3    0  502 -0.71168426928E+03  0.44457966912E+03 -0.29551590126E+03  0.88964893596E+03  0.50400001928E-02 0.  1.
</event>
<event>
 5   0  0.2546841E-07  0.2899980E+04  0.7818609E-02  0.8272883E-01
       -2   -1    0    0    0  501  0.00000000000E+00  0.00000000000E+00  0.93304827611E+03  0.93304827611E+03  0.25500000920E-02 0.  1.
        2   -1    0    0  501    0  0.00000000000E+00  0.00000000000E+00 -0.22533356673E+04  0.22533356673E+04  0.25500000920E-02 0. -1.
    10030    2    1    2    0    0  0.00000000000E+00  0.00000000000E+00 -0.13202873912E+04  0.31863839435E+04  0.28999799723E+04 0.  0.
        1    1    3    3  502    0 -0.36069329893E+03 -0.58910216920E+03 -0.20609364086E+04  0.21736144787E+04  0.50400001928E-02 0. -1.
       -1    1    3    3    0  502  0.36069329893E+03  0.58910216920E+03  0.74064901742E+03  0.10127694647E+04  0.50400001928E-02 0.  1.
</event>
<event>
 5   0  0.9395744E-08  0.2899598E+04  0.7818609E-02  0.8272997E-01
        1   -1    0    0  501    0  0.00000000000E+00  0.00000000000E+00  0.23588990501E+04  0.23588990501E+04  0.50400001928E-02 0.  1.
       -1   -1    0    0    0  501  0.00000000000E+00  0.00000000000E+00 -0.89105856885E+03  0.89105856886E+03  0.50400001928E-02 0. -1.
    10030    2    1    2    0    0  0.00000000000E+00  0.00000000000E+00  0.14678404812E+04  0.32499576189E+04  0.28995980491E+04 0.  0.
        2    1    3    3  502    0 -0.13012049303E+04  0.49403573431E+03  0.11888056811E+04  0.18304274159E+04  0.25500000920E-02 0.  1.
       -2    1    3    3    0  502  0.13012049303E+04 -0.49403573431E+03  0.27903480009E+03  0.14195302030E+04  0.25500000920E-02 0. -1.
</event>
<event>
 5   0  0.9421924E-08  0.2903919E+04  0.7818609E-02  0.8271712E-01
        1   -1    0    0  501    0  0.00000000000E+00  0.00000000000E+00  0.19487670057E+04  0.19487670057E+04  0.50400001928E-02 0.  1.
       -1   -1    0    0    0  501  0.00000000000E+00  0.00000000000E+00 -0.10818053779E+04  0.10818053779E+04  0.50400001928E-02 0. -1.
    10030    2    1    2    0    0  0.00000000000E+00  0.00000000000E+00  0.86696162779E+03  0.30305723837E+04  0.29039191636E+04 0.  0.
        1    1    3    3  502    0 -0.45095461916E+03  0.24399579932E+03  0.18511430141E+04  0.19208395241E+04  0.50400001928E-02 0.  1.
       -1    1    3    3    0  502  0.45095461916E+03 -0.24399579932E+03 -0.98418138627E+03  0.11097328596E+04  0.50400001928E-02 0. -1.
</event>
<event>
 5   0  0.9395744E-08  0.2900414E+04  0.7818609E-02  0.8272754E-01
        1   -1    0    0  501    0  0.00000000000E+00  0.00000000000E+00  0.18499638622E+04  0.18499638622E+04  0.50400001928E-02 0.  1.
       -1   -1    0    0    0  501  0.00000000000E+00  0.00000000000E+00 -0.11368329114E+04  0.11368329114E+04  0.50400001928E-02 0. -1.
    10030    2    1    2    0    0  0.00000000000E+00  0.00000000000E+00  0.71313095076E+03  0.29867967736E+04  0.29004136281E+04 0.  0.
        2    1    3    3  502    0  0.84791786772E+03 -0.11476091752E+04  0.89757702931E+02  0.14296950635E+04  0.25500000920E-02 0. -1.
       -2    1    3    3    0  502 -0.84791786772E+03  0.11476091752E+04  0.62337324783E+03  0.15571017101E+04  0.25500000920E-02 0.  1.
</event>
<event>
 5   0  0.2546841E-07  0.2899739E+04  0.7818609E-02  0.8272955E-01
        2   -1    0    0  501    0  0.00000000000E+00  0.00000000000E+00  0.20206274843E+04  0.20206274843E+04  0.25500000920E-02 0. -1.
       -2   -1    0    0    0  501  0.00000000000E+00  0.00000000000E+00 -0.10403313853E+04  0.10403313853E+04  0.25500000920E-02 0.  1.
    10030    2    1    2    0    0  0.00000000000E+00  0.00000000000E+00  0.98029609899E+03  0.30609588696E+04  0.28997394297E+04 0.  0.
        1    1    3    3  502    0  0.22478822273E+03 -0.45563537275E+03 -0.94328583226E+03  0.10714109853E+04  0.50400001928E-02 0.  1.
       -1    1    3    3    0  502 -0.22478822273E+03  0.45563537275E+03  0.19235819313E+04  0.19895478844E+04  0.50400001928E-02 0. -1.
</event>
<event>
 5   0  0.9443352E-08  0.2899972E+04  0.7818609E-02  0.8272886E-01
       -1   -1    0    0    0  501  0.00000000000E+00  0.00000000000E+00  0.10361790710E+04  0.10361790710E+04  0.50400001928E-02 0.  1.
        1   -1    0    0  501    0  0.00000000000E+00  0.00000000000E+00 -0.20290500960E+04  0.20290500960E+04  0.50400001928E-02 0. -1.
    10030    2    1    2    0    0  0.00000000000E+00  0.00000000000E+00 -0.99287102504E+03  0.30652291670E+04  0.28999718919E+04 0.  0.
        4    1    3    3  502    0 -0.71855073428E+03 -0.11273806590E+04 -0.10898135720E+04  0.17248181187E+04  0.12699999809E+01 0. -1.
       -4    1    3    3    0  502  0.71855073428E+03  0.11273806590E+04  0.96942546930E+02  0.13404110483E+04  0.12699999809E+01 0.  1.
</event>
<event>
 5   0  0.9395744E-08  0.2900789E+04  0.7818609E-02  0.8272643E-01
       -1   -1    0    0    0  501  0.00000000000E+00  0.00000000000E+00  0.17326048127E+04  0.17326048127E+04  0.50400001928E-02 0. -1.
        1   -1    0    0  501    0  0.00000000000E+00  0.00000000000E+00 -0.12141512085E+04  0.12141512085E+04  0.50400001928E-02 0.  1.
    10030    2    1    2    0    0  0.00000000000E+00  0.00000000000E+00  0.51845360412E+03  0.29467560212E+04  0.29007890149E+04 0.  0.
        2    1    3    3  502    0  0.97431579705E+03  0.11148342522E+01 -0.83220627947E+03  0.12813507743E+04  0.25500000920E-02 0.  1.
       -2    1    3    3    0  502 -0.97431579705E+03 -0.11148342522E+01  0.13506598836E+04  0.16654052469E+04  0.25500000920E-02 0. -1.
</event>
<event>
 5   0  0.2608591E-07  0.2900655E+04  0.7818609E-02  0.8272683E-01
       -2   -1    0    0    0  501  0.00000000000E+00  0.00000000000E+00  0.66695940399E+03  0.66695940400E+03  0.25500000920E-02 0. -1.
        2   -1    0    0  501    0  0.00000000000E+00  0.00000000000E+00 -0.31537888654E+04  0.31537888654E+04  0.25500000920E-02 0.  1.
    10030    2    1    2    0    0  0.00000000000E+00  0.00000000000E+00 -0.24868294614E+04  0.38207482694E+04  0.29006545068E+04 0.  0.
        2    1    3    3  502    0  0.84924297332E+03 -0.46462350287E+03 -0.26659689428E+04  0.28362790820E+04  0.25500000920E-02 0.  1.
       -2    1    3    3    0  502 -0.84924297332E+03  0.46462350287E+03  0.17913948137E+03  0.98446918740E+03  0.25500000920E-02 0. -1.
</event>
<event>
 5   0  0.9763851E-08  0.2898529E+04  0.7818609E-02  0.8273315E-01
        1   -1    0    0  501    0  0.00000000000E+00  0.00000000000E+00  0.13557169993E+04  0.13557169993E+04  0.50400001928E-02 0.  1.
       -1   -1    0    0    0  501  0.00000000000E+00  0.00000000000E+00 -0.15492669961E+04  0.15492669961E+04  0.50400001928E-02 0. -1.
    10030    2    1    2    0    0  0.00000000000E+00  0.00000000000E+00 -0.19354999685E+03  0.29049839954E+04  0.28985290084E+04 0.  0.
        3    1    3    3  502    0  0.42632740946E+03  0.42747702974E+03 -0.14172355536E+04  0.15404701541E+04  0.10100000352E+00 0. -1.
       -3    1    3    3    0  502 -0.42632740946E+03 -0.42747702974E+03  0.12236855568E+04  0.13645138413E+04  0.10100000352E+00 0.  1.
</event>
<event>
 5   0  0.2678723E-07  0.2899880E+04  0.7818609E-02  0.8272913E-01
        2   -1    0    0  501    0  0.00000000000E+00  0.00000000000E+00  0.19458935933E+04  0.19458935933E+04  0.25500000920E-02 0.  1.
       -2   -1    0    0    0  501  0.00000000000E+00  0.00000000000E+00 -0.10803911204E+04  0.10803911204E+04  0.25500000920E-02 0. -1.
    10030    2    1    2    0    0  0.00000000000E+00  0.00000000000E+00  0.86550247292E+03  0.30262847137E+04  0.28998801075E+04 0.  0.
        5    1    3    3  502    0  0.21465796288E+03  0.45813201071E+03  0.18507821827E+04  0.19186921999E+04  0.46999998093E+01 0.  1.
       -5    1    3    3    0  502 -0.21465796288E+03 -0.45813201071E+03 -0.98527970975E+03  0.11075925138E+04  0.46999998093E+01 0. -1.
</event>
<event>
 5   0  0.9763851E-08  0.2899469E+04  0.7818609E-02  0.8273035E-01
        1   -1    0    0  501    0  0.00000000000E+00  0.00000000000E+00  0.11209039873E+04  0.11209039873E+04  0.50400001928E-02 0. -1.
       -1   -1    0    0    0  501  0.00000000000E+00  0.00000000000E+00 -0.18750318261E+04  0.18750318261E+04  0.50400001928E-02 0.  1.
    10030    2    1    2    0    0  0.00000000000E+00  0.00000000000E+00 -0.75412783880E+03  0.29959358133E+04  0.28994693653E+04 0.  0.
        3    1    3    3  502    0 -0.36011069666E+03 -0.10178600996E+04 -0.13767292460E+04  0.17496006182E+04  0.10100000352E+00 0.  1.
       -3    1    3    3    0  502  0.36011069666E+03  0.10178600996E+04  0.62260140722E+03  0.12463351951E+04  0.10100000352E+00 0. -1.
</event>
<event>
 5   0  0.2608591E-07  0.2899539E+04  0.7818609E-02  0.8273015E-01
       -2   -1    0    0    0  501  0.00000000000E+00  0.00000000000E+00  0.28763926366E+04  0.28763926366E+04  0.25500000920E-02 0. -1.
        2   -1    0    0  501    0  0.00000000000E+00  0.00000000000E+00 -0.73071769993E+03  0.73071769994E+03  0.25500000920E-02 0.  1.
    10030    2    1    2    0    0  0.00000000000E+00  0.00000000000E+00  0.21456749367E+04  0.36071103366E+04  0.28995385920E+04 0.  0.
        2    1    3    3  502    0 -0.19426575867E+03 -0.62905843933E+03 -0.53402116492E+03  0.84772183509E+03  0.25500000920E-02 0.  1.
       -2    1    3    3    0  502  0.19426575867E+03  0.62905843933E+03  0.26796961016E+04  0.27593885015E+04  0.25500000920E-02 0. -1.
</event>
<event>
 5   0  0.2608591E-07  0.2900863E+04  0.7818609E-02  0.8272621E-01
       -2   -1    0    0    0  501  0.00000000000E+00  0.00000000000E+00  0.14340063882E+04  0.14340063882E+04  0.25500000920E-02 0. -1.
        2   -1    0    0  501    0  0.00000000000E+00  0.00000000000E+00 -0.14670451033E+04  0.14670451033E+04  0.25500000920E-02 0.  1.
    10030    2    1    2    0    0  0.00000000000E+00  0.00000000000E+00 -0.33038715113E+02  0.29010514915E+04  0.29008633542E+04 0.  0.
        2    1    3    3  502    0  0.16856331829E+03 -0.13301616435E+04 -0.56973554834E+03  0.14568260655E+04  0.25500000920E-02 0.  1.
       -2    1    3    3    0  502 -0.16856331829E+03  0.13301616435E+04  0.53669683323E+03  0.14442254260E+04  0.25500000920E-02 0. -1.
</event>
<event>
 5   0  0.9421924E-08  0.2898384E+04  0.7818609E-02  0.8273358E-01
       -1   -1    0    0    0  501  0.00000000000E+00  0.00000000000E+00  0.93459305716E+03  0.93459305718E+03  0.50400001928E-02 0. -1.
        1   -1    0    0  501    0  0.00000000000E+00  0.00000000000E+00 -0.22471357256E+04  0.22471357256E+04  0.50400001928E-02 0.  1.
    10030    2    1    2    0    0  0.00000000000E+00  0.00000000000E+00 -0.13125426684E+04  0.31817287828E+04  0.28983839964E+04 0.  0.
        1    1    3    3  502    0  0.15047793171E+03  0.90332001311E+03 -0.18892497475E+04  0.20994988123E+04  0.50400001928E-02 0.  1.
       -1    1    3    3    0  502 -0.15047793171E+03 -0.90332001311E+03  0.57670707911E+03  0.10822299705E+04  0.50400001928E-02 0. -1.
</event>
<event>
 5   0  0.2534588E-07  0.2900275E+04  0.7818609E-02  0.8272796E-01
        2   -1    0    0  501    0  0.00000000000E+00  0.00000000000E+00  0.17164685466E+04  0.17164685466E+04  0.25500000920E-02 0. -1.
       -2   -1    0    0    0  501  0.00000000000E+00  0.00000000000E+00 -0.12251311097E+04  0.12251311097E+04  0.25500000920E-02 0.  1.
    10030    2    1    2    0    0  0.00000000000E+00  0.00000000000E+00  0.49133743686E+03  0.29415996563E+04  0.29002751699E+04 0.  0.
        3    1    3    3  502    0 -0.11523358695E+04 -0.57000394384E+03 -0.43479794513E+03  0.13571410080E+04  0.10100000352E+00 0. -1.
       -3    1    3    3    0  502  0.11523358695E+04  0.57000394384E+03  0.92613538200E+03  0.15844586483E+04  0.10100000352E+00 0.  1.
</event>
<event>
 5   0  0.2608591E-07  0.2900047E+04  0.7818609E-02  0.8272864E-01
       -2   -1    0    0    0  501  0.00000000000E+00  0.00000000000E+00  0.11510863521E+04  0.11510863521E+04  0.25500000920E-02 0.  1.
        2   -1    0    0  501    0  0.00000000000E+00  0.00000000000E+00 -0.18265942378E+04  0.18265942378E+04  0.25500000920E-02 0. -1.
    10030    2    1    2    0    0  0.00000000000E+00  0.00000000000E+00 -0.67550788562E+03  0.29776805899E+04  0.29000466879E+04 0.  0.
        2    1    3    3  502    0  0.62302784560E+03  0.11689088131E+04 -0.94351004825E+03  0.16262603485E+04  0.25500000920E-02 0. -1.
       -2    1    3    3    0  502 -0.62302784560E+03 -0.11689088131E+04  0.26800216263E+03  0.13514202415E+04  0.25500000920E-02 0.  1.
</event>
<event>
 5   0  0.9763851E-08  0.2899977E+04  0.7818609E-02  0.8272884E-01
       -1   -1    0    0    0  501  0.00000000000E+00  0.00000000000E+00  0.93972079858E+03  0.93972079859E+03  0.50400001928E-02 0. -1.
        1   -1    0    0  501    0  0.00000000000E+00  0.00000000000E+00 -0.22373318344E+04  0.22373318344E+04  0.50400001928E-02 0.  1.
    10030    2    1    2    0    0  0.00000000000E+00  0.00000000000E+00 -0.12976110358E+04  0.31770526330E+04  0.28999774193E+04 0.  0.
        3    1    3    3  502    0  0.50820375128E+03 -0.13528320283E+04 -0.51898611364E+03  0.15355038737E+04  0.10100000352E+00 0. -1.
       -3    1    3    3    0  502 -0.50820375128E+03  0.13528320283E+04 -0.77862492217E+03  0.16415487593E+04  0.10100000352E+00 0.  1.
</event>
<event>
 5   0  0.9388076E-08  0.2900090E+04  0.7818609E-02  0.8272851E-01
       -1   -1    0    0    0  501  0.00000000000E+00  0.00000000000E+00  0.13544061680E+04  0.13544061680E+04  0.50400001928E-02 0.  1.
        1   -1    0    0  501    0  0.00000000000E+00  0.00000000000E+00 -0.15524368883E+04  0.15524368883E+04  0.50400001928E-02 0. -1.
    10030    2    1    2    0    0  0.00000000000E+00  0.00000000000E+00 -0.19803072029E+03  0.29068430563E+04  0.29000897207E+04 0.  0.
        5    1    3    3  502    0 -0.10796307856E+04  0.95767427311E+03 -0.24028810225E+03  0.14630458327E+04  0.46999998093E+01 0.  1.
       -5    1    3    3    0  502  0.10796307856E+04 -0.95767427311E+03  0.42257381961E+02  0.14437972236E+04  0.46999998093E+01 0. -1.
</event>
<event>
 5   0  0.9443352E-08  0.2899804E+04  0.7818609E-02  0.8272936E-01
       -1   -1    0    0    0  501  0.00000000000E+00  0.00000000000E+00  0.15697879684E+04  0.15697879684E+04  0.50400001928E-02 0. -1.
        1   -1    0    0  501    0  0.00000000000E+00  0.00000000000E+00 -0.13391721607E+04  0.13391721607E+04  0.50400001928E-02 0.  1.
    10030    2    1    2    0    0  0.00000000000E+00  0.00000000000E+00  0.23061580767E+03  0.29089601291E+04  0.28998043696E+04 0.  0.
        4    1    3    3  502    0  0.88567473114E+03 -0.35472226092E+02  0.12663350277E+04  0.15457309027E+04  0.12699999809E+01 0. -1.
       -4    1    3    3    0  502 -0.88567473114E+03  0.35472226092E+02 -0.10357192200E+04  0.13632292264E+04  0.12699999809E+01 0.  1.
</event>
<event>
 5   0  0.2534588E-07  0.2899039E+04  0.7818609E-02  0.8273164E-01
        2   -1    0    0  501    0  0.00000000000E+00  0.00000000000E+00  0.21386952368E+04  0.21386952368E+04  0.25500000920E-02 0.  1.
       -2   -1    0    0    0  501  0.00000000000E+00  0.00000000000E+00 -0.98242429882E+03  0.98242429882E+03  0.25500000920E-02 0. -1.
    10030    2    1    2    0    0  0.00000000000E+00  0.00000000000E+00  0.11562709380E+04  0.31211195356E+04  0.28990385775E+04 0.  0.
        3    1    3    3  502    0 -0.13292760250E+04 -0.55256515482E+03  0.76085141710E+03  0.16282499470E+04  0.10100000352E+00 0. -1.
       -3    1    3    3    0  502  0.13292760250E+04  0.55256515482E+03  0.39541952090E+03  0.14928695886E+04  0.10100000352E+00 0.  1.
</event>
<event>
 5   0  0.2608591E-07  0.2900499E+04  0.7818609E-02  0.8272729E-01
        2   -1    0    0  501    0  0.00000000000E+00  0.00000000000E+00  0.17423927568E+04  0.17423927568E+04  0.25500000920E-02 0.  1.
       -2   -1    0    0    0  501  0.00000000000E+00  0.00000000000E+00 -0.12070889912E+04  0.12070889912E+04  0.25500000920E-02 0. -1.
    10030    2    1    2    0    0  0.00000000000E+00  0.00000000000E+00  0.53530376557E+03  0.29494817480E+04  0.29004986572E+04 0.  0.
        2    1    3    3  502    0  0.50010611335E+03  0.56173294878E+03 -0.99327797415E+03  0.12458937211E+04  0.25500000920E-02 0. -1.
       -2    1    3    3    0  502 -0.50010611335E+03 -0.56173294878E+03  0.15285817397E+04  0.17035880269E+04  0.25500000920E-02 0.  1.
</event>
<event>
 5   0  0.2492232E-07  0.2899182E+04  0.7818609E-02  0.8273121E-01
       -2   -1    0    0    0  501  0.00000000000E+00  0.00000000000E+00  0.11794396543E+04  0.11794396543E+04  0.25500000920E-02 0.  1.
        2   -1    0    0  501    0  0.00000000000E+00  0.00000000000E+00 -0.17816211183E+04  0.17816211183E+04  0.25500000920E-02 0. -1.
    10030    2    1    2    0    0  0.00000000000E+00  0.00000000000E+00 -0.60218146401E+03  0.29610607726E+04  0.28991823647E+04 0.  0.
        4    1    3    3  502    0  0.35471302787E+03 -0.67711749950E+03  0.95686420576E+03  0.12247041118E+04  0.12699999809E+01 0.  1.
       -4    1    3    3    0  502 -0.35471302787E+03  0.67711749950E+03 -0.15590456698E+04  0.17363566608E+04  0.12699999809E+01 0. -1.
</event>
<event>
 5   0  0.9395744E-08  0.2899748E+04  0.7818609E-02  0.8272953E-01
        1   -1    0    0  501    0  0.00000000000E+00  0.00000000000E+00  0.11505790878E+04  0.11505790878E+04  0.50400001928E-02 0. -1.
       -1   -1    0    0    0  501  0.00000000000E+00  0.00000000000E+00 -0.18270227339E+04  0.18270227339E+04  0.50400001928E-02 0.  1.
    10030    2    1    2    0    0  0.00000000000E+00  0.00000000000E+00 -0.67644364615E+03  0.29776018217E+04  0.28997476791E+04 0.  0.
        2    1    3    3  502    0 -0.74358402015E+03  0.11419639312E+03  0.93448074245E+03  0.11996717340E+04  0.25500000920E-02 0. -1.
       -2    1    3    3    0  502  0.74358402015E+03 -0.11419639312E+03 -0.16109243886E+04  0.17779300878E+04  0.25500000920E-02 0.  1.
</event>
<event>
 5   0  0.2546841E-07  0.2901088E+04  0.7818609E-02  0.8272554E-01
       -2   -1    0    0    0  501  0.00000000000E+00  0.00000000000E+00  0.77986031659E+03  0.77986031659E+03  0.25500000920E-02 0. -1.
        2   -1    0    0  501    0  0.00000000000E+00  0.00000000000E+00 -0.26980186673E+04  0.26980186673E+04  0.25500000920E-02 0.  1.
    10030    2    1    2    0    0  0.00000000000E+00  0.00000000000E+00 -0.19181583508E+04  0.34778789839E+04  0.29010878595E+04 0.  0.
        1    1    3    3  502    0 -0.95336460444E+03  0.10709355506E+04 -0.12224667272E+04  0.18842059128E+04  0.50400001928E-02 0.  1.
       -1    1    3    3    0  502  0.95336460444E+03 -0.10709355506E+04 -0.69569162352E+03  0.15936730711E+04  0.50400001928E-02 0. -1.
</event>
<event>
 5   0  0.2608591E-07  0.2898412E+04  0.7818609E-02  0.8273350E-01
        2   -1    0    0  501    0  0.00000000000E+00  0.00000000000E+00  0.25370977187E+04  0.25370977187E+04  0.25500000920E-02 0.  1.
       -2   -1    0    0    0  501  0.00000000000E+00  0.00000000000E+00 -0.82779532081E+03  0.82779532081E+03  0.25500000920E-02 0. -1.
    10030    2    1    2    0    0  0.00000000000E+00  0.00000000000E+00  0.17093023979E+04  0.33648930395E+04  0.28984117168E+04 0.  0.
        2    1    3    3  502    0  0.63520726914E+03 -0.93639008160E+03  0.19058554715E+04  0.22164385256E+04  0.25500000920E-02 0.  1.
       -2    1    3    3    0  502 -0.63520726914E+03  0.93639008160E+03 -0.19655307360E+03  0.11484545139E+04  0.25500000920E-02 0. -1.
</event>
<event>
 5   0  0.9421924E-08  0.2900027E+04  0.7818609E-02  0.8272869E-01
        1   -1    0    0  501    0  0.00000000000E+00  0.00000000000E+00  0.23233452621E+04  0.23233452621E+04  0.50400001928E-02 0.  1.
       -1   -1    0    0    0  501  0.00000000000E+00  0.00000000000E+00 -0.90496219071E+03  0.90496219072E+03  0.50400001928E-02 0. -1.
    10030    2    1    2    0    0  0.00000000000E+00  0.00000000000E+00  0.14183830714E+04  0.32283074528E+04  0.29000273228E+04 0.  0.
        1    1    3    3  502    0  0.62065043527E+03 -0.26765596525E+02 -0.74931845985E+03  0.97334552665E+03  0.50400001928E-02 0. -1.
       -1    1    3    3    0  502 -0.62065043527E+03  0.26765596525E+02  0.21677015313E+04  0.22549619262E+04  0.50400001928E-02 0.  1.
</event>
<event>
 5   0  0.9388076E-08  0.2900167E+04  0.7818609E-02  0.8272828E-01
       -1   -1    0    0    0  501  0.00000000000E+00  0.00000000000E+00  0.97717828328E+03  0.97717828330E+03  0.50400001928E-02 0. -1.
        1   -1    0    0  501    0  0.00000000000E+00  0.00000000000E+00 -0.21518512220E+04  0.21518512220E+04  0.50400001928E-02 0.  1.
    10030    2    1    2    0    0  0.00000000000E+00  0.00000000000E+00 -0.11746729387E+04  0.31290295053E+04  0.29001670869E+04 0.  0.
        5    1    3    3  502    0  0.90896405605E+03  0.95787741428E+03 -0.12337627151E+04  0.18071904501E+04  0.46999998093E+01 0.  1.
       -5    1    3    3    0  502 -0.90896405605E+03 -0.95787741428E+03  0.59089776387E+02  0.13218390551E+04  0.46999998093E+01 0. -1.
</event>
<event>
 5   0  0.9443352E-08  0.2900023E+04  0.7818609E-02  0.8272870E-01
        1   -1    0    0  501    0  0.00000000000E+00  0.00000000000E+00  0.22120932279E+04  0.22120932279E+04  0.50400001928E-02 0. -1.
       -1   -1    0    0    0  501  0.00000000000E+00  0.00000000000E+00 -0.95047260087E+03  0.95047260088E+03  0.50400001928E-02 0.  1.
    10030    2    1    2    0    0  0.00000000000E+00  0.00000000000E+00  0.12616206270E+04  0.31625658288E+04  0.29000234507E+04 0.  0.
        4    1    3    3  502    0 -0.44998303980E+03 -0.11514948006E+04 -0.19548374263E+03  0.12516551116E+04  0.12699999809E+01 0.  1.
       -4    1    3    3    0  502  0.44998303980E+03  0.11514948006E+04  0.14571043696E+04  0.19109107171E+04  0.12699999809E+01 0. -1.
</event>
<event>
 5   0  0.9763851E-08  0.2900865E+04  0.7818609E-02  0.8272620E-01
       -1   -1    0    0    0  501  0.00000000000E+00  0.00000000000E+00  0.10539347022E+04  0.10539347022E+04  0.50400001928E-02 0. -1.
        1   -1    0    0  501    0  0.00000000000E+00  0.00000000000E+00 -0.19960959666E+04  0.19960959666E+04  0.50400001928E-02 0.  1.
    10030    2    1    2    0    0  0.00000000000E+00  0.00000000000E+00 -0.94216126449E+03  0.30500306688E+04  0.29008652558E+04 0.  0.
        3    1    3    3  502    0  0.36467002841E+03  0.47889082310E+03  0.91641037821E+03  0.10964162720E+04  0.10100000352E+00 0. -1.
       -3    1    3    3    0  502 -0.36467002841E+03 -0.47889082310E+03 -0.18585716427E+04  0.19536143968E+04  0.10100000352E+00 0.  1.
</event>
<event>
 5   0  0.2534588E-07  0.2901432E+04  0.7818609E-02  0.8272452E-01
       -2   -1    0    0    0  501  0.00000000000E+00  0.00000000000E+00  0.10169374098E+04  0.10169374098E+04  0.25500000920E-02 0. -1.
        2   -1    0    0  501    0  0.00000000000E+00  0.00000000000E+00 -0.20695241155E+04  0.20695241155E+04  0.25500000920E-02 0.  1.
    10030    2    1    2    0    0  0.00000000000E+00  0.00000000000E+00 -0.10525867057E+04  0.30864615253E+04  0.29014317111E+04 0.  0.
        3    1    3    3  502    0 -0.30578013845E+02 -0.13946846374E+04 -0.94979780817E+03  0.16876599596E+04  0.10100000352E+00 0.  1.
       -3    1    3    3    0  502  0.30578013845E+02  0.13946846374E+04 -0.10278889751E+03  0.13988015657E+04  0.10100000352E+00 0. -1.
</event>
<event>
 5   0  0.9443352E-08  0.2899619E+04  0.7818609E-02  0.8272991E-01
       -1   -1    0    0    0  501  0.00000000000E+00  0.00000000000E+00  0.94118478287E+03  0.94118478289E+03  0.50400001928E-02 0. -1.
        1   -1    0    0  501    0  0.00000000000E+00  0.00000000000E+00 -0.22332996611E+04  0.22332996611E+04  0.50400001928E-02 0.  1.
    10030    2    1    2    0    0  0.00000000000E+00  0.00000000000E+00 -0.12921148782E+04  0.31744844440E+04  0.28996190485E+04 0.  0.
        4    1    3    3  502    0  0.56388317600E+03 -0.11153275204E+04 -0.14505827774E+04  0.19147093046E+04  0.12699999809E+01 0.  1.
       -4    1    3    3    0  502 -0.56388317600E+03  0.11153275204E+04  0.15846789918E+03  0.12597751394E+04  0.12699999809E+01 0. -1.
</event>
<event>
 5   0  0.2546841E-07  0.2900882E+04  0.7818609E-02  0.8272615E-01
        2   -1    0    0  501    0  0.00000000000E+00  0.00000000000E+00  0.28482805351E+04  0.28482805351E+04  0.25500000920E-02 0. -1.
       -2   -1    0    0    0  501  0.00000000000E+00  0.00000000000E+00 -0.73861369114E+03  0.73861369114E+03  0.25500000920E-02 0.  1.
    10030    2    1    2    0    0  0.00000000000E+00  0.00000000000E+00  0.21096668440E+04  0.35868942262E+04  0.29008819345E+04 0.  0.
        1    1    3    3  502    0  0.73344390136E+01  0.39011775306E+03  0.27821681500E+04  0.28093958906E+04  0.50400001928E-02 0. -1.
       -1    1    3    3    0  502 -0.73344390136E+01 -0.39011775306E+03 -0.67250130605E+03  0.77749833563E+03  0.50400001928E-02 0.  1.
</event>
<event>
 5   0  0.9395744E-08  0.2899128E+04  0.7818609E-02  0.8273137E-01
        1   -1    0    0  501    0  0.00000000000E+00  0.00000000000E+00  0.22043374174E+04  0.22043374174E+04  0.50400001928E-02 0. -1.
       -1   -1    0    0    0  501  0.00000000000E+00  0.00000000000E+00 -0.95322790900E+03  0.95322790901E+03  0.50400001928E-02 0.  1.
    10030    2    1    2    0    0  0.00000000000E+00  0.00000000000E+00  0.12511095084E+04  0.31575653264E+04  0.28991281084E+04 0.  0.
        2    1    3    3  502    0  0.12544564288E+04 -0.56031520460E+03  0.11289484948E+04  0.17782403562E+04  0.25500000920E-02 0.  1.
       -2    1    3    3    0  502 -0.12544564288E+04  0.56031520460E+03  0.12216101364E+03  0.13793249703E+04  0.25500000920E-02 0. -1.
</event>
<event>
 5   0  0.9763851E-08  0.2900715E+04  0.7818609E-02  0.8272665E-01
       -1   -1    0    0    0  501  0.00000000000E+00  0.00000000000E+00  0.86319011215E+03  0.86319011216E+03  0.50400001928E-02 0. -1.
        1   -1    0    0  501    0  0.00000000000E+00  0.00000000000E+00 -0.24369332191E+04  0.24369332191E+04  0.50400001928E-02 0.  1.
    10030    2    1    2    0    0  0.00000000000E+00  0.00000000000E+00 -0.15737431069E+04  0.33001233313E+04  0.29007148489E+04 0.  0.
        3    1    3    3  502    0  0.68727205585E+03 -0.10052090108E+04  0.10948956892E+03  0.12226103264E+04  0.10100000352E+00 0. -1.
       -3    1    3    3    0  502 -0.68727205585E+03  0.10052090108E+04 -0.16832326759E+04  0.20775130049E+04  0.10100000352E+00 0.  1.
</event>
<event>
 5   0  0.2492232E-07  0.2897833E+04  0.7818609E-02  0.8273523E-01
        2   -1    0    0  501    0  0.00000000000E+00  0.00000000000E+00  0.16408044171E+04  0.16408044171E+04  0.25500000920E-02 0.  1.
       -2   -1    0    0    0  501  0.00000000000E+00  0.00000000000E+00 -0.12794690799E+04  0.12794690799E+04  0.25500000920E-02 0. -1.
    10030    2    1    2    0    0  0.00000000000E+00  0.00000000000E+00  0.36133533722E+03  0.29202734970E+04  0.28978326507E+04 0.  0.
        4    1    3    3  502    0  0.70024924146E+03  0.12288982079E+04 -0.13611854727E+03  0.14209397163E+04  0.12699999809E+01 0. -1.
       -4    1    3    3    0  502 -0.70024924146E+03 -0.12288982079E+04  0.49745388448E+03  0.14993337806E+04  0.12699999809E+01 0.  1.
</event>
<event>
 5   0  0.9443352E-08  0.2899123E+04  0.7818609E-02  0.8273139E-01
        1   -1    0    0  501    0  0.00000000000E+00  0.00000000000E+00  0.17025067287E+04  0.17025067287E+04  0.50400001928E-02 0.  1.
       -1   -1    0    0    0  501  0.00000000000E+00  0.00000000000E+00 -0.12341967286E+04  0.12341967286E+04  0.50400001928E-02 0. -1.
    10030    2    1    2    0    0  0.00000000000E+00  0.00000000000E+00  0.46831000010E+03  0.29367034573E+04  0.28991227880E+04 0.  0.
        4    1    3    3  502    0  0.55466177714E+03 -0.88675072554E+03  0.12507831745E+04  0.16304713119E+04  0.12699999809E+01 0.  1.
       -4    1    3    3    0  502 -0.55466177714E+03  0.88675072554E+03 -0.78247317442E+03  0.13062321455E+04  0.12699999809E+01 0. -1.
</event>
<event>
 5   0  0.2608591E-07  0.2900595E+04  0.7818609E-02  0.8272701E-01
       -2   -1    0    0    0  501  0.00000000000E+00  0.00000000000E+00  0.99829338424E+03  0.99829338424E+03  0.25500000920E-02 0. -1.
        2   -1    0    0  501    0  0.00000000000E+00  0.00000000000E+00 -0.21069579318E+04  0.21069579318E+04  0.25500000920E-02 0.  1.
    10030    2    1    2    0    0  0.00000000000E+00  0.00000000000E+00 -0.11086645475E+04  0.31052513160E+04  0.29005945350E+04 0.  0.
        2    1    3    3  502    0  0.87367037203E+03  0.32535754957E+03 -0.17436648920E+04  0.19772518074E+04  0.25500000920E-02 0.  1.
       -2    1    3    3    0  502 -0.87367037203E+03 -0.32535754957E+03  0.63500034449E+03  0.11279995087E+04  0.25500000920E-02 0. -1.
</event>
<event>
 5   0  0.9388076E-08  0.2896908E+04  0.7818609E-02  0.8273798E-01
       -1   -1    0    0    0  501  0.00000000000E+00  0.00000000000E+00  0.10171432475E+04  0.10171432475E+04  0.50400001928E-02 0. -1.
        1   -1    0    0  501    0  0.00000000000E+00  0.00000000000E+00 -0.20626588405E+04  0.20626588405E+04  0.50400001928E-02 0.  1.
    10030    2    1    2    0    0  0.00000000000E+00  0.00000000000E+00 -0.10455155931E+04  0.30798020880E+04  0.28969083600E+04 0.  0.
        5    1    3    3  502    0 -0.92005564803E+03  0.47522675720E+03  0.55392706953E+03  0.11743935263E+04  0.46999998093E+01 0. -1.
       -5    1    3    3    0  502  0.92005564803E+03 -0.47522675720E+03 -0.15994426626E+04  0.19054085617E+04  0.46999998093E+01 0.  1.
</event>
<event>
 5   0  0.2534588E-07  0.2885637E+04  0.7818609E-02  0.8277164E-01
       -2   -1    0    0    0  501  0.00000000000E+00  0.00000000000E+00  0.13042203276E+04  0.13042203276E+04  0.25500000920E-02 0.  1.
        2   -1    0    0  501    0  0.00000000000E+00  0.00000000000E+00 -0.15961455724E+04  0.15961455724E+04  0.25500000920E-02 0. -1.
    10030    2    1    2    0    0  0.00000000000E+00  0.00000000000E+00 -0.29192524484E+03  0.29003659001E+04  0.28856371923E+04 0.  0.
        3    1    3    3  502    0  0.13523370722E+04  0.29692141234E+03  0.26200023415E+03  0.14091210079E+04  0.10100000352E+00 0.  1.
       -3    1    3    3    0  502 -0.13523370722E+04 -0.29692141234E+03 -0.55392547899E+03  0.14912448922E+04  0.10100000352E+00 0. -1.
</event>
<event>
 5   0  0.9395744E-08  0.2901439E+04  0.7818609E-02  0.8272450E-01
        1   -1    0    0  501    0  0.00000000000E+00  0.00000000000E+00  0.12459477093E+04  0.12459477093E+04  0.50400001928E-02 0. -1.
       -1   -1    0    0    0  501  0.00000000000E+00  0.00000000000E+00 -0.16891450717E+04  0.16891450717E+04  0.50400001928E-02 0.  1.
    10030    2    1    2    0    0  0.00000000000E+00  0.00000000000E+00 -0.44319736237E+03  0.29350927811E+04  0.29014385624E+04 0.  0.
        2    1    3    3  502    0 -0.72264368788E+03 -0.10826980272E+04  0.42624943957E+03  0.13697216880E+04  0.25500000920E-02 0. -1.
       -2    1    3    3    0  502  0.72264368788E+03  0.10826980272E+04 -0.86944680194E+03  0.15653710931E+04  0.25500000920E-02 0.  1.
</event>
<event>
 5   0  0.2608591E-07  0.2896595E+04  0.7818609E-02  0.8273891E-01
        2   -1    0    0  501    0  0.00000000000E+00  0.00000000000E+00  0.15961805254E+04  0.15961805254E+04  0.25500000920E-02 0.  1.
       -2   -1    0    0    0  501  0.00000000000E+00  0.00000000000E+00 -0.13141153239E+04  0.13141153239E+04  0.25500000920E-02 0. -1.
    10030    2    1    2    0    0  0.00000000000E+00  0.00000000000E+00  0.28206520149E+03  0.29102958492E+04  0.28965947511E+04 0.  0.
        2    1    3    3  502    0  0.13638585668E+04 -0.46840020940E+03  0.60231148657E+01  0.14420628364E+04  0.25500000920E-02 0. -1.
       -2    1    3    3    0  502 -0.13638585668E+04  0.46840020940E+03  0.27604208663E+03  0.14682330128E+04  0.25500000920E-02 0.  1.
</event>
<event>
 5   0  0.2546841E-07  0.2901478E+04  0.7818609E-02  0.8272438E-01
       -2   -1    0    0    0  501  0.00000000000E+00  0.00000000000E+00  0.18189435749E+04  0.18189435749E+04  0.25500000920E-02 0.  1.
        2   -1    0    0  501    0  0.00000000000E+00  0.00000000000E+00 -0.11570688727E+04  0.11570688727E+04  0.25500000920E-02 0. -1.
    10030    2    1    2    0    0  0.00000000000E+00  0.00000000000E+00  0.66187470222E+03  0.29760124476E+04  0.29014775489E+04 0.  0.
        1    1    3    3  502    0  0.72879524590E+03  0.62619686067E+03  0.14457707304E+04  0.17359487388E+04  0.50400001928E-02 0.  1.
       -1    1    3    3    0  502 -0.72879524590E+03 -0.62619686067E+03 -0.78389602823E+03  0.12400637088E+04  0.50400001928E-02 0. -1.
</event>
<event>
 5   0  0.9763851E-08  0.2899127E+04  0.7818609E-02  0.8273137E-01
        1   -1    0    0  501    0  0.00000000000E+00  0.00000000000E+00  0.20434748481E+04  0.20434748481E+04  0.50400001928E-02 0. -1.
       -1   -1    0    0    0  501  0.00000000000E+00  0.00000000000E+00 -0.10282652171E+04  0.10282652171E+04  0.50400001928E-02 0.  1.
    10030    2    1    2    0    0  0.00000000000E+00  0.00000000000E+00  0.10152096310E+04  0.30717400652E+04  0.28991268398E+04 0.  0.
        3    1    3    3  502    0  0.13805575822E+04  0.11512988381E+03  0.55540086747E+02  0.13864627075E+04  0.10100000352E+00 0.  1.
       -3    1    3    3    0  502 -0.13805575822E+04 -0.11512988381E+03  0.95966954428E+03  0.16852773577E+04  0.10100000352E+00 0. -1.
</event>
<event>
 5   0  0.9443352E-08  0.2900882E+04  0.7818609E-02  0.8272615E-01
       -1   -1    0    0    0  501  0.00000000000E+00  0.00000000000E+00  0.91177274403E+03  0.91177274404E+03  0.50400001928E-02 0. -1.
        1   -1    0    0  501    0  0.00000000000E+00  0.00000000000E+00 -0.23073501994E+04  0.23073501994E+04  0.50400001928E-02 0.  1.
    10030    2    1    2    0    0  0.00000000000E+00  0.00000000000E+00 -0.13955774553E+04  0.32191229434E+04  0.29008819505E+04 0.  0.
        4    1    3    3  502    0 -0.11853338565E+04  0.54082090158E+03  0.95328737485E+01  0.13029182965E+04  0.12699999809E+01 0. -1.
       -4    1    3    3    0  502  0.11853338565E+04 -0.54082090158E+03 -0.14051103291E+04  0.19162046469E+04  0.12699999809E+01 0.  1.
</event>
<event>
 5   0  0.2608591E-07  0.2898496E+04  0.7818609E-02  0.8273325E-01
       -2   -1    0    0    0  501  0.00000000000E+00  0.00000000000E+00  0.73495782141E+03  0.73495782142E+03  0.25500000920E-02 0.  1.
        2   -1    0    0  501    0  0.00000000000E+00  0.00000000000E+00 -0.28577409470E+04  0.28577409470E+04  0.25500000920E-02 0. -1.
    10030    2    1    2    0    0  0.00000000000E+00  0.00000000000E+00 -0.21227831255E+04  0.35926987684E+04  0.28984955136E+04 0.  0.
        2    1    3    3  502    0 -0.93883012430E+03 -0.47004145223E+03 -0.22996425311E+04  0.25279827412E+04  0.25500000920E-02 0. -1.
       -2    1    3    3    0  502  0.93883012430E+03  0.47004145223E+03  0.17685940556E+03  0.10647160271E+04  0.25500000920E-02 0.  1.
</event>
<event>
 5   0  0.2492232E-07  0.2899517E+04  0.7818609E-02  0.8273021E-01
       -2   -1    0    0    0  501  0.00000000000E+00  0.00000000000E+00  0.12573509575E+04  0.12573509575E+04  0.25500000920E-02 0. -1.
        2   -1    0    0  501    0  0.00000000000E+00  0.00000000000E+00 -0.16716093824E+04  0.16716093824E+04  0.25500000920E-02 0.  1.
    10030    2    1    2    0    0  0.00000000000E+00  0.00000000000E+00 -0.41425842489E+03  0.29289603400E+04  0.28995169650E+04 0.  0.
        4    1    3    3  502    0  0.17831996214E+03  0.64082388540E+03  0.10941070398E+04  0.12804394123E+04  0.12699999809E+01 0. -1.
       -4    1    3    3    0  502 -0.17831996214E+03 -0.64082388540E+03 -0.15083654647E+04  0.16485209277E+04  0.12699999809E+01 0.  1.
</event>
<event>
 5   0  0.2534588E-07  0.2899074E+04  0.7818609E-02  0.8273153E-01
        2   -1    0    0  501    0  0.00000000000E+00  0.00000000000E+00  0.12007295990E+04  0.12007295990E+04  0.25500000920E-02 0.  1.
       -2   -1    0    0    0  501  0.00000000000E+00  0.00000000000E+00 -0.17499003045E+04  0.17499003045E+04  0.25500000920E-02 0. -1.
    10030    2    1    2    0    0  0.00000000000E+00  0.00000000000E+00 -0.54917070547E+03  0.29506299035E+04  0.28990737079E+04 0.  0.
        3    1    3    3  502    0  0.35474472681E+03  0.10473503050E+03  0.11518898816E+04  0.12098196384E+04  0.10100000352E+00 0.  1.
       -3    1    3    3    0  502 -0.35474472681E+03 -0.10473503050E+03 -0.17010605871E+04  0.17408102651E+04  0.10100000352E+00 0. -1.
</event>
<event>
 5   0  0.2678723E-07  0.2901290E+04  0.7818609E-02  0.8272494E-01
        2   -1    0    0  501    0  0.00000000000E+00  0.00000000000E+00  0.20456519259E+04  0.20456519259E+04  0.25500000920E-02 0.  1.
       -2   -1    0    0    0  501  0.00000000000E+00  0.00000000000E+00 -0.10287041760E+04  0.10287041760E+04  0.25500000920E-02 0. -1.
    10030    2    1    2    0    0  0.00000000000E+00  0.00000000000E+00  0.10169477498E+04  0.30743561019E+04  0.29012898365E+04 0.  0.
        5    1    3    3  502    0 -0.73412372382E+03  0.19885438255E+03 -0.80047148953E+03  0.11041998926E+04  0.46999998093E+01 0. -1.
       -5    1    3    3    0  502  0.73412372382E+03 -0.19885438255E+03  0.18174192394E+04  0.19701562093E+04  0.46999998093E+01 0.  1.
</event>
<event>
 5   0  0.9443352E-08  0.2907616E+04  0.7818609E-02  0.8270615E-01
        1   -1    0    0  501    0  0.00000000000E+00  0.00000000000E+00  0.14106882162E+04  0.14106882162E+04  0.50400001928E-02 0. -1.
       -1   -1    0    0    0  501  0.00000000000E+00  0.00000000000E+00 -0.14982458744E+04  0.14982458744E+04  0.50400001928E-02 0.  1.
    10030    2    1    2    0    0  0.00000000000E+00  0.00000000000E+00 -0.87557658151E+02  0.29089340906E+04  0.29076160682E+04 0.  0.
        4    1    3    3  502    0 -0.87575306037E+03  0.88134559772E+03  0.71144262076E+03  0.14317352063E+04  0.12699999809E+01 0. -1.
       -4    1    3    3    0  502  0.87575306037E+03 -0.88134559772E+03 -0.79900027891E+03  0.14771988844E+04  0.12699999809E+01 0.  1.
</event>
<event>
 5   0  0.9388076E-08  0.2894508E+04  0.7818609E-02  0.8274514E-01
        1   -1    0    0  501    0  0.00000000000E+00  0.00000000000E+00  0.22502512115E+04  0.22502512115E+04  0.50400001928E-02 0. -1.
       -1   -1    0    0    0  501  0.00000000000E+00  0.00000000000E+00 -0.93080430907E+03  0.93080430908E+03  0.50400001928E-02 0.  1.
    10030    2    1    2    0    0  0.00000000000E+00  0.00000000000E+00  0.13194469025E+04  0.31810555206E+04  0.28945075742E+04 0.  0.
        5    1    3    3  502    0  0.23469164150E+03  0.76103621295E+03  0.19877673139E+04  0.21413774231E+04  0.46999998093E+01 0. -1.
       -5    1    3    3    0  502 -0.23469164150E+03 -0.76103621295E+03 -0.66832041146E+03  0.10396780975E+04  0.46999998093E+01 0.  1.
</event>
<event>
 5   0  0.9421924E-08  0.2900766E+04  0.7818609E-02  0.8272650E-01
        1   -1    0    0  501    0  0.00000000000E+00  0.00000000000E+00  0.15769067821E+04  0.15769067821E+04  0.50400001928E-02 0. -1.
       -1   -1    0    0    0  501  0.00000000000E+00  0.00000000000E+00 -0.13340107754E+04  0.13340107754E+04  0.50400001928E-02 0.  1.
    10030    2    1    2    0    0  0.00000000000E+00  0.00000000000E+00  0.24289600672E+03  0.29109175576E+04  0.29007658570E+04 0.  0.
        1    1    3    3  502    0  0.12713356073E+04 -0.58283442142E+03 -0.26411068418E+03  0.14232865638E+04  0.50400001928E-02 0.  1.
       -1    1    3    3    0  502 -0.12713356073E+04  0.58283442142E+03  0.50700669089E+03  0.14876309938E+04  0.50400001928E-02 0. -1.
</event>
<event>
 5   0  0.2492232E-07  0.2897452E+04  0.7818609E-02  0.8273636E-01
       -2   -1    0    0    0  501  0.00000000000E+00  0.00000000000E+00  0.13968328594E+04  0.13968328594E+04  0.25500000920E-02 0. -1.
        2   -1    0    0  501    0  0.00000000000E+00  0.00000000000E+00 -0.15025470396E+04  0.15025470396E+04  0.25500000920E-02 0.  1.
    10030    2    1    2    0    0  0.00000000000E+00  0.00000000000E+00 -0.10571418021E+03  0.28993798990E+04  0.28974520377E+04 0.  0.
        4    1    3    3  502    0  0.42372679963E+03 -0.51922371002E+03  0.12323914437E+04  0.14028285516E+04  0.12699999809E+01 0. -1.
       -4    1    3    3    0  502 -0.42372679963E+03  0.51922371002E+03 -0.13381056239E+04  0.14965513474E+04  0.12699999809E+01 0.  1.
</event>
<event>
 5   0  0.2492232E-07  0.2896761E+04  0.7818609E-02  0.8273842E-01
        2   -1    0    0  501    0  0.00000000000E+00  0.00000000000E+00  0.22582683274E+04  0.22582683274E+04  0.25500000920E-02 0.  1.
       -2   -1    0    0    0  501  0.00000000000E+00  0.00000000000E+00 -0.92894440950E+03  0.92894440951E+03  0.25500000920E-02 0. -1.
    10030    2    1    2    0    0  0.00000000000E+00  0.00000000000E+00  0.13293239179E+04  0.31872127369E+04  0.28967607688E+04 0.  0.
        4    1    3    3  502    0  0.46599922831E+03  0.10847280602E+04 -0.25852366472E+03  0.12085637524E+04  0.12699999809E+01 0.  1.
       -4    1    3    3    0  502 -0.46599922831E+03 -0.10847280602E+04  0.15878475826E+04  0.19786489845E+04  0.12699999809E+01 0. -1.
</event>
<event>
 5   0  0.8407500E-08  0.2900174E+04  0.7818609E-02  0.8272826E-01
       -3   -1    0    0    0  501  0.00000000000E+00  0.00000000000E+00  0.10769277382E+04  0.10769277429E+04  0.10100000352E+00 0. -1.
        3   -1    0    0  501    0  0.00000000000E+00  0.00000000000E+00 -0.19525470331E+04  0.19525470357E+04  0.10100000352E+00 0.  1.
    10030    2    1    2    0    0  0.00000000000E+00  0.00000000000E+00 -0.87561929487E+03  0.30294747786E+04  0.29001738370E+04 0.  0.
        3    1    3    3  502    0  0.24524720213E+03  0.12999393595E+04 -0.10582287373E+04  0.16940592077E+04  0.10100000352E+00 0.  1.
       -3    1    3    3    0  502 -0.24524720213E+03 -0.12999393595E+04  0.18260944240E+03  0.13354155710E+04  0.10100000352E+00 0. -1.
</event>
<event>
 5   0  0.2608591E-07  0.2895684E+04  0.7818609E-02  0.8274163E-01
       -2   -1    0    0    0  501  0.00000000000E+00  0.00000000000E+00  0.93093987227E+03  0.93093987228E+03  0.25500000920E-02 0.  1.
        2   -1    0    0  501    0  0.00000000000E+00  0.00000000000E+00 -0.22517520670E+04  0.22517520670E+04  0.25500000920E-02 0. -1.
    10030    2    1    2    0    0  0.00000000000E+00  0.00000000000E+00 -0.13208121947E+04  0.31826919393E+04  0.28956835336E+04 0.  0.
        2    1    3    3  502    0 -0.31251626494E+03  0.50330007094E+03 -0.21124328597E+04  0.21939348131E+04  0.25500000920E-02 0. -1.
       -2    1    3    3    0  502  0.31251626494E+03 -0.50330007094E+03  0.79162066501E+03  0.98875712617E+03  0.25500000920E-02 0.  1.
</event>
<event>
 5   0  0.9395744E-08  0.2900038E+04  0.7818609E-02  0.8272866E-01
        1   -1    0    0  501    0  0.00000000000E+00  0.00000000000E+00  0.94848830214E+03  0.94848830216E+03  0.50400001928E-02 0. -1.
       -1   -1    0    0    0  501  0.00000000000E+00  0.00000000000E+00 -0.22167434395E+04  0.22167434395E+04  0.50400001928E-02 0.  1.
    10030    2    1    2    0    0  0.00000000000E+00  0.00000000000E+00 -0.12682551374E+04  0.31652317417E+04  0.29000380834E+04 0.  0.
        2    1    3    3  502    0 -0.12015159845E+04  0.18468292914E+03 -0.14968571245E+04  0.19282970976E+04  0.25500000920E-02 0.  1.
       -2    1    3    3    0  502  0.12015159845E+04 -0.18468292914E+03  0.22860198710E+03  0.12369346441E+04  0.25500000920E-02 0. -1.
</event>
<event>
 5   0  0.9763851E-08  0.2905070E+04  0.7818609E-02  0.8271371E-01
       -1   -1    0    0    0  501  0.00000000000E+00  0.00000000000E+00  0.17038438763E+04  0.17038438763E+04  0.50400001928E-02 0. -1.
        1   -1    0    0  501    0  0.00000000000E+00  0.00000000000E+00 -0.12382926622E+04  0.12382926623E+04  0.50400001928E-02 0.  1.
    10030    2    1    2    0    0  0.00000000000E+00  0.00000000000E+00  0.46555121406E+03  0.29421365386E+04  0.29050696168E+04 0.  0.
        3    1    3    3  502    0  0.14476713558E+04 -0.44379698195E+02  0.12120901255E+03  0.14534144443E+04  0.10100000352E+00 0. -1.
       -3    1    3    3    0  502 -0.14476713558E+04  0.44379698195E+02  0.34434220151E+03  0.14887220943E+04  0.10100000352E+00 0.  1.
</event>
<event>
 5   0  0.2678723E-07  0.2901004E+04  0.7818609E-02  0.8272579E-01
        2   -1    0    0  501    0  0.00000000000E+00  0.00000000000E+00  0.24306201004E+04  0.24306201004E+04  0.25500000920E-02 0. -1.
       -2   -1    0    0    0  501  0.00000000000E+00  0.00000000000E+00 -0.86560472662E+03  0.86560472662E+03  0.25500000920E-02 0.  1.
    10030    2    1    2    0    0  0.00000000000E+00  0.00000000000E+00  0.15650153738E+04  0.32962248271E+04  0.29010041348E+04 0.  0.
        5    1    3    3  502    0  0.93229779246E+02 -0.10766349272E+04 -0.31682592848E+03  0.11261595434E+04  0.46999998093E+01 0.  1.
       -5    1    3    3    0  502 -0.93229779246E+02  0.10766349272E+04  0.18818413023E+04  0.21700652836E+04  0.46999998093E+01 0. -1.
</event>
<event>
 5   0  0.2546841E-07  0.2906903E+04  0.7818609E-02  0.8270827E-01
        2   -1    0    0  501    0  0.00000000000E+00  0.00000000000E+00  0.18277421930E+04  0.18277421930E+04  0.25500000920E-02 0. -1.
       -2   -1    0    0    0  501  0.00000000000E+00  0.00000000000E+00 -0.11558089804E+04  0.11558089804E+04  0.25500000920E-02 0.  1.
    10030    2    1    2    0    0  0.00000000000E+00  0.00000000000E+00  0.67193321264E+03  0.29835511734E+04  0.29069027094E+04 0.  0.
        1    1    3    3  502    0 -0.97735289687E+03  0.31757274182E+03  0.13909057530E+04  0.17293611379E+04  0.50400001928E-02 0. -1.
       -1    1    3    3    0  502  0.97735289687E+03 -0.31757274182E+03 -0.71897254037E+03  0.12541900355E+04  0.50400001928E-02 0.  1.
</event>
<event>
 5   0  0.9443352E-08  0.2899600E+04  0.7818609E-02  0.8272996E-01
       -1   -1    0    0    0  501  0.00000000000E+00  0.00000000000E+00  0.12389518673E+04  0.12389518673E+04  0.50400001928E-02 0.  1.
        1   -1    0    0  501    0  0.00000000000E+00  0.00000000000E+00 -0.16965312624E+04  0.16965312624E+04  0.50400001928E-02 0. -1.
    10030    2    1    2    0    0  0.00000000000E+00  0.00000000000E+00 -0.45757939509E+03  0.29354831297E+04  0.28996003693E+04 0.  0.
        4    1    3    3  502    0 -0.32524659296E+03  0.62890957047E+03 -0.15095967572E+04  0.16673921483E+04  0.12699999809E+01 0. -1.
       -4    1    3    3    0  502  0.32524659296E+03 -0.62890957047E+03  0.10520173621E+04  0.12680909814E+04  0.12699999809E+01 0.  1.
</event>
<event>
 5   0  0.9443352E-08  0.2899099E+04  0.7818609E-02  0.8273146E-01
       -1   -1    0    0    0  501  0.00000000000E+00  0.00000000000E+00  0.11968503277E+04  0.11968503277E+04  0.50400001928E-02 0.  1.
        1   -1    0    0  501    0  0.00000000000E+00  0.00000000000E+00 -0.17556022781E+04  0.17556022781E+04  0.50400001928E-02 0. -1.
    10030    2    1    2    0    0  0.00000000000E+00  0.00000000000E+00 -0.55875195037E+03  0.29524526059E+04  0.28990985923E+04 0.  0.
        4    1    3    3  502    0  0.80499173923E+03  0.22091360626E+03 -0.14862496330E+04  0.17046272631E+04  0.12699999809E+01 0. -1.
       -4    1    3    3    0  502 -0.80499173923E+03 -0.22091360626E+03  0.92749768267E+03  0.12478253427E+04  0.12699999809E+01 0.  1.
</event>
<event>
 5   0  0.9388076E-08  0.2891365E+04  0.7818609E-02  0.8275451E-01
        1   -1    0    0  501    0  0.00000000000E+00  0.00000000000E+00  0.14127046712E+04  0.14127046713E+04  0.50400001928E-02 0.  1.
       -1   -1    0    0    0  501  0.00000000000E+00  0.00000000000E+00 -0.14794301039E+04  0.14794301039E+04  0.50400001928E-02 0. -1.
    10030    2    1    2    0    0  0.00000000000E+00  0.00000000000E+00 -0.66725432653E+02  0.28921347752E+04  0.28913649501E+04 0.  0.
        5    1    3    3  502    0 -0.81743805542E+03  0.65497690479E+03  0.96328402720E+03  0.14230734090E+04  0.46999998093E+01 0.  1.
       -5    1    3    3    0  502  0.81743805542E+03 -0.65497690479E+03 -0.10300094599E+04  0.14690613662E+04  0.46999998093E+01 0. -1.
</event>
<event>
 5   0  0.2492232E-07  0.2904376E+04  0.7818609E-02  0.8271577E-01
        2   -1    0    0  501    0  0.00000000000E+00  0.00000000000E+00  0.15868948706E+04  0.15868948706E+04  0.25500000920E-02 0.  1.
       -2   -1    0    0    0  501  0.00000000000E+00  0.00000000000E+00 -0.13289155910E+04  0.13289155910E+04  0.25500000920E-02 0. -1.
    10030    2    1    2    0    0  0.00000000000E+00  0.00000000000E+00  0.25797927960E+03  0.29158104616E+04  0.29043755506E+04 0.  0.
        4    1    3    3  502    0  0.19812498155E+02 -0.92363905103E+03 -0.99584389310E+03  0.13583844463E+04  0.12699999809E+01 0. -1.
       -4    1    3    3    0  502 -0.19812498155E+02  0.92363905103E+03  0.12538231727E+04  0.15574260152E+04  0.12699999809E+01 0.  1.
</event>
<event>
 5   0  0.9388076E-08  0.2900119E+04  0.7818609E-02  0.8272842E-01
        1   -1    0    0  501    0  0.00000000000E+00  0.00000000000E+00  0.18241803066E+04  0.18241803066E+04  0.50400001928E-02 0. -1.
       -1   -1    0    0    0  501  0.00000000000E+00  0.00000000000E+00 -0.11526669214E+04  0.11526669215E+04  0.50400001928E-02 0.  1.
    10030    2    1    2    0    0  0.00000000000E+00  0.00000000000E+00  0.67151338512E+03  0.29768472280E+04  0.29001188239E+04 0.  0.
        5    1    3    3  502    0 -0.73922399929E+02  0.97486832053E+03 -0.76347160574E+03  0.12404611023E+04  0.46999998093E+01 0.  1.
       -5    1    3    3    0  502  0.73922399929E+02 -0.97486832053E+03  0.14349849909E+04  0.17363861257E+04  0.46999998093E+01 0. -1.
</event>
<event>
 5   0  0.2534588E-07  0.2901095E+04  0.7818609E-02  0.8272552E-01
        2   -1    0    0  501    0  0.00000000000E+00  0.00000000000E+00  0.16884043322E+04  0.16884043322E+04  0.25500000920E-02 0.  1.
       -2   -1    0    0    0  501  0.00000000000E+00  0.00000000000E+00 -0.12461990756E+04  0.12461990756E+04  0.25500000920E-02 0. -1.
    10030    2    1    2    0    0  0.00000000000E+00  0.00000000000E+00  0.44220525656E+03  0.29346034078E+04  0.29010949092E+04 0.  0.
        3    1    3    3  502    0 -0.75215932129E+03  0.11958038819E+04 -0.11193767367E+03  0.14171170105E+04  0.10100000352E+00 0. -1.
       -3    1    3    3    0  502  0.75215932129E+03 -0.11958038819E+04  0.55414293024E+03  0.15174863973E+04  0.10100000352E+00 0.  1.
</event>
<event>
 5   0  0.2534588E-07  0.2899602E+04  0.7818609E-02  0.8272996E-01
       -2   -1    0    0    0  501  0.00000000000E+00  0.00000000000E+00  0.98034520602E+03  0.98034520602E+03  0.25500000920E-02 0.  1.
        2   -1    0    0  501    0  0.00000000000E+00  0.00000000000E+00 -0.21440641621E+04  0.21440641621E+04  0.25500000920E-02 0. -1.
    10030    2    1    2    0    0  0.00000000000E+00  0.00000000000E+00 -0.11637189561E+04  0.31244093681E+04  0.28996020573E+04 0.  0.
        3    1    3    3  502    0 -0.58459934811E+03  0.34396007544E+03  0.79883421030E+03  0.10479508753E+04  0.10100000352E+00 0.  1.
       -3    1    3    3    0  502  0.58459934811E+03 -0.34396007544E+03 -0.19625531664E+04  0.20764584928E+04  0.10100000352E+00 0. -1.
</event>
<event>
 5   0  0.9388076E-08  0.2899637E+04  0.7818609E-02  0.8272986E-01
       -1   -1    0    0    0  501  0.00000000000E+00  0.00000000000E+00  0.14094921898E+04  0.14094921898E+04  0.50400001928E-02 0. -1.
        1   -1    0    0  501    0  0.00000000000E+00  0.00000000000E+00 -0.14912984998E+04  0.14912984998E+04  0.50400001928E-02 0.  1.
    10030    2    1    2    0    0  0.00000000000E+00  0.00000000000E+00 -0.81806310000E+02  0.29007906895E+04  0.28996369345E+04 0.  0.
        5    1    3    3  502    0 -0.33147280529E+03 -0.59885298189E+03  0.12376712588E+04  0.14143377777E+04  0.46999998093E+01 0. -1.
       -5    1    3    3    0  502  0.33147280529E+03  0.59885298189E+03 -0.13194775688E+04  0.14864529118E+04  0.46999998093E+01 0.  1.
</event>
<event>
 5   0  0.2534588E-07  0.2900768E+04  0.7818609E-02  0.8272649E-01
       -2   -1    0    0    0  501  0.00000000000E+00  0.00000000000E+00  0.95955404970E+03  0.95955404971E+03  0.25500000920E-02 0. -1.
        2   -1    0    0  501    0  0.00000000000E+00  0.00000000000E+00 -0.21922832601E+04  0.21922832601E+04  0.25500000920E-02 0.  1.
    10030    2    1    2    0    0  0.00000000000E+00  0.00000000000E+00 -0.12327292104E+04  0.31518373098E+04  0.29007683674E+04 0.  0.
        3    1    3    3  502    0  0.35036534364E+03  0.25480466959E+03  0.88761136564E+03  0.98769187517E+03  0.10100000352E+00 0. -1.
       -3    1    3    3    0  502 -0.35036534364E+03 -0.25480466959E+03 -0.21203405760E+04  0.21641454346E+04  0.10100000352E+00 0.  1.
</event>
<event>
 5   0  0.2608591E-07  0.2899151E+04  0.7818609E-02  0.8273130E-01
        2   -1    0    0  501    0  0.00000000000E+00  0.00000000000E+00  0.21159827797E+04  0.21159827797E+04  0.25500000920E-02 0.  1.
       -2   -1    0    0    0  501  0.00000000000E+00  0.00000000000E+00 -0.99304654613E+03  0.99304654614E+03  0.25500000920E-02 0. -1.
    10030    2    1    2    0    0  0.00000000000E+00  0.00000000000E+00  0.11229362336E+04  0.31090293259E+04  0.28991511800E+04 0.  0.
        2    1    3    3  502    0  0.51600785973E+03 -0.57720913055E+02  0.20128376287E+04  0.20787282494E+04  0.25500000920E-02 0.  1.
       -2    1    3    3    0  502 -0.51600785973E+03  0.57720913055E+02 -0.88990139515E+03  0.10303010765E+04  0.25500000920E-02 0. -1.
</event>
<event>
 5   0  0.2546841E-07  0.2901177E+04  0.7818609E-02  0.8272527E-01
       -2   -1    0    0    0  501  0.00000000000E+00  0.00000000000E+00  0.17329705536E+04  0.17329705536E+04  0.25500000920E-02 0. -1.
        2   -1    0    0  501    0  0.00000000000E+00  0.00000000000E+00 -0.12142195759E+04  0.12142195759E+04  0.25500000920E-02 0.  1.
    10030    2    1    2    0    0  0.00000000000E+00  0.00000000000E+00  0.51875097764E+03  0.29471901295E+04  0.29011768445E+04 0.  0.
        1    1    3    3  502    0 -0.89643319597E+02 -0.14458774286E+04  0.18329232373E+03  0.14602032527E+04  0.50400001928E-02 0.  1.
       -1    1    3    3    0  502  0.89643319597E+02  0.14458774286E+04  0.33545865392E+03  0.14869868768E+04  0.50400001928E-02 0. -1.
</event>
<event>
 5   0  0.9421924E-08  0.2899288E+04  0.7818609E-02  0.8273089E-01
       -1   -1    0    0    0  501  0.00000000000E+00  0.00000000000E+00  0.12289714188E+04  0.12289714188E+04  0.50400001928E-02 0.  1.
        1   -1    0    0  501    0  0.00000000000E+00  0.00000000000E+00 -0.17099402618E+04  0.17099402618E+04  0.50400001928E-02 0. -1.
    10030    2    1    2    0    0  0.00000000000E+00  0.00000000000E+00 -0.48096884301E+03  0.29389116806E+04  0.28992879882E+04 0.  0.
        1    1    3    3  502    0 -0.10238773386E+04 -0.66021519868E+03  0.55591112461E+03  0.13391213879E+04  0.50400001928E-02 0.  1.
       -1    1    3    3    0  502  0.10238773386E+04  0.66021519868E+03 -0.10368799676E+04  0.15997902926E+04  0.50400001928E-02 0. -1.
</event>
<event>
 5   0  0.2492232E-07  0.2902527E+04  0.7818609E-02  0.8272126E-01
        2   -1    0    0  501    0  0.00000000000E+00  0.00000000000E+00  0.17510729496E+04  0.17510729496E+04  0.25500000920E-02 0. -1.
       -2   -1    0    0    0  501  0.00000000000E+00  0.00000000000E+00 -0.12027861598E+04  0.12027861598E+04  0.25500000920E-02 0.  1.
    10030    2    1    2    0    0  0.00000000000E+00  0.00000000000E+00  0.54828678973E+03  0.29538591094E+04  0.29025273873E+04 0.  0.
        4    1    3    3  502    0  0.98199134124E+03  0.69740542847E+03 -0.54979414307E+03  0.13239926505E+04  0.12699999809E+01 0.  1.
       -4    1    3    3    0  502 -0.98199134124E+03 -0.69740542847E+03  0.10980809328E+04  0.16298664589E+04  0.12699999809E+01 0. -1.
</event>
<event>
 5   0  0.2492232E-07  0.2900329E+04  0.7818609E-02  0.8272780E-01
        2   -1    0    0  501    0  0.00000000000E+00  0.00000000000E+00  0.14123462826E+04  0.14123462826E+04  0.25500000920E-02 0. -1.
       -2   -1    0    0    0  501  0.00000000000E+00  0.00000000000E+00 -0.14889955988E+04  0.14889955988E+04  0.25500000920E-02 0.  1.
    10030    2    1    2    0    0  0.00000000000E+00  0.00000000000E+00 -0.76649316146E+02  0.29013418814E+04  0.29003292218E+04 0.  0.
        4    1    3    3  502    0  0.10481594040E+04  0.44359173378E+03  0.86063476764E+03  0.14269217143E+04  0.12699999809E+01 0. -1.
       -4    1    3    3    0  502 -0.10481594040E+04 -0.44359173378E+03 -0.93728408379E+03  0.14744201671E+04  0.12699999809E+01 0.  1.
</event>
<event>
 5   0  0.2678723E-07  0.2900299E+04  0.7818609E-02  0.8272788E-01
       -2   -1    0    0    0  501  0.00000000000E+00  0.00000000000E+00  0.21697568644E+04  0.21697568644E+04  0.25500000920E-02 0.  1.
        2   -1    0    0  501    0  0.00000000000E+00  0.00000000000E+00 -0.96920260740E+03  0.96920260740E+03  0.25500000920E-02 0. -1.
    10030    2    1    2    0    0  0.00000000000E+00  0.00000000000E+00  0.12005542570E+04  0.31389594718E+04  0.29002993021E+04 0.  0.
        5    1    3    3  502    0  0.78214128056E+03  0.14518798072E+03 -0.71196648014E+03  0.10675874163E+04  0.46999998093E+01 0. -1.
       -5    1    3    3    0  502 -0.78214128056E+03 -0.14518798072E+03  0.19125207372E+04  0.20713720556E+04  0.46999998093E+01 0.  1.
</event>
<event>
 5   0  0.9443352E-08  0.2901191E+04  0.7818609E-02  0.8272523E-01
       -1   -1    0    0    0  501  0.00000000000E+00  0.00000000000E+00  0.11745719963E+04  0.11745719963E+04  0.50400001928E-02 0.  1.
        1   -1    0    0  501    0  0.00000000000E+00  0.00000000000E+00 -0.17914848375E+04  0.17914848375E+04  0.50400001928E-02 0. -1.
    10030    2    1    2    0    0  0.00000000000E+00  0.00000000000E+00 -0.61691284122E+03  0.29660568338E+04  0.29011914255E+04 0.  0.
        4    1    3    3  502    0  0.11561113320E+04  0.81258939362E+03 -0.64339596772E+03  0.15526927960E+04  0.12699999809E+01 0.  1.
       -4    1    3    3    0  502 -0.11561113320E+04 -0.81258939362E+03  0.26483126493E+02  0.14133640378E+04  0.12699999809E+01 0. -1.
</event>
<event>
 5   0  0.9395744E-08  0.2900349E+04  0.7818609E-02  0.8272774E-01
       -1   -1    0    0    0  501  0.00000000000E+00  0.00000000000E+00  0.91349935537E+03  0.91349935538E+03  0.50400001928E-02 0.  1.
        1   -1    0    0  501    0  0.00000000000E+00  0.00000000000E+00 -0.23021432182E+04  0.23021432182E+04  0.50400001928E-02 0. -1.
    10030    2    1    2    0    0  0.00000000000E+00  0.00000000000E+00 -0.13886438628E+04  0.32156425735E+04  0.29003491830E+04 0.  0.
        2    1    3    3  502    0  0.37160340483E+03 -0.11977750903E+04 -0.15016660325E+04  0.19564649577E+04  0.25500000920E-02 0. -1.
       -2    1    3    3    0  502 -0.37160340483E+03  0.11977750903E+04  0.11302216973E+03  0.12591776159E+04  0.25500000920E-02 0.  1.
</event>
<event>
 5   0  0.2534588E-07  0.2900361E+04  0.7818609E-02  0.8272770E-01
        2   -1    0    0  501    0  0.00000000000E+00  0.00000000000E+00  0.22966140854E+04  0.22966140854E+04  0.25500000920E-02 0.  1.
       -2   -1    0    0    0  501  0.00000000000E+00  0.00000000000E+00 -0.91570579865E+03  0.91570579865E+03  0.25500000920E-02 0. -1.
    10030    2    1    2    0    0  0.00000000000E+00  0.00000000000E+00  0.13809082868E+04  0.32123198840E+04  0.29003605536E+04 0.  0.
        3    1    3    3  502    0  0.92883795088E+03  0.11071847831E+04  0.82347533195E+03  0.16633429338E+04  0.10100000352E+00 0. -1.
       -3    1    3    3    0  502 -0.92883795088E+03 -0.11071847831E+04  0.55743295481E+03  0.15489769502E+04  0.10100000352E+00 0.  1.
</event>
<event>
 5   0  0.2492232E-07  0.2899365E+04  0.7818609E-02  0.8273067E-01
       -2   -1    0    0    0  501  0.00000000000E+00  0.00000000000E+00  0.13033557881E+04  0.13033557881E+04  0.25500000920E-02 0.  1.
        2   -1    0    0  501    0  0.00000000000E+00  0.00000000000E+00 -0.16124366664E+04  0.16124366664E+04  0.25500000920E-02 0. -1.
    10030    2    1    2    0    0  0.00000000000E+00  0.00000000000E+00 -0.30908087824E+03  0.29157924545E+04  0.28993645249E+04 0.  0.
        4    1    3    3  502    0 -0.12696248621E+04  0.57156398867E+03 -0.56049129443E+03  0.15009279755E+04  0.12699999809E+01 0. -1.
       -4    1    3    3    0  502  0.12696248621E+04 -0.57156398867E+03  0.25141041619E+03  0.14148644790E+04  0.12699999809E+01 0.  1.
</event>
<event>
 5   0  0.2492232E-07  0.2900176E+04  0.7818609E-02  0.8272825E-01
       -2   -1    0    0    0  501  0.00000000000E+00  0.00000000000E+00  0.21741972160E+04  0.21741972160E+04  0.25500000920E-02 0. -1.
        2   -1    0    0  501    0  0.00000000000E+00  0.00000000000E+00 -0.96714076562E+03  0.96714076562E+03  0.25500000920E-02 0.  1.
    10030    2    1    2    0    0  0.00000000000E+00  0.00000000000E+00  0.12070564503E+04  0.31413379816E+04  0.29001756913E+04 0.  0.
        4    1    3    3  502    0  0.39162041551E+03 -0.10652912982E+04  0.15810959276E+04  0.19462985499E+04  0.12699999809E+01 0. -1.
       -4    1    3    3    0  502 -0.39162041551E+03  0.10652912982E+04 -0.37403947729E+03  0.11950394317E+04  0.12699999809E+01 0.  1.
</event>
<event>
 5   0  0.9763851E-08  0.2895174E+04  0.7818609E-02  0.8274315E-01
       -1   -1    0    0    0  501  0.00000000000E+00  0.00000000000E+00  0.17123587898E+04  0.17123587898E+04  0.50400001928E-02 0. -1.
        1   -1    0    0  501    0  0.00000000000E+00  0.00000000000E+00 -0.12237552762E+04  0.12237552762E+04  0.50400001928E-02 0.  1.
    10030    2    1    2    0    0  0.00000000000E+00  0.00000000000E+00  0.48860351362E+03  0.29361140660E+04  0.28951739870E+04 0.  0.
        3    1    3    3  502    0 -0.48981216037E+03  0.62874982397E+03  0.14698042880E+04  0.16719949009E+04  0.10100000352E+00 0. -1.
       -3    1    3    3    0  502  0.48981216037E+03 -0.62874982397E+03 -0.98120077438E+03  0.12641191650E+04  0.10100000352E+00 0.  1.
</event>
<event>
 5   0  0.9421924E-08  0.2899773E+04  0.7818609E-02  0.8272945E-01
       -1   -1    0    0    0  501  0.00000000000E+00  0.00000000000E+00  0.13761657127E+04  0.13761657127E+04  0.50400001928E-02 0. -1.
        1   -1    0    0  501    0  0.00000000000E+00  0.00000000000E+00 -0.15275563053E+04  0.15275563053E+04  0.50400001928E-02 0.  1.
    10030    2    1    2    0    0  0.00000000000E+00  0.00000000000E+00 -0.15139059265E+03  0.29037220180E+04  0.28997728267E+04 0.  0.
        1    1    3    3  502    0  0.60156733072E+03  0.11059391743E+04 -0.79583109455E+03  0.14894065401E+04  0.50400001928E-02 0.  1.
       -1    1    3    3    0  502 -0.60156733072E+03 -0.11059391743E+04  0.64444050191E+03  0.14143154779E+04  0.50400001928E-02 0. -1.
</event>
<event>
 5   0  0.9443352E-08  0.2901262E+04  0.7818609E-02  0.8272502E-01
        1   -1    0    0  501    0  0.00000000000E+00  0.00000000000E+00  0.17417296993E+04  0.17417296993E+04  0.50400001928E-02 0. -1.
       -1   -1    0    0    0  501  0.00000000000E+00  0.00000000000E+00 -0.12081838798E+04  0.12081838798E+04  0.50400001928E-02 0.  1.
    10030    2    1    2    0    0  0.00000000000E+00  0.00000000000E+00  0.53354581946E+03  0.29499135791E+04  0.29012616191E+04 0.  0.
        4    1    3    3  502    0  0.97103356226E+03  0.15745285892E+03  0.13507798502E+04  0.16710192693E+04  0.12699999809E+01 0. -1.
       -4    1    3    3    0  502 -0.97103356226E+03 -0.15745285892E+03 -0.81723403071E+03  0.12788943098E+04  0.12699999809E+01 0.  1.
</event>
<event>
 5   0  0.2546841E-07  0.2897681E+04  0.7818609E-02  0.8273568E-01
        2   -1    0    0  501    0  0.00000000000E+00  0.00000000000E+00  0.18083258659E+04  0.18083258659E+04  0.25500000920E-02 0.  1.
       -2   -1    0    0    0  501  0.00000000000E+00  0.00000000000E+00 -0.11608191806E+04  0.11608191806E+04  0.25500000920E-02 0. -1.
    10030    2    1    2    0    0  0.00000000000E+00  0.00000000000E+00  0.64750668530E+03  0.29691450466E+04  0.28976813835E+04 0.  0.
        1    1    3    3  502    0  0.39775081829E+03  0.38258705798E+03  0.16964035162E+04  0.17839180083E+04  0.50400001928E-02 0.  1.
       -1    1    3    3    0  502 -0.39775081829E+03 -0.38258705798E+03 -0.10488968309E+04  0.11852270383E+04  0.50400001928E-02 0. -1.
</event>
<event>
 5   0  0.2492232E-07  0.2906781E+04  0.7818609E-02  0.8270863E-01
        2   -1    0    0  501    0  0.00000000000E+00  0.00000000000E+00  0.17433906878E+04  0.17433906878E+04  0.25500000920E-02 0. -1.
       -2   -1    0    0    0  501  0.00000000000E+00  0.00000000000E+00 -0.12116297254E+04  0.12116297254E+04  0.25500000920E-02 0.  1.
    10030    2    1    2    0    0  0.00000000000E+00  0.00000000000E+00  0.53176096240E+03  0.29550204133E+04  0.29067810240E+04 0.  0.
        4    1    3    3  502    0 -0.77986113868E+03  0.68472744925E+02  0.15107307731E+04  0.17015231394E+04  0.12699999809E+01 0. -1.
       -4    1    3    3    0  502  0.77986113868E+03 -0.68472744925E+02 -0.97896981067E+03  0.12534972738E+04  0.12699999809E+01 0.  1.
</event>
<event>
 5   0  0.9388076E-08  0.2900142E+04  0.7818609E-02  0.8272835E-01
        1   -1    0    0  501    0  0.00000000000E+00  0.00000000000E+00  0.23443759776E+04  0.23443759776E+04  0.50400001928E-02 0. -1.
       -1   -1    0    0    0  501  0.00000000000E+00  0.00000000000E+00 -0.89691495172E+03  0.89691495174E+03  0.50400001928E-02 0.  1.
    10030    2    1    2    0    0  0.00000000000E+00  0.00000000000E+00  0.14474610259E+04  0.32412909294E+04  0.29001419736E+04 0.  0.
        5    1    3    3  502    0  0.71112585393E+03 -0.12620711176E+04  0.79581811784E+03  0.16528375760E+04  0.46999998093E+01 0.  1.
       -5    1    3    3    0  502 -0.71112585393E+03  0.12620711176E+04  0.65164290805E+03  0.15884533533E+04  0.46999998093E+01 0. -1.
</event>
<event>
 5   0  0.2546841E-07  0.2900187E+04  0.7818609E-02  0.8272822E-01
        2   -1    0    0  501    0  0.00000000000E+00  0.00000000000E+00  0.11608518583E+04  0.11608518583E+04  0.25500000920E-02 0. -1.
       -2   -1    0    0    0  501  0.00000000000E+00  0.00000000000E+00 -0.18114039239E+04  0.18114039239E+04  0.25500000920E-02 0.  1.
    10030    2    1    2    0    0  0.00000000000E+00  0.00000000000E+00 -0.65055206562E+03  0.29722557823E+04  0.29001873121E+04 0.  0.
        1    1    3    3  502    0  0.12563992865E+04  0.68083522430E+03 -0.57776336935E+03  0.15413910213E+04  0.50400001928E-02 0.  1.
       -1    1    3    3    0  502 -0.12563992865E+04 -0.68083522430E+03 -0.72788696272E+02  0.14308647609E+04  0.50400001928E-02 0. -1.
</event>
<event>
 5   0  0.9763851E-08  0.2899582E+04  0.7818609E-02  0.8273002E-01
       -1   -1    0    0    0  501  0.00000000000E+00  0.00000000000E+00  0.23845079147E+04  0.23845079147E+04  0.50400001928E-02 0.  1.
        1   -1    0    0  501    0  0.00000000000E+00  0.00000000000E+00 -0.88147923427E+03  0.88147923428E+03  0.50400001928E-02 0. -1.
    10030    2    1    2    0    0  0.00000000000E+00  0.00000000000E+00  0.15030286804E+04  0.32659871490E+04  0.28995821842E+04 0.  0.
        3    1    3    3  502    0 -0.85704671176E+03 -0.10567873789E+04  0.13153333914E+04  0.18924667952E+04  0.10100000352E+00 0. -1.
       -3    1    3    3    0  502  0.85704671176E+03  0.10567873789E+04  0.18769528905E+03  0.13735203537E+04  0.10100000352E+00 0.  1.
</event>
<event>
 5   0  0.8407500E-08  0.2919421E+04  0.7818609E-02  0.8267123E-01
        3   -1    0    0  501    0  0.00000000000E+00  0.00000000000E+00  0.18107795292E+04  0.18107795320E+04  0.10100000352E+00 0.  1.
       -3   -1    0    0    0  501  0.00000000000E+00  0.00000000000E+00 -0.11767055111E+04  0.11767055154E+04  0.10100000352E+00 0. -1.
    10030    2    1    2    0    0  0.00000000000E+00  0.00000000000E+00  0.63407401816E+03  0.29874850474E+04  0.29194206699E+04 0.  0.
        1    1    3    3  502    0 -0.88410457643E+03 -0.92864597093E+03  0.10309628939E+04  0.16452685890E+04  0.50400001928E-02 0.  1.
       -1    1    3    3    0  502  0.88410457643E+03  0.92864597093E+03 -0.39688887577E+03  0.13422164584E+04  0.50400001928E-02 0. -1.
</event>
<event>
 5   0  0.9388076E-08  0.2900443E+04  0.7818609E-02  0.8272746E-01
        1   -1    0    0  501    0  0.00000000000E+00  0.00000000000E+00  0.19329087579E+04  0.19329087579E+04  0.50400001928E-02 0.  1.
       -1   -1    0    0    0  501  0.00000000000E+00  0.00000000000E+00 -0.10880713116E+04  0.10880713116E+04  0.50400001928E-02 0. -1.
    10030    2    1    2    0    0  0.00000000000E+00  0.00000000000E+00  0.84483744633E+03  0.30209800695E+04  0.29004431161E+04 0.  0.
        5    1    3    3  502    0 -0.10397933411E+04 -0.96498704803E+03  0.73618589263E+03  0.15982371394E+04  0.46999998093E+01 0.  1.
       -5    1    3    3    0  502  0.10397933411E+04  0.96498704803E+03  0.10865155370E+03  0.14227429301E+04  0.46999998093E+01 0. -1.
</event>
<event>
 5   0  0.8407500E-08  0.2900213E+04  0.7818609E-02  0.8272814E-01
       -4   -1    0    0    0  501  0.00000000000E+00  0.00000000000E+00  0.13531620092E+04  0.13531626052E+04  0.12699999809E+01 0.  1.
        4   -1    0    0  501    0  0.00000000000E+00  0.00000000000E+00 -0.15539953021E+04  0.15539958210E+04  0.12699999809E+01 0. -1.
    10030    2    1    2    0    0  0.00000000000E+00  0.00000000000E+00 -0.20083329285E+03  0.29071584263E+04  0.29002131135E+04 0.  0.
        3    1    3    3  502    0 -0.14207636169E+04  0.91736095701E+02 -0.37643810533E+03  0.14726474201E+04  0.10100000352E+00 0. -1.
       -3    1    3    3    0  502  0.14207636169E+04 -0.91736095701E+02  0.17560481248E+03  0.14345110062E+04  0.10100000352E+00 0.  1.
</event>
<event>
 5   0  0.2678723E-07  0.2896719E+04  0.7818609E-02  0.8273854E-01
        2   -1    0    0  501    0  0.00000000000E+00  0.00000000000E+00  0.22874942849E+04  0.22874942849E+04  0.25500000920E-02 0.  1.
       -2   -1    0    0    0  501  0.00000000000E+00  0.00000000000E+00 -0.91704926255E+03  0.91704926255E+03  0.25500000920E-02 0. -1.
    10030    2    1    2    0    0  0.00000000000E+00  0.00000000000E+00  0.13704450223E+04  0.32045435474E+04  0.28967187969E+04 0.  0.
        5    1    3    3  502    0 -0.50139208378E+03  0.10999392826E+04  0.15677865339E+04  0.19797063300E+04  0.46999998093E+01 0.  1.
       -5    1    3    3    0  502  0.50139208378E+03 -0.10999392826E+04 -0.19734151154E+03  0.12248372175E+04  0.46999998093E+01 0. -1.
</event>
<event>
 5   0  0.2492232E-07  0.2897623E+04  0.7818609E-02  0.8273585E-01
        2   -1    0    0  501    0  0.00000000000E+00  0.00000000000E+00  0.20553423951E+04  0.20553423951E+04  0.25500000920E-02 0. -1.
       -2   -1    0    0    0  501  0.00000000000E+00  0.00000000000E+00 -0.10212674629E+04  0.10212674629E+04  0.25500000920E-02 0.  1.
    10030    2    1    2    0    0  0.00000000000E+00  0.00000000000E+00  0.10340749322E+04  0.30766098579E+04  0.28976226898E+04 0.  0.
        4    1    3    3  502    0 -0.34729443391E+03 -0.10972314852E+04 -0.41739424674E+03  0.12242344245E+04  0.12699999809E+01 0.  1.
       -4    1    3    3    0  502  0.34729443391E+03  0.10972314852E+04  0.14514691789E+04  0.18523754334E+04  0.12699999809E+01 0. -1.
</event>
<event>
 5   0  0.9421924E-08  0.2907764E+04  0.7818609E-02  0.8270571E-01
        1   -1    0    0  501    0  0.00000000000E+00  0.00000000000E+00  0.22139728582E+04  0.22139728582E+04  0.50400001928E-02 0. -1.
       -1   -1    0    0    0  501  0.00000000000E+00  0.00000000000E+00 -0.95474229110E+03  0.95474229111E+03  0.50400001928E-02 0.  1.
    10030    2    1    2    0    0  0.00000000000E+00  0.00000000000E+00  0.12592305671E+04  0.31687151493E+04  0.29077644465E+04 0.  0.
        1    1    3    3  502    0 -0.58047318118E+03 -0.71678418230E+03  0.18543255621E+04  0.20710509333E+04  0.50400001928E-02 0. -1.
       -1    1    3    3    0  502  0.58047318118E+03  0.71678418230E+03 -0.59509499499E+03  0.10976642160E+04  0.50400001928E-02 0.  1.
</event>
<event>
 5   0  0.2678723E-07  0.2892885E+04  0.7818609E-02  0.8274997E-01
       -2   -1    0    0    0  501  0.00000000000E+00  0.00000000000E+00  0.97406353280E+03  0.97406353280E+03  0.25500000920E-02 0.  1.
        2   -1    0    0  501    0  0.00000000000E+00  0.00000000000E+00 -0.21479052248E+04  0.21479052248E+04  0.25500000920E-02 0. -1.
    10030    2    1    2    0    0  0.00000000000E+00  0.00000000000E+00 -0.11738416920E+04  0.31219687576E+04  0.28928851698E+04 0.  0.
        5    1    3    3  502    0 -0.10450296047E+04 -0.57477121258E+03  0.29625196544E+03  0.12289166524E+04  0.46999998093E+01 0.  1.
       -5    1    3    3    0  502  0.10450296047E+04  0.57477121258E+03 -0.14700936575E+04  0.18930521053E+04  0.46999998093E+01 0. -1.
</event>
<event>
 5   0  0.9388076E-08  0.2900745E+04  0.7818609E-02  0.8272656E-01
       -1   -1    0    0    0  501  0.00000000000E+00  0.00000000000E+00  0.12893579795E+04  0.12893579795E+04  0.50400001928E-02 0.  1.
        1   -1    0    0  501    0  0.00000000000E+00  0.00000000000E+00 -0.16314948503E+04  0.16314948503E+04  0.50400001928E-02 0. -1.
    10030    2    1    2    0    0  0.00000000000E+00  0.00000000000E+00 -0.34213687080E+03  0.29208528298E+04  0.29007453550E+04 0.  0.
        5    1    3    3  502    0  0.14349879652E+04 -0.17717515515E+03 -0.28577612705E+03  0.14738628093E+04  0.46999998093E+01 0. -1.
       -5    1    3    3    0  502 -0.14349879652E+04  0.17717515515E+03 -0.56360743750E+02  0.14469900205E+04  0.46999998093E+01 0.  1.
</event>
<event>
 5   0  0.2534588E-07  0.2898261E+04  0.7818609E-02  0.8273395E-01
        2   -1    0    0  501    0  0.00000000000E+00  0.00000000000E+00  0.16841770029E+04  0.16841770029E+04  0.25500000920E-02 0.  1.
       -2   -1    0    0    0  501  0.00000000000E+00  0.00000000000E+00 -0.12468873195E+04  0.12468873195E+04  0.25500000920E-02 0. -1.
    10030    2    1    2    0    0  0.00000000000E+00  0.00000000000E+00  0.43728968342E+03  0.29310643224E+04  0.28982608224E+04 0.  0.
        3    1    3    3  502    0 -0.35254184126E+03  0.24389679335E+03 -0.11812942974E+04  0.12566732364E+04  0.10100000352E+00 0. -1.
       -3    1    3    3    0  502  0.35254184126E+03 -0.24389679335E+03  0.16185839808E+04  0.16743910860E+04  0.10100000352E+00 0.  1.
</event>
<event>
 5   0  0.2678723E-07  0.2900731E+04  0.7818609E-02  0.8272660E-01
        2   -1    0    0  501    0  0.00000000000E+00  0.00000000000E+00  0.19442028324E+04  0.19442028324E+04  0.25500000920E-02 0. -1.
       -2   -1    0    0    0  501  0.00000000000E+00  0.00000000000E+00 -0.10819654790E+04  0.10819654790E+04  0.25500000920E-02 0.  1.
    10030    2    1    2    0    0  0.00000000000E+00  0.00000000000E+00  0.86223735337E+03  0.30261683113E+04  0.29007311828E+04 0.  0.
        5    1    3    3  502    0 -0.79282694049E+03 -0.11885815437E+04  0.69138145824E+03  0.15872400746E+04  0.46999998093E+01 0. -1.
       -5    1    3    3    0  502  0.79282694049E+03  0.11885815437E+04  0.17085589514E+03  0.14389282367E+04  0.46999998093E+01 0.  1.
</event>
<event>
 5   0  0.9443352E-08  0.2899550E+04  0.7818609E-02  0.8273011E-01
       -1   -1    0    0    0  501  0.00000000000E+00  0.00000000000E+00  0.12254835021E+04  0.12254835021E+04  0.50400001928E-02 0. -1.
        1   -1    0    0  501    0  0.00000000000E+00  0.00000000000E+00 -0.17151175455E+04  0.17151175455E+04  0.50400001928E-02 0.  1.
    10030    2    1    2    0    0  0.00000000000E+00  0.00000000000E+00 -0.48963404334E+03  0.29406010476E+04  0.28995504867E+04 0.  0.
        4    1    3    3  502    0  0.79763349607E+03  0.77286238106E+03 -0.11898416598E+04  0.16276548290E+04  0.12699999809E+01 0.  1.
       -4    1    3    3    0  502 -0.79763349607E+03 -0.77286238106E+03  0.70020761641E+03  0.13129462187E+04  0.12699999809E+01 0. -1.
</event>
<event>
 5   0  0.2534588E-07  0.2899498E+04  0.7818609E-02  0.8273027E-01
       -2   -1    0    0    0  501  0.00000000000E+00  0.00000000000E+00  0.18299455876E+04  0.18299455876E+04  0.25500000920E-02 0. -1.
        2   -1    0    0  501    0  0.00000000000E+00  0.00000000000E+00 -0.11485432371E+04  0.11485432371E+04  0.25500000920E-02 0.  1.
    10030    2    1    2    0    0  0.00000000000E+00  0.00000000000E+00  0.68140235055E+03  0.29784888247E+04  0.28994976315E+04 0.  0.
        3    1    3    3  502    0 -0.37808341610E+03 -0.11057175419E+04  0.12221052141E+04  0.16908871981E+04  0.10100000352E+00 0. -1.
       -3    1    3    3    0  502  0.37808341610E+03  0.11057175419E+04 -0.54070286360E+03  0.12876016266E+04  0.10100000352E+00 0.  1.
</event>
<event>
 5   0  0.2608591E-07  0.2899249E+04  0.7818609E-02  0.8273101E-01
       -2   -1    0    0    0  501  0.00000000000E+00  0.00000000000E+00  0.84302568732E+03  0.84302568732E+03  0.25500000920E-02 0. -1.
        2   -1    0    0  501    0  0.00000000000E+00  0.00000000000E+00 -0.24927007093E+04  0.24927007093E+04  0.25500000920E-02 0.  1.
    10030    2    1    2    0    0  0.00000000000E+00  0.00000000000E+00 -0.16496750220E+04  0.33357263967E+04  0.28992486811E+04 0.  0.
        2    1    3    3  502    0  0.67954599951E+02 -0.57079102156E+03 -0.23559710529E+04  0.24250814048E+04  0.25500000920E-02 0.  1.
       -2    1    3    3    0  502 -0.67954599951E+02  0.57079102156E+03  0.70629603087E+03  0.91064499184E+03  0.25500000920E-02 0. -1.
</event>
<event>
 5   0  0.2492232E-07  0.2899788E+04  0.7818609E-02  0.8272941E-01
        2   -1    0    0  501    0  0.00000000000E+00  0.00000000000E+00  0.16008079801E+04  0.16008079801E+04  0.25500000920E-02 0.  1.
       -2   -1    0    0    0  501  0.00000000000E+00  0.00000000000E+00 -0.13132070659E+04  0.13132070659E+04  0.25500000920E-02 0. -1.
    10030    2    1    2    0    0  0.00000000000E+00  0.00000000000E+00  0.28760091422E+03  0.29140150461E+04  0.28997878203E+04 0.  0.
        4    1    3    3  502    0  0.55499228405E+03 -0.11809407803E+04 -0.49140301295E+03  0.13943156372E+04  0.12699999809E+01 0. -1.
       -4    1    3    3    0  502 -0.55499228405E+03  0.11809407803E+04  0.77900392717E+03  0.15196994089E+04  0.12699999809E+01 0.  1.
</event>
<event>
 5   0  0.2534588E-07  0.2899507E+04  0.7818609E-02  0.8273024E-01
       -2   -1    0    0    0  501  0.00000000000E+00  0.00000000000E+00  0.18570749510E+04  0.18570749510E+04  0.25500000920E-02 0.  1.
        2   -1    0    0  501    0  0.00000000000E+00  0.00000000000E+00 -0.11317720298E+04  0.11317720298E+04  0.25500000920E-02 0. -1.
    10030    2    1    2    0    0  0.00000000000E+00  0.00000000000E+00  0.72530292120E+03  0.29888469809E+04  0.28995071905E+04 0.  0.
        3    1    3    3  502    0  0.51468690421E+02 -0.57010657904E+03  0.17356509241E+04  0.18276090058E+04  0.10100000352E+00 0.  1.
       -3    1    3    3    0  502 -0.51468690421E+02  0.57010657904E+03 -0.10103480029E+04  0.11612379751E+04  0.10100000352E+00 0. -1.
</event>
<event>
 5   0  0.2546841E-07  0.2898583E+04  0.7818609E-02  0.8273299E-01
        2   -1    0    0  501    0  0.00000000000E+00  0.00000000000E+00  0.20114941986E+04  0.20114941986E+04  0.25500000920E-02 0.  1.
       -2   -1    0    0    0  501  0.00000000000E+00  0.00000000000E+00 -0.10442215603E+04  0.10442215603E+04  0.25500000920E-02 0. -1.
    10030    2    1    2    0    0  0.00000000000E+00  0.00000000000E+00  0.96727263828E+03  0.30557157589E+04  0.28985828335E+04 0.  0.
        1    1    3    3  502    0  0.68845394593E+03  0.32460802917E+03 -0.81655432088E+03  0.11162885681E+04  0.50400001928E-02 0. -1.
       -1    1    3    3    0  502 -0.68845394593E+03 -0.32460802917E+03  0.17838269592E+04  0.19394271908E+04  0.50400001928E-02 0.  1.
</event>
<event>
 5   0  0.2546841E-07  0.2900105E+04  0.7818609E-02  0.8272846E-01
        2   -1    0    0  501    0  0.00000000000E+00  0.00000000000E+00  0.12986924942E+04  0.12986924942E+04  0.25500000920E-02 0.  1.
       -2   -1    0    0    0  501  0.00000000000E+00  0.00000000000E+00 -0.16190526594E+04  0.16190526594E+04  0.25500000920E-02 0. -1.
    10030    2    1    2    0    0  0.00000000000E+00  0.00000000000E+00 -0.32036016523E+03  0.29177451536E+04  0.29001045061E+04 0.  0.
        1    1    3    3  502    0  0.96943029392E+03 -0.57136124941E+03 -0.10802936573E+04  0.15598984448E+04  0.50400001928E-02 0. -1.
       -1    1    3    3    0  502 -0.96943029392E+03  0.57136124941E+03  0.75993349211E+03  0.13578467088E+04  0.50400001928E-02 0.  1.
</event>
<event>
 5   0  0.9421924E-08  0.2899861E+04  0.7818609E-02  0.8272919E-01
       -1   -1    0    0    0  501  0.00000000000E+00  0.00000000000E+00  0.12282855676E+04  0.12282855676E+04  0.50400001928E-02 0.  1.
        1   -1    0    0  501    0  0.00000000000E+00  0.00000000000E+00 -0.17115714726E+04  0.17115714726E+04  0.50400001928E-02 0. -1.
    10030    2    1    2    0    0  0.00000000000E+00  0.00000000000E+00 -0.48328590499E+03  0.29398570402E+04  0.28998610572E+04 0.  0.
        1    1    3    3  502    0  0.12610173133E+04 -0.60671318241E+02 -0.96453653835E+03  0.15887656867E+04  0.50400001928E-02 0.  1.
       -1    1    3    3    0  502 -0.12610173133E+04  0.60671318241E+02  0.48125063336E+03  0.13510913535E+04  0.50400001928E-02 0. -1.
</event>
<event>
 5   0  0.9395744E-08  0.2901035E+04  0.7818609E-02  0.8272570E-01
       -1   -1    0    0    0  501  0.00000000000E+00  0.00000000000E+00  0.92701634941E+03  0.92701634943E+03  0.50400001928E-02 0. -1.
        1   -1    0    0  501    0  0.00000000000E+00  0.00000000000E+00 -0.22696486079E+04  0.22696486079E+04  0.50400001928E-02 0.  1.
    10030    2    1    2    0    0  0.00000000000E+00  0.00000000000E+00 -0.13426322585E+04  0.31966649573E+04  0.29010352407E+04 0.  0.
        2    1    3    3  502    0  0.52310260039E+02  0.10507340550E+04  0.42905768774E+03  0.11361641242E+04  0.25500000920E-02 0. -1.
       -2    1    3    3    0  502 -0.52310260039E+02 -0.10507340550E+04 -0.17716899462E+04  0.20605008331E+04  0.25500000920E-02 0.  1.
</event>
<event>
 5   0  0.2546841E-07  0.2899167E+04  0.7818609E-02  0.8273125E-01
        2   -1    0    0  501    0  0.00000000000E+00  0.00000000000E+00  0.21374837839E+04  0.21374837839E+04  0.25500000920E-02 0.  1.
       -2   -1    0    0    0  501  0.00000000000E+00  0.00000000000E+00 -0.98306832043E+03  0.98306832043E+03  0.25500000920E-02 0. -1.
    10030    2    1    2    0    0  0.00000000000E+00  0.00000000000E+00  0.11544154635E+04  0.31205521043E+04  0.28991671862E+04 0.  0.
        1    1    3    3  502    0  0.29452120265E+03  0.40143535129E+03 -0.88814676118E+03  0.10181835539E+04  0.50400001928E-02 0. -1.
       -1    1    3    3    0  502 -0.29452120265E+03 -0.40143535129E+03  0.20425622246E+04  0.21023685504E+04  0.50400001928E-02 0.  1.
</event>
<event>
 5   0  0.9388076E-08  0.2900052E+04  0.7818609E-02  0.8272862E-01
       -1   -1    0    0    0  501  0.00000000000E+00  0.00000000000E+00  0.10796470086E+04  0.10796470086E+04  0.50400001928E-02 0. -1.
        1   -1    0    0  501    0  0.00000000000E+00  0.00000000000E+00 -0.19474649699E+04  0.19474649699E+04  0.50400001928E-02 0.  1.
    10030    2    1    2    0    0  0.00000000000E+00  0.00000000000E+00 -0.86781796134E+03  0.30271119785E+04  0.29000515368E+04 0.  0.
        5    1    3    3  502    0 -0.42970626737E+03  0.44799926810E+03  0.93392516410E+03  0.11214228117E+04  0.46999998093E+01 0. -1.
       -5    1    3    3    0  502  0.42970626737E+03 -0.44799926810E+03 -0.18017431254E+04  0.19056891668E+04  0.46999998093E+01 0.  1.
</event>
<event>
 5   0  0.2678723E-07  0.2899364E+04  0.7818609E-02  0.8273067E-01
        2   -1    0    0  501    0  0.00000000000E+00  0.00000000000E+00  0.11984307591E+04  0.11984307591E+04  0.25500000920E-02 0.  1.
       -2   -1    0    0    0  501  0.00000000000E+00  0.00000000000E+00 -0.17536080592E+04  0.17536080592E+04  0.25500000920E-02 0. -1.
    10030    2    1    2    0    0  0.00000000000E+00  0.00000000000E+00 -0.55517730007E+03  0.29520388182E+04  0.28993639561E+04 0.  0.
        5    1    3    3  502    0  0.54172749276E+03  0.13434652477E+04 -0.33507861598E+03  0.14868313008E+04  0.46999998093E+01 0.  1.
       -5    1    3    3    0  502 -0.54172749276E+03 -0.13434652477E+04 -0.22009868409E+03  0.14652075174E+04  0.46999998093E+01 0. -1.
</event>
<event>
 5   0  0.9763851E-08  0.2899098E+04  0.7818609E-02  0.8273146E-01
       -1   -1    0    0    0  501  0.00000000000E+00  0.00000000000E+00  0.12740138687E+04  0.12740138687E+04  0.50400001928E-02 0. -1.
        1   -1    0    0  501    0  0.00000000000E+00  0.00000000000E+00 -0.16492689999E+04  0.16492689999E+04  0.50400001928E-02 0.  1.
    10030    2    1    2    0    0  0.00000000000E+00  0.00000000000E+00 -0.37525513121E+03  0.29232828686E+04  0.28990975003E+04 0.  0.
        3    1    3    3  502    0  0.14069459018E+04  0.18870890911E+03 -0.48347553907E+03  0.14996187615E+04  0.10100000352E+00 0.  1.
       -3    1    3    3    0  502 -0.14069459018E+04 -0.18870890911E+03  0.10822040786E+03  0.14236641071E+04  0.10100000352E+00 0. -1.
</event>
<event>
 5   0  0.2608591E-07  0.2899266E+04  0.7818609E-02  0.8273096E-01
       -2   -1    0    0    0  501  0.00000000000E+00  0.00000000000E+00  0.16215800584E+04  0.16215800584E+04  0.25500000920E-02 0. -1.
        2   -1    0    0  501    0  0.00000000000E+00  0.00000000000E+00 -0.12959186132E+04  0.12959186132E+04  0.25500000920E-02 0.  1.
    10030    2    1    2    0    0  0.00000000000E+00  0.00000000000E+00  0.32566144525E+03  0.29174986716E+04  0.28992659626E+04 0.  0.
        2    1    3    3  502    0 -0.10439614224E+04  0.98877266614E+03  0.34813256617E+03  0.14794333782E+04  0.25500000920E-02 0. -1.
       -2    1    3    3    0  502  0.10439614224E+04 -0.98877266614E+03 -0.22471120919E+02  0.14380652934E+04  0.25500000920E-02 0.  1.
</event>
<event>
 5   0  0.9443352E-08  0.2898897E+04  0.7818609E-02  0.8273206E-01
       -1   -1    0    0    0  501  0.00000000000E+00  0.00000000000E+00  0.78096723284E+03  0.78096723286E+03  0.50400001928E-02 0. -1.
        1   -1    0    0  501    0  0.00000000000E+00  0.00000000000E+00 -0.26901268522E+04  0.26901268522E+04  0.50400001928E-02 0.  1.
    10030    2    1    2    0    0  0.00000000000E+00  0.00000000000E+00 -0.19091596193E+04  0.34710940850E+04  0.28988969790E+04 0.  0.
        4    1    3    3  502    0  0.47155315896E+03 -0.14530917782E+03 -0.25864624276E+04  0.26331096903E+04  0.12699999809E+01 0.  1.
       -4    1    3    3    0  502 -0.47155315896E+03  0.14530917782E+03  0.67730280825E+03  0.83798439475E+03  0.12699999809E+01 0. -1.
</event>
<event>
 5   0  0.9388076E-08  0.2899500E+04  0.7818609E-02  0.8273026E-01
        1   -1    0    0  501    0  0.00000000000E+00  0.00000000000E+00  0.16001933825E+04  0.16001933825E+04  0.50400001928E-02 0.  1.
       -1   -1    0    0    0  501  0.00000000000E+00  0.00000000000E+00 -0.13134510056E+04  0.13134510056E+04  0.50400001928E-02 0. -1.
    10030    2    1    2    0    0  0.00000000000E+00  0.00000000000E+00  0.28674237691E+03  0.29136443882E+04  0.28995003759E+04 0.  0.
        5    1    3    3  502    0  0.87941140040E+03  0.80392597754E+03  0.97328863496E+03  0.15384973986E+04  0.46999998093E+01 0.  1.
       -5    1    3    3    0  502 -0.87941140040E+03 -0.80392597754E+03 -0.68654625804E+03  0.13751469896E+04  0.46999998093E+01 0. -1.
</event>
<event>
 5   0  0.9421924E-08  0.2894062E+04  0.7818609E-02  0.8274646E-01
       -1   -1    0    0    0  501  0.00000000000E+00  0.00000000000E+00  0.86547679957E+03  0.86547679959E+03  0.50400001928E-02 0. -1.
        1   -1    0    0  501    0  0.00000000000E+00  0.00000000000E+00 -0.24193592918E+04  0.24193592918E+04  0.50400001928E-02 0.  1.
    10030    2    1    2    0    0  0.00000000000E+00  0.00000000000E+00 -0.15538824923E+04  0.32848360914E+04  0.28940624298E+04 0.  0.
        1    1    3    3  502    0  0.27332964644E+03  0.71607815601E+03 -0.21700312588E+04  0.23014153657E+04  0.50400001928E-02 0.  1.
       -1    1    3    3    0  502 -0.27332964644E+03 -0.71607815601E+03  0.61614876659E+03  0.98342072570E+03  0.50400001928E-02 0. -1.
</event>
<event>
 5   0  0.9395744E-08  0.2900516E+04  0.7818609E-02  0.8272724E-01
       -1   -1    0    0    0  501  0.00000000000E+00  0.00000000000E+00  0.11017997955E+04  0.11017997955E+04  0.50400001928E-02 0. -1.
        1   -1    0    0  501    0  0.00000000000E+00  0.00000000000E+00 -0.19089200659E+04  0.19089200659E+04  0.50400001928E-02 0.  1.
    10030    2    1    2    0    0  0.00000000000E+00  0.00000000000E+00 -0.80712027040E+03  0.30107198614E+04  0.29005156357E+04 0.  0.
        2    1    3    3  502    0  0.92705572550E+03 -0.11046703750E+04 -0.24437498293E+03  0.14626852320E+04  0.25500000920E-02 0. -1.
       -2    1    3    3    0  502 -0.92705572550E+03  0.11046703750E+04 -0.56274528748E+03  0.15480346295E+04  0.25500000920E-02 0.  1.
</event>
<event>
 5   0  0.2534588E-07  0.2902536E+04  0.7818609E-02  0.8272123E-01
        2   -1    0    0  501    0  0.00000000000E+00  0.00000000000E+00  0.15545058108E+04  0.15545058108E+04  0.25500000920E-02 0.  1.
       -2   -1    0    0    0  501  0.00000000000E+00  0.00000000000E+00 -0.13548864452E+04  0.13548864452E+04  0.25500000920E-02 0. -1.
    10030    2    1    2    0    0  0.00000000000E+00  0.00000000000E+00  0.19961936553E+03  0.29093922560E+04  0.29025360305E+04 0.  0.
        3    1    3    3  502    0  0.73134479245E+03 -0.10309037052E+03 -0.11524154843E+04  0.13687783928E+04  0.10100000352E+00 0. -1.
       -3    1    3    3    0  502 -0.73134479245E+03  0.10309037052E+03  0.13520348499E+04  0.15406138632E+04  0.10100000352E+00 0.  1.
</event>
<event>
 5   0  0.2546841E-07  0.2899555E+04  0.7818609E-02  0.8273010E-01
       -2   -1    0    0    0  501  0.00000000000E+00  0.00000000000E+00  0.90561352843E+03  0.90561352843E+03  0.25500000920E-02 0. -1.
        2   -1    0    0  501    0  0.00000000000E+00  0.00000000000E+00 -0.23209172763E+04  0.23209172763E+04  0.25500000920E-02 0.  1.
    10030    2    1    2    0    0  0.00000000000E+00  0.00000000000E+00 -0.14153037479E+04  0.32265308047E+04  0.28995545063E+04 0.  0.
        1    1    3    3  502    0 -0.12428793515E+04  0.74619274394E+03 -0.68833356018E+03  0.16047915078E+04  0.50400001928E-02 0.  1.
       -1    1    3    3    0  502  0.12428793515E+04 -0.74619274394E+03 -0.72697018768E+03  0.16217392969E+04  0.50400001928E-02 0. -1.
</event>
<event>
 5   0  0.9395744E-08  0.2899859E+04  0.7818609E-02  0.8272919E-01
        1   -1    0    0  501    0  0.00000000000E+00  0.00000000000E+00  0.10594320547E+04  0.10594320547E+04  0.50400001928E-02 0. -1.
       -1   -1    0    0    0  501  0.00000000000E+00  0.00000000000E+00 -0.19843614087E+04  0.19843614088E+04  0.50400001928E-02 0.  1.
    10030    2    1    2    0    0  0.00000000000E+00  0.00000000000E+00 -0.92492935405E+03  0.30437934635E+04  0.28998593653E+04 0.  0.
        2    1    3    3  502    0 -0.12387582799E+04  0.24598734830E+03 -0.12100407011E+04  0.17490655648E+04  0.25500000920E-02 0.  1.
       -2    1    3    3    0  502  0.12387582799E+04 -0.24598734830E+03  0.28511134708E+03  0.12947278987E+04  0.25500000920E-02 0. -1.
</event>
<event>
 5   0  0.9443352E-08  0.2898072E+04  0.7818609E-02  0.8273451E-01
       -1   -1    0    0    0  501  0.00000000000E+00  0.00000000000E+00  0.12403082851E+04  0.12403082851E+04  0.50400001928E-02 0.  1.
        1   -1    0    0  501    0  0.00000000000E+00  0.00000000000E+00 -0.16928903543E+04  0.16928903543E+04  0.50400001928E-02 0. -1.
    10030    2    1    2    0    0  0.00000000000E+00  0.00000000000E+00 -0.45258206925E+03  0.29331986394E+04  0.28980724161E+04 0.  0.
        4    1    3    3  502    0 -0.14248062159E+04 -0.22301925905E+03 -0.83535471692E+02  0.14445726464E+04  0.12699999809E+01 0. -1.
       -4    1    3    3    0  502  0.14248062159E+04  0.22301925905E+03 -0.36904659756E+03  0.14886259930E+04  0.12699999809E+01 0.  1.
</event>
<event>
 5   0  0.9763851E-08  0.2899438E+04  0.7818609E-02  0.8273045E-01
       -1   -1    0    0    0  501  0.00000000000E+00  0.00000000000E+00  0.10737127850E+04  0.10737127851E+04  0.50400001928E-02 0. -1.
        1   -1    0    0  501    0  0.00000000000E+00  0.00000000000E+00 -0.19573993659E+04  0.19573993660E+04  0.50400001928E-02 0.  1.
    10030    2    1    2    0    0  0.00000000000E+00  0.00000000000E+00 -0.88368658090E+03  0.30311121510E+04  0.28994376866E+04 0.  0.
        3    1    3    3  502    0 -0.10039737114E+04 -0.99312318748E+03 -0.78449005821E+03  0.16154508783E+04  0.10100000352E+00 0. -1.
       -3    1    3    3    0  502  0.10039737114E+04  0.99312318748E+03 -0.99196522692E+02  0.14156612727E+04  0.10100000352E+00 0.  1.
</event>
<event>
 5   0  0.9443352E-08  0.2901309E+04  0.7818609E-02  0.8272488E-01
       -1   -1    0    0    0  501  0.00000000000E+00  0.00000000000E+00  0.17995060323E+04  0.17995060323E+04  0.50400001928E-02 0.  1.
        1   -1    0    0  501    0  0.00000000000E+00  0.00000000000E+00 -0.11694312106E+04  0.11694312106E+04  0.50400001928E-02 0. -1.
    10030    2    1    2    0    0  0.00000000000E+00  0.00000000000E+00  0.63007482165E+03  0.29689372429E+04  0.29013090272E+04 0.  0.
        4    1    3    3  502    0 -0.30076779278E+03 -0.14002532564E+04  0.55112372418E+03  0.15345714123E+04  0.12699999809E+01 0.  1.
       -4    1    3    3    0  502  0.30076779278E+03  0.14002532564E+04  0.78951097477E+02  0.14343658306E+04  0.12699999809E+01 0. -1.
</event>
<event>
 5   0  0.2608591E-07  0.2899903E+04  0.7818609E-02  0.8272906E-01
       -2   -1    0    0    0  501  0.00000000000E+00  0.00000000000E+00  0.71164542566E+03  0.71164542567E+03  0.25500000920E-02 0. -1.
        2   -1    0    0  501    0  0.00000000000E+00  0.00000000000E+00 -0.29542237560E+04  0.29542237560E+04  0.25500000920E-02 0.  1.
    10030    2    1    2    0    0  0.00000000000E+00  0.00000000000E+00 -0.22425783303E+04  0.36658691816E+04  0.28999033241E+04 0.  0.
        2    1    3    3  502    0  0.75130814282E+03 -0.90908002919E+03 -0.21875698820E+04  0.24852268335E+04  0.25500000920E-02 0.  1.
       -2    1    3    3    0  502 -0.75130814282E+03  0.90908002919E+03 -0.55008448270E+02  0.11806423482E+04  0.25500000920E-02 0. -1.
</event>
<event>
 5   0  0.2546841E-07  0.2903912E+04  0.7818609E-02  0.8271714E-01
       -2   -1    0    0    0  501  0.00000000000E+00  0.00000000000E+00  0.10342424263E+04  0.10342424263E+04  0.25500000920E-02 0.  1.
        2   -1    0    0  501    0  0.00000000000E+00  0.00000000000E+00 -0.20383776216E+04  0.20383776216E+04  0.25500000920E-02 0. -1.
    10030    2    1    2    0    0  0.00000000000E+00  0.00000000000E+00 -0.10041351953E+04  0.30726200478E+04  0.29039122693E+04 0.  0.
        1    1    3    3  502    0 -0.73085952014E+02 -0.10481234091E+04  0.55828700907E+03  0.11897851157E+04  0.50400001928E-02 0.  1.
       -1    1    3    3    0  502  0.73085952014E+02  0.10481234091E+04 -0.15624222044E+04  0.18828349321E+04  0.50400001928E-02 0. -1.
</event>
<event>
 5   0  0.9421924E-08  0.2898895E+04  0.7818609E-02  0.8273206E-01
        1   -1    0    0  501    0  0.00000000000E+00  0.00000000000E+00  0.16803174404E+04  0.16803174405E+04  0.50400001928E-02 0. -1.
       -1   -1    0    0    0  501  0.00000000000E+00  0.00000000000E+00 -0.12502987320E+04  0.12502987320E+04  0.50400001928E-02 0.  1.
    10030    2    1    2    0    0  0.00000000000E+00  0.00000000000E+00  0.43001870846E+03  0.29306161725E+04  0.28988954898E+04 0.  0.
        1    1    3    3  502    0  0.12376401914E+04  0.44519556844E+03 -0.40070882989E+03  0.13749617827E+04  0.50400001928E-02 0.  1.
       -1    1    3    3    0  502 -0.12376401914E+04 -0.44519556844E+03  0.83072753835E+03  0.15556543898E+04  0.50400001928E-02 0. -1.
</event>
<event>
 5   0  0.2608591E-07  0.2900639E+04  0.7818609E-02  0.8272687E-01
       -2   -1    0    0    0  501  0.00000000000E+00  0.00000000000E+00  0.12159889349E+04  0.12159889349E+04  0.25500000920E-02 0. -1.
        2   -1    0    0  501    0  0.00000000000E+00  0.00000000000E+00 -0.17298070532E+04  0.17298070532E+04  0.25500000920E-02 0.  1.
    10030    2    1    2    0    0  0.00000000000E+00  0.00000000000E+00 -0.51381811831E+03  0.29457959881E+04  0.29006387133E+04 0.  0.
        2    1    3    3  502    0 -0.12059674973E+03 -0.78912367749E+02 -0.17225167861E+04  0.17285354542E+04  0.25500000920E-02 0.  1.
       -2    1    3    3    0  502  0.12059674973E+03  0.78912367749E+02  0.12086986678E+04  0.12172605339E+04  0.25500000920E-02 0. -1.
</event>
<event>
 5   0  0.9763851E-08  0.2900308E+04  0.7818609E-02  0.8272786E-01
        1   -1    0    0  501    0  0.00000000000E+00  0.00000000000E+00  0.24574815786E+04  0.24574815786E+04  0.50400001928E-02 0.  1.
       -1   -1    0    0    0  501  0.00000000000E+00  0.00000000000E+00 -0.85573237122E+03  0.85573237123E+03  0.50400001928E-02 0. -1.
    10030    2    1    2    0    0  0.00000000000E+00  0.00000000000E+00  0.16017492074E+04  0.33132139499E+04  0.29003079413E+04 0.  0.
        3    1    3    3  502    0 -0.67788848149E+03 -0.12045758496E+04  0.13019695749E+04  0.18988576974E+04  0.10100000352E+00 0.  1.
       -3    1    3    3    0  502  0.67788848149E+03  0.12045758496E+04  0.29977963249E+03  0.14143562525E+04  0.10100000352E+00 0. -1.
</event>
<event>
 5   0  0.2546841E-07  0.2899472E+04  0.7818609E-02  0.8273035E-01
        2   -1    0    0  501    0  0.00000000000E+00  0.00000000000E+00  0.18767835346E+04  0.18767835346E+04  0.25500000920E-02 0. -1.
       -2   -1    0    0    0  501  0.00000000000E+00  0.00000000000E+00 -0.11198599388E+04  0.11198599388E+04  0.25500000920E-02 0.  1.
    10030    2    1    2    0    0  0.00000000000E+00  0.00000000000E+00  0.75692359580E+03  0.29966434735E+04  0.28994721550E+04 0.  0.
        1    1    3    3  502    0  0.85847289413E+03  0.89404154160E+03 -0.39870231990E+03  0.13020174837E+04  0.50400001928E-02 0.  1.
       -1    1    3    3    0  502 -0.85847289413E+03 -0.89404154160E+03  0.11556259157E+04  0.16946259897E+04  0.50400001928E-02 0. -1.
</event>
<event>
 5   0  0.9763851E-08  0.2900023E+04  0.7818609E-02  0.8272871E-01
       -1   -1    0    0    0  501  0.00000000000E+00  0.00000000000E+00  0.17120195247E+04  0.17120195247E+04  0.50400001928E-02 0. -1.
        1   -1    0    0  501    0  0.00000000000E+00  0.00000000000E+00 -0.12281009499E+04  0.12281009500E+04  0.50400001928E-02 0.  1.
    10030    2    1    2    0    0  0.00000000000E+00  0.00000000000E+00  0.48391857477E+03  0.29401204747E+04  0.29000226238E+04 0.  0.
        3    1    3    3  502    0 -0.20294349717E+01 -0.12152559025E+04  0.10438967282E+04  0.16020522515E+04  0.10100000352E+00 0. -1.
       -3    1    3    3    0  502  0.20294349717E+01  0.12152559025E+04 -0.55997815344E+03  0.13380682231E+04  0.10100000352E+00 0.  1.
</event>
<event>
 5   0  0.2678723E-07  0.2900033E+04  0.7818609E-02  0.8272868E-01
       -2   -1    0    0    0  501  0.00000000000E+00  0.00000000000E+00  0.25957337923E+04  0.25957337923E+04  0.25500000920E-02 0. -1.
        2   -1    0    0  501    0  0.00000000000E+00  0.00000000000E+00 -0.81000152545E+03  0.81000152546E+03  0.25500000920E-02 0.  1.
    10030    2    1    2    0    0  0.00000000000E+00  0.00000000000E+00  0.17857322668E+04  0.34057353177E+04  0.29000333318E+04 0.  0.
        5    1    3    3  502    0  0.12551096049E+02 -0.62396866387E+03  0.24299254169E+04  0.25087953375E+04  0.46999998093E+01 0. -1.
       -5    1    3    3    0  502 -0.12551096049E+02  0.62396866387E+03 -0.64419315012E+03  0.89693998025E+03  0.46999998093E+01 0.  1.
</event>
<event>
 5   0  0.2546841E-07  0.2900466E+04  0.7818609E-02  0.8272739E-01
       -2   -1    0    0    0  501  0.00000000000E+00  0.00000000000E+00  0.11302069197E+04  0.11302069197E+04  0.25500000920E-02 0.  1.
        2   -1    0    0  501    0  0.00000000000E+00  0.00000000000E+00 -0.18608764899E+04  0.18608764899E+04  0.25500000920E-02 0. -1.
    10030    2    1    2    0    0  0.00000000000E+00  0.00000000000E+00 -0.73066957021E+03  0.29910834095E+04  0.29004658147E+04 0.  0.
        1    1    3    3  502    0  0.57093342877E+03  0.57092211767E+03  0.87698428583E+03  0.11920647978E+04  0.50400001928E-02 0.  1.
       -1    1    3    3    0  502 -0.57093342877E+03 -0.57092211767E+03 -0.16076538560E+04  0.17990186117E+04  0.50400001928E-02 0. -1.
</event>
<event>
 5   0  0.9395744E-08  0.2899858E+04  0.7818609E-02  0.8272920E-01
       -1   -1    0    0    0  501  0.00000000000E+00  0.00000000000E+00  0.29745834499E+04  0.29745834499E+04  0.50400001928E-02 0. -1.
        1   -1    0    0  501    0  0.00000000000E+00  0.00000000000E+00 -0.70675263756E+03  0.70675263758E+03  0.50400001928E-02 0.  1.
    10030    2    1    2    0    0  0.00000000000E+00  0.00000000000E+00  0.22678308124E+04  0.36813360875E+04  0.28998584096E+04 0.  0.
        2    1    3    3  502    0 -0.52666710639E+03 -0.13227953729E+04  0.14818776101E+04  0.20550248395E+04  0.25500000920E-02 0.  1.
       -2    1    3    3    0  502  0.52666710639E+03  0.13227953729E+04  0.78595320226E+03  0.16263112481E+04  0.25500000920E-02 0. -1.
</event>
<event>
 5   0  0.2608591E-07  0.2898906E+04  0.7818609E-02  0.8273203E-01
        2   -1    0    0  501    0  0.00000000000E+00  0.00000000000E+00  0.10777093725E+04  0.10777093725E+04  0.25500000920E-02 0.  1.
       -2   -1    0    0    0  501  0.00000000000E+00  0.00000000000E+00 -0.19494260276E+04  0.19494260276E+04  0.25500000920E-02 0. -1.
    10030    2    1    2    0    0  0.00000000000E+00  0.00000000000E+00 -0.87171665507E+03  0.30271354000E+04  0.28989064841E+04 0.  0.
        2    1    3    3  502    0 -0.11810108540E+04  0.17196604910E+03  0.42305518112E+03  0.12662285124E+04  0.25500000920E-02 0.  1.
       -2    1    3    3    0  502  0.11810108540E+04 -0.17196604910E+03 -0.12947718362E+04  0.17609068877E+04  0.25500000920E-02 0. -1.
</event>
<event>
 5   0  0.2546841E-07  0.2899363E+04  0.7818609E-02  0.8273067E-01
       -2   -1    0    0    0  501  0.00000000000E+00  0.00000000000E+00  0.11743919197E+04  0.11743919197E+04  0.25500000920E-02 0. -1.
        2   -1    0    0  501    0  0.00000000000E+00  0.00000000000E+00 -0.17895024038E+04  0.17895024038E+04  0.25500000920E-02 0.  1.
    10030    2    1    2    0    0  0.00000000000E+00  0.00000000000E+00 -0.61511048408E+03  0.29638943235E+04  0.28993634910E+04 0.  0.
        1    1    3    3  502    0  0.12746228747E+04  0.67132041314E+03 -0.47315642119E+03  0.15163151285E+04  0.50400001928E-02 0.  1.
       -1    1    3    3    0  502 -0.12746228747E+04 -0.67132041314E+03 -0.14195406290E+03  0.14475791950E+04  0.50400001928E-02 0. -1.
</event>
<event>
 5   0  0.9395744E-08  0.2899035E+04  0.7818609E-02  0.8273165E-01
        1   -1    0    0  501    0  0.00000000000E+00  0.00000000000E+00  0.22031442413E+04  0.22031442413E+04  0.50400001928E-02 0. -1.
       -1   -1    0    0    0  501  0.00000000000E+00  0.00000000000E+00 -0.95368305407E+03  0.95368305408E+03  0.50400001928E-02 0.  1.
    10030    2    1    2    0    0  0.00000000000E+00  0.00000000000E+00  0.12494611872E+04  0.31568272954E+04  0.28990352386E+04 0.  0.
        2    1    3    3  502    0 -0.25890161404E+03 -0.10255176555E+04  0.17040205868E+04  0.20055928469E+04  0.25500000920E-02 0. -1.
       -2    1    3    3    0  502  0.25890161404E+03  0.10255176555E+04 -0.45455939959E+03  0.11512344484E+04  0.25500000920E-02 0.  1.
</event>
<event>
 5   0  0.9443352E-08  0.2901464E+04  0.7818609E-02  0.8272442E-01
       -1   -1    0    0    0  501  0.00000000000E+00  0.00000000000E+00  0.13303233750E+04  0.13303233750E+04  0.50400001928E-02 0.  1.
        1   -1    0    0  501    0  0.00000000000E+00  0.00000000000E+00 -0.15820393041E+04  0.15820393041E+04  0.50400001928E-02 0. -1.
    10030    2    1    2    0    0  0.00000000000E+00  0.00000000000E+00 -0.25171592911E+03  0.29123626792E+04  0.29014643658E+04 0.  0.
        4    1    3    3  502    0 -0.92971068981E+03  0.54412155324E+03 -0.11012032279E+04  0.15404805723E+04  0.12699999809E+01 0. -1.
       -4    1    3    3    0  502  0.92971068981E+03 -0.54412155324E+03  0.84948729881E+03  0.13718821069E+04  0.12699999809E+01 0.  1.
</event>
<event>
 5   0  0.2678723E-07  0.2902421E+04  0.7818609E-02  0.8272157E-01
       -2   -1    0    0    0  501  0.00000000000E+00  0.00000000000E+00  0.11818870858E+04  0.11818870858E+04  0.25500000920E-02 0. -1.
        2   -1    0    0  501    0  0.00000000000E+00  0.00000000000E+00 -0.17819064353E+04  0.17819064353E+04  0.25500000920E-02 0.  1.
    10030    2    1    2    0    0  0.00000000000E+00  0.00000000000E+00 -0.60001934950E+03  0.29637935211E+04  0.29024211989E+04 0.  0.
        5    1    3    3  502    0 -0.42230465631E+03 -0.54014516343E+03  0.10060554523E+04  0.12174841615E+04  0.46999998093E+01 0. -1.
       -5    1    3    3    0  502  0.42230465631E+03  0.54014516343E+03 -0.16060748018E+04  0.17463093596E+04  0.46999998093E+01 0.  1.
</event>
<event>
 5   0  0.9388076E-08  0.2899106E+04  0.7818609E-02  0.8273144E-01
       -1   -1    0    0    0  501  0.00000000000E+00  0.00000000000E+00  0.72567865663E+03  0.72567865665E+03  0.50400001928E-02 0.  1.
        1   -1    0    0  501    0  0.00000000000E+00  0.00000000000E+00 -0.28955013092E+04  0.28955013092E+04  0.50400001928E-02 0. -1.
    10030    2    1    2    0    0  0.00000000000E+00  0.00000000000E+00 -0.21698226526E+04  0.36211799659E+04  0.28991057244E+04 0.  0.
        5    1    3    3  502    0  0.41892907978E+03 -0.65475553042E+03  0.44333490646E+03  0.89485993753E+03  0.46999998093E+01 0.  1.
       -5    1    3    3    0  502 -0.41892907978E+03  0.65475553042E+03 -0.26131575590E+04  0.27263200283E+04  0.46999998093E+01 0. -1.
</event>
<event>
 5   0  0.9763851E-08  0.2902030E+04  0.7818609E-02  0.8272274E-01
        1   -1    0    0  501    0  0.00000000000E+00  0.00000000000E+00  0.28203150683E+04  0.28203150683E+04  0.50400001928E-02 0.  1.
       -1   -1    0    0    0  501  0.00000000000E+00  0.00000000000E+00 -0.74652837130E+03  0.74652837132E+03  0.50400001928E-02 0. -1.
    10030    2    1    2    0    0  0.00000000000E+00  0.00000000000E+00  0.20737866970E+04  0.35668434396E+04  0.29020304716E+04 0.  0.
        3    1    3    3  502    0  0.46133091775E+03 -0.13398106463E+04  0.65305954326E+03  0.15602581712E+04  0.10100000352E+00 0. -1.
       -3    1    3    3    0  502 -0.46133091775E+03  0.13398106463E+04  0.14207271538E+04  0.20065852684E+04  0.10100000352E+00 0.  1.
</event>
<event>
 5   0  0.2534588E-07  0.2900233E+04  0.7818609E-02  0.8272808E-01
        2   -1    0    0  501    0  0.00000000000E+00  0.00000000000E+00  0.28559369510E+04  0.28559369510E+04  0.25500000920E-02 0.  1.
       -2   -1    0    0    0  501  0.00000000000E+00  0.00000000000E+00 -0.73630425777E+03  0.73630425777E+03  0.25500000920E-02 0. -1.
    10030    2    1    2    0    0  0.00000000000E+00  0.00000000000E+00  0.21196326932E+04  0.35922412087E+04  0.29002334643E+04 0.  0.
        3    1    3    3  502    0 -0.96196033782E+03  0.84722054935E+03  0.22003891760E+03  0.13006027396E+04  0.10100000352E+00 0. -1.
       -3    1    3    3    0  502  0.96196033782E+03 -0.84722054935E+03  0.18995937756E+04  0.22916384691E+04  0.10100000352E+00 0.  1.
</event>
<event>
 5   0  0.2678723E-07  0.2899208E+04  0.7818609E-02  0.8273113E-01
       -2   -1    0    0    0  501  0.00000000000E+00  0.00000000000E+00  0.24183874795E+04  0.24183874796E+04  0.25500000920E-02 0.  1.
        2   -1    0    0  501    0  0.00000000000E+00  0.00000000000E+00 -0.86890594424E+03  0.86890594424E+03  0.25500000920E-02 0. -1.
    10030    2    1    2    0    0  0.00000000000E+00  0.00000000000E+00  0.15494815353E+04  0.32872934238E+04  0.28992076548E+04 0.  0.
        5    1    3    3  502    0 -0.69424502209E+03  0.78427829963E+03 -0.36153135757E+03  0.11080593912E+04  0.46999998093E+01 0. -1.
       -5    1    3    3    0  502  0.69424502209E+03 -0.78427829963E+03  0.19110128929E+04  0.21792340326E+04  0.46999998093E+01 0.  1.
</event>
<event>
 5   0  0.9388076E-08  0.2899716E+04  0.7818609E-02  0.8272962E-01
        1   -1    0    0  501    0  0.00000000000E+00  0.00000000000E+00  0.25058438687E+04  0.25058438687E+04  0.50400001928E-02 0.  1.
       -1   -1    0    0    0  501  0.00000000000E+00  0.00000000000E+00 -0.83887443770E+03  0.83887443771E+03  0.50400001928E-02 0. -1.
    10030    2    1    2    0    0  0.00000000000E+00  0.00000000000E+00  0.16669694310E+04  0.33447183064E+04  0.28997161008E+04 0.  0.
        5    1    3    3  502    0 -0.60152730153E+03 -0.32657387727E+03  0.23077456650E+04  0.24071139849E+04  0.46999998093E+01 0.  1.
       -5    1    3    3    0  502  0.60152730153E+03  0.32657387727E+03 -0.64077623398E+03  0.93760432157E+03  0.46999998093E+01 0. -1.
</event>
<event>
 5   0  0.9395744E-08  0.2899501E+04  0.7818609E-02  0.8273026E-01
        1   -1    0    0  501    0  0.00000000000E+00  0.00000000000E+00  0.13454582238E+04  0.13454582238E+04  0.50400001928E-02 0. -1.
       -1   -1    0    0    0  501  0.00000000000E+00  0.00000000000E+00 -0.15621268077E+04  0.15621268077E+04  0.50400001928E-02 0.  1.
    10030    2    1    2    0    0  0.00000000000E+00  0.00000000000E+00 -0.21666858390E+03  0.29075850315E+04  0.28995008950E+04 0.  0.
        2    1    3    3  502    0  0.52154030625E+03 -0.79867129234E+03  0.98644960643E+03  0.13722109715E+04  0.25500000920E-02 0. -1.
       -2    1    3    3    0  502 -0.52154030625E+03  0.79867129234E+03 -0.12031181903E+04  0.15353740600E+04  0.25500000920E-02 0.  1.
</event>
<event>
 5   0  0.2492232E-07  0.2899094E+04  0.7818609E-02  0.8273147E-01
        2   -1    0    0  501    0  0.00000000000E+00  0.00000000000E+00  0.19869934004E+04  0.19869934004E+04  0.25500000920E-02 0. -1.
       -2   -1    0    0    0  501  0.00000000000E+00  0.00000000000E+00 -0.10574705047E+04  0.10574705047E+04  0.25500000920E-02 0.  1.
    10030    2    1    2    0    0  0.00000000000E+00  0.00000000000E+00  0.92952289569E+03  0.30444639051E+04  0.28990942820E+04 0.  0.
        4    1    3    3  502    0 -0.62320231471E+03  0.69416350507E+03  0.16298720247E+04  0.18779586062E+04  0.12699999809E+01 0. -1.
       -4    1    3    3    0  502  0.62320231471E+03 -0.69416350507E+03 -0.70034912902E+03  0.11665052989E+04  0.12699999809E+01 0.  1.
</event>
<event>
 5   0  0.2678723E-07  0.2899541E+04  0.7818609E-02  0.8273014E-01
        2   -1    0    0  501    0  0.00000000000E+00  0.00000000000E+00  0.84795263179E+03  0.84795263179E+03  0.25500000920E-02 0. -1.
       -2   -1    0    0    0  501  0.00000000000E+00  0.00000000000E+00 -0.24787172729E+04  0.24787172729E+04  0.25500000920E-02 0.  1.
    10030    2    1    2    0    0  0.00000000000E+00  0.00000000000E+00 -0.16307646411E+04  0.33266699047E+04  0.28995412293E+04 0.  0.
        5    1    3    3  502    0  0.61367998498E+03 -0.13065840728E+04 -0.66125091688E+03  0.15877782995E+04  0.46999998093E+01 0. -1.
       -5    1    3    3    0  502 -0.61367998498E+03  0.13065840728E+04 -0.96951372425E+03  0.17388916052E+04  0.46999998093E+01 0.  1.
</event>
<event>
 5   0  0.9421924E-08  0.2898955E+04  0.7818609E-02  0.8273188E-01
        1   -1    0    0  501    0  0.00000000000E+00  0.00000000000E+00  0.94031262739E+03  0.94031262740E+03  0.50400001928E-02 0. -1.
       -1   -1    0    0    0  501  0.00000000000E+00  0.00000000000E+00 -0.22343480122E+04  0.22343480122E+04  0.50400001928E-02 0.  1.
    10030    2    1    2    0    0  0.00000000000E+00  0.00000000000E+00 -0.12940353848E+04  0.31746606396E+04  0.28989554325E+04 0.  0.
        1    1    3    3  502    0 -0.34562822362E+03 -0.40594593985E+03 -0.21230692299E+04  0.21889892485E+04  0.50400001928E-02 0.  1.
       -1    1    3    3    0  502  0.34562822362E+03  0.40594593985E+03  0.82903384506E+03  0.98567139115E+03  0.50400001928E-02 0. -1.
</event>
<event>
 5   0  0.2608591E-07  0.2899766E+04  0.7818609E-02  0.8272947E-01
        2   -1    0    0  501    0  0.00000000000E+00  0.00000000000E+00  0.98025805698E+03  0.98025805698E+03  0.25500000920E-02 0.  1.
       -2   -1    0    0    0  501  0.00000000000E+00  0.00000000000E+00 -0.21444965593E+04  0.21444965593E+04  0.25500000920E-02 0. -1.
    10030    2    1    2    0    0  0.00000000000E+00  0.00000000000E+00 -0.11642385023E+04  0.31247546163E+04  0.28997655287E+04 0.  0.
        2    1    3    3  502    0 -0.83748389451E+03 -0.10470974585E+04  0.12381345526E+02  0.13408749602E+04  0.25500000920E-02 0.  1.
       -2    1    3    3    0  502  0.83748389451E+03  0.10470974585E+04 -0.11766198478E+04  0.17838796561E+04  0.25500000920E-02 0. -1.
</event>
<event>
 5   0  0.9395744E-08  0.2900110E+04  0.7818609E-02  0.8272845E-01
       -1   -1    0    0    0  501  0.00000000000E+00  0.00000000000E+00  0.10027143763E+04  0.10027143763E+04  0.50400001928E-02 0. -1.
        1   -1    0    0  501    0  0.00000000000E+00  0.00000000000E+00 -0.20969679697E+04  0.20969679697E+04  0.50400001928E-02 0.  1.
    10030    2    1    2    0    0  0.00000000000E+00  0.00000000000E+00 -0.10942535934E+04  0.30996823459E+04  0.29001102943E+04 0.  0.
        2    1    3    3  502    0 -0.10501927321E+03 -0.12136058921E+04  0.29363871184E+03  0.12530331210E+04  0.25500000920E-02 0. -1.
       -2    1    3    3    0  502  0.10501927321E+03  0.12136058921E+04 -0.13878923053E+04  0.18466492250E+04  0.25500000920E-02 0.  1.
</event>
<event>
 5   0  0.2546841E-07  0.2898700E+04  0.7818609E-02  0.8273264E-01
        2   -1    0    0  501    0  0.00000000000E+00  0.00000000000E+00  0.15579274401E+04  0.15579274401E+04  0.25500000920E-02 0.  1.
       -2   -1    0    0    0  501  0.00000000000E+00  0.00000000000E+00 -0.13483394670E+04  0.13483394670E+04  0.25500000920E-02 0. -1.
    10030    2    1    2    0    0  0.00000000000E+00  0.00000000000E+00  0.20958797317E+03  0.29062669071E+04  0.28986997459E+04 0.  0.
        1    1    3    3  502    0  0.98846561291E+03  0.86206632076E+03 -0.51357571984E+03  0.14085391827E+04  0.50400001928E-02 0. -1.
       -1    1    3    3    0  502 -0.98846561291E+03 -0.86206632076E+03  0.72316369301E+03  0.14977277243E+04  0.50400001928E-02 0.  1.
</event>
<event>
 5   0  0.9763851E-08  0.2900591E+04  0.7818609E-02  0.8272702E-01
       -1   -1    0    0    0  501  0.00000000000E+00  0.00000000000E+00  0.81146598684E+03  0.81146598685E+03  0.50400001928E-02 0.  1.
        1   -1    0    0  501    0  0.00000000000E+00  0.00000000000E+00 -0.25920462716E+04  0.25920462716E+04  0.50400001928E-02 0. -1.
    10030    2    1    2    0    0  0.00000000000E+00  0.00000000000E+00 -0.17805802848E+04  0.34035122585E+04  0.29005912403E+04 0.  0.
        3    1    3    3  502    0  0.11013454767E+04 -0.64686699023E+03 -0.16963972424E+04  0.21234788382E+04  0.10100000352E+00 0. -1.
       -3    1    3    3    0  502 -0.11013454767E+04  0.64686699023E+03 -0.84183042369E+02  0.12800334202E+04  0.10100000352E+00 0.  1.
</event>
<event>
 5   0  0.9763851E-08  0.2888793E+04  0.7818609E-02  0.8276220E-01
       -1   -1    0    0    0  501  0.00000000000E+00  0.00000000000E+00  0.24649558595E+04  0.24649558595E+04  0.50400001928E-02 0.  1.
        1   -1    0    0  501    0  0.00000000000E+00  0.00000000000E+00 -0.84637689961E+03  0.84637689962E+03  0.50400001928E-02 0. -1.
    10030    2    1    2    0    0  0.00000000000E+00  0.00000000000E+00  0.16185789599E+04  0.33113327591E+04  0.28887933108E+04 0.  0.
        3    1    3    3  502    0 -0.11446505753E+03 -0.14329557756E+04  0.97065372984E+03  0.17345412009E+04  0.10100000352E+00 0.  1.
       -3    1    3    3    0  502  0.11446505753E+03  0.14329557756E+04  0.64792523004E+03  0.15767915582E+04  0.10100000352E+00 0. -1.
</event>
<event>
 5   0  0.2492232E-07  0.2899531E+04  0.7818609E-02  0.8273017E-01
        2   -1    0    0  501    0  0.00000000000E+00  0.00000000000E+00  0.13102514844E+04  0.13102514844E+04  0.25500000920E-02 0.  1.
       -2   -1    0    0    0  501  0.00000000000E+00  0.00000000000E+00 -0.16041351634E+04  0.16041351634E+04  0.25500000920E-02 0. -1.
    10030    2    1    2    0    0  0.00000000000E+00  0.00000000000E+00 -0.29388367900E+03  0.29143866478E+04  0.28995313270E+04 0.  0.
        4    1    3    3  502    0  0.17022348804E+02  0.13783783521E+04  0.30435991601E+03  0.14116845304E+04  0.12699999809E+01 0. -1.
       -4    1    3    3    0  502 -0.17022348804E+02 -0.13783783521E+04 -0.59824359501E+03  0.15027021175E+04  0.12699999809E+01 0.  1.
</event>
<event>
 5   0  0.2546841E-07  0.2900824E+04  0.7818609E-02  0.8272632E-01
        2   -1    0    0  501    0  0.00000000000E+00  0.00000000000E+00  0.18305650444E+04  0.18305650444E+04  0.25500000920E-02 0.  1.
       -2   -1    0    0    0  501  0.00000000000E+00  0.00000000000E+00 -0.11492053532E+04  0.11492053532E+04  0.25500000920E-02 0. -1.
    10030    2    1    2    0    0  0.00000000000E+00  0.00000000000E+00  0.68135969127E+03  0.29797703976E+04  0.29008241232E+04 0.  0.
        1    1    3    3  502    0  0.13837997473E+04  0.14632757128E+03 -0.79577511416E+02  0.13937883910E+04  0.50400001928E-02 0. -1.
       -1    1    3    3    0  502 -0.13837997473E+04 -0.14632757128E+03  0.76093720268E+03  0.15859820066E+04  0.50400001928E-02 0.  1.
</event>
<event>
 5   0  0.9395744E-08  0.2900187E+04  0.7818609E-02  0.8272822E-01
       -1   -1    0    0    0  501  0.00000000000E+00  0.00000000000E+00  0.14968652080E+04  0.14968652080E+04  0.50400001928E-02 0. -1.
        1   -1    0    0  501    0  0.00000000000E+00  0.00000000000E+00 -0.14047831452E+04  0.14047831452E+04  0.50400001928E-02 0.  1.
    10030    2    1    2    0    0  0.00000000000E+00  0.00000000000E+00  0.92082062770E+02  0.29016483532E+04  0.29001869008E+04 0.  0.
        2    1    3    3  502    0  0.67063327766E+03 -0.13944801894E+03  0.13247994367E+04  0.14914048044E+04  0.25500000920E-02 0. -1.
       -2    1    3    3    0  502 -0.67063327766E+03  0.13944801894E+03 -0.12327173739E+04  0.14102435488E+04  0.25500000920E-02 0.  1.
</event>
<event>
 5   0  0.9443352E-08  0.2899690E+04  0.7818609E-02  0.8272970E-01
        1   -1    0    0  501    0  0.00000000000E+00  0.00000000000E+00  0.19941725528E+04  0.19941725528E+04  0.50400001928E-02 0.  1.
       -1   -1    0    0    0  501  0.00000000000E+00  0.00000000000E+00 -0.10540964821E+04  0.10540964821E+04  0.50400001928E-02 0. -1.
    10030    2    1    2    0    0  0.00000000000E+00  0.00000000000E+00  0.94007607076E+03  0.30482690349E+04  0.28996898265E+04 0.  0.
        4    1    3    3  502    0 -0.11495776762E+04  0.37620411570E+02 -0.45785863117E+03  0.12379742598E+04  0.12699999809E+01 0. -1.
       -4    1    3    3    0  502  0.11495776762E+04 -0.37620411570E+02  0.13979347019E+04  0.18102947751E+04  0.12699999809E+01 0.  1.
</event>
<event>
 5   0  0.9388076E-08  0.2899601E+04  0.7818609E-02  0.8272996E-01
        1   -1    0    0  501    0  0.00000000000E+00  0.00000000000E+00  0.11899736687E+04  0.11899736687E+04  0.50400001928E-02 0. -1.
       -1   -1    0    0    0  501  0.00000000000E+00  0.00000000000E+00 -0.17663601636E+04  0.17663601636E+04  0.50400001928E-02 0.  1.
    10030    2    1    2    0    0  0.00000000000E+00  0.00000000000E+00 -0.57638649489E+03  0.29563338324E+04  0.28996014100E+04 0.  0.
        5    1    3    3  502    0  0.10886242326E+04  0.45801635030E+03 -0.11454886562E+04  0.16453109276E+04  0.46999998093E+01 0.  1.
       -5    1    3    3    0  502 -0.10886242326E+04 -0.45801635030E+03  0.56910216131E+03  0.13110229048E+04  0.46999998093E+01 0. -1.
</event>
<event>
 5   0  0.2608591E-07  0.2899582E+04  0.7818609E-02  0.8273002E-01
        2   -1    0    0  501    0  0.00000000000E+00  0.00000000000E+00  0.21098709266E+04  0.21098709266E+04  0.25500000920E-02 0. -1.
       -2   -1    0    0    0  501  0.00000000000E+00  0.00000000000E+00 -0.99621889365E+03  0.99621889365E+03  0.25500000920E-02 0.  1.
    10030    2    1    2    0    0  0.00000000000E+00  0.00000000000E+00  0.11136520330E+04  0.31060898203E+04  0.28995815424E+04 0.  0.
        2    1    3    3  502    0 -0.10146201595E+04 -0.59672963918E+03 -0.34982929587E+03  0.12279742940E+04  0.25500000920E-02 0.  1.
       -2    1    3    3    0  502  0.10146201595E+04  0.59672963918E+03  0.14634813288E+04  0.18781155263E+04  0.25500000920E-02 0. -1.
</event>
<event>
 5   0  0.9443352E-08  0.2899951E+04  0.7818609E-02  0.8272892E-01
       -1   -1    0    0    0  501  0.00000000000E+00  0.00000000000E+00  0.10869921194E+04  0.10869921194E+04  0.50400001928E-02 0.  1.
        1   -1    0    0  501    0  0.00000000000E+00  0.00000000000E+00 -0.19341714853E+04  0.19341714853E+04  0.50400001928E-02 0. -1.
    10030    2    1    2    0    0  0.00000000000E+00  0.00000000000E+00 -0.84717936588E+03  0.30211636047E+04  0.28999511458E+04 0.  0.
        4    1    3    3  502    0 -0.10250591044E+04  0.82475310134E+03  0.21136357323E+03  0.13325314326E+04  0.12699999809E+01 0.  1.
       -4    1    3    3    0  502  0.10250591044E+04 -0.82475310134E+03 -0.10585429391E+04  0.16886321721E+04  0.12699999809E+01 0. -1.
</event>
<event>
 5   0  0.2678723E-07  0.2902962E+04  0.7818609E-02  0.8271997E-01
        2   -1    0    0  501    0  0.00000000000E+00  0.00000000000E+00  0.11704172710E+04  0.11704172710E+04  0.25500000920E-02 0.  1.
       -2   -1    0    0    0  501  0.00000000000E+00  0.00000000000E+00 -0.18000391850E+04  0.18000391850E+04  0.25500000920E-02 0. -1.
    10030    2    1    2    0    0  0.00000000000E+00  0.00000000000E+00 -0.62962191405E+03  0.29704564561E+04  0.29029619017E+04 0.  0.
        5    1    3    3  502    0 -0.88372028612E+03 -0.73041388492E+03 -0.12256237335E+04  0.16782853195E+04  0.46999998093E+01 0. -1.
       -5    1    3    3    0  502  0.88372028612E+03  0.73041388492E+03  0.59600181948E+03  0.12921711366E+04  0.46999998093E+01 0.  1.
</event>
<event>
 5   0  0.9388076E-08  0.2899302E+04  0.7818609E-02  0.8273085E-01
        1   -1    0    0  501    0  0.00000000000E+00  0.00000000000E+00  0.17002468788E+04  0.17002468788E+04  0.50400001928E-02 0.  1.
       -1   -1    0    0    0  501  0.00000000000E+00  0.00000000000E+00 -0.12359899460E+04  0.12359899460E+04  0.50400001928E-02 0. -1.
    10030    2    1    2    0    0  0.00000000000E+00  0.00000000000E+00  0.46425693280E+03  0.29362368247E+04  0.28993020179E+04 0.  0.
        5    1    3    3  502    0 -0.10856915974E+03  0.63412451592E+03  0.15477405432E+04  0.16761336591E+04  0.46999998093E+01 0.  1.
       -5    1    3    3    0  502  0.10856915974E+03 -0.63412451592E+03 -0.10834836104E+04  0.12601031656E+04  0.46999998093E+01 0. -1.
</event>
<event>
 5   0  0.9421924E-08  0.2900328E+04  0.7818609E-02  0.8272780E-01
       -1   -1    0    0    0  501  0.00000000000E+00  0.00000000000E+00  0.15644083305E+04  0.15644083305E+04  0.50400001928E-02 0. -1.
        1   -1    0    0  501    0  0.00000000000E+00  0.00000000000E+00 -0.13442625940E+04  0.13442625940E+04  0.50400001928E-02 0.  1.
    10030    2    1    2    0    0  0.00000000000E+00  0.00000000000E+00  0.22014573646E+03  0.29086709245E+04  0.29003279818E+04 0.  0.
        1    1    3    3  502    0  0.98521523029E+03 -0.43396820545E+03  0.10844633838E+04  0.15280832059E+04  0.50400001928E-02 0. -1.
       -1    1    3    3    0  502 -0.98521523029E+03  0.43396820545E+03 -0.86431764732E+03  0.13805877186E+04  0.50400001928E-02 0.  1.
</event>
<event>
 5   0  0.2608591E-07  0.2899629E+04  0.7818609E-02  0.8272988E-01
        2   -1    0    0  501    0  0.00000000000E+00  0.00000000000E+00  0.16689203493E+04  0.16689203493E+04  0.25500000920E-02 0. -1.
       -2   -1    0    0    0  501  0.00000000000E+00  0.00000000000E+00 -0.12594742398E+04  0.12594742398E+04  0.25500000920E-02 0.  1.
    10030    2    1    2    0    0  0.00000000000E+00  0.00000000000E+00  0.40944610944E+03  0.29283945891E+04  0.28996290716E+04 0.  0.
        2    1    3    3  502    0 -0.30873770443E+03 -0.23431885082E+03  0.16156284608E+04  0.16614691142E+04  0.25500000920E-02 0. -1.
       -2    1    3    3    0  502  0.30873770443E+03  0.23431885082E+03 -0.12061823514E+04  0.12669254749E+04  0.25500000920E-02 0.  1.
</event>
<event>
 5   0  0.9388076E-08  0.2899807E+04  0.7818609E-02  0.8272935E-01
        1   -1    0    0  501    0  0.00000000000E+00  0.00000000000E+00  0.10392567679E+04  0.10392567679E+04  0.50400001928E-02 0.  1.
       -1   -1    0    0    0  501  0.00000000000E+00  0.00000000000E+00 -0.20228115312E+04  0.20228115312E+04  0.50400001928E-02 0. -1.
    10030    2    1    2    0    0  0.00000000000E+00  0.00000000000E+00 -0.98355476322E+03  0.30620682991E+04  0.28998072860E+04 0.  0.
        5    1    3    3  502    0  0.11391524586E+04 -0.89451408135E+03 -0.42193471883E+03  0.15086002660E+04  0.46999998093E+01 0. -1.
       -5    1    3    3    0  502 -0.11391524586E+04  0.89451408135E+03 -0.56162004439E+03  0.15534680331E+04  0.46999998093E+01 0.  1.
</event>
<event>
 5   0  0.2546841E-07  0.2899921E+04  0.7818609E-02  0.8272901E-01
       -2   -1    0    0    0  501  0.00000000000E+00  0.00000000000E+00  0.85262631953E+03  0.85262631953E+03  0.25500000920E-02 0.  1.
        2   -1    0    0  501    0  0.00000000000E+00  0.00000000000E+00 -0.24657766937E+04  0.24657766937E+04  0.25500000920E-02 0. -1.
    10030    2    1    2    0    0  0.00000000000E+00  0.00000000000E+00 -0.16131503742E+04  0.33184030132E+04  0.28999214521E+04 0.  0.
        1    1    3    3  502    0 -0.84312515995E+03 -0.77091754937E+03 -0.18282904086E+04  0.21558802661E+04  0.50400001928E-02 0. -1.
       -1    1    3    3    0  502  0.84312515995E+03  0.77091754937E+03  0.21514003446E+03  0.11625227472E+04  0.50400001928E-02 0.  1.
</event>
<event>
 5   0  0.9421924E-08  0.2900021E+04  0.7818609E-02  0.8272871E-01
       -1   -1    0    0    0  501  0.00000000000E+00  0.00000000000E+00  0.91312238613E+03  0.91312238614E+03  0.50400001928E-02 0.  1.
        1   -1    0    0  501    0  0.00000000000E+00  0.00000000000E+00 -0.23025718049E+04  0.23025718049E+04  0.50400001928E-02 0. -1.
    10030    2    1    2    0    0  0.00000000000E+00  0.00000000000E+00 -0.13894494188E+04  0.32156941910E+04  0.29000205935E+04 0.  0.
        1    1    3    3  502    0  0.24732698699E+03  0.51584659189E+02  0.88852761304E+03  0.92374938956E+03  0.50400001928E-02 0.  1.
       -1    1    3    3    0  502 -0.24732698699E+03 -0.51584659189E+02 -0.22779770318E+04  0.22919448015E+04  0.50400001928E-02 0. -1.
</event>
<event>
 5   0  0.9395744E-08  0.2898412E+04  0.7818609E-02  0.8273350E-01
       -1   -1    0    0    0  501  0.00000000000E+00  0.00000000000E+00  0.18298290849E+04  0.18298290849E+04  0.50400001928E-02 0. -1.
        1   -1    0    0  501    0  0.00000000000E+00  0.00000000000E+00 -0.11477564092E+04  0.11477564093E+04  0.50400001928E-02 0.  1.
    10030    2    1    2    0    0  0.00000000000E+00  0.00000000000E+00  0.68207267569E+03  0.29775854942E+04  0.28984120204E+04 0.  0.
        2    1    3    3  502    0  0.85133158533E+03  0.11641345323E+04  0.19494279631E+03  0.14553272386E+04  0.25500000920E-02 0. -1.
       -2    1    3    3    0  502 -0.85133158533E+03 -0.11641345323E+04  0.48712987937E+03  0.15222582556E+04  0.25500000920E-02 0.  1.
</event>
<event>
 5   0  0.2492232E-07  0.2901281E+04  0.7818609E-02  0.8272496E-01
        2   -1    0    0  501    0  0.00000000000E+00  0.00000000000E+00  0.24017763067E+04  0.24017763067E+04  0.25500000920E-02 0. -1.
       -2   -1    0    0    0  501  0.00000000000E+00  0.00000000000E+00 -0.87616740663E+03  0.87616740663E+03  0.25500000920E-02 0.  1.
    10030    2    1    2    0    0  0.00000000000E+00  0.00000000000E+00  0.15256089001E+04  0.32779437133E+04  0.29012811777E+04 0.  0.
        4    1    3    3  502    0 -0.17553062022E+03  0.16868027384E+03  0.23785320601E+04  0.23909580521E+04  0.12699999809E+01 0. -1.
       -4    1    3    3    0  502  0.17553062022E+03 -0.16868027384E+03 -0.85292315999E+03  0.88698566120E+03  0.12699999809E+01 0.  1.
</event>
<event>
 5   0  0.2608591E-07  0.2899452E+04  0.7818609E-02  0.8273040E-01
       -2   -1    0    0    0  501  0.00000000000E+00  0.00000000000E+00  0.18161459533E+04  0.18161459533E+04  0.25500000920E-02 0.  1.
        2   -1    0    0  501    0  0.00000000000E+00  0.00000000000E+00 -0.11572340094E+04  0.11572340094E+04  0.25500000920E-02 0. -1.
    10030    2    1    2    0    0  0.00000000000E+00  0.00000000000E+00  0.65891194397E+03  0.29733799627E+04  0.28994522677E+04 0.  0.
        2    1    3    3  502    0 -0.12232333282E+04  0.72127975507E+03  0.62872127020E+03  0.15530082729E+04  0.25500000920E-02 0. -1.
       -2    1    3    3    0  502  0.12232333282E+04 -0.72127975507E+03  0.30190673770E+02  0.14203716897E+04  0.25500000920E-02 0.  1.
</event>
<event>
 5   0  0.2492232E-07  0.2901585E+04  0.7818609E-02  0.8272406E-01
       -2   -1    0    0    0  501  0.00000000000E+00  0.00000000000E+00  0.11834656964E+04  0.11834656964E+04  0.25500000920E-02 0.  1.
        2   -1    0    0  501    0  0.00000000000E+00  0.00000000000E+00 -0.17785049336E+04  0.17785049336E+04  0.25500000920E-02 0. -1.
    10030    2    1    2    0    0  0.00000000000E+00  0.00000000000E+00 -0.59503923724E+03  0.29619706300E+04  0.29015854837E+04 0.  0.
        4    1    3    3  502    0  0.49446176293E+02 -0.49621275597E+03 -0.16882697144E+04  0.17603773075E+04  0.12699999809E+01 0. -1.
       -4    1    3    3    0  502 -0.49446176293E+02  0.49621275597E+03  0.10932304771E+04  0.12015933225E+04  0.12699999809E+01 0.  1.
</event>
<event>
 5   0  0.9395744E-08  0.2900799E+04  0.7818609E-02  0.8272640E-01
        1   -1    0    0  501    0  0.00000000000E+00  0.00000000000E+00  0.21096372340E+04  0.21096372340E+04  0.50400001928E-02 0. -1.
       -1   -1    0    0    0  501  0.00000000000E+00  0.00000000000E+00 -0.99716632581E+03  0.99716632582E+03  0.50400001928E-02 0.  1.
    10030    2    1    2    0    0  0.00000000000E+00  0.00000000000E+00  0.11124709082E+04  0.31068035598E+04  0.29007993446E+04 0.  0.
        2    1    3    3  502    0  0.44396105549E+03 -0.16602804986E+03 -0.91187464494E+03  0.10277072055E+04  0.25500000920E-02 0.  1.
       -2    1    3    3    0  502 -0.44396105549E+03  0.16602804986E+03  0.20243455531E+04  0.20790963543E+04  0.25500000920E-02 0. -1.
</event>
<event>
 5   0  0.2546841E-07  0.2899571E+04  0.7818609E-02  0.8273005E-01
       -2   -1    0    0    0  501  0.00000000000E+00  0.00000000000E+00  0.15356909985E+04  0.15356909985E+04  0.25500000920E-02 0. -1.
        2   -1    0    0  501    0  0.00000000000E+00  0.00000000000E+00 -0.13686850719E+04  0.13686850719E+04  0.25500000920E-02 0.  1.
    10030    2    1    2    0    0  0.00000000000E+00  0.00000000000E+00  0.16700592652E+03  0.29043760704E+04  0.28995705508E+04 0.  0.
        1    1    3    3  502    0 -0.28123131479E+03  0.16037989326E+03 -0.13320144765E+04  0.13707936855E+04  0.50400001928E-02 0.  1.
       -1    1    3    3    0  502  0.28123131479E+03 -0.16037989326E+03  0.14990204030E+04  0.15335823849E+04  0.50400001928E-02 0. -1.
</event>
<event>
 5   0  0.9443352E-08  0.2900572E+04  0.7818609E-02  0.8272707E-01
       -1   -1    0    0    0  501  0.00000000000E+00  0.00000000000E+00  0.12037973702E+04  0.12037973703E+04  0.50400001928E-02 0. -1.
        1   -1    0    0  501    0  0.00000000000E+00  0.00000000000E+00 -0.17472458357E+04  0.17472458357E+04  0.50400001928E-02 0.  1.
    10030    2    1    2    0    0  0.00000000000E+00  0.00000000000E+00 -0.54344846547E+03  0.29510432060E+04  0.29005723175E+04 0.  0.
        4    1    3    3  502    0  0.47745214979E+03 -0.83723907581E+03 -0.13742775870E+04  0.16785619811E+04  0.12699999809E+01 0.  1.
       -4    1    3    3    0  502 -0.47745214979E+03  0.83723907581E+03  0.83082912157E+03  0.12724812248E+04  0.12699999809E+01 0. -1.
</event>
<event>
 5   0  0.9395744E-08  0.2897712E+04  0.7818609E-02  0.8273559E-01
       -1   -1    0    0    0  501  0.00000000000E+00  0.00000000000E+00  0.72589817309E+03  0.72589817311E+03  0.50400001928E-02 0. -1.
        1   -1    0    0  501    0  0.00000000000E+00  0.00000000000E+00 -0.28918430436E+04  0.28918430436E+04  0.50400001928E-02 0.  1.
    10030    2    1    2    0    0  0.00000000000E+00  0.00000000000E+00 -0.21659448705E+04  0.36177412167E+04  0.28977119127E+04 0.  0.
        2    1    3    3  502    0 -0.34404018727E+03  0.37159961142E+03  0.61180852406E+03  0.79420374703E+03  0.25500000920E-02 0. -1.
       -2    1    3    3    0  502  0.34404018727E+03 -0.37159961142E+03 -0.27777533946E+04  0.28235374697E+04  0.25500000920E-02 0.  1.
</event>
<event>
 5   0  0.9421924E-08  0.2900563E+04  0.7818609E-02  0.8272710E-01
        1   -1    0    0  501    0  0.00000000000E+00  0.00000000000E+00  0.15830246378E+04  0.15830246379E+04  0.50400001928E-02 0. -1.
       -1   -1    0    0    0  501  0.00000000000E+00  0.00000000000E+00 -0.13286694062E+04  0.13286694062E+04  0.50400001928E-02 0.  1.
    10030    2    1    2    0    0  0.00000000000E+00  0.00000000000E+00  0.25435523165E+03  0.29116940441E+04  0.29005629837E+04 0.  0.
        1    1    3    3  502    0  0.35540897675E+03  0.13986835698E+04  0.27155282701E+03  0.14684591268E+04  0.50400001928E-02 0. -1.
       -1    1    3    3    0  502 -0.35540897675E+03 -0.13986835698E+04 -0.17197595359E+02  0.14432349173E+04  0.50400001928E-02 0.  1.
</event>
<event>
 5   0  0.2546841E-07  0.2896991E+04  0.7818609E-02  0.8273773E-01
       -2   -1    0    0    0  501  0.00000000000E+00  0.00000000000E+00  0.12993864311E+04  0.12993864311E+04  0.25500000920E-02 0. -1.
        2   -1    0    0  501    0  0.00000000000E+00  0.00000000000E+00 -0.16147155585E+04  0.16147155585E+04  0.25500000920E-02 0.  1.
    10030    2    1    2    0    0  0.00000000000E+00  0.00000000000E+00 -0.31532912743E+03  0.29141019896E+04  0.28969911886E+04 0.  0.
        1    1    3    3  502    0 -0.22689939188E+03  0.60669670748E+02  0.12801045034E+04  0.13014728898E+04  0.50400001928E-02 0. -1.
       -1    1    3    3    0  502  0.22689939188E+03 -0.60669670748E+02 -0.15954336309E+04  0.16126290998E+04  0.50400001928E-02 0.  1.
</event>
<event>
 5   0  0.9763851E-08  0.2901915E+04  0.7818609E-02  0.8272308E-01
        1   -1    0    0  501    0  0.00000000000E+00  0.00000000000E+00  0.11336718398E+04  0.11336718398E+04  0.50400001928E-02 0. -1.
       -1   -1    0    0    0  501  0.00000000000E+00  0.00000000000E+00 -0.18570426459E+04  0.18570426460E+04  0.50400001928E-02 0.  1.
    10030    2    1    2    0    0  0.00000000000E+00  0.00000000000E+00 -0.72337080612E+03  0.29907144858E+04  0.29019145081E+04 0.  0.
        3    1    3    3  502    0  0.63515448545E+03  0.56931808980E+03 -0.15713718459E+04  0.17879468102E+04  0.10100000352E+00 0.  1.
       -3    1    3    3    0  502 -0.63515448545E+03 -0.56931808980E+03  0.84800103979E+03  0.12027676756E+04  0.10100000352E+00 0. -1.
</event>
<event>
 5   0  0.9388076E-08  0.2899581E+04  0.7818609E-02  0.8273002E-01
       -1   -1    0    0    0  501  0.00000000000E+00  0.00000000000E+00  0.12503664135E+04  0.12503664135E+04  0.50400001928E-02 0.  1.
        1   -1    0    0  501    0  0.00000000000E+00  0.00000000000E+00 -0.16810211772E+04  0.16810211772E+04  0.50400001928E-02 0. -1.
    10030    2    1    2    0    0  0.00000000000E+00  0.00000000000E+00 -0.43065476377E+03  0.29313875907E+04  0.28995809493E+04 0.  0.
        5    1    3    3  502    0 -0.92880732553E+03 -0.53487133292E+02 -0.13394264310E+04  0.16308369555E+04  0.46999998093E+01 0. -1.
       -5    1    3    3    0  502  0.92880732553E+03  0.53487133292E+02  0.90877166728E+03  0.13005506352E+04  0.46999998093E+01 0.  1.
</event>
<event>
 5   0  0.9763851E-08  0.2899293E+04  0.7818609E-02  0.8273088E-01
       -1   -1    0    0    0  501  0.00000000000E+00  0.00000000000E+00  0.87552752281E+03  0.87552752282E+03  0.50400001928E-02 0.  1.
        1   -1    0    0  501    0  0.00000000000E+00  0.00000000000E+00 -0.24002381147E+04  0.24002381147E+04  0.50400001928E-02 0. -1.
    10030    2    1    2    0    0  0.00000000000E+00  0.00000000000E+00 -0.15247105919E+04  0.32757656376E+04  0.28992926936E+04 0.  0.
        3    1    3    3  502    0  0.10190697816E+04  0.13923720683E+03  0.39185390076E+03  0.11006542187E+04  0.10100000352E+00 0.  1.
       -3    1    3    3    0  502 -0.10190697816E+04 -0.13923720683E+03 -0.19165644927E+04  0.21751114188E+04  0.10100000352E+00 0. -1.
</event>
<event>
 5   0  0.2608591E-07  0.2898142E+04  0.7818609E-02  0.8273431E-01
        2   -1    0    0  501    0  0.00000000000E+00  0.00000000000E+00  0.15691655257E+04  0.15691655257E+04  0.25500000920E-02 0. -1.
       -2   -1    0    0    0  501  0.00000000000E+00  0.00000000000E+00 -0.13381675363E+04  0.13381675363E+04  0.25500000920E-02 0.  1.
    10030    2    1    2    0    0  0.00000000000E+00  0.00000000000E+00  0.23099798939E+03  0.29073330621E+04  0.28981417258E+04 0.  0.
        2    1    3    3  502    0  0.72433423420E+03 -0.12218487686E+04 -0.17217145301E+03  0.14308100871E+04  0.25500000920E-02 0.  1.
       -2    1    3    3    0  502 -0.72433423420E+03  0.12218487686E+04  0.40316944241E+03  0.14765229749E+04  0.25500000920E-02 0. -1.
</event>
<event>
 5   0  0.2608591E-07  0.2900591E+04  0.7818609E-02  0.8272702E-01
       -2   -1    0    0    0  501  0.00000000000E+00  0.00000000000E+00  0.10381333402E+04  0.10381333402E+04  0.25500000920E-02 0.  1.
        2   -1    0    0  501    0  0.00000000000E+00  0.00000000000E+00 -0.20260948070E+04  0.20260948070E+04  0.25500000920E-02 0. -1.
    10030    2    1    2    0    0  0.00000000000E+00  0.00000000000E+00 -0.98796146679E+03  0.30642281471E+04  0.29005906774E+04 0.  0.
        2    1    3    3  502    0 -0.12680428587E+04 -0.65816559021E+03 -0.75753872496E+03  0.16170898415E+04  0.25500000920E-02 0. -1.
       -2    1    3    3    0  502  0.12680428587E+04  0.65816559021E+03 -0.23042274184E+03  0.14471383056E+04  0.25500000920E-02 0.  1.
</event>
<event>
 5   0  0.2492232E-07  0.2893003E+04  0.7818609E-02  0.8274962E-01
       -2   -1    0    0    0  501  0.00000000000E+00  0.00000000000E+00  0.78958981933E+03  0.78958981934E+03  0.25500000920E-02 0.  1.
        2   -1    0    0  501    0  0.00000000000E+00  0.00000000000E+00 -0.26499420807E+04  0.26499420807E+04  0.25500000920E-02 0. -1.
    10030    2    1    2    0    0  0.00000000000E+00  0.00000000000E+00 -0.18603522614E+04  0.34395319001E+04  0.28930034834E+04 0.  0.
        4    1    3    3  502    0  0.23688665682E+03  0.13234094050E+03 -0.26194115436E+04  0.26334289169E+04  0.12699999809E+01 0. -1.
       -4    1    3    3    0  502 -0.23688665682E+03 -0.13234094050E+03  0.75905928219E+03  0.80610298318E+03  0.12699999809E+01 0.  1.
</event>
<event>
 5   0  0.9763851E-08  0.2899316E+04  0.7818609E-02  0.8273081E-01
        1   -1    0    0  501    0  0.00000000000E+00  0.00000000000E+00  0.19840306925E+04  0.19840306925E+04  0.50400001928E-02 0. -1.
       -1   -1    0    0    0  501  0.00000000000E+00  0.00000000000E+00 -0.10592113826E+04  0.10592113826E+04  0.50400001928E-02 0.  1.
    10030    2    1    2    0    0  0.00000000000E+00  0.00000000000E+00  0.92481930991E+03  0.30432420751E+04  0.28993157075E+04 0.  0.
        3    1    3    3  502    0  0.12350577088E+04  0.10406340548E+03  0.12516054556E+04  0.17614519474E+04  0.10100000352E+00 0. -1.
       -3    1    3    3    0  502 -0.12350577088E+04 -0.10406340548E+03 -0.32678614568E+03  0.12817901277E+04  0.10100000352E+00 0.  1.
</event>
<event>
 5   0  0.9443352E-08  0.2900011E+04  0.7818609E-02  0.8272874E-01
        1   -1    0    0  501    0  0.00000000000E+00  0.00000000000E+00  0.12779993661E+04  0.12779993661E+04  0.50400001928E-02 0. -1.
       -1   -1    0    0    0  501  0.00000000000E+00  0.00000000000E+00 -0.16451614346E+04  0.16451614346E+04  0.50400001928E-02 0.  1.
    10030    2    1    2    0    0  0.00000000000E+00  0.00000000000E+00 -0.36716206850E+03  0.29231608007E+04  0.29000105314E+04 0.  0.
        4    1    3    3  502    0  0.73840935949E+03 -0.39717934674E+03 -0.13760352966E+04  0.16113579882E+04  0.12699999809E+01 0.  1.
       -4    1    3    3    0  502 -0.73840935949E+03  0.39717934674E+03  0.10088732281E+04  0.13118028125E+04  0.12699999809E+01 0. -1.
</event>
<event>
 5   0  0.2678723E-07  0.2899574E+04  0.7818609E-02  0.8273004E-01
       -2   -1    0    0    0  501  0.00000000000E+00  0.00000000000E+00  0.14314672636E+04  0.14314672636E+04  0.25500000920E-02 0.  1.
        2   -1    0    0  501    0  0.00000000000E+00  0.00000000000E+00 -0.14683415747E+04  0.14683415747E+04  0.25500000920E-02 0. -1.
    10030    2    1    2    0    0  0.00000000000E+00  0.00000000000E+00 -0.36874311056E+02  0.28998088383E+04  0.28995743798E+04 0.  0.
        5    1    3    3  502    0 -0.50571576261E+03 -0.27808581474E+03  0.13116255161E+04  0.14329911854E+04  0.46999998093E+01 0.  1.
       -5    1    3    3    0  502  0.50571576261E+03  0.27808581474E+03 -0.13484998272E+04  0.14668176529E+04  0.46999998093E+01 0. -1.
</event>
<event>
 5   0  0.9388076E-08  0.2899566E+04  0.7818609E-02  0.8273007E-01
       -1   -1    0    0    0  501  0.00000000000E+00  0.00000000000E+00  0.14123635602E+04  0.14123635602E+04  0.50400001928E-02 0.  1.
        1   -1    0    0  501    0  0.00000000000E+00  0.00000000000E+00 -0.14881933327E+04  0.14881933327E+04  0.50400001928E-02 0. -1.
    10030    2    1    2    0    0  0.00000000000E+00  0.00000000000E+00 -0.75829772443E+02  0.29005568929E+04  0.28995655079E+04 0.  0.
        5    1    3    3  502    0  0.87120212834E+03 -0.40087010640E+03  0.10497277343E+04  0.14218440129E+04  0.46999998093E+01 0.  1.
       -5    1    3    3    0  502 -0.87120212834E+03  0.40087010640E+03 -0.11255575068E+04  0.14787128801E+04  0.46999998093E+01 0. -1.
</event>
<event>
 5   0  0.9395744E-08  0.2899725E+04  0.7818609E-02  0.8272959E-01
        1   -1    0    0  501    0  0.00000000000E+00  0.00000000000E+00  0.26338184517E+04  0.26338184517E+04  0.50400001928E-02 0.  1.
       -1   -1    0    0    0  501  0.00000000000E+00  0.00000000000E+00 -0.79811902336E+03  0.79811902337E+03  0.50400001928E-02 0. -1.
    10030    2    1    2    0    0  0.00000000000E+00  0.00000000000E+00  0.18356994283E+04  0.34319374751E+04  0.28997245458E+04 0.  0.
        2    1    3    3  502    0  0.68146452890E+02 -0.51107277174E+02 -0.79515492924E+03  0.79970447937E+03  0.25500000920E-02 0. -1.
       -2    1    3    3    0  502 -0.68146452890E+02  0.51107277174E+02  0.26308543576E+04  0.26322329957E+04  0.25500000920E-02 0.  1.
</event>
<event>
 5   0  0.2534588E-07  0.2900429E+04  0.7818609E-02  0.8272750E-01
       -2   -1    0    0    0  501  0.00000000000E+00  0.00000000000E+00  0.18803117169E+04  0.18803117169E+04  0.25500000920E-02 0. -1.
        2   -1    0    0  501    0  0.00000000000E+00  0.00000000000E+00 -0.11184967861E+04  0.11184967861E+04  0.25500000920E-02 0.  1.
    10030    2    1    2    0    0  0.00000000000E+00  0.00000000000E+00  0.76181493081E+03  0.29988085030E+04  0.29004293560E+04 0.  0.
        3    1    3    3  502    0 -0.82762873148E+03  0.30281086222E+03  0.15716924099E+04  0.18019103132E+04  0.10100000352E+00 0. -1.
       -3    1    3    3    0  502  0.82762873148E+03 -0.30281086222E+03 -0.80987747906E+03  0.11968981898E+04  0.10100000352E+00 0.  1.
</event>
<event>
 5   0  0.9763851E-08  0.2899864E+04  0.7818609E-02  0.8272918E-01
        1   -1    0    0  501    0  0.00000000000E+00  0.00000000000E+00  0.18142731634E+04  0.18142731634E+04  0.50400001928E-02 0. -1.
       -1   -1    0    0    0  501  0.00000000000E+00  0.00000000000E+00 -0.11587577164E+04  0.11587577164E+04  0.50400001928E-02 0.  1.
    10030    2    1    2    0    0  0.00000000000E+00  0.00000000000E+00  0.65551544703E+03  0.29730308798E+04  0.28998641539E+04 0.  0.
        3    1    3    3  502    0  0.40925509382E+03  0.26283966081E+03  0.17281380499E+04  0.17952814678E+04  0.10100000352E+00 0. -1.
       -3    1    3    3    0  502 -0.40925509382E+03 -0.26283966081E+03 -0.10726226029E+04  0.11777494120E+04  0.10100000352E+00 0.  1.
</event>
<event>
 5   0  0.9763851E-08  0.2899831E+04  0.7818609E-02  0.8272928E-01
        1   -1    0    0  501    0  0.00000000000E+00  0.00000000000E+00  0.58666415670E+03  0.58666415673E+03  0.50400001928E-02 0. -1.
       -1   -1    0    0    0  501  0.00000000000E+00  0.00000000000E+00 -0.35834041179E+04  0.35834041179E+04  0.50400001928E-02 0.  1.
    10030    2    1    2    0    0  0.00000000000E+00  0.00000000000E+00 -0.29967399612E+04  0.41700682746E+04  0.28998308606E+04 0.  0.
        3    1    3    3  502    0 -0.61277650738E+02 -0.13497953839E+04 -0.22546089787E+04  0.26284908571E+04  0.10100000352E+00 0.  1.
       -3    1    3    3    0  502  0.61277650738E+02  0.13497953839E+04 -0.74213098249E+03  0.15415774175E+04  0.10100000352E+00 0. -1.
</event>
<event>
 5   0  0.9763851E-08  0.2899794E+04  0.7818609E-02  0.8272939E-01
        1   -1    0    0  501    0  0.00000000000E+00  0.00000000000E+00  0.97381024743E+03  0.97381024744E+03  0.50400001928E-02 0.  1.
       -1   -1    0    0    0  501  0.00000000000E+00  0.00000000000E+00 -0.21587386211E+04  0.21587386211E+04  0.50400001928E-02 0. -1.
    10030    2    1    2    0    0  0.00000000000E+00  0.00000000000E+00 -0.11849283737E+04  0.31325488686E+04  0.28997943312E+04 0.  0.
        3    1    3    3  502    0 -0.60161622175E+03  0.31371900889E+03  0.79172701900E+03  0.10426856562E+04  0.10100000352E+00 0.  1.
       -3    1    3    3    0  502  0.60161622175E+03 -0.31371900889E+03 -0.19766553927E+04  0.20898632124E+04  0.10100000352E+00 0. -1.
</event>
<event>
 5   0  0.9395744E-08  0.2897912E+04  0.7818609E-02  0.8273499E-01
       -1   -1    0    0    0  501  0.00000000000E+00  0.00000000000E+00  0.12292091536E+04  0.12292091536E+04  0.50400001928E-02 0. -1.
        1   -1    0    0  501    0  0.00000000000E+00  0.00000000000E+00 -0.17079871609E+04  0.17079871609E+04  0.50400001928E-02 0.  1.
    10030    2    1    2    0    0  0.00000000000E+00  0.00000000000E+00 -0.47877800730E+03  0.29371963145E+04  0.28979119741E+04 0.  0.
        2    1    3    3  502    0 -0.71003176179E+03  0.73401806712E+03 -0.12812072388E+04  0.16384198529E+04  0.25500000920E-02 0.  1.
       -2    1    3    3    0  502  0.71003176179E+03 -0.73401806712E+03  0.80242923153E+03  0.12987764616E+04  0.25500000920E-02 0. -1.
</event>
<event>
 5   0  0.9443352E-08  0.2899642E+04  0.7818609E-02  0.8272984E-01
       -1   -1    0    0    0  501  0.00000000000E+00  0.00000000000E+00  0.11791482139E+04  0.11791482140E+04  0.50400001928E-02 0. -1.
        1   -1    0    0  501    0  0.00000000000E+00  0.00000000000E+00 -0.17826261350E+04  0.17826261350E+04  0.50400001928E-02 0.  1.
    10030    2    1    2    0    0  0.00000000000E+00  0.00000000000E+00 -0.60347792110E+03  0.29617743490E+04  0.28996416491E+04 0.  0.
        4    1    3    3  502    0 -0.43741007154E+03  0.58448893490E+03 -0.15811863170E+04  0.17415816569E+04  0.12699999809E+01 0.  1.
       -4    1    3    3    0  502  0.43741007154E+03 -0.58448893490E+03  0.97770839586E+03  0.12201926921E+04  0.12699999809E+01 0. -1.
</event>
<event>
 5   0  0.9443352E-08  0.2901662E+04  0.7818609E-02  0.8272383E-01
       -1   -1    0    0    0  501  0.00000000000E+00  0.00000000000E+00  0.16515244416E+04  0.16515244416E+04  0.50400001928E-02 0.  1.
        1   -1    0    0  501    0  0.00000000000E+00  0.00000000000E+00 -0.12745254617E+04  0.12745254617E+04  0.50400001928E-02 0. -1.
    10030    2    1    2    0    0  0.00000000000E+00  0.00000000000E+00  0.37699897991E+03  0.29260499034E+04  0.29016615596E+04 0.  0.
        4    1    3    3  502    0 -0.12869493963E+04  0.26876761349E+03  0.80719809919E+03  0.15427394994E+04  0.12699999809E+01 0. -1.
       -4    1    3    3    0  502  0.12869493963E+04 -0.26876761349E+03 -0.43019911929E+03  0.13833104040E+04  0.12699999809E+01 0.  1.
</event>
<event>
 5   0  0.2534588E-07  0.2900194E+04  0.7818609E-02  0.8272820E-01
        2   -1    0    0  501    0  0.00000000000E+00  0.00000000000E+00  0.15023167040E+04  0.15023167040E+04  0.25500000920E-02 0. -1.
       -2   -1    0    0    0  501  0.00000000000E+00  0.00000000000E+00 -0.13996922337E+04  0.13996922337E+04  0.25500000920E-02 0.  1.
    10030    2    1    2    0    0  0.00000000000E+00  0.00000000000E+00  0.10262447030E+03  0.29020089377E+04  0.29001938026E+04 0.  0.
        3    1    3    3  502    0  0.11452880612E+04 -0.77109755463E+03  0.49487832926E+03  0.14666904079E+04  0.10100000352E+00 0. -1.
       -3    1    3    3    0  502 -0.11452880612E+04  0.77109755463E+03 -0.39225385896E+03  0.14353185298E+04  0.10100000352E+00 0.  1.
</event>
<event>
 5   0  0.2492232E-07  0.2900240E+04  0.7818609E-02  0.8272806E-01
       -2   -1    0    0    0  501  0.00000000000E+00  0.00000000000E+00  0.10659895065E+04  0.10659895065E+04  0.25500000920E-02 0.  1.
        2   -1    0    0  501    0  0.00000000000E+00  0.00000000000E+00 -0.19726719647E+04  0.19726719647E+04  0.25500000920E-02 0. -1.
    10030    2    1    2    0    0  0.00000000000E+00  0.00000000000E+00 -0.90668245818E+03  0.30386614712E+04  0.29002397240E+04 0.  0.
        4    1    3    3  502    0  0.12656308636E+04 -0.69058620734E+03 -0.29063883830E+03  0.14707832403E+04  0.12699999809E+01 0.  1.
       -4    1    3    3    0  502 -0.12656308636E+04  0.69058620734E+03 -0.61604361988E+03  0.15678782310E+04  0.12699999809E+01 0. -1.
</event>
<event>
 5   0  0.2492232E-07  0.2907621E+04  0.7818609E-02  0.8270613E-01
       -2   -1    0    0    0  501  0.00000000000E+00  0.00000000000E+00  0.12310399830E+04  0.12310399830E+04  0.25500000920E-02 0. -1.
        2   -1    0    0  501    0  0.00000000000E+00  0.00000000000E+00 -0.17168944301E+04  0.17168944301E+04  0.25500000920E-02 0.  1.
    10030    2    1    2    0    0  0.00000000000E+00  0.00000000000E+00 -0.48585444709E+03  0.29479344131E+04  0.29076214953E+04 0.  0.
        4    1    3    3  502    0  0.93534601450E+03 -0.68662825720E+03 -0.11309901456E+04  0.16203304764E+04  0.12699999809E+01 0.  1.
       -4    1    3    3    0  502 -0.93534601450E+03  0.68662825720E+03  0.64513569846E+03  0.13276039367E+04  0.12699999809E+01 0. -1.
</event>
<event>
 5   0  0.9388076E-08  0.2896078E+04  0.7818609E-02  0.8274045E-01
       -1   -1    0    0    0  501  0.00000000000E+00  0.00000000000E+00  0.14537859813E+04  0.14537859813E+04  0.50400001928E-02 0. -1.
        1   -1    0    0  501    0  0.00000000000E+00  0.00000000000E+00 -0.14423145470E+04  0.14423145470E+04  0.50400001928E-02 0.  1.
    10030    2    1    2    0    0  0.00000000000E+00  0.00000000000E+00  0.11471434338E+02  0.28961005284E+04  0.28960778091E+04 0.  0.
        5    1    3    3  502    0  0.89572060334E+03 -0.99649617718E+03 -0.54333557037E+03  0.14458753966E+04  0.46999998093E+01 0. -1.
       -5    1    3    3    0  502 -0.89572060334E+03  0.99649617718E+03  0.55480700470E+03  0.14502251318E+04  0.46999998093E+01 0.  1.
</event>
<event>
 5   0  0.9763851E-08  0.2898249E+04  0.7818609E-02  0.8273399E-01
        1   -1    0    0  501    0  0.00000000000E+00  0.00000000000E+00  0.10036804222E+04  0.10036804223E+04  0.50400001928E-02 0.  1.
       -1   -1    0    0    0  501  0.00000000000E+00  0.00000000000E+00 -0.20922616344E+04  0.20922616344E+04  0.50400001928E-02 0. -1.
    10030    2    1    2    0    0  0.00000000000E+00  0.00000000000E+00 -0.10885812122E+04  0.30959420567E+04  0.28982491547E+04 0.  0.
        3    1    3    3  502    0 -0.52449145838E+03 -0.13349943516E+04 -0.76492423833E+03  0.16255492331E+04  0.10100000352E+00 0. -1.
       -3    1    3    3    0  502  0.52449145838E+03  0.13349943516E+04 -0.32365697385E+03  0.14703928236E+04  0.10100000352E+00 0.  1.
</event>
<event>
 5   0  0.2492232E-07  0.2891688E+04  0.7818609E-02  0.8275355E-01
       -2   -1    0    0    0  501  0.00000000000E+00  0.00000000000E+00  0.12617698314E+04  0.12617698314E+04  0.25500000920E-02 0. -1.
        2   -1    0    0  501    0  0.00000000000E+00  0.00000000000E+00 -0.16567718602E+04  0.16567718602E+04  0.25500000920E-02 0.  1.
    10030    2    1    2    0    0  0.00000000000E+00  0.00000000000E+00 -0.39500202879E+03  0.29185416916E+04  0.28916879158E+04 0.  0.
        4    1    3    3  502    0 -0.69062039736E+03  0.53476229618E+03 -0.13603882867E+04  0.16166586375E+04  0.12699999809E+01 0.  1.
       -4    1    3    3    0  502  0.69062039736E+03 -0.53476229618E+03  0.96538625790E+03  0.13018830541E+04  0.12699999809E+01 0. -1.
</event>
<event>
 5   0  0.2678723E-07  0.2900804E+04  0.7818609E-02  0.8272638E-01
       -2   -1    0    0    0  501  0.00000000000E+00  0.00000000000E+00  0.13244869333E+04  0.13244869333E+04  0.25500000920E-02 0. -1.
        2   -1    0    0  501    0  0.00000000000E+00  0.00000000000E+00 -0.15882869726E+04  0.15882869726E+04  0.25500000920E-02 0.  1.
    10030    2    1    2    0    0  0.00000000000E+00  0.00000000000E+00 -0.26380003929E+03  0.29127739059E+04  0.29008035724E+04 0.  0.
        5    1    3    3  502    0 -0.49547506217E+03 -0.37761814089E+03  0.11832958281E+04  0.13372741321E+04  0.46999998093E+01 0. -1.
       -5    1    3    3    0  502  0.49547506217E+03  0.37761814089E+03 -0.14470958674E+04  0.15754997737E+04  0.46999998093E+01 0.  1.
</event>
<event>
 5   0  0.9388076E-08  0.2900073E+04  0.7818609E-02  0.8272856E-01
        1   -1    0    0  501    0  0.00000000000E+00  0.00000000000E+00  0.12240034476E+04  0.12240034476E+04  0.50400001928E-02 0. -1.
       -1   -1    0    0    0  501  0.00000000000E+00  0.00000000000E+00 -0.17178099354E+04  0.17178099354E+04  0.50400001928E-02 0.  1.
    10030    2    1    2    0    0  0.00000000000E+00  0.00000000000E+00 -0.49380648785E+03  0.29418133830E+04  0.29000726082E+04 0.  0.
        5    1    3    3  502    0 -0.11297374008E+04 -0.36365061865E+03  0.59817491937E+03  0.13290536827E+04  0.46999998093E+01 0. -1.
       -5    1    3    3    0  502  0.11297374008E+04  0.36365061865E+03 -0.10919814072E+04  0.16127597003E+04  0.46999998093E+01 0.  1.
</event>
<event>
 5   0  0.9763851E-08  0.2903536E+04  0.7818609E-02  0.8271826E-01
        1   -1    0    0  501    0  0.00000000000E+00  0.00000000000E+00  0.23888818973E+04  0.23888818973E+04  0.50400001928E-02 0.  1.
       -1   -1    0    0    0  501  0.00000000000E+00  0.00000000000E+00 -0.88226655782E+03  0.88226655783E+03  0.50400001928E-02 0. -1.
    10030    2    1    2    0    0  0.00000000000E+00  0.00000000000E+00  0.15066153394E+04  0.32711484551E+04  0.29035361948E+04 0.  0.
        3    1    3    3  502    0 -0.70271163879E+03 -0.10970433003E+03  0.21791649522E+04  0.22922911217E+04  0.10100000352E+00 0.  1.
       -3    1    3    3    0  502  0.70271163879E+03  0.10970433003E+03 -0.67254961279E+03  0.97885733342E+03  0.10100000352E+00 0. -1.
</event>
<event>
 5   0  0.2608591E-07  0.2893120E+04  0.7818609E-02  0.8274927E-01
       -2   -1    0    0    0  501  0.00000000000E+00  0.00000000000E+00  0.15332163996E+04  0.15332163996E+04  0.25500000920E-02 0.  1.
        2   -1    0    0  501    0  0.00000000000E+00  0.00000000000E+00 -0.13648011363E+04  0.13648011363E+04  0.25500000920E-02 0. -1.
    10030    2    1    2    0    0  0.00000000000E+00  0.00000000000E+00  0.16841526328E+03  0.28980175359E+04  0.28931197586E+04 0.  0.
        2    1    3    3  502    0  0.48176799782E+03 -0.36862821664E+03 -0.12312361165E+04  0.13725631280E+04  0.25500000920E-02 0. -1.
       -2    1    3    3    0  502 -0.48176799782E+03  0.36862821664E+03  0.13996513798E+04  0.15254544079E+04  0.25500000920E-02 0.  1.
</event>
<event>
 5   0  0.2678723E-07  0.2900447E+04  0.7818609E-02  0.8272744E-01
       -2   -1    0    0    0  501  0.00000000000E+00  0.00000000000E+00  0.92743923826E+03  0.92743923827E+03  0.25500000920E-02 0. -1.
        2   -1    0    0  501    0  0.00000000000E+00  0.00000000000E+00 -0.22676938987E+04  0.22676938987E+04  0.25500000920E-02 0.  1.
    10030    2    1    2    0    0  0.00000000000E+00  0.00000000000E+00 -0.13402546604E+04  0.31951331369E+04  0.29004470704E+04 0.  0.
        5    1    3    3  502    0 -0.10270180296E+04 -0.63458204688E+02 -0.17958815005E+04  0.20697839092E+04  0.46999998093E+01 0.  1.
       -5    1    3    3    0  502  0.10270180296E+04  0.63458204688E+02  0.45562684009E+03  0.11253492277E+04  0.46999998093E+01 0. -1.
</event>
<event>
 5   0  0.2546841E-07  0.2899178E+04  0.7818609E-02  0.8273122E-01
        2   -1    0    0  501    0  0.00000000000E+00  0.00000000000E+00  0.21253457105E+04  0.21253457105E+04  0.25500000920E-02 0.  1.
       -2   -1    0    0    0  501  0.00000000000E+00  0.00000000000E+00 -0.98869021389E+03  0.98869021389E+03  0.25500000920E-02 0. -1.
    10030    2    1    2    0    0  0.00000000000E+00  0.00000000000E+00  0.11366554966E+04  0.31140359244E+04  0.28991781629E+04 0.  0.
        1    1    3    3  502    0  0.47395024788E+03  0.30238395272E+03  0.20034782843E+04  0.20808628326E+04  0.50400001928E-02 0.  1.
       -1    1    3    3    0  502 -0.47395024788E+03 -0.30238395272E+03 -0.86682278769E+03  0.10331730918E+04  0.50400001928E-02 0. -1.
</event>
<event>
 5   0  0.2492232E-07  0.2899786E+04  0.7818609E-02  0.8272941E-01
        2   -1    0    0  501    0  0.00000000000E+00  0.00000000000E+00  0.12912550790E+04  0.12912550790E+04  0.25500000920E-02 0.  1.
       -2   -1    0    0    0  501  0.00000000000E+00  0.00000000000E+00 -0.16280202369E+04  0.16280202370E+04  0.25500000920E-02 0. -1.
    10030    2    1    2    0    0  0.00000000000E+00  0.00000000000E+00 -0.33676515795E+03  0.29192753159E+04  0.28997857850E+04 0.  0.
        4    1    3    3  502    0 -0.14271049029E+04  0.47435088228E+02  0.84921905089E+02  0.14304166646E+04  0.12699999809E+01 0. -1.
       -4    1    3    3    0  502  0.14271049029E+04 -0.47435088228E+02 -0.42168706304E+03  0.14888586513E+04  0.12699999809E+01 0.  1.
</event>
<event>
 5   0  0.2678723E-07  0.2902671E+04  0.7818609E-02  0.8272083E-01
        2   -1    0    0  501    0  0.00000000000E+00  0.00000000000E+00  0.19045871653E+04  0.19045871653E+04  0.25500000920E-02 0. -1.
       -2   -1    0    0    0  501  0.00000000000E+00  0.00000000000E+00 -0.11059485199E+04  0.11059485199E+04  0.25500000920E-02 0.  1.
    10030    2    1    2    0    0  0.00000000000E+00  0.00000000000E+00  0.79863864542E+03  0.30105356853E+04  0.29026714293E+04 0.  0.
        5    1    3    3  502    0  0.75171713695E+03 -0.91247039881E+03  0.12724287064E+04  0.17368873843E+04  0.46999998093E+01 0. -1.
       -5    1    3    3    0  502 -0.75171713695E+03  0.91247039881E+03 -0.47379006102E+03  0.12736483010E+04  0.46999998093E+01 0.  1.
</event>
<event>
 5   0  0.2534588E-07  0.2899039E+04  0.7818609E-02  0.8273163E-01
        2   -1    0    0  501    0  0.00000000000E+00  0.00000000000E+00  0.11224223071E+04  0.11224223071E+04  0.25500000920E-02 0. -1.
       -2   -1    0    0    0  501  0.00000000000E+00  0.00000000000E+00 -0.18719396458E+04  0.18719396458E+04  0.25500000920E-02 0.  1.
    10030    2    1    2    0    0  0.00000000000E+00  0.00000000000E+00 -0.74951733867E+03  0.29943619529E+04  0.28990390242E+04 0.  0.
        3    1    3    3  502    0  0.81809767188E+03  0.10089606195E+04 -0.10392001627E+04  0.16634970156E+04  0.10100000352E+00 0.  1.
       -3    1    3    3    0  502 -0.81809767188E+03 -0.10089606195E+04  0.28968282401E+03  0.13308649373E+04  0.10100000352E+00 0. -1.
</event>
<event>
 5   0  0.9443352E-08  0.2900569E+04  0.7818609E-02  0.8272708E-01
        1   -1    0    0  501    0  0.00000000000E+00  0.00000000000E+00  0.19154116848E+04  0.19154116848E+04  0.50400001928E-02 0.  1.
       -1   -1    0    0    0  501  0.00000000000E+00  0.00000000000E+00 -0.10981060081E+04  0.10981060081E+04  0.50400001928E-02 0. -1.
    10030    2    1    2    0    0  0.00000000000E+00  0.00000000000E+00  0.81730567671E+03  0.30135176929E+04  0.29005689642E+04 0.  0.
        4    1    3    3  502    0  0.10032565428E+04  0.17409737519E+03 -0.66427106064E+03  0.12157677581E+04  0.12699999809E+01 0. -1.
       -4    1    3    3    0  502 -0.10032565428E+04 -0.17409737519E+03  0.14815767374E+04  0.17977499348E+04  0.12699999809E+01 0.  1.
</event>
<event>
 5   0  0.2678723E-07  0.2912768E+04  0.7818609E-02  0.8269089E-01
        2   -1    0    0  501    0  0.00000000000E+00  0.00000000000E+00  0.18440562059E+04  0.18440562059E+04  0.25500000920E-02 0.  1.
       -2   -1    0    0    0  501  0.00000000000E+00  0.00000000000E+00 -0.11502113731E+04  0.11502113731E+04  0.25500000920E-02 0. -1.
    10030    2    1    2    0    0  0.00000000000E+00  0.00000000000E+00  0.69384483274E+03  0.29942675790E+04  0.29127680448E+04 0.  0.
        5    1    3    3  502    0  0.11384496296E+04 -0.81233784580E+03 -0.70736163747E+02  0.14003521092E+04  0.46999998093E+01 0. -1.
       -5    1    3    3    0  502 -0.11384496296E+04  0.81233784580E+03  0.76458099649E+03  0.15939154698E+04  0.46999998093E+01 0.  1.
</event>
<event>
 5   0  0.9388076E-08  0.2899689E+04  0.7818609E-02  0.8272970E-01
       -1   -1    0    0    0  501  0.00000000000E+00  0.00000000000E+00  0.17426032477E+04  0.17426032477E+04  0.50400001928E-02 0. -1.
        1   -1    0    0  501    0  0.00000000000E+00  0.00000000000E+00 -0.12062695019E+04  0.12062695019E+04  0.50400001928E-02 0.  1.
    10030    2    1    2    0    0  0.00000000000E+00  0.00000000000E+00  0.53633374575E+03  0.29488727496E+04  0.28996890535E+04 0.  0.
        5    1    3    3  502    0  0.39260553495E+03  0.10195699821E+04  0.12374146215E+04  0.16507207790E+04  0.46999998093E+01 0. -1.
       -5    1    3    3    0  502 -0.39260553495E+03 -0.10195699821E+04 -0.70108087579E+03  0.12981519707E+04  0.46999998093E+01 0.  1.
</event>
<event>
 5   0  0.9388076E-08  0.2900255E+04  0.7818609E-02  0.8272802E-01
       -1   -1    0    0    0  501  0.00000000000E+00  0.00000000000E+00  0.15393893190E+04  0.15393893190E+04  0.50400001928E-02 0.  1.
        1   -1    0    0  501    0  0.00000000000E+00  0.00000000000E+00 -0.13660411274E+04  0.13660411274E+04  0.50400001928E-02 0. -1.
    10030    2    1    2    0    0  0.00000000000E+00  0.00000000000E+00  0.17334819157E+03  0.29054304464E+04  0.29002545549E+04 0.  0.
        5    1    3    3  502    0  0.98747636362E+03 -0.12965217539E+03 -0.96921250401E+03  0.13897173177E+04  0.46999998093E+01 0. -1.
       -5    1    3    3    0  502 -0.98747636362E+03  0.12965217539E+03  0.11425606956E+04  0.15157131287E+04  0.46999998093E+01 0.  1.
</event>
<event>
 5   0  0.9388076E-08  0.2900074E+04  0.7818609E-02  0.8272855E-01
        1   -1    0    0  501    0  0.00000000000E+00  0.00000000000E+00  0.13369527644E+04  0.13369527644E+04  0.50400001928E-02 0.  1.
       -1   -1    0    0    0  501  0.00000000000E+00  0.00000000000E+00 -0.15726867160E+04  0.15726867160E+04  0.50400001928E-02 0. -1.
    10030    2    1    2    0    0  0.00000000000E+00  0.00000000000E+00 -0.23573395156E+03  0.29096394804E+04  0.29000743801E+04 0.  0.
        5    1    3    3  502    0  0.11595273446E+04  0.29180675862E+03  0.70516230183E+03  0.13881393335E+04  0.46999998093E+01 0.  1.
       -5    1    3    3    0  502 -0.11595273446E+04 -0.29180675862E+03 -0.94089625339E+03  0.15215001469E+04  0.46999998093E+01 0. -1.
</event>
<event>
 5   0  0.9421924E-08  0.2906627E+04  0.7818609E-02  0.8270908E-01
        1   -1    0    0  501    0  0.00000000000E+00  0.00000000000E+00  0.12517978880E+04  0.12517978880E+04  0.50400001928E-02 0.  1.
       -1   -1    0    0    0  501  0.00000000000E+00  0.00000000000E+00 -0.16872694403E+04  0.16872694403E+04  0.50400001928E-02 0. -1.
    10030    2    1    2    0    0  0.00000000000E+00  0.00000000000E+00 -0.43547155228E+03  0.29390673283E+04  0.29066271325E+04 0.  0.
        1    1    3    3  502    0  0.11881999460E+04 -0.44364151528E+03 -0.93522072807E+03  0.15758409552E+04  0.50400001928E-02 0. -1.
       -1    1    3    3    0  502 -0.11881999460E+04  0.44364151528E+03  0.49974917579E+03  0.13632263731E+04  0.50400001928E-02 0.  1.
</event>
<event>
 5   0  0.2534588E-07  0.2897058E+04  0.7818609E-02  0.8273753E-01
        2   -1    0    0  501    0  0.00000000000E+00  0.00000000000E+00  0.31826330890E+04  0.31826330890E+04  0.25500000920E-02 0.  1.
       -2   -1    0    0    0  501  0.00000000000E+00  0.00000000000E+00 -0.65927668630E+03  0.65927668630E+03  0.25500000920E-02 0. -1.
    10030    2    1    2    0    0  0.00000000000E+00  0.00000000000E+00  0.25233564027E+04  0.38419097753E+04  0.28970576775E+04 0.  0.
        3    1    3    3  502    0  0.82696781604E+02 -0.45358068763E+03 -0.55937191129E+03  0.72489388411E+03  0.10100000352E+00 0. -1.
       -3    1    3    3    0  502 -0.82696781604E+02  0.45358068763E+03  0.30827283140E+04  0.31170158912E+04  0.10100000352E+00 0.  1.
</event>
<event>
 5   0  0.9395744E-08  0.2911787E+04  0.7818609E-02  0.8269379E-01
       -1   -1    0    0    0  501  0.00000000000E+00  0.00000000000E+00  0.10938276172E+04  0.10938276172E+04  0.50400001928E-02 0. -1.
        1   -1    0    0  501    0  0.00000000000E+00  0.00000000000E+00 -0.19378060806E+04  0.19378060806E+04  0.50400001928E-02 0.  1.
    10030    2    1    2    0    0  0.00000000000E+00  0.00000000000E+00 -0.84397846340E+03  0.30316336979E+04  0.29117869481E+04 0.  0.
        2    1    3    3  502    0  0.12311222232E+04 -0.20875008510E+03  0.35741231929E+03  0.12988387477E+04  0.25500000920E-02 0. -1.
       -2    1    3    3    0  502 -0.12311222232E+04  0.20875008510E+03 -0.12013907827E+04  0.17327949502E+04  0.25500000920E-02 0.  1.
</event>
<event>
 5   0  0.9443352E-08  0.2899284E+04  0.7818609E-02  0.8273091E-01
       -1   -1    0    0    0  501  0.00000000000E+00  0.00000000000E+00  0.92936610113E+03  0.92936610115E+03  0.50400001928E-02 0.  1.
        1   -1    0    0  501    0  0.00000000000E+00  0.00000000000E+00 -0.22611770919E+04  0.22611770919E+04  0.50400001928E-02 0. -1.
    10030    2    1    2    0    0  0.00000000000E+00  0.00000000000E+00 -0.13318109908E+04  0.31905431931E+04  0.28992835928E+04 0.  0.
        4    1    3    3  502    0 -0.10809167866E+04 -0.72917803910E+03 -0.13630948060E+04  0.18862955164E+04  0.12699999809E+01 0. -1.
       -4    1    3    3    0  502  0.10809167866E+04  0.72917803910E+03  0.31283815163E+02  0.13042476767E+04  0.12699999809E+01 0.  1.
</event>
<event>
 5   0  0.2492232E-07  0.2899175E+04  0.7818609E-02  0.8273123E-01
       -2   -1    0    0    0  501  0.00000000000E+00  0.00000000000E+00  0.83516136089E+03  0.83516136089E+03  0.25500000920E-02 0. -1.
        2   -1    0    0  501    0  0.00000000000E+00  0.00000000000E+00 -0.25160460526E+04  0.25160460526E+04  0.25500000920E-02 0.  1.
    10030    2    1    2    0    0  0.00000000000E+00  0.00000000000E+00 -0.16808846917E+04  0.33512074135E+04  0.28991753623E+04 0.  0.
        4    1    3    3  502    0 -0.14057287608E+04  0.69539028766E+02 -0.43936429405E+03  0.14744326438E+04  0.12699999809E+01 0. -1.
       -4    1    3    3    0  502  0.14057287608E+04 -0.69539028766E+02 -0.12415203977E+04  0.18767747697E+04  0.12699999809E+01 0.  1.
</event>
<event>
 5   0  0.2608591E-07  0.2898891E+04  0.7818609E-02  0.8273208E-01
        2   -1    0    0  501    0  0.00000000000E+00  0.00000000000E+00  0.15689712858E+04  0.15689712858E+04  0.25500000920E-02 0.  1.
       -2   -1    0    0    0  501  0.00000000000E+00  0.00000000000E+00 -0.13390250636E+04  0.13390250636E+04  0.25500000920E-02 0. -1.
    10030    2    1    2    0    0  0.00000000000E+00  0.00000000000E+00  0.22994622218E+03  0.29079963494E+04  0.28988907367E+04 0.  0.
        2    1    3    3  502    0 -0.97931211649E+03  0.10315394465E+04  0.39471464995E+03  0.14761183916E+04  0.25500000920E-02 0.  1.
       -2    1    3    3    0  502  0.97931211649E+03 -0.10315394465E+04 -0.16476842777E+03  0.14318779578E+04  0.25500000920E-02 0. -1.
</event>
<event>
 5   0  0.9421924E-08  0.2900228E+04  0.7818609E-02  0.8272810E-01
       -1   -1    0    0    0  501  0.00000000000E+00  0.00000000000E+00  0.12994662066E+04  0.12994662066E+04  0.50400001928E-02 0. -1.
        1   -1    0    0  501    0  0.00000000000E+00  0.00000000000E+00 -0.16182268279E+04  0.16182268279E+04  0.50400001928E-02 0.  1.
    10030    2    1    2    0    0  0.00000000000E+00  0.00000000000E+00 -0.31876062132E+03  0.29176930346E+04  0.29002283204E+04 0.  0.
        1    1    3    3  502    0 -0.12245562638E+04  0.73483575547E+03 -0.41250917410E+03  0.14865010762E+04  0.50400001928E-02 0.  1.
       -1    1    3    3    0  502  0.12245562638E+04 -0.73483575547E+03  0.93748552785E+02  0.14311919584E+04  0.50400001928E-02 0. -1.
</event>
<event>
 5   0  0.2678723E-07  0.2899287E+04  0.7818609E-02  0.8273090E-01
        2   -1    0    0  501    0  0.00000000000E+00  0.00000000000E+00  0.14337486670E+04  0.14337486670E+04  0.25500000920E-02 0.  1.
       -2   -1    0    0    0  501  0.00000000000E+00  0.00000000000E+00 -0.14657141352E+04  0.14657141352E+04  0.25500000920E-02 0. -1.
    10030    2    1    2    0    0  0.00000000000E+00  0.00000000000E+00 -0.31965468192E+02  0.28994628022E+04  0.28992865933E+04 0.  0.
        5    1    3    3  502    0 -0.11080282312E+04 -0.48827348139E+03  0.78112658687E+03  0.14409435758E+04  0.46999998093E+01 0.  1.
       -5    1    3    3    0  502  0.11080282312E+04  0.48827348139E+03 -0.81309205507E+03  0.14585192264E+04  0.46999998093E+01 0. -1.
</event>
<event>
 5   0  0.9763851E-08  0.2897443E+04  0.7818609E-02  0.8273639E-01
        1   -1    0    0  501    0  0.00000000000E+00  0.00000000000E+00  0.13784011693E+04  0.13784011693E+04  0.50400001928E-02 0. -1.
       -1   -1    0    0    0  501  0.00000000000E+00  0.00000000000E+00 -0.15226290344E+04  0.15226290344E+04  0.50400001928E-02 0.  1.
    10030    2    1    2    0    0  0.00000000000E+00  0.00000000000E+00 -0.14422786507E+03  0.29010302037E+04  0.28974427632E+04 0.  0.
        3    1    3    3  502    0  0.48423570800E+03 -0.13653765542E+04 -0.64602936922E+02  0.14501416846E+04  0.10100000352E+00 0. -1.
       -3    1    3    3    0  502 -0.48423570800E+03  0.13653765542E+04 -0.79624928148E+02  0.14508885192E+04  0.10100000352E+00 0.  1.
</event>
<event>
 5   0  0.2492232E-07  0.2900946E+04  0.7818609E-02  0.8272596E-01
        2   -1    0    0  501    0  0.00000000000E+00  0.00000000000E+00  0.15962291793E+04  0.15962291793E+04  0.25500000920E-02 0. -1.
       -2   -1    0    0    0  501  0.00000000000E+00  0.00000000000E+00 -0.13180260392E+04  0.13180260392E+04  0.25500000920E-02 0.  1.
    10030    2    1    2    0    0  0.00000000000E+00  0.00000000000E+00  0.27820314009E+03  0.29142552186E+04  0.29009457926E+04 0.  0.
        4    1    3    3  502    0 -0.13476734454E+04 -0.31754884124E+03  0.57329865115E+03  0.14985773048E+04  0.12699999809E+01 0. -1.
       -4    1    3    3    0  502  0.13476734454E+04  0.31754884124E+03 -0.29509551106E+03  0.14156779138E+04  0.12699999809E+01 0.  1.
</event>
<event>
 5   0  0.9395744E-08  0.2899519E+04  0.7818609E-02  0.8273021E-01
        1   -1    0    0  501    0  0.00000000000E+00  0.00000000000E+00  0.77059328507E+03  0.77059328508E+03  0.50400001928E-02 0. -1.
       -1   -1    0    0    0  501  0.00000000000E+00  0.00000000000E+00 -0.27275114225E+04  0.27275114225E+04  0.50400001928E-02 0.  1.
    10030    2    1    2    0    0  0.00000000000E+00  0.00000000000E+00 -0.19569181374E+04  0.34981047076E+04  0.28995185719E+04 0.  0.
        2    1    3    3  502    0  0.34469650251E+03 -0.80955583853E+02  0.71762706520E+03  0.80022377502E+03  0.25500000920E-02 0. -1.
       -2    1    3    3    0  502 -0.34469650251E+03  0.80955583853E+02 -0.26745452026E+04  0.26978809325E+04  0.25500000920E-02 0.  1.
</event>
<event>
 5   0  0.9421924E-08  0.2898891E+04  0.7818609E-02  0.8273207E-01
        1   -1    0    0  501    0  0.00000000000E+00  0.00000000000E+00  0.16734248930E+04  0.16734248930E+04  0.50400001928E-02 0. -1.
       -1   -1    0    0    0  501  0.00000000000E+00  0.00000000000E+00 -0.12554449119E+04  0.12554449119E+04  0.50400001928E-02 0.  1.
    10030    2    1    2    0    0  0.00000000000E+00  0.00000000000E+00  0.41797998110E+03  0.29288698049E+04  0.28988913518E+04 0.  0.
        1    1    3    3  502    0 -0.18714859909E+03  0.38390145277E+03  0.16084086292E+04  0.16641464004E+04  0.50400001928E-02 0. -1.
       -1    1    3    3    0  502  0.18714859909E+03 -0.38390145277E+03 -0.11904286481E+04  0.12647234045E+04  0.50400001928E-02 0.  1.
</event>
<event>
 5   0  0.9421924E-08  0.2907551E+04  0.7818609E-02  0.8270634E-01
       -1   -1    0    0    0  501  0.00000000000E+00  0.00000000000E+00  0.14012664455E+04  0.14012664456E+04  0.50400001928E-02 0.  1.
        1   -1    0    0  501    0  0.00000000000E+00  0.00000000000E+00 -0.15082522057E+04  0.15082522057E+04  0.50400001928E-02 0. -1.
    10030    2    1    2    0    0  0.00000000000E+00  0.00000000000E+00 -0.10698576011E+03  0.29095186512E+04  0.29075510020E+04 0.  0.
        1    1    3    3  502    0  0.27183825179E+03 -0.14122478705E+04  0.15907291697E+03  0.14469430797E+04  0.50400001928E-02 0.  1.
       -1    1    3    3    0  502 -0.27183825179E+03  0.14122478705E+04 -0.26605867709E+03  0.14625755716E+04  0.50400001928E-02 0. -1.
</event>
<event>
 5   0  0.9763851E-08  0.2898651E+04  0.7818609E-02  0.8273279E-01
        1   -1    0    0  501    0  0.00000000000E+00  0.00000000000E+00  0.22040451827E+04  0.22040451827E+04  0.50400001928E-02 0. -1.
       -1   -1    0    0    0  501  0.00000000000E+00  0.00000000000E+00 -0.95304026057E+03  0.95304026059E+03  0.50400001928E-02 0.  1.
    10030    2    1    2    0    0  0.00000000000E+00  0.00000000000E+00  0.12510049222E+04  0.31570854433E+04  0.28986505794E+04 0.  0.
        3    1    3    3  502    0 -0.65759484345E+02 -0.70511487987E+03  0.20027725401E+04  0.21242902724E+04  0.10100000352E+00 0. -1.
       -3    1    3    3    0  502  0.65759484345E+02  0.70511487987E+03 -0.75176761795E+03  0.10327951710E+04  0.10100000352E+00 0.  1.
</event>
<event>
 5   0  0.2492232E-07  0.2901025E+04  0.7818609E-02  0.8272573E-01
        2   -1    0    0  501    0  0.00000000000E+00  0.00000000000E+00  0.19668611924E+04  0.19668611924E+04  0.25500000920E-02 0. -1.
       -2   -1    0    0    0  501  0.00000000000E+00  0.00000000000E+00 -0.10697178189E+04  0.10697178189E+04  0.25500000920E-02 0.  1.
    10030    2    1    2    0    0  0.00000000000E+00  0.00000000000E+00  0.89714337349E+03  0.30365790114E+04  0.29010249671E+04 0.  0.
        4    1    3    3  502    0 -0.19443126676E+03  0.29839940729E+03  0.19203816378E+04  0.19531290207E+04  0.12699999809E+01 0. -1.
       -4    1    3    3    0  502  0.19443126676E+03 -0.29839940729E+03 -0.10232382643E+04  0.10834499907E+04  0.12699999809E+01 0.  1.
</event>
<event>
 5   0  0.2546841E-07  0.2898382E+04  0.7818609E-02  0.8273359E-01
       -2   -1    0    0    0  501  0.00000000000E+00  0.00000000000E+00  0.11045746219E+04  0.11045746219E+04  0.25500000920E-02 0. -1.
        2   -1    0    0  501    0  0.00000000000E+00  0.00000000000E+00 -0.19013247736E+04  0.19013247736E+04  0.25500000920E-02 0.  1.
    10030    2    1    2    0    0  0.00000000000E+00  0.00000000000E+00 -0.79675015167E+03  0.30058993955E+04  0.28983823715E+04 0.  0.
        1    1    3    3  502    0  0.57506589971E+03 -0.24600797839E+03  0.95738067333E+03  0.11435901662E+04  0.50400001928E-02 0. -1.
       -1    1    3    3    0  502 -0.57506589971E+03  0.24600797839E+03 -0.17541308250E+04  0.18623092293E+04  0.50400001928E-02 0.  1.
</event>
<event>
 5   0  0.9395744E-08  0.2899659E+04  0.7818609E-02  0.8272979E-01
       -1   -1    0    0    0  501  0.00000000000E+00  0.00000000000E+00  0.12581794843E+04  0.12581794843E+04  0.50400001928E-02 0.  1.
        1   -1    0    0  501    0  0.00000000000E+00  0.00000000000E+00 -0.16706722624E+04  0.16706722624E+04  0.50400001928E-02 0. -1.
    10030    2    1    2    0    0  0.00000000000E+00  0.00000000000E+00 -0.41249277803E+03  0.29288517467E+04  0.28996589907E+04 0.  0.
        2    1    3    3  502    0  0.51211778987E+03  0.13425050052E+04 -0.40163965092E+03  0.14919446132E+04  0.25500000920E-02 0. -1.
       -2    1    3    3    0  502 -0.51211778987E+03 -0.13425050052E+04 -0.10853127112E+02  0.14369071335E+04  0.25500000920E-02 0.  1.
</event>
<event>
 5   0  0.9395744E-08  0.2898878E+04  0.7818609E-02  0.8273211E-01
        1   -1    0    0  501    0  0.00000000000E+00  0.00000000000E+00  0.12687696597E+04  0.12687696597E+04  0.50400001928E-02 0.  1.
       -1   -1    0    0    0  501  0.00000000000E+00  0.00000000000E+00 -0.16558350073E+04  0.16558350073E+04  0.50400001928E-02 0. -1.
    10030    2    1    2    0    0  0.00000000000E+00  0.00000000000E+00 -0.38706534769E+03  0.29246046670E+04  0.28988778648E+04 0.  0.
        2    1    3    3  502    0  0.12920720493E+04 -0.60179866048E+03  0.71978569200E+02  0.14271624725E+04  0.25500000920E-02 0.  1.
       -2    1    3    3    0  502 -0.12920720493E+04  0.60179866048E+03 -0.45904391689E+03  0.14974421945E+04  0.25500000920E-02 0. -1.
</event>
<event>
 5   0  0.8407500E-08  0.2899967E+04  0.7818609E-02  0.8272887E-01
        3   -1    0    0  501    0  0.00000000000E+00  0.00000000000E+00  0.20503697434E+04  0.20503697459E+04  0.10100000352E+00 0.  1.
       -3   -1    0    0    0  501  0.00000000000E+00  0.00000000000E+00 -0.10254017956E+04  0.10254018006E+04  0.10100000352E+00 0. -1.
    10030    2    1    2    0    0  0.00000000000E+00  0.00000000000E+00  0.10249679478E+04  0.30757715465E+04  0.28999674674E+04 0.  0.
        1    1    3    3  502    0 -0.24698715278E+03 -0.97440877656E+03 -0.59584282883E+03  0.11685477287E+04  0.50400001928E-02 0. -1.
       -1    1    3    3    0  502  0.24698715278E+03  0.97440877656E+03  0.16208107766E+04  0.19072238178E+04  0.50400001928E-02 0.  1.
</event>
<event>
 5   0  0.2492232E-07  0.2898654E+04  0.7818609E-02  0.8273278E-01
       -2   -1    0    0    0  501  0.00000000000E+00  0.00000000000E+00  0.11437351082E+04  0.11437351082E+04  0.25500000920E-02 0. -1.
        2   -1    0    0  501    0  0.00000000000E+00  0.00000000000E+00 -0.18365696722E+04  0.18365696722E+04  0.25500000920E-02 0.  1.
    10030    2    1    2    0    0  0.00000000000E+00  0.00000000000E+00 -0.69283456395E+03  0.29803047804E+04  0.28986543173E+04 0.  0.
        4    1    3    3  502    0 -0.61943418137E+02 -0.67659619238E+03 -0.16626849630E+04  0.17961465123E+04  0.12699999809E+01 0.  1.
       -4    1    3    3    0  502  0.61943418137E+02  0.67659619238E+03  0.96985039903E+03  0.11841582681E+04  0.12699999809E+01 0. -1.
</event>
<event>
 5   0  0.9763851E-08  0.2899626E+04  0.7818609E-02  0.8272989E-01
       -1   -1    0    0    0  501  0.00000000000E+00  0.00000000000E+00  0.84751354134E+03  0.84751354136E+03  0.50400001928E-02 0.  1.
        1   -1    0    0  501    0  0.00000000000E+00  0.00000000000E+00 -0.24801465225E+04  0.24801465225E+04  0.50400001928E-02 0. -1.
    10030    2    1    2    0    0  0.00000000000E+00  0.00000000000E+00 -0.16326329811E+04  0.33276600638E+04  0.28996260189E+04 0.  0.
        3    1    3    3  502    0  0.17669696781E+03  0.10486887467E+04  0.31453054401E+03  0.11090082864E+04  0.10100000352E+00 0.  1.
       -3    1    3    3    0  502 -0.17669696781E+03 -0.10486887467E+04 -0.19471635251E+04  0.22186517775E+04  0.10100000352E+00 0. -1.
</event>
<event>
 5   0  0.2492232E-07  0.2900344E+04  0.7818609E-02  0.8272775E-01
       -2   -1    0    0    0  501  0.00000000000E+00  0.00000000000E+00  0.13600381803E+04  0.13600381803E+04  0.25500000920E-02 0. -1.
        2   -1    0    0  501    0  0.00000000000E+00  0.00000000000E+00 -0.15462796165E+04  0.15462796165E+04  0.25500000920E-02 0.  1.
    10030    2    1    2    0    0  0.00000000000E+00  0.00000000000E+00 -0.18624143620E+03  0.29063177967E+04  0.29003443352E+04 0.  0.
        4    1    3    3  502    0  0.56159072516E+03  0.66218237076E+03  0.10707912363E+04  0.13785735814E+04  0.12699999809E+01 0. -1.
       -4    1    3    3    0  502 -0.56159072516E+03 -0.66218237076E+03 -0.12570326725E+04  0.15277442153E+04  0.12699999809E+01 0.  1.
</event>
<event>
 5   0  0.9763851E-08  0.2900793E+04  0.7818609E-02  0.8272642E-01
        1   -1    0    0  501    0  0.00000000000E+00  0.00000000000E+00  0.14945063797E+04  0.14945063797E+04  0.50400001928E-02 0. -1.
       -1   -1    0    0    0  501  0.00000000000E+00  0.00000000000E+00 -0.14075886848E+04  0.14075886848E+04  0.50400001928E-02 0.  1.
    10030    2    1    2    0    0  0.00000000000E+00  0.00000000000E+00  0.86917694881E+02  0.29020950645E+04  0.29007931807E+04 0.  0.
        3    1    3    3  502    0  0.59950006136E+02  0.71437543079E+03 -0.12179495974E+04  0.14132683720E+04  0.10100000352E+00 0.  1.
       -3    1    3    3    0  502 -0.59950006136E+02 -0.71437543079E+03  0.13048672923E+04  0.14888266924E+04  0.10100000352E+00 0. -1.
</event>
<event>
 5   0  0.9763851E-08  0.2899795E+04  0.7818609E-02  0.8272938E-01
       -1   -1    0    0    0  501  0.00000000000E+00  0.00000000000E+00  0.13701889523E+04  0.13701889523E+04  0.50400001928E-02 0.  1.
        1   -1    0    0  501    0  0.00000000000E+00  0.00000000000E+00 -0.15342431403E+04  0.15342431403E+04  0.50400001928E-02 0. -1.
    10030    2    1    2    0    0  0.00000000000E+00  0.00000000000E+00 -0.16405418803E+03  0.29044320927E+04  0.28997951659E+04 0.  0.
        3    1    3    3  502    0  0.46549386025E+03  0.88044734105E+03 -0.11374344714E+04  0.15118297659E+04  0.10100000352E+00 0. -1.
       -3    1    3    3    0  502 -0.46549386025E+03 -0.88044734105E+03  0.97338028332E+03  0.13926023267E+04  0.10100000352E+00 0.  1.
</event>
<event>
 5   0  0.2492232E-07  0.2896617E+04  0.7818609E-02  0.8273885E-01
       -2   -1    0    0    0  501  0.00000000000E+00  0.00000000000E+00  0.10910496709E+04  0.10910496709E+04  0.25500000920E-02 0. -1.
        2   -1    0    0  501    0  0.00000000000E+00  0.00000000000E+00 -0.19225506132E+04  0.19225506132E+04  0.25500000920E-02 0.  1.
    10030    2    1    2    0    0  0.00000000000E+00  0.00000000000E+00 -0.83150094229E+03  0.30136002841E+04  0.28966174851E+04 0.  0.
        4    1    3    3  502    0 -0.99252235417E+03 -0.10228324444E+04 -0.68365697362E+03  0.15807198687E+04  0.12699999809E+01 0.  1.
       -4    1    3    3    0  502  0.99252235417E+03  0.10228324444E+04 -0.14784396867E+03  0.14328804154E+04  0.12699999809E+01 0. -1.
</event>
<event>
 5   0  0.2546841E-07  0.2894479E+04  0.7818609E-02  0.8274522E-01
       -2   -1    0    0    0  501  0.00000000000E+00  0.00000000000E+00  0.72430038371E+03  0.72430038371E+03  0.25500000920E-02 0. -1.
        2   -1    0    0  501    0  0.00000000000E+00  0.00000000000E+00 -0.28917595215E+04  0.28917595215E+04  0.25500000920E-02 0.  1.
    10030    2    1    2    0    0  0.00000000000E+00  0.00000000000E+00 -0.21674591378E+04  0.36160599052E+04  0.28944792492E+04 0.  0.
        1    1    3    3  502    0  0.12034630180E+03 -0.92057745798E+03 -0.24707044129E+04  0.26393799242E+04  0.50400001928E-02 0.  1.
       -1    1    3    3    0  502 -0.12034630180E+03  0.92057745798E+03  0.30324527505E+03  0.97667998104E+03  0.50400001928E-02 0. -1.
</event>
<event>
 5   0  0.2492232E-07  0.2900365E+04  0.7818609E-02  0.8272769E-01
        2   -1    0    0  501    0  0.00000000000E+00  0.00000000000E+00  0.17234952766E+04  0.17234952766E+04  0.25500000920E-02 0.  1.
       -2   -1    0    0    0  501  0.00000000000E+00  0.00000000000E+00 -0.12202116336E+04  0.12202116336E+04  0.25500000920E-02 0. -1.
    10030    2    1    2    0    0  0.00000000000E+00  0.00000000000E+00  0.50328364298E+03  0.29437069102E+04  0.29003647957E+04 0.  0.
        4    1    3    3  502    0  0.55681050472E+03  0.13388718839E+04  0.27223078822E+03  0.14753735373E+04  0.12699999809E+01 0. -1.
       -4    1    3    3    0  502 -0.55681050472E+03 -0.13388718839E+04  0.23105285475E+03  0.14683333730E+04  0.12699999809E+01 0.  1.
</event>
<event>
 5   0  0.2492232E-07  0.2900429E+04  0.7818609E-02  0.8272750E-01
        2   -1    0    0  501    0  0.00000000000E+00  0.00000000000E+00  0.93311547477E+03  0.93311547478E+03  0.25500000920E-02 0. -1.
       -2   -1    0    0    0  501  0.00000000000E+00  0.00000000000E+00 -0.22538713331E+04  0.22538713331E+04  0.25500000920E-02 0.  1.
    10030    2    1    2    0    0  0.00000000000E+00  0.00000000000E+00 -0.13207558584E+04  0.31869868079E+04  0.29004290849E+04 0.  0.
        4    1    3    3  502    0 -0.45879271117E+03 -0.10209986717E+04 -0.16735341391E+04  0.20133671218E+04  0.12699999809E+01 0.  1.
       -4    1    3    3    0  502  0.45879271117E+03  0.10209986717E+04  0.35277828069E+03  0.11736196862E+04  0.12699999809E+01 0. -1.
</event>
<event>
 5   0  0.9421924E-08  0.2899302E+04  0.7818609E-02  0.8273085E-01
       -1   -1    0    0    0  501  0.00000000000E+00  0.00000000000E+00  0.11649058392E+04  0.11649058393E+04  0.50400001928E-02 0. -1.
        1   -1    0    0  501    0  0.00000000000E+00  0.00000000000E+00 -0.18039987269E+04  0.18039987270E+04  0.50400001928E-02 0.  1.
    10030    2    1    2    0    0  0.00000000000E+00  0.00000000000E+00 -0.63909288771E+03  0.29689045662E+04  0.28993024341E+04 0.  0.
        1    1    3    3  502    0 -0.11562180012E+04  0.87348624814E+03 -0.27769527218E+03  0.14754433084E+04  0.50400001928E-02 0. -1.
       -1    1    3    3    0  502  0.11562180012E+04 -0.87348624814E+03 -0.36139761552E+03  0.14934612578E+04  0.50400001928E-02 0.  1.
</event>
<event>
 5   0  0.9763851E-08  0.2900187E+04  0.7818609E-02  0.8272822E-01
       -1   -1    0    0    0  501  0.00000000000E+00  0.00000000000E+00  0.94182125532E+03  0.94182125534E+03  0.50400001928E-02 0. -1.
        1   -1    0    0  501    0  0.00000000000E+00  0.00000000000E+00 -0.22326646350E+04  0.22326646351E+04  0.50400001928E-02 0.  1.
    10030    2    1    2    0    0  0.00000000000E+00  0.00000000000E+00 -0.12908433797E+04  0.31744858904E+04  0.29001868970E+04 0.  0.
        3    1    3    3  502    0  0.12868638059E+04 -0.17165676853E+03  0.61651843374E+02  0.12997251483E+04  0.10100000352E+00 0. -1.
       -3    1    3    3    0  502 -0.12868638059E+04  0.17165676853E+03 -0.13524952231E+04  0.18747607421E+04  0.10100000352E+00 0.  1.
</event>
<event>
 5   0  0.2608591E-07  0.2900608E+04  0.7818609E-02  0.8272696E-01
       -2   -1    0    0    0  501  0.00000000000E+00  0.00000000000E+00  0.14755508443E+04  0.14755508443E+04  0.25500000920E-02 0. -1.
        2   -1    0    0  501    0  0.00000000000E+00  0.00000000000E+00 -0.14254895259E+04  0.14254895259E+04  0.25500000920E-02 0.  1.
    10030    2    1    2    0    0  0.00000000000E+00  0.00000000000E+00  0.50061318327E+02  0.29010403702E+04  0.29006084006E+04 0.  0.
        2    1    3    3  502    0  0.48610154145E+03  0.49538702650E+03 -0.12486106985E+04  0.14285418059E+04  0.25500000920E-02 0.  1.
       -2    1    3    3    0  502 -0.48610154145E+03 -0.49538702650E+03  0.12986720168E+04  0.14724985643E+04  0.25500000920E-02 0. -1.
</event>
<event>
 5   0  0.9395744E-08  0.2900155E+04  0.7818609E-02  0.8272831E-01
        1   -1    0    0  501    0  0.00000000000E+00  0.00000000000E+00  0.17396535858E+04  0.17396535858E+04  0.50400001928E-02 0.  1.
       -1   -1    0    0    0  501  0.00000000000E+00  0.00000000000E+00 -0.12087032968E+04  0.12087032968E+04  0.50400001928E-02 0. -1.
    10030    2    1    2    0    0  0.00000000000E+00  0.00000000000E+00  0.53095028902E+03  0.29483568826E+04  0.29001551851E+04 0.  0.
        2    1    3    3  502    0  0.11012659150E+04  0.94192069460E+03  0.31853273729E+03  0.14837332358E+04  0.25500000920E-02 0.  1.
       -2    1    3    3    0  502 -0.11012659150E+04 -0.94192069460E+03  0.21241755173E+03  0.14646236468E+04  0.25500000920E-02 0. -1.
</event>
<event>
 5   0  0.9443352E-08  0.2899931E+04  0.7818609E-02  0.8272898E-01
       -1   -1    0    0    0  501  0.00000000000E+00  0.00000000000E+00  0.12485484988E+04  0.12485484988E+04  0.50400001928E-02 0.  1.
        1   -1    0    0  501    0  0.00000000000E+00  0.00000000000E+00 -0.16838755466E+04  0.16838755466E+04  0.50400001928E-02 0. -1.
    10030    2    1    2    0    0  0.00000000000E+00  0.00000000000E+00 -0.43532704785E+03  0.29324240454E+04  0.28999312308E+04 0.  0.
        4    1    3    3  502    0 -0.58257754319E+03  0.85005139401E+02  0.11222403798E+04  0.12672993137E+04  0.12699999809E+01 0.  1.
       -4    1    3    3    0  502  0.58257754319E+03 -0.85005139401E+02 -0.15575674276E+04  0.16651247317E+04  0.12699999809E+01 0. -1.
</event>
<event>
 5   0  0.9443352E-08  0.2900608E+04  0.7818609E-02  0.8272697E-01
        1   -1    0    0  501    0  0.00000000000E+00  0.00000000000E+00  0.27160903440E+04  0.27160903441E+04  0.50400001928E-02 0. -1.
       -1   -1    0    0    0  501  0.00000000000E+00  0.00000000000E+00 -0.77441526517E+03  0.77441526519E+03  0.50400001928E-02 0.  1.
    10030    2    1    2    0    0  0.00000000000E+00  0.00000000000E+00  0.19416750789E+04  0.34905056092E+04  0.29006080908E+04 0.  0.
        4    1    3    3  502    0 -0.75828495542E+03 -0.12330299288E+04  0.86306142167E+03  0.16852998278E+04  0.12699999809E+01 0.  1.
       -4    1    3    3    0  502  0.75828495542E+03  0.12330299288E+04  0.10786136572E+04  0.18052057815E+04  0.12699999809E+01 0. -1.
</event>
<event>
 5   0  0.2608591E-07  0.2900853E+04  0.7818609E-02  0.8272624E-01
        2   -1    0    0  501    0  0.00000000000E+00  0.00000000000E+00  0.15828472533E+04  0.15828472533E+04  0.25500000920E-02 0.  1.
       -2   -1    0    0    0  501  0.00000000000E+00  0.00000000000E+00 -0.13290837967E+04  0.13290837967E+04  0.25500000920E-02 0. -1.
    10030    2    1    2    0    0  0.00000000000E+00  0.00000000000E+00  0.25376345667E+03  0.29119310500E+04  0.29008527277E+04 0.  0.
        2    1    3    3  502    0 -0.33462995308E+03 -0.10753321898E+04  0.10443855248E+04  0.15359224096E+04  0.25500000920E-02 0.  1.
       -2    1    3    3    0  502  0.33462995308E+03  0.10753321898E+04 -0.79062206808E+03  0.13760086404E+04  0.25500000920E-02 0. -1.
</event>
<event>
 5   0  0.9421924E-08  0.2896435E+04  0.7818609E-02  0.8273939E-01
        1   -1    0    0  501    0  0.00000000000E+00  0.00000000000E+00  0.24488187993E+04  0.24488187993E+04  0.50400001928E-02 0.  1.
       -1   -1    0    0    0  501  0.00000000000E+00  0.00000000000E+00 -0.85646748111E+03  0.85646748112E+03  0.50400001928E-02 0. -1.
    10030    2    1    2    0    0  0.00000000000E+00  0.00000000000E+00  0.15923513182E+04  0.33052862804E+04  0.28964348215E+04 0.  0.
        1    1    3    3  502    0  0.13309311488E+04  0.56646384950E+03  0.87746778894E+03  0.16918063531E+04  0.50400001928E-02 0. -1.
       -1    1    3    3    0  502 -0.13309311488E+04 -0.56646384950E+03  0.71488352922E+03  0.16134799274E+04  0.50400001928E-02 0.  1.
</event>
<event>
 5   0  0.2608591E-07  0.2901493E+04  0.7818609E-02  0.8272434E-01
       -2   -1    0    0    0  501  0.00000000000E+00  0.00000000000E+00  0.12057570964E+04  0.12057570964E+04  0.25500000920E-02 0.  1.
        2   -1    0    0  501    0  0.00000000000E+00  0.00000000000E+00 -0.17455130057E+04  0.17455130057E+04  0.25500000920E-02 0. -1.
    10030    2    1    2    0    0  0.00000000000E+00  0.00000000000E+00 -0.53975590930E+03  0.29512701022E+04  0.29014925081E+04 0.  0.
        2    1    3    3  502    0  0.46016212295E+03 -0.11694275053E+04  0.46737049325E+03  0.13408001520E+04  0.25500000920E-02 0.  1.
       -2    1    3    3    0  502 -0.46016212295E+03  0.11694275053E+04 -0.10071264026E+04  0.16104699502E+04  0.25500000920E-02 0. -1.
</event>
<event>
 5   0  0.2608591E-07  0.2899266E+04  0.7818609E-02  0.8273096E-01
        2   -1    0    0  501    0  0.00000000000E+00  0.00000000000E+00  0.13638708228E+04  0.13638708228E+04  0.25500000920E-02 0. -1.
       -2   -1    0    0    0  501  0.00000000000E+00  0.00000000000E+00 -0.15407885343E+04  0.15407885343E+04  0.25500000920E-02 0.  1.
    10030    2    1    2    0    0  0.00000000000E+00  0.00000000000E+00 -0.17691771146E+03  0.29046593571E+04  0.28992664769E+04 0.  0.
        2    1    3    3  502    0  0.42715581027E+03  0.29711133365E+03 -0.14440089800E+04  0.15348938612E+04  0.25500000920E-02 0.  1.
       -2    1    3    3    0  502 -0.42715581027E+03 -0.29711133365E+03  0.12670912685E+04  0.13697654959E+04  0.25500000920E-02 0. -1.
</event>
<event>
 5   0  0.2608591E-07  0.2899914E+04  0.7818609E-02  0.8272903E-01
       -2   -1    0    0    0  501  0.00000000000E+00  0.00000000000E+00  0.80829311972E+03  0.80829311972E+03  0.25500000920E-02 0.  1.
        2   -1    0    0  501    0  0.00000000000E+00  0.00000000000E+00 -0.26010060637E+04  0.26010060637E+04  0.25500000920E-02 0. -1.
    10030    2    1    2    0    0  0.00000000000E+00  0.00000000000E+00 -0.17927129440E+04  0.34092991835E+04  0.28999140026E+04 0.  0.
        2    1    3    3  502    0  0.83698342035E+03  0.91921725568E+03 -0.19035829756E+02  0.12433277814E+04  0.25500000920E-02 0.  1.
       -2    1    3    3    0  502 -0.83698342035E+03 -0.91921725568E+03 -0.17736771143E+04  0.21659714021E+04  0.25500000920E-02 0. -1.
</event>
<event>
 5   0  0.2546841E-07  0.2899872E+04  0.7818609E-02  0.8272915E-01
       -2   -1    0    0    0  501  0.00000000000E+00  0.00000000000E+00  0.82956277291E+03  0.82956277291E+03  0.25500000920E-02 0. -1.
        2   -1    0    0  501    0  0.00000000000E+00  0.00000000000E+00 -0.25342446896E+04  0.25342446896E+04  0.25500000920E-02 0.  1.
    10030    2    1    2    0    0  0.00000000000E+00  0.00000000000E+00 -0.17046819167E+04  0.33638074625E+04  0.28998724468E+04 0.  0.
        1    1    3    3  502    0  0.97845804868E+03 -0.41023626765E+03  0.29401563541E+03  0.11009628251E+04  0.50400001928E-02 0. -1.
       -1    1    3    3    0  502 -0.97845804868E+03  0.41023626765E+03 -0.19986975521E+04  0.22628446374E+04  0.50400001928E-02 0.  1.
</event>
<event>
 5   0  0.9395744E-08  0.2897071E+04  0.7818609E-02  0.8273749E-01
        1   -1    0    0  501    0  0.00000000000E+00  0.00000000000E+00  0.11635976182E+04  0.11635976182E+04  0.50400001928E-02 0.  1.
       -1   -1    0    0    0  501  0.00000000000E+00  0.00000000000E+00 -0.18032482182E+04  0.18032482182E+04  0.50400001928E-02 0. -1.
    10030    2    1    2    0    0  0.00000000000E+00  0.00000000000E+00 -0.63965060006E+03  0.29668458364E+04  0.28970711636E+04 0.  0.
        2    1    3    3  502    0 -0.92234547188E+03 -0.77682290083E+03 -0.11417004305E+04  0.16606188190E+04  0.25500000920E-02 0. -1.
       -2    1    3    3    0  502  0.92234547188E+03  0.77682290083E+03  0.50204983049E+03  0.13062270174E+04  0.25500000920E-02 0.  1.
</event>
<event>
 5   0  0.2492232E-07  0.2895456E+04  0.7818609E-02  0.8274231E-01
       -2   -1    0    0    0  501  0.00000000000E+00  0.00000000000E+00  0.86300199673E+03  0.86300199673E+03  0.25500000920E-02 0.  1.
        2   -1    0    0  501    0  0.00000000000E+00  0.00000000000E+00 -0.24286339170E+04  0.24286339170E+04  0.25500000920E-02 0. -1.
    10030    2    1    2    0    0  0.00000000000E+00  0.00000000000E+00 -0.15656319203E+04  0.32916359137E+04  0.28954556945E+04 0.  0.
        4    1    3    3  502    0 -0.76937841927E+03  0.14981622276E+03  0.60090826488E+03  0.98766411716E+03  0.12699999809E+01 0.  1.
       -4    1    3    3    0  502  0.76937841927E+03 -0.14981622276E+03 -0.21665401852E+04  0.23039717966E+04  0.12699999809E+01 0. -1.
</event>
<event>
 5   0  0.2678723E-07  0.2892407E+04  0.7818609E-02  0.8275140E-01
        2   -1    0    0  501    0  0.00000000000E+00  0.00000000000E+00  0.14989641154E+04  0.14989641154E+04  0.25500000920E-02 0.  1.
       -2   -1    0    0    0  501  0.00000000000E+00  0.00000000000E+00 -0.13952998043E+04  0.13952998043E+04  0.25500000920E-02 0. -1.
    10030    2    1    2    0    0  0.00000000000E+00  0.00000000000E+00  0.10366431111E+03  0.28942639196E+04  0.28924068433E+04 0.  0.
        5    1    3    3  502    0  0.11169138702E+04  0.76746753207E+03  0.55711105450E+03  0.14652296145E+04  0.46999998093E+01 0.  1.
       -5    1    3    3    0  502 -0.11169138702E+04 -0.76746753207E+03 -0.45344674339E+03  0.14290343051E+04  0.46999998093E+01 0. -1.
</event>
<event>
 5   0  0.9388076E-08  0.2899691E+04  0.7818609E-02  0.8272970E-01
       -1   -1    0    0    0  501  0.00000000000E+00  0.00000000000E+00  0.12958066567E+04  0.12958066567E+04  0.50400001928E-02 0. -1.
        1   -1    0    0  501    0  0.00000000000E+00  0.00000000000E+00 -0.16221953213E+04  0.16221953214E+04  0.50400001928E-02 0.  1.
    10030    2    1    2    0    0  0.00000000000E+00  0.00000000000E+00 -0.32638866465E+03  0.29180019781E+04  0.28996906703E+04 0.  0.
        5    1    3    3  502    0  0.42291496076E+03  0.13864912266E+04 -0.19191259989E+03  0.14622132271E+04  0.46999998093E+01 0.  1.
       -5    1    3    3    0  502 -0.42291496076E+03 -0.13864912266E+04 -0.13447606476E+03  0.14557887510E+04  0.46999998093E+01 0. -1.
</event>
<event>
 5   0  0.2678723E-07  0.2900398E+04  0.7818609E-02  0.8272759E-01
       -2   -1    0    0    0  501  0.00000000000E+00  0.00000000000E+00  0.91001201537E+03  0.91001201538E+03  0.25500000920E-02 0.  1.
        2   -1    0    0  501    0  0.00000000000E+00  0.00000000000E+00 -0.23110439696E+04  0.23110439696E+04  0.25500000920E-02 0. -1.
    10030    2    1    2    0    0  0.00000000000E+00  0.00000000000E+00 -0.14010319543E+04  0.32210559850E+04  0.29003984419E+04 0.  0.
        5    1    3    3  502    0 -0.11676289453E+04  0.71871534725E+03 -0.12251249733E+04  0.18387121565E+04  0.46999998093E+01 0. -1.
       -5    1    3    3    0  502  0.11676289453E+04 -0.71871534725E+03 -0.17590698093E+03  0.13823438285E+04  0.46999998093E+01 0.  1.
</event>
<event>
 5   0  0.9388076E-08  0.2899918E+04  0.7818609E-02  0.8272902E-01
        1   -1    0    0  501    0  0.00000000000E+00  0.00000000000E+00  0.14878536497E+04  0.14878536497E+04  0.50400001928E-02 0. -1.
       -1   -1    0    0    0  501  0.00000000000E+00  0.00000000000E+00 -0.14130291757E+04  0.14130291757E+04  0.50400001928E-02 0.  1.
    10030    2    1    2    0    0  0.00000000000E+00  0.00000000000E+00  0.74824474067E+02  0.29008828254E+04  0.28999176652E+04 0.  0.
        5    1    3    3  502    0  0.35242127511E+03  0.64483926585E+03 -0.12129398061E+04  0.14181902190E+04  0.46999998093E+01 0.  1.
       -5    1    3    3    0  502 -0.35242127511E+03 -0.64483926585E+03  0.12877642802E+04  0.14826926064E+04  0.46999998093E+01 0. -1.
</event>
<event>
 5   0  0.2678723E-07  0.2900515E+04  0.7818609E-02  0.8272724E-01
        2   -1    0    0  501    0  0.00000000000E+00  0.00000000000E+00  0.25583245987E+04  0.25583245987E+04  0.25500000920E-02 0. -1.
       -2   -1    0    0    0  501  0.00000000000E+00  0.00000000000E+00 -0.82211862108E+03  0.82211862109E+03  0.25500000920E-02 0.  1.
    10030    2    1    2    0    0  0.00000000000E+00  0.00000000000E+00  0.17362059776E+04  0.33804432198E+04  0.29005146380E+04 0.  0.
        5    1    3    3  502    0 -0.14147483273E+04  0.23884931884E+03  0.62180010933E+03  0.15637196976E+04  0.46999998093E+01 0. -1.
       -5    1    3    3    0  502  0.14147483273E+04 -0.23884931884E+03  0.11144058683E+04  0.18167235221E+04  0.46999998093E+01 0.  1.
</event>
<event>
 5   0  0.2608591E-07  0.2898595E+04  0.7818609E-02  0.8273296E-01
        2   -1    0    0  501    0  0.00000000000E+00  0.00000000000E+00  0.12832078220E+04  0.12832078220E+04  0.25500000920E-02 0.  1.
       -2   -1    0    0    0  501  0.00000000000E+00  0.00000000000E+00 -0.16368847578E+04  0.16368847578E+04  0.25500000920E-02 0. -1.
    10030    2    1    2    0    0  0.00000000000E+00  0.00000000000E+00 -0.35367693586E+03  0.29200925798E+04  0.28985950562E+04 0.  0.
        2    1    3    3  502    0 -0.87684284314E+03  0.10883520021E+03 -0.13341688457E+04  0.16002202914E+04  0.25500000920E-02 0. -1.
       -2    1    3    3    0  502  0.87684284314E+03 -0.10883520021E+03  0.98049190981E+03  0.13198722884E+04  0.25500000920E-02 0.  1.
</event>
<event>
 5   0  0.9421924E-08  0.2900812E+04  0.7818609E-02  0.8272636E-01
        1   -1    0    0  501    0  0.00000000000E+00  0.00000000000E+00  0.12859630716E+04  0.12859630716E+04  0.50400001928E-02 0.  1.
       -1   -1    0    0    0  501  0.00000000000E+00  0.00000000000E+00 -0.16358767098E+04  0.16358767098E+04  0.50400001928E-02 0. -1.
    10030    2    1    2    0    0  0.00000000000E+00  0.00000000000E+00 -0.34991363818E+03  0.29218397814E+04  0.29008116371E+04 0.  0.
        1    1    3    3  502    0  0.10642548253E+04 -0.53061761872E+03 -0.10113276040E+04  0.15610819688E+04  0.50400001928E-02 0. -1.
       -1    1    3    3    0  502 -0.10642548253E+04  0.53061761872E+03  0.66141396581E+03  0.13607578127E+04  0.50400001928E-02 0.  1.
</event>
<event>
 5   0  0.9763851E-08  0.2899514E+04  0.7818609E-02  0.8273022E-01
        1   -1    0    0  501    0  0.00000000000E+00  0.00000000000E+00  0.26030927214E+04  0.26030927214E+04  0.50400001928E-02 0. -1.
       -1   -1    0    0    0  501  0.00000000000E+00  0.00000000000E+00 -0.80742258859E+03  0.80742258860E+03  0.50400001928E-02 0.  1.
    10030    2    1    2    0    0  0.00000000000E+00  0.00000000000E+00  0.17956701328E+04  0.34105153100E+04  0.28995143479E+04 0.  0.
        3    1    3    3  502    0  0.41773444031E+03  0.20099097954E+03  0.25135650008E+04  0.25559554886E+04  0.10100000352E+00 0. -1.
       -3    1    3    3    0  502 -0.41773444031E+03 -0.20099097954E+03 -0.71789486803E+03  0.85455982132E+03  0.10100000352E+00 0.  1.
</event>
<event>
 5   0  0.2492232E-07  0.2898882E+04  0.7818609E-02  0.8273210E-01
       -2   -1    0    0    0  501  0.00000000000E+00  0.00000000000E+00  0.13624776533E+04  0.13624776533E+04  0.25500000920E-02 0. -1.
        2   -1    0    0  501    0  0.00000000000E+00  0.00000000000E+00 -0.15419548447E+04  0.15419548448E+04  0.25500000920E-02 0.  1.
    10030    2    1    2    0    0  0.00000000000E+00  0.00000000000E+00 -0.17947719141E+03  0.29044324981E+04  0.28988818661E+04 0.  0.
        4    1    3    3  502    0 -0.12765613088E+03 -0.14384090610E+04 -0.21471994501E+03  0.14599393762E+04  0.12699999809E+01 0.  1.
       -4    1    3    3    0  502  0.12765613088E+03  0.14384090610E+04  0.35242753597E+02  0.14444931219E+04  0.12699999809E+01 0. -1.
</event>
<event>
 5   0  0.2492232E-07  0.2900713E+04  0.7818609E-02  0.8272666E-01
        2   -1    0    0  501    0  0.00000000000E+00  0.00000000000E+00  0.22855508161E+04  0.22855508161E+04  0.25500000920E-02 0. -1.
       -2   -1    0    0    0  501  0.00000000000E+00  0.00000000000E+00 -0.92036162201E+03  0.92036162201E+03  0.25500000920E-02 0.  1.
    10030    2    1    2    0    0  0.00000000000E+00  0.00000000000E+00  0.13651891941E+04  0.32059124381E+04  0.29007125030E+04 0.  0.
        4    1    3    3  502    0 -0.94556683060E+03 -0.10971924342E+04  0.76532922177E+03  0.16381875043E+04  0.12699999809E+01 0.  1.
       -4    1    3    3    0  502  0.94556683060E+03  0.10971924342E+04  0.59985997234E+03  0.15677249338E+04  0.12699999809E+01 0. -1.
</event>
<event>
 5   0  0.2546841E-07  0.2900524E+04  0.7818609E-02  0.8272722E-01
        2   -1    0    0  501    0  0.00000000000E+00  0.00000000000E+00  0.87856984627E+03  0.87856984628E+03  0.25500000920E-02 0.  1.
       -2   -1    0    0    0  501  0.00000000000E+00  0.00000000000E+00 -0.23939579515E+04  0.23939579515E+04  0.25500000920E-02 0. -1.
    10030    2    1    2    0    0  0.00000000000E+00  0.00000000000E+00 -0.15153881052E+04  0.32725277977E+04  0.29005235868E+04 0.  0.
        1    1    3    3  502    0  0.58016751795E+03  0.42121279059E+03  0.66464236352E+03  0.97763185057E+03  0.50400001928E-02 0.  1.
       -1    1    3    3    0  502 -0.58016751795E+03 -0.42121279059E+03 -0.21800304687E+04  0.22948959472E+04  0.50400001928E-02 0. -1.
</event>
<event>
 5   0  0.8407500E-08  0.2890595E+04  0.7818609E-02  0.8275681E-01
       -4   -1    0    0    0  501  0.00000000000E+00  0.00000000000E+00  0.14214077835E+04  0.14214083509E+04  0.12699999809E+01 0. -1.
        4   -1    0    0  501    0  0.00000000000E+00  0.00000000000E+00 -0.14695873568E+04  0.14695879056E+04  0.12699999809E+01 0.  1.
    10030    2    1    2    0    0  0.00000000000E+00  0.00000000000E+00 -0.48179573288E+02  0.28909962565E+04  0.28905947629E+04 0.  0.
        4    1    3    3  502    0 -0.20218839078E+03  0.10510139746E+03 -0.14515078580E+04  0.14692866037E+04  0.12699999809E+01 0.  1.
       -4    1    3    3    0  502  0.20218839078E+03 -0.10510139746E+03  0.14033282847E+04  0.14217096527E+04  0.12699999809E+01 0. -1.
</event>
<event>
 5   0  0.9763851E-08  0.2897231E+04  0.7818609E-02  0.8273702E-01
       -1   -1    0    0    0  501  0.00000000000E+00  0.00000000000E+00  0.12831248036E+04  0.12831248036E+04  0.50400001928E-02 0. -1.
        1   -1    0    0  501    0  0.00000000000E+00  0.00000000000E+00 -0.16354508192E+04  0.16354508192E+04  0.50400001928E-02 0.  1.
    10030    2    1    2    0    0  0.00000000000E+00  0.00000000000E+00 -0.35232601566E+03  0.29185756228E+04  0.28972314448E+04 0.  0.
        3    1    3    3  502    0  0.61451351554E+03 -0.12803743462E+04  0.11142604936E+03  0.14245704973E+04  0.10100000352E+00 0.  1.
       -3    1    3    3    0  502 -0.61451351554E+03  0.12803743462E+04 -0.46375206502E+03  0.14940051255E+04  0.10100000352E+00 0. -1.
</event>
<event>
 5   0  0.9421924E-08  0.2901246E+04  0.7818609E-02  0.8272507E-01
        1   -1    0    0  501    0  0.00000000000E+00  0.00000000000E+00  0.15828872440E+04  0.15828872440E+04  0.50400001928E-02 0. -1.
       -1   -1    0    0    0  501  0.00000000000E+00  0.00000000000E+00 -0.13294102075E+04  0.13294102075E+04  0.50400001928E-02 0.  1.
    10030    2    1    2    0    0  0.00000000000E+00  0.00000000000E+00  0.25347703656E+03  0.29122974515E+04  0.29012455666E+04 0.  0.
        1    1    3    3  502    0  0.45939274972E+03  0.13745038296E+04  0.63220436204E+02  0.14506203154E+04  0.50400001928E-02 0. -1.
       -1    1    3    3    0  502 -0.45939274972E+03 -0.13745038296E+04  0.19025660036E+03  0.14616771360E+04  0.50400001928E-02 0.  1.
</event>
<event>
 5   0  0.2608591E-07  0.2900484E+04  0.7818609E-02  0.8272733E-01
        2   -1    0    0  501    0  0.00000000000E+00  0.00000000000E+00  0.14632599552E+04  0.14632599552E+04  0.25500000920E-02 0.  1.
       -2   -1    0    0    0  501  0.00000000000E+00  0.00000000000E+00 -0.14373402177E+04  0.14373402177E+04  0.25500000920E-02 0. -1.
    10030    2    1    2    0    0  0.00000000000E+00  0.00000000000E+00  0.25919737481E+02  0.29006001729E+04  0.29004843613E+04 0.  0.
        2    1    3    3  502    0 -0.12077850530E+04 -0.21505232405E+03  0.78643121160E+03  0.14572118195E+04  0.25500000920E-02 0.  1.
       -2    1    3    3    0  502  0.12077850530E+04  0.21505232405E+03 -0.76051147412E+03  0.14433883534E+04  0.25500000920E-02 0. -1.
</event>
<event>
 5   0  0.9388076E-08  0.2899908E+04  0.7818609E-02  0.8272905E-01
        1   -1    0    0  501    0  0.00000000000E+00  0.00000000000E+00  0.20637132314E+04  0.20637132314E+04  0.50400001928E-02 0. -1.
       -1   -1    0    0    0  501  0.00000000000E+00  0.00000000000E+00 -0.10187298576E+04  0.10187298576E+04  0.50400001928E-02 0.  1.
    10030    2    1    2    0    0  0.00000000000E+00  0.00000000000E+00  0.10449833738E+04  0.30824430890E+04  0.28999077822E+04 0.  0.
        5    1    3    3  502    0 -0.33542706524E+03 -0.12088389254E+04 -0.25027849710E+03  0.12792436358E+04  0.46999998093E+01 0.  1.
       -5    1    3    3    0  502  0.33542706524E+03  0.12088389254E+04  0.12952618709E+04  0.18031994532E+04  0.46999998093E+01 0. -1.
</event>
<event>
 5   0  0.9763851E-08  0.2899792E+04  0.7818609E-02  0.8272939E-01
        1   -1    0    0  501    0  0.00000000000E+00  0.00000000000E+00  0.12607149392E+04  0.12607149392E+04  0.50400001928E-02 0.  1.
       -1   -1    0    0    0  501  0.00000000000E+00  0.00000000000E+00 -0.16674653050E+04  0.16674653050E+04  0.50400001928E-02 0. -1.
    10030    2    1    2    0    0  0.00000000000E+00  0.00000000000E+00 -0.40675036584E+03  0.29281802442E+04  0.28997920067E+04 0.  0.
        3    1    3    3  502    0 -0.11240425403E+04 -0.11021570738E+03 -0.11214397246E+04  0.15916174794E+04  0.10100000352E+00 0. -1.
       -3    1    3    3    0  502  0.11240425403E+04  0.11021570738E+03  0.71468935877E+03  0.13365627648E+04  0.10100000352E+00 0.  1.
</event>
<event>
 5   0  0.9395744E-08  0.2901157E+04  0.7818609E-02  0.8272533E-01
       -1   -1    0    0    0  501  0.00000000000E+00  0.00000000000E+00  0.12532961401E+04  0.12532961402E+04  0.50400001928E-02 0. -1.
        1   -1    0    0  501    0  0.00000000000E+00  0.00000000000E+00 -0.16789147431E+04  0.16789147431E+04  0.50400001928E-02 0.  1.
    10030    2    1    2    0    0  0.00000000000E+00  0.00000000000E+00 -0.42561860296E+03  0.29322108833E+04  0.29011565743E+04 0.  0.
        2    1    3    3  502    0  0.37126655867E+02  0.63124591919E+02  0.12514265519E+04  0.12535675161E+04  0.25500000920E-02 0. -1.
       -2    1    3    3    0  502 -0.37126655867E+02 -0.63124591919E+02 -0.16770451548E+04  0.16786433672E+04  0.25500000920E-02 0.  1.
</event>
<event>
 5   0  0.2608591E-07  0.2900052E+04  0.7818609E-02  0.8272862E-01
        2   -1    0    0  501    0  0.00000000000E+00  0.00000000000E+00  0.12603448389E+04  0.12603448389E+04  0.25500000920E-02 0.  1.
       -2   -1    0    0    0  501  0.00000000000E+00  0.00000000000E+00 -0.16682541345E+04  0.16682541345E+04  0.25500000920E-02 0. -1.
    10030    2    1    2    0    0  0.00000000000E+00  0.00000000000E+00 -0.40790929559E+03  0.29285989734E+04  0.29000520604E+04 0.  0.
        2    1    3    3  502    0  0.79667931422E+03 -0.10698386291E+04 -0.77816672367E+03  0.15442784956E+04  0.25500000920E-02 0. -1.
       -2    1    3    3    0  502 -0.79667931422E+03  0.10698386291E+04  0.37025742808E+03  0.13843204778E+04  0.25500000920E-02 0.  1.
</event>
<event>
 5   0  0.2534588E-07  0.2899288E+04  0.7818609E-02  0.8273089E-01
       -2   -1    0    0    0  501  0.00000000000E+00  0.00000000000E+00  0.12093319878E+04  0.12093319878E+04  0.25500000920E-02 0.  1.
        2   -1    0    0  501    0  0.00000000000E+00  0.00000000000E+00 -0.17377097040E+04  0.17377097040E+04  0.25500000920E-02 0. -1.
    10030    2    1    2    0    0  0.00000000000E+00  0.00000000000E+00 -0.52837771619E+03  0.29470416917E+04  0.28992881405E+04 0.  0.
        3    1    3    3  502    0  0.12640776065E+04 -0.40891924615E+03 -0.85370754072E+03  0.15792161728E+04  0.10100000352E+00 0. -1.
       -3    1    3    3    0  502 -0.12640776065E+04  0.40891924615E+03  0.32532982453E+03  0.13678255189E+04  0.10100000352E+00 0.  1.
</event>
<event>
 5   0  0.9388076E-08  0.2906236E+04  0.7818609E-02  0.8271025E-01
       -1   -1    0    0    0  501  0.00000000000E+00  0.00000000000E+00  0.10250292274E+04  0.10250292274E+04  0.50400001928E-02 0. -1.
        1   -1    0    0  501    0  0.00000000000E+00  0.00000000000E+00 -0.20599914092E+04  0.20599914092E+04  0.50400001928E-02 0.  1.
    10030    2    1    2    0    0  0.00000000000E+00  0.00000000000E+00 -0.10349621818E+04  0.30850206366E+04  0.29062356426E+04 0.  0.
        5    1    3    3  502    0 -0.35799529363E+03 -0.96166941748E+03 -0.16096381931E+04  0.19089069913E+04  0.46999998093E+01 0.  1.
       -5    1    3    3    0  502  0.35799529363E+03  0.96166941748E+03  0.57467601125E+03  0.11761136453E+04  0.46999998093E+01 0. -1.
</event>
<event>
 5   0  0.9421924E-08  0.2899697E+04  0.7818609E-02  0.8272968E-01
       -1   -1    0    0    0  501  0.00000000000E+00  0.00000000000E+00  0.19054954391E+04  0.19054954391E+04  0.50400001928E-02 0. -1.
        1   -1    0    0  501    0  0.00000000000E+00  0.00000000000E+00 -0.11031570376E+04  0.11031570376E+04  0.50400001928E-02 0.  1.
    10030    2    1    2    0    0  0.00000000000E+00  0.00000000000E+00  0.80233840150E+03  0.30086524767E+04  0.28996970213E+04 0.  0.
        1    1    3    3  502    0 -0.86381203473E+03  0.50369358869E+02  0.16082180671E+04  0.18262184029E+04  0.50400001928E-02 0. -1.
       -1    1    3    3    0  502  0.86381203473E+03 -0.50369358869E+02 -0.80587966557E+03  0.11824340739E+04  0.50400001928E-02 0.  1.
</event>
<event>
 5   0  0.9388076E-08  0.2899891E+04  0.7818609E-02  0.8272910E-01
        1   -1    0    0  501    0  0.00000000000E+00  0.00000000000E+00  0.13397109640E+04  0.13397109640E+04  0.50400001928E-02 0.  1.
       -1   -1    0    0    0  501  0.00000000000E+00  0.00000000000E+00 -0.15692500027E+04  0.15692500027E+04  0.50400001928E-02 0. -1.
    10030    2    1    2    0    0  0.00000000000E+00  0.00000000000E+00 -0.22953903865E+03  0.29089609667E+04  0.28998906420E+04 0.  0.
        5    1    3    3  502    0 -0.23714531523E+03 -0.72296697422E+02  0.13182836664E+04  0.13414017400E+04  0.46999998093E+01 0.  1.
       -5    1    3    3    0  502  0.23714531523E+03  0.72296697422E+02 -0.15478227050E+04  0.15675592267E+04  0.46999998093E+01 0. -1.
</event>
<event>
 5   0  0.2678723E-07  0.2900563E+04  0.7818609E-02  0.8272710E-01
       -2   -1    0    0    0  501  0.00000000000E+00  0.00000000000E+00  0.90970297104E+03  0.90970297104E+03  0.25500000920E-02 0.  1.
        2   -1    0    0  501    0  0.00000000000E+00  0.00000000000E+00 -0.23120915314E+04  0.23120915314E+04  0.25500000920E-02 0. -1.
    10030    2    1    2    0    0  0.00000000000E+00  0.00000000000E+00 -0.14023885603E+04  0.32217945024E+04  0.29005630732E+04 0.  0.
        5    1    3    3  502    0  0.55281200600E+03  0.25730632021E+03  0.76039420733E+03  0.97469436078E+03  0.46999998093E+01 0.  1.
       -5    1    3    3    0  502 -0.55281200600E+03 -0.25730632021E+03 -0.21627827677E+04  0.22471001416E+04  0.46999998093E+01 0. -1.
</event>
<event>
 5   0  0.2608591E-07  0.2900560E+04  0.7818609E-02  0.8272711E-01
        2   -1    0    0  501    0  0.00000000000E+00  0.00000000000E+00  0.19877333474E+04  0.19877333474E+04  0.25500000920E-02 0.  1.
       -2   -1    0    0    0  501  0.00000000000E+00  0.00000000000E+00 -0.10581460910E+04  0.10581460910E+04  0.25500000920E-02 0. -1.
    10030    2    1    2    0    0  0.00000000000E+00  0.00000000000E+00  0.92958725634E+03  0.30458794384E+04  0.29005601332E+04 0.  0.
        2    1    3    3  502    0 -0.11830630034E+04 -0.32699908276E+03  0.12759891073E+04  0.17705125451E+04  0.25500000920E-02 0.  1.
       -2    1    3    3    0  502  0.11830630034E+04  0.32699908276E+03 -0.34640185100E+03  0.12753668933E+04  0.25500000920E-02 0. -1.
</event>
<event>
 5   0  0.2608591E-07  0.2905791E+04  0.7818609E-02  0.8271157E-01
       -2   -1    0    0    0  501  0.00000000000E+00  0.00000000000E+00  0.69873063516E+03  0.69873063516E+03  0.25500000920E-02 0. -1.
        2   -1    0    0  501    0  0.00000000000E+00  0.00000000000E+00 -0.30210566874E+04  0.30210566874E+04  0.25500000920E-02 0.  1.
    10030    2    1    2    0    0  0.00000000000E+00  0.00000000000E+00 -0.23223260522E+04  0.37197873225E+04  0.29057906724E+04 0.  0.
        2    1    3    3  502    0 -0.68301239262E+03  0.11965903674E+04 -0.17513711761E+04  0.22283705778E+04  0.25500000920E-02 0.  1.
       -2    1    3    3    0  502  0.68301239262E+03 -0.11965903674E+04 -0.57095487610E+03  0.14914167447E+04  0.25500000920E-02 0. -1.
</event>
<event>
 5   0  0.2678723E-07  0.2900293E+04  0.7818609E-02  0.8272790E-01
       -2   -1    0    0    0  501  0.00000000000E+00  0.00000000000E+00  0.89172342157E+03  0.89172342157E+03  0.25500000920E-02 0.  1.
        2   -1    0    0  501    0  0.00000000000E+00  0.00000000000E+00 -0.23582696869E+04  0.23582696869E+04  0.25500000920E-02 0. -1.
    10030    2    1    2    0    0  0.00000000000E+00  0.00000000000E+00 -0.14665462653E+04  0.32499931085E+04  0.29002926157E+04 0.  0.
        5    1    3    3  502    0 -0.11971467777E+04 -0.74776395698E+03 -0.11059224098E+04  0.17931530356E+04  0.46999998093E+01 0. -1.
       -5    1    3    3    0  502  0.11971467777E+04  0.74776395698E+03 -0.36062385555E+03  0.14568400729E+04  0.46999998093E+01 0.  1.
</event>
<event>
 5   0  0.2546841E-07  0.2899083E+04  0.7818609E-02  0.8273150E-01
       -2   -1    0    0    0  501  0.00000000000E+00  0.00000000000E+00  0.22995801156E+04  0.22995801156E+04  0.25500000920E-02 0. -1.
        2   -1    0    0  501    0  0.00000000000E+00  0.00000000000E+00 -0.91371938823E+03  0.91371938823E+03  0.25500000920E-02 0.  1.
    10030    2    1    2    0    0  0.00000000000E+00  0.00000000000E+00  0.13858607274E+04  0.32132995039E+04  0.28990832595E+04 0.  0.
        1    1    3    3  502    0  0.77344168378E+03  0.12116018755E+04  0.48563044113E+03  0.15172435758E+04  0.50400001928E-02 0.  1.
       -1    1    3    3    0  502 -0.77344168378E+03 -0.12116018755E+04  0.90023028627E+03  0.16960559281E+04  0.50400001928E-02 0. -1.
</event>
<event>
 5   0  0.2608591E-07  0.2913223E+04  0.7818609E-02  0.8268954E-01
        2   -1    0    0  501    0  0.00000000000E+00  0.00000000000E+00  0.19343798018E+04  0.19343798018E+04  0.25500000920E-02 0. -1.
       -2   -1    0    0    0  501  0.00000000000E+00  0.00000000000E+00 -0.10968462324E+04  0.10968462324E+04  0.25500000920E-02 0.  1.
    10030    2    1    2    0    0  0.00000000000E+00  0.00000000000E+00  0.83753356941E+03  0.30312260343E+04  0.29132230932E+04 0.  0.
        2    1    3    3  502    0  0.42369567536E+03  0.13922745518E+04  0.48266050120E+03  0.15332669736E+04  0.25500000920E-02 0. -1.
       -2    1    3    3    0  502 -0.42369567536E+03 -0.13922745518E+04  0.35487306821E+03  0.14979590607E+04  0.25500000920E-02 0.  1.
</event>
<event>
 5   0  0.2546841E-07  0.2899517E+04  0.7818609E-02  0.8273021E-01
        2   -1    0    0  501    0  0.00000000000E+00  0.00000000000E+00  0.13427896806E+04  0.13427896806E+04  0.25500000920E-02 0.  1.
       -2   -1    0    0    0  501  0.00000000000E+00  0.00000000000E+00 -0.15652487836E+04  0.15652487836E+04  0.25500000920E-02 0. -1.
    10030    2    1    2    0    0  0.00000000000E+00  0.00000000000E+00 -0.22245910303E+03  0.29080384642E+04  0.28995171420E+04 0.  0.
        1    1    3    3  502    0 -0.30124221411E+03 -0.25075391422E+03 -0.15111021304E+04  0.15611066734E+04  0.50400001928E-02 0. -1.
       -1    1    3    3    0  502  0.30124221411E+03  0.25075391422E+03  0.12886430274E+04  0.13469317908E+04  0.50400001928E-02 0.  1.
</event>
<event>
 5   0  0.9443352E-08  0.2899973E+04  0.7818609E-02  0.8272885E-01
       -1   -1    0    0    0  501  0.00000000000E+00  0.00000000000E+00  0.85439068514E+03  0.85439068516E+03  0.50400001928E-02 0. -1.
        1   -1    0    0  501    0  0.00000000000E+00  0.00000000000E+00 -0.24607727947E+04  0.24607727947E+04  0.50400001928E-02 0.  1.
    10030    2    1    2    0    0  0.00000000000E+00  0.00000000000E+00 -0.16063821095E+04  0.33151634798E+04  0.28999733475E+04 0.  0.
        4    1    3    3  502    0 -0.57628867607E+03  0.89133191061E+03  0.32610763504E+03  0.11103733676E+04  0.12699999809E+01 0. -1.
       -4    1    3    3    0  502  0.57628867607E+03 -0.89133191061E+03 -0.19324897446E+04  0.22047901122E+04  0.12699999809E+01 0.  1.
</event>
<event>
 5   0  0.9421924E-08  0.2902186E+04  0.7818609E-02  0.8272227E-01
       -1   -1    0    0    0  501  0.00000000000E+00  0.00000000000E+00  0.13730435569E+04  0.13730435569E+04  0.50400001928E-02 0. -1.
        1   -1    0    0  501    0  0.00000000000E+00  0.00000000000E+00 -0.15335791242E+04  0.15335791242E+04  0.50400001928E-02 0.  1.
    10030    2    1    2    0    0  0.00000000000E+00  0.00000000000E+00 -0.16053556733E+03  0.29066226811E+04  0.29021860281E+04 0.  0.
        1    1    3    3  502    0  0.86681727524E+03  0.97957183205E+03 -0.70950985827E+03  0.14880649857E+04  0.50400001928E-02 0.  1.
       -1    1    3    3    0  502 -0.86681727524E+03 -0.97957183205E+03  0.54897429094E+03  0.14185576953E+04  0.50400001928E-02 0. -1.
</event>
<event>
 5   0  0.9443352E-08  0.2901793E+04  0.7818609E-02  0.8272344E-01
        1   -1    0    0  501    0  0.00000000000E+00  0.00000000000E+00  0.94593683716E+03  0.94593683717E+03  0.50400001928E-02 0.  1.
       -1   -1    0    0    0  501  0.00000000000E+00  0.00000000000E+00 -0.22254139080E+04  0.22254139080E+04  0.50400001928E-02 0. -1.
    10030    2    1    2    0    0  0.00000000000E+00  0.00000000000E+00 -0.12794770708E+04  0.31713507451E+04  0.29017932342E+04 0.  0.
        4    1    3    3  502    0  0.20478211710E+03 -0.30727851756E+03  0.89372124659E+03  0.96700314495E+03  0.12699999809E+01 0.  1.
       -4    1    3    3    0  502 -0.20478211710E+03  0.30727851756E+03 -0.21731983174E+04  0.22043476002E+04  0.12699999809E+01 0. -1.
</event>
<event>
 5   0  0.2492232E-07  0.2900280E+04  0.7818609E-02  0.8272794E-01
       -2   -1    0    0    0  501  0.00000000000E+00  0.00000000000E+00  0.16839348801E+04  0.16839348801E+04  0.25500000920E-02 0. -1.
        2   -1    0    0  501    0  0.00000000000E+00  0.00000000000E+00 -0.12488047243E+04  0.12488047243E+04  0.25500000920E-02 0.  1.
    10030    2    1    2    0    0  0.00000000000E+00  0.00000000000E+00  0.43513015583E+03  0.29327396044E+04  0.29002798718E+04 0.  0.
        4    1    3    3  502    0 -0.18635739231E+03  0.14761539448E+03  0.16640944290E+04  0.16809911552E+04  0.12699999809E+01 0. -1.
       -4    1    3    3    0  502  0.18635739231E+03 -0.14761539448E+03 -0.12289642732E+04  0.12517484492E+04  0.12699999809E+01 0.  1.
</event>
<event>
 5   0  0.9388076E-08  0.2900697E+04  0.7818609E-02  0.8272670E-01
       -1   -1    0    0    0  501  0.00000000000E+00  0.00000000000E+00  0.11149199550E+04  0.11149199550E+04  0.50400001928E-02 0. -1.
        1   -1    0    0  501    0  0.00000000000E+00  0.00000000000E+00 -0.18866924026E+04  0.18866924026E+04  0.50400001928E-02 0.  1.
    10030    2    1    2    0    0  0.00000000000E+00  0.00000000000E+00 -0.77177244755E+03  0.30016123576E+04  0.29006971635E+04 0.  0.
        5    1    3    3  502    0 -0.11110839613E+04  0.53385758101E+03  0.40488388880E+03  0.12974839264E+04  0.46999998093E+01 0. -1.
       -5    1    3    3    0  502  0.11110839613E+04 -0.53385758101E+03 -0.11766563364E+04  0.17041284311E+04  0.46999998093E+01 0.  1.
</event>
<event>
 5   0  0.9395744E-08  0.2899994E+04  0.7818609E-02  0.8272879E-01
       -1   -1    0    0    0  501  0.00000000000E+00  0.00000000000E+00  0.18637455734E+04  0.18637455734E+04  0.50400001928E-02 0.  1.
        1   -1    0    0  501    0  0.00000000000E+00  0.00000000000E+00 -0.11281003308E+04  0.11281003308E+04  0.50400001928E-02 0. -1.
    10030    2    1    2    0    0  0.00000000000E+00  0.00000000000E+00  0.73564524264E+03  0.29918459042E+04  0.28999944813E+04 0.  0.
        2    1    3    3  502    0 -0.11951489052E+04 -0.81039074455E+03  0.23182193050E+03  0.14624826399E+04  0.25500000920E-02 0. -1.
       -2    1    3    3    0  502  0.11951489052E+04  0.81039074455E+03  0.50382331214E+03  0.15293632643E+04  0.25500000920E-02 0.  1.
</event>
<event>
 5   0  0.9443352E-08  0.2904454E+04  0.7818609E-02  0.8271553E-01
        1   -1    0    0  501    0  0.00000000000E+00  0.00000000000E+00  0.12571863877E+04  0.12571863877E+04  0.50400001928E-02 0. -1.
       -1   -1    0    0    0  501  0.00000000000E+00  0.00000000000E+00 -0.16775265946E+04  0.16775265946E+04  0.50400001928E-02 0.  1.
    10030    2    1    2    0    0  0.00000000000E+00  0.00000000000E+00 -0.42034020695E+03  0.29347129823E+04  0.29044542343E+04 0.  0.
        4    1    3    3  502    0 -0.12158472295E+04  0.46308769128E+03  0.44170796814E+03  0.13739877136E+04  0.12699999809E+01 0. -1.
       -4    1    3    3    0  502  0.12158472295E+04 -0.46308769128E+03 -0.86204817509E+03  0.15607252687E+04  0.12699999809E+01 0.  1.
</event>
<event>
 5   0  0.9443352E-08  0.2899364E+04  0.7818609E-02  0.8273067E-01
       -1   -1    0    0    0  501  0.00000000000E+00  0.00000000000E+00  0.13108460841E+04  0.13108460841E+04  0.50400001928E-02 0. -1.
        1   -1    0    0  501    0  0.00000000000E+00  0.00000000000E+00 -0.16032229138E+04  0.16032229138E+04  0.50400001928E-02 0.  1.
    10030    2    1    2    0    0  0.00000000000E+00  0.00000000000E+00 -0.29237682971E+03  0.29140689979E+04  0.28993643983E+04 0.  0.
        4    1    3    3  502    0 -0.13637019414E+04 -0.41650108792E+03  0.11671175234E+03  0.14306569775E+04  0.12699999809E+01 0. -1.
       -4    1    3    3    0  502  0.13637019414E+04  0.41650108792E+03 -0.40908858205E+03  0.14834120204E+04  0.12699999809E+01 0.  1.
</event>
<event>
 5   0  0.2534588E-07  0.2900849E+04  0.7818609E-02  0.8272625E-01
       -2   -1    0    0    0  501  0.00000000000E+00  0.00000000000E+00  0.13459602699E+04  0.13459602699E+04  0.25500000920E-02 0.  1.
        2   -1    0    0  501    0  0.00000000000E+00  0.00000000000E+00 -0.15629970027E+04  0.15629970027E+04  0.25500000920E-02 0. -1.
    10030    2    1    2    0    0  0.00000000000E+00  0.00000000000E+00 -0.21703673276E+03  0.29089572726E+04  0.29008494395E+04 0.  0.
        3    1    3    3  502    0  0.65385864571E+03  0.22500152001E+03  0.11700255954E+04  0.13590867215E+04  0.10100000352E+00 0.  1.
       -3    1    3    3    0  502 -0.65385864571E+03 -0.22500152001E+03 -0.13870623282E+04  0.15498705510E+04  0.10100000352E+00 0. -1.
</event>
<event>
 5   0  0.9395744E-08  0.2902528E+04  0.7818609E-02  0.8272126E-01
        1   -1    0    0  501    0  0.00000000000E+00  0.00000000000E+00  0.20865072300E+04  0.20865072300E+04  0.50400001928E-02 0.  1.
       -1   -1    0    0    0  501  0.00000000000E+00  0.00000000000E+00 -0.10094221877E+04  0.10094221877E+04  0.50400001928E-02 0. -1.
    10030    2    1    2    0    0  0.00000000000E+00  0.00000000000E+00  0.10770850423E+04  0.30959294177E+04  0.29025276520E+04 0.  0.
        2    1    3    3  502    0  0.10903432285E+04  0.27154167494E+03 -0.44112500377E+03  0.12071348335E+04  0.25500000920E-02 0. -1.
       -2    1    3    3    0  502 -0.10903432285E+04 -0.27154167494E+03  0.15182100461E+04  0.18887945842E+04  0.25500000920E-02 0.  1.
</event>
<event>
 5   0  0.2534588E-07  0.2900118E+04  0.7818609E-02  0.8272842E-01
       -2   -1    0    0    0  501  0.00000000000E+00  0.00000000000E+00  0.10159556534E+04  0.10159556534E+04  0.25500000920E-02 0.  1.
        2   -1    0    0  501    0  0.00000000000E+00  0.00000000000E+00 -0.20696489288E+04  0.20696489288E+04  0.25500000920E-02 0. -1.
    10030    2    1    2    0    0  0.00000000000E+00  0.00000000000E+00 -0.10536932754E+04  0.30856045822E+04  0.29001182939E+04 0.  0.
        3    1    3    3  502    0 -0.17064629116E+03 -0.12596226145E+04  0.21556614457E+03  0.12892781160E+04  0.10100000352E+00 0. -1.
       -3    1    3    3    0  502  0.17064629116E+03  0.12596226145E+04 -0.12692594200E+04  0.17963264661E+04  0.10100000352E+00 0.  1.
</event>
<event>
 5   0  0.9388076E-08  0.2900870E+04  0.7818609E-02  0.8272619E-01
        1   -1    0    0  501    0  0.00000000000E+00  0.00000000000E+00  0.14302782148E+04  0.14302782148E+04  0.50400001928E-02 0.  1.
       -1   -1    0    0    0  501  0.00000000000E+00  0.00000000000E+00 -0.14708760728E+04  0.14708760728E+04  0.50400001928E-02 0. -1.
    10030    2    1    2    0    0  0.00000000000E+00  0.00000000000E+00 -0.40597857915E+02  0.29011542876E+04  0.29008702168E+04 0.  0.
        5    1    3    3  502    0 -0.16808595699E+03  0.94718077890E+01  0.14204660763E+04  0.14304155229E+04  0.46999998093E+01 0.  1.
       -5    1    3    3    0  502  0.16808595699E+03 -0.94718077890E+01 -0.14610639343E+04  0.14707387647E+04  0.46999998093E+01 0. -1.
</event>
<event>
 5   0  0.2534588E-07  0.2901449E+04  0.7818609E-02  0.8272447E-01
       -2   -1    0    0    0  501  0.00000000000E+00  0.00000000000E+00  0.11937748395E+04  0.11937748395E+04  0.25500000920E-02 0. -1.
        2   -1    0    0  501    0  0.00000000000E+00  0.00000000000E+00 -0.17629801158E+04  0.17629801158E+04  0.25500000920E-02 0.  1.
    10030    2    1    2    0    0  0.00000000000E+00  0.00000000000E+00 -0.56920527633E+03  0.29567549553E+04  0.29014488138E+04 0.  0.
        3    1    3    3  502    0 -0.69947474424E+03 -0.10351290326E+04  0.46691243490E+03  0.13337032144E+04  0.10100000352E+00 0.  1.
       -3    1    3    3    0  502  0.69947474424E+03  0.10351290326E+04 -0.10361177112E+04  0.16230517409E+04  0.10100000352E+00 0. -1.
</event>
<event>
 5   0  0.9763851E-08  0.2900148E+04  0.7818609E-02  0.8272833E-01
       -1   -1    0    0    0  501  0.00000000000E+00  0.00000000000E+00  0.87120642401E+03  0.87120642402E+03  0.50400001928E-02 0. -1.
        1   -1    0    0  501    0  0.00000000000E+00  0.00000000000E+00 -0.24135664424E+04  0.24135664424E+04  0.50400001928E-02 0.  1.
    10030    2    1    2    0    0  0.00000000000E+00  0.00000000000E+00 -0.15423600184E+04  0.32847728664E+04  0.29001479889E+04 0.  0.
        3    1    3    3  502    0  0.89117555044E+03 -0.11418547292E+04 -0.84873359991E+03  0.16788016018E+04  0.10100000352E+00 0.  1.
       -3    1    3    3    0  502 -0.89117555044E+03  0.11418547292E+04 -0.69362641850E+03  0.16059712647E+04  0.10100000352E+00 0. -1.
</event>
<event>
 5   0  0.9388076E-08  0.2901989E+04  0.7818609E-02  0.8272286E-01
        1   -1    0    0  501    0  0.00000000000E+00  0.00000000000E+00  0.17179147620E+04  0.17179147620E+04  0.50400001928E-02 0. -1.
       -1   -1    0    0    0  501  0.00000000000E+00  0.00000000000E+00 -0.12255469195E+04  0.12255469195E+04  0.50400001928E-02 0.  1.
    10030    2    1    2    0    0  0.00000000000E+00  0.00000000000E+00  0.49236784251E+03  0.29434616815E+04  0.29019890727E+04 0.  0.
        5    1    3    3  502    0 -0.31630907844E+03 -0.67703356863E+03  0.15077178953E+04  0.16827540604E+04  0.46999998093E+01 0. -1.
       -5    1    3    3    0  502  0.31630907844E+03  0.67703356863E+03 -0.10153500528E+04  0.12607076211E+04  0.46999998093E+01 0.  1.
</event>
<event>
 5   0  0.2678723E-07  0.2900648E+04  0.7818609E-02  0.8272685E-01
        2   -1    0    0  501    0  0.00000000000E+00  0.00000000000E+00  0.12858949292E+04  0.12858949292E+04  0.25500000920E-02 0.  1.
       -2   -1    0    0    0  501  0.00000000000E+00  0.00000000000E+00 -0.16357792650E+04  0.16357792650E+04  0.25500000920E-02 0. -1.
    10030    2    1    2    0    0  0.00000000000E+00  0.00000000000E+00 -0.34988433580E+03  0.29216741942E+04  0.29006483842E+04 0.  0.
        5    1    3    3  502    0  0.24642227742E+03  0.12114620285E+04  0.58887779913E+03  0.13693660350E+04  0.46999998093E+01 0.  1.
       -5    1    3    3    0  502 -0.24642227742E+03 -0.12114620285E+04 -0.93876213493E+03  0.15523081593E+04  0.46999998093E+01 0. -1.
</event>
<event>
 5   0  0.9763851E-08  0.2899987E+04  0.7818609E-02  0.8272881E-01
       -1   -1    0    0    0  501  0.00000000000E+00  0.00000000000E+00  0.13233814091E+04  0.13233814091E+04  0.50400001928E-02 0.  1.
        1   -1    0    0  501    0  0.00000000000E+00  0.00000000000E+00 -0.15887190567E+04  0.15887190567E+04  0.50400001928E-02 0. -1.
    10030    2    1    2    0    0  0.00000000000E+00  0.00000000000E+00 -0.26533764756E+03  0.29121004658E+04  0.28999870785E+04 0.  0.
        3    1    3    3  502    0 -0.41720654772E+03  0.16903344644E+03 -0.15167758661E+04  0.15821639130E+04  0.10100000352E+00 0. -1.
       -3    1    3    3    0  502  0.41720654772E+03 -0.16903344644E+03  0.12514382185E+04  0.13299365528E+04  0.10100000352E+00 0.  1.
</event>
<event>
 5   0  0.9395744E-08  0.2899885E+04  0.7818609E-02  0.8272912E-01
        1   -1    0    0  501    0  0.00000000000E+00  0.00000000000E+00  0.26851004292E+04  0.26851004292E+04  0.50400001928E-02 0. -1.
       -1   -1    0    0    0  501  0.00000000000E+00  0.00000000000E+00 -0.78296278980E+03  0.78296278982E+03  0.50400001928E-02 0.  1.
    10030    2    1    2    0    0  0.00000000000E+00  0.00000000000E+00  0.19021376394E+04  0.34680632190E+04  0.28998853239E+04 0.  0.
        2    1    3    3  502    0  0.45584097168E+03  0.10958541285E+04  0.19471053548E+04  0.22803303544E+04  0.25500000920E-02 0. -1.
       -2    1    3    3    0  502 -0.45584097168E+03 -0.10958541285E+04 -0.44967715380E+02  0.11877328647E+04  0.25500000920E-02 0.  1.
</event>
<event>
 5   0  0.2608591E-07  0.2899946E+04  0.7818609E-02  0.8272893E-01
       -2   -1    0    0    0  501  0.00000000000E+00  0.00000000000E+00  0.11922512444E+04  0.11922512444E+04  0.25500000920E-02 0.  1.
        2   -1    0    0  501    0  0.00000000000E+00  0.00000000000E+00 -0.17634054300E+04  0.17634054300E+04  0.25500000920E-02 0. -1.
    10030    2    1    2    0    0  0.00000000000E+00  0.00000000000E+00 -0.57115418568E+03  0.29556566744E+04  0.28999464259E+04 0.  0.
        2    1    3    3  502    0  0.44321444526E+03  0.55691675178E+03 -0.15731057847E+04  0.17266317276E+04  0.25500000920E-02 0. -1.
       -2    1    3    3    0  502 -0.44321444526E+03 -0.55691675178E+03  0.10019515991E+04  0.12290249468E+04  0.25500000920E-02 0.  1.
</event>
<event>
 5   0  0.2608591E-07  0.2897879E+04  0.7818609E-02  0.8273509E-01
       -2   -1    0    0    0  501  0.00000000000E+00  0.00000000000E+00  0.21416409272E+04  0.21416409272E+04  0.25500000920E-02 0.  1.
        2   -1    0    0  501    0  0.00000000000E+00  0.00000000000E+00 -0.98028860643E+03  0.98028860643E+03  0.25500000920E-02 0. -1.
    10030    2    1    2    0    0  0.00000000000E+00  0.00000000000E+00  0.11613523208E+04  0.31219295336E+04  0.28978793626E+04 0.  0.
        2    1    3    3  502    0  0.65170865112E+03 -0.90348319576E+03 -0.41746679419E+03  0.11896573352E+04  0.25500000920E-02 0. -1.
       -2    1    3    3    0  502 -0.65170865112E+03  0.90348319576E+03  0.15788191149E+04  0.19322721984E+04  0.25500000920E-02 0.  1.
</event>
<event>
 5   0  0.2492232E-07  0.2900304E+04  0.7818609E-02  0.8272787E-01
       -2   -1    0    0    0  501  0.00000000000E+00  0.00000000000E+00  0.16883538228E+04  0.16883538228E+04  0.25500000920E-02 0. -1.
        2   -1    0    0  501    0  0.00000000000E+00  0.00000000000E+00 -0.12455568954E+04  0.12455568954E+04  0.25500000920E-02 0.  1.
    10030    2    1    2    0    0  0.00000000000E+00  0.00000000000E+00  0.44279692739E+03  0.29339107182E+04  0.29003039467E+04 0.  0.
        4    1    3    3  502    0 -0.28033563250E+03 -0.73638769763E+03 -0.10101168667E+04  0.12810903970E+04  0.12699999809E+01 0.  1.
       -4    1    3    3    0  502  0.28033563250E+03  0.73638769763E+03  0.14529137941E+04  0.16528203212E+04  0.12699999809E+01 0. -1.
</event>
<event>
 5   0  0.2546841E-07  0.2894923E+04  0.7818609E-02  0.8274390E-01
        2   -1    0    0  501    0  0.00000000000E+00  0.00000000000E+00  0.13523495307E+04  0.13523495307E+04  0.25500000920E-02 0. -1.
       -2   -1    0    0    0  501  0.00000000000E+00  0.00000000000E+00 -0.15492629564E+04  0.15492629564E+04  0.25500000920E-02 0.  1.
    10030    2    1    2    0    0  0.00000000000E+00  0.00000000000E+00 -0.19691342567E+03  0.29016124871E+04  0.28949231644E+04 0.  0.
        1    1    3    3  502    0 -0.12011725085E+04  0.68790904835E+03 -0.52264945191E+03  0.14795934251E+04  0.50400001928E-02 0.  1.
       -1    1    3    3    0  502  0.12011725085E+04 -0.68790904835E+03  0.32573602624E+03  0.14220190620E+04  0.50400001928E-02 0. -1.
</event>
<event>
 5   0  0.9395744E-08  0.2899149E+04  0.7818609E-02  0.8273131E-01
       -1   -1    0    0    0  501  0.00000000000E+00  0.00000000000E+00  0.13000443075E+04  0.13000443075E+04  0.50400001928E-02 0.  1.
        1   -1    0    0  501    0  0.00000000000E+00  0.00000000000E+00 -0.16163036747E+04  0.16163036747E+04  0.50400001928E-02 0. -1.
    10030    2    1    2    0    0  0.00000000000E+00  0.00000000000E+00 -0.31625936728E+03  0.29163479822E+04  0.28991491107E+04 0.  0.
        2    1    3    3  502    0 -0.11864949163E+04 -0.80505986850E+03 -0.37240700836E+03  0.14814110024E+04  0.25500000920E-02 0.  1.
       -2    1    3    3    0  502  0.11864949163E+04  0.80505986850E+03  0.56147641086E+02  0.14349369798E+04  0.25500000920E-02 0. -1.
</event>
<event>
 5   0  0.2492232E-07  0.2900551E+04  0.7818609E-02  0.8272714E-01
       -2   -1    0    0    0  501  0.00000000000E+00  0.00000000000E+00  0.99051507936E+03  0.99051507936E+03  0.25500000920E-02 0.  1.
        2   -1    0    0  501    0  0.00000000000E+00  0.00000000000E+00 -0.21234391970E+04  0.21234391970E+04  0.25500000920E-02 0. -1.
    10030    2    1    2    0    0  0.00000000000E+00  0.00000000000E+00 -0.11329241176E+04  0.31139542763E+04  0.29005506682E+04 0.  0.
        4    1    3    3  502    0  0.11394068147E+04 -0.83841061442E+03 -0.90952999282E+03  0.16817926948E+04  0.12699999809E+01 0. -1.
       -4    1    3    3    0  502 -0.11394068147E+04  0.83841061442E+03 -0.22339412480E+03  0.14321615815E+04  0.12699999809E+01 0.  1.
</event>
<event>
 5   0  0.2534588E-07  0.2899875E+04  0.7818609E-02  0.8272915E-01
       -2   -1    0    0    0  501  0.00000000000E+00  0.00000000000E+00  0.16518079349E+04  0.16518079349E+04  0.25500000920E-02 0.  1.
        2   -1    0    0  501    0  0.00000000000E+00  0.00000000000E+00 -0.12727376414E+04  0.12727376414E+04  0.25500000920E-02 0. -1.
    10030    2    1    2    0    0  0.00000000000E+00  0.00000000000E+00  0.37907029351E+03  0.29245455763E+04  0.28998745732E+04 0.  0.
        3    1    3    3  502    0  0.48659662117E+03 -0.12323673246E+04  0.78345334486E+03  0.15392545755E+04  0.10100000352E+00 0.  1.
       -3    1    3    3    0  502 -0.48659662117E+03  0.12323673246E+04 -0.40438305135E+03  0.13852910008E+04  0.10100000352E+00 0. -1.
</event>
<event>
 5   0  0.9763851E-08  0.2900352E+04  0.7818609E-02  0.8272773E-01
       -1   -1    0    0    0  501  0.00000000000E+00  0.00000000000E+00  0.13879597185E+04  0.13879597185E+04  0.50400001928E-02 0. -1.
        1   -1    0    0  501    0  0.00000000000E+00  0.00000000000E+00 -0.15151807741E+04  0.15151807741E+04  0.50400001928E-02 0.  1.
    10030    2    1    2    0    0  0.00000000000E+00  0.00000000000E+00 -0.12722105558E+03  0.29031404926E+04  0.29003516206E+04 0.  0.
        3    1    3    3  502    0  0.22089711628E+03 -0.14147849734E+04  0.16595213156E+03  0.14415103805E+04  0.10100000352E+00 0. -1.
       -3    1    3    3    0  502 -0.22089711628E+03  0.14147849734E+04 -0.29317318714E+03  0.14616301121E+04  0.10100000352E+00 0.  1.
</event>
<event>
 5   0  0.2678723E-07  0.2897890E+04  0.7818609E-02  0.8273506E-01
        2   -1    0    0  501    0  0.00000000000E+00  0.00000000000E+00  0.24536877840E+04  0.24536877840E+04  0.25500000920E-02 0. -1.
       -2   -1    0    0    0  501  0.00000000000E+00  0.00000000000E+00 -0.85562690436E+03  0.85562690437E+03  0.25500000920E-02 0.  1.
    10030    2    1    2    0    0  0.00000000000E+00  0.00000000000E+00  0.15980608797E+04  0.33093146884E+04  0.28978897722E+04 0.  0.
        5    1    3    3  502    0 -0.37806477231E+03 -0.90607007387E+02  0.23930054599E+04  0.24243844214E+04  0.46999998093E+01 0. -1.
       -5    1    3    3    0  502  0.37806477231E+03  0.90607007387E+02 -0.79494458020E+03  0.88493026699E+03  0.46999998093E+01 0.  1.
</event>
<event>
 5   0  0.9443352E-08  0.2902359E+04  0.7818609E-02  0.8272176E-01
       -1   -1    0    0    0  501  0.00000000000E+00  0.00000000000E+00  0.15358143549E+04  0.15358143549E+04  0.50400001928E-02 0. -1.
        1   -1    0    0  501    0  0.00000000000E+00  0.00000000000E+00 -0.13712082969E+04  0.13712082969E+04  0.50400001928E-02 0.  1.
    10030    2    1    2    0    0  0.00000000000E+00  0.00000000000E+00  0.16460605803E+03  0.29070226518E+04  0.29023586174E+04 0.  0.
        4    1    3    3  502    0 -0.10225526286E+04 -0.78232767880E+03 -0.58830205269E+03  0.14155392589E+04  0.12699999809E+01 0.  1.
       -4    1    3    3    0  502  0.10225526286E+04  0.78232767880E+03  0.75290811072E+03  0.14914833929E+04  0.12699999809E+01 0. -1.
</event>
<event>
 5   0  0.2546841E-07  0.2902185E+04  0.7818609E-02  0.8272228E-01
       -2   -1    0    0    0  501  0.00000000000E+00  0.00000000000E+00  0.16900047780E+04  0.16900047780E+04  0.25500000920E-02 0.  1.
        2   -1    0    0  501    0  0.00000000000E+00  0.00000000000E+00 -0.12459545694E+04  0.12459545694E+04  0.25500000920E-02 0. -1.
    10030    2    1    2    0    0  0.00000000000E+00  0.00000000000E+00  0.44405020863E+03  0.29359593474E+04  0.29021848152E+04 0.  0.
        1    1    3    3  502    0 -0.93535834341E+03 -0.62355831321E+02  0.13425642260E+04  0.16374560090E+04  0.50400001928E-02 0.  1.
       -1    1    3    3    0  502  0.93535834341E+03  0.62355831321E+02 -0.89851401742E+03  0.12985033384E+04  0.50400001928E-02 0. -1.
</event>
<event>
 5   0  0.2608591E-07  0.2898516E+04  0.7818609E-02  0.8273319E-01
        2   -1    0    0  501    0  0.00000000000E+00  0.00000000000E+00  0.12001823468E+04  0.12001823468E+04  0.25500000920E-02 0.  1.
       -2   -1    0    0    0  501  0.00000000000E+00  0.00000000000E+00 -0.17500245104E+04  0.17500245104E+04  0.25500000920E-02 0. -1.
    10030    2    1    2    0    0  0.00000000000E+00  0.00000000000E+00 -0.54984216365E+03  0.29502068572E+04  0.28985158436E+04 0.  0.
        2    1    3    3  502    0 -0.10992136268E+04  0.94124280215E+03 -0.19516608022E+03  0.14602391615E+04  0.25500000920E-02 0. -1.
       -2    1    3    3    0  502  0.10992136268E+04 -0.94124280215E+03 -0.35467608343E+03  0.14899676957E+04  0.25500000920E-02 0.  1.
</event>
<event>
 5   0  0.9388076E-08  0.2898090E+04  0.7818609E-02  0.8273446E-01
        1   -1    0    0  501    0  0.00000000000E+00  0.00000000000E+00  0.16787886671E+04  0.16787886671E+04  0.50400001928E-02 0. -1.
       -1   -1    0    0    0  501  0.00000000000E+00  0.00000000000E+00 -0.12507421151E+04  0.12507421151E+04  0.50400001928E-02 0.  1.
    10030    2    1    2    0    0  0.00000000000E+00  0.00000000000E+00  0.42804655204E+03  0.29295307822E+04  0.28980901907E+04 0.  0.
        5    1    3    3  502    0 -0.10902060913E+04  0.71033278289E+03  0.85858311372E+03  0.15589448474E+04  0.46999998093E+01 0. -1.
       -5    1    3    3    0  502  0.10902060913E+04 -0.71033278289E+03 -0.43053656168E+03  0.13705859349E+04  0.46999998093E+01 0.  1.
</event>
<event>
 5   0  0.2492232E-07  0.2898569E+04  0.7818609E-02  0.8273303E-01
       -2   -1    0    0    0  501  0.00000000000E+00  0.00000000000E+00  0.78622681111E+03  0.78622681111E+03  0.25500000920E-02 0. -1.
        2   -1    0    0  501    0  0.00000000000E+00  0.00000000000E+00 -0.26715266864E+04  0.26715266864E+04  0.25500000920E-02 0.  1.
    10030    2    1    2    0    0  0.00000000000E+00  0.00000000000E+00 -0.18852998753E+04  0.34577534975E+04  0.28985692384E+04 0.  0.
        4    1    3    3  502    0  0.25188382258E+03 -0.12816143652E+04 -0.19344138465E+03  0.13203794997E+04  0.12699999809E+01 0. -1.
       -4    1    3    3    0  502 -0.25188382258E+03  0.12816143652E+04 -0.16918584907E+04  0.21373739978E+04  0.12699999809E+01 0.  1.
</event>
<event>
 5   0  0.2678723E-07  0.2900179E+04  0.7818609E-02  0.8272824E-01
        2   -1    0    0  501    0  0.00000000000E+00  0.00000000000E+00  0.11635495130E+04  0.11635495130E+04  0.25500000920E-02 0. -1.
       -2   -1    0    0    0  501  0.00000000000E+00  0.00000000000E+00 -0.18071937853E+04  0.18071937853E+04  0.25500000920E-02 0.  1.
    10030    2    1    2    0    0  0.00000000000E+00  0.00000000000E+00 -0.64364427235E+03  0.29707432983E+04  0.29001789246E+04 0.  0.
        5    1    3    3  502    0 -0.19205201997E+03 -0.16671653157E+03  0.11405190359E+04  0.11685393196E+04  0.46999998093E+01 0. -1.
       -5    1    3    3    0  502  0.19205201997E+03  0.16671653157E+03 -0.17841633082E+04  0.18022039787E+04  0.46999998093E+01 0.  1.
</event>
<event>
 5   0  0.9443352E-08  0.2898818E+04  0.7818609E-02  0.8273229E-01
        1   -1    0    0  501    0  0.00000000000E+00  0.00000000000E+00  0.26657411296E+04  0.26657411296E+04  0.50400001928E-02 0.  1.
       -1   -1    0    0    0  501  0.00000000000E+00  0.00000000000E+00 -0.78806859136E+03  0.78806859138E+03  0.50400001928E-02 0. -1.
    10030    2    1    2    0    0  0.00000000000E+00  0.00000000000E+00  0.18776725383E+04  0.34538097210E+04  0.28988182813E+04 0.  0.
        4    1    3    3  502    0  0.29208229059E+03 -0.45661801807E+03  0.25404333461E+04  0.25976172308E+04  0.12699999809E+01 0.  1.
       -4    1    3    3    0  502 -0.29208229059E+03  0.45661801807E+03 -0.66276080786E+03  0.85619249018E+03  0.12699999809E+01 0. -1.
</event>
<event>
 5   0  0.2534588E-07  0.2898278E+04  0.7818609E-02  0.8273390E-01
        2   -1    0    0  501    0  0.00000000000E+00  0.00000000000E+00  0.10211582848E+04  0.10211582848E+04  0.25500000920E-02 0.  1.
       -2   -1    0    0    0  501  0.00000000000E+00  0.00000000000E+00 -0.20564918846E+04  0.20564918846E+04  0.25500000920E-02 0. -1.
    10030    2    1    2    0    0  0.00000000000E+00  0.00000000000E+00 -0.10353335998E+04  0.30776501694E+04  0.28982779202E+04 0.  0.
        3    1    3    3  502    0  0.10727294124E+04  0.15463880600E+03 -0.15391480520E+04  0.18824553882E+04  0.10100000352E+00 0. -1.
       -3    1    3    3    0  502 -0.10727294124E+04 -0.15463880600E+03  0.50381445217E+03  0.11951947812E+04  0.10100000352E+00 0.  1.
</event>
<event>
 5   0  0.8407500E-08  0.2900072E+04  0.7818609E-02  0.8272856E-01
        3   -1    0    0  501    0  0.00000000000E+00  0.00000000000E+00  0.75438206234E+03  0.75438206910E+03  0.10100000352E+00 0.  1.
       -3   -1    0    0    0  501  0.00000000000E+00  0.00000000000E+00 -0.27871880243E+04  0.27871880261E+04  0.10100000352E+00 0. -1.
    10030    2    1    2    0    0  0.00000000000E+00  0.00000000000E+00 -0.20328059619E+04  0.35415700952E+04  0.29000721819E+04 0.  0.
        4    1    3    3  502    0 -0.78143258464E+03 -0.50850720393E+03 -0.23726432830E+04  0.25492458143E+04  0.12699999809E+01 0. -1.
       -4    1    3    3    0  502  0.78143258464E+03  0.50850720393E+03  0.33983732102E+03  0.99232428089E+03  0.12699999809E+01 0.  1.
</event>
<event>
 5   0  0.9763851E-08  0.2909086E+04  0.7818609E-02  0.8270179E-01
       -1   -1    0    0    0  501  0.00000000000E+00  0.00000000000E+00  0.11266176266E+04  0.11266176266E+04  0.50400001928E-02 0. -1.
        1   -1    0    0  501    0  0.00000000000E+00  0.00000000000E+00 -0.18779179736E+04  0.18779179736E+04  0.50400001928E-02 0.  1.
    10030    2    1    2    0    0  0.00000000000E+00  0.00000000000E+00 -0.75130034702E+03  0.30045356002E+04  0.29090861042E+04 0.  0.
        3    1    3    3  502    0  0.74713681625E+03  0.31272959728E+03  0.87216408217E+03  0.11902451091E+04  0.10100000352E+00 0. -1.
       -3    1    3    3    0  502 -0.74713681625E+03 -0.31272959728E+03 -0.16234644292E+04  0.18142904911E+04  0.10100000352E+00 0.  1.
</event>
<event>
 5   0  0.9763851E-08  0.2900017E+04  0.7818609E-02  0.8272873E-01
        1   -1    0    0  501    0  0.00000000000E+00  0.00000000000E+00  0.25273198068E+04  0.25273198068E+04  0.50400001928E-02 0. -1.
       -1   -1    0    0    0  501  0.00000000000E+00  0.00000000000E+00 -0.83191852053E+03  0.83191852055E+03  0.50400001928E-02 0.  1.
    10030    2    1    2    0    0  0.00000000000E+00  0.00000000000E+00  0.16954012863E+04  0.33592383273E+04  0.29000166583E+04 0.  0.
        3    1    3    3  502    0  0.13290211643E+04  0.18357972296E+03  0.21058065860E+03  0.13580659019E+04  0.10100000352E+00 0.  1.
       -3    1    3    3    0  502 -0.13290211643E+04 -0.18357972296E+03  0.14848206277E+04  0.20011724255E+04  0.10100000352E+00 0. -1.
</event>
<event>
 5   0  0.9421924E-08  0.2899885E+04  0.7818609E-02  0.8272912E-01
       -1   -1    0    0    0  501  0.00000000000E+00  0.00000000000E+00  0.10598488635E+04  0.10598488635E+04  0.50400001928E-02 0.  1.
        1   -1    0    0  501    0  0.00000000000E+00  0.00000000000E+00 -0.19836159543E+04  0.19836159543E+04  0.50400001928E-02 0. -1.
    10030    2    1    2    0    0  0.00000000000E+00  0.00000000000E+00 -0.92376709081E+03  0.30434648178E+04  0.28998849044E+04 0.  0.
        1    1    3    3  502    0 -0.70515675800E+03  0.64347129448E+03 -0.16072624887E+04  0.18693833389E+04  0.50400001928E-02 0. -1.
       -1    1    3    3    0  502  0.70515675800E+03 -0.64347129448E+03  0.68349539786E+03  0.11740814789E+04  0.50400001928E-02 0.  1.
</event>
<event>
 5   0  0.2534588E-07  0.2900353E+04  0.7818609E-02  0.8272773E-01
        2   -1    0    0  501    0  0.00000000000E+00  0.00000000000E+00  0.25881618604E+04  0.25881618604E+04  0.25500000920E-02 0. -1.
       -2   -1    0    0    0  501  0.00000000000E+00  0.00000000000E+00 -0.81255027015E+03  0.81255027016E+03  0.25500000920E-02 0.  1.
    10030    2    1    2    0    0  0.00000000000E+00  0.00000000000E+00  0.17756115902E+04  0.34007121306E+04  0.29003528191E+04 0.  0.
        3    1    3    3  502    0 -0.89518868078E+03  0.22253391176E+03 -0.42422284259E+03  0.10153074148E+04  0.10100000352E+00 0.  1.
       -3    1    3    3    0  502  0.89518868078E+03 -0.22253391176E+03  0.21998344328E+04  0.23854047158E+04  0.10100000352E+00 0. -1.
</event>
<event>
 5   0  0.2534588E-07  0.2906057E+04  0.7818609E-02  0.8271078E-01
       -2   -1    0    0    0  501  0.00000000000E+00  0.00000000000E+00  0.90006931547E+03  0.90006931548E+03  0.25500000920E-02 0.  1.
        2   -1    0    0  501    0  0.00000000000E+00  0.00000000000E+00 -0.23456992054E+04  0.23456992054E+04  0.25500000920E-02 0. -1.
    10030    2    1    2    0    0  0.00000000000E+00  0.00000000000E+00 -0.14456298899E+04  0.32457685208E+04  0.29060570387E+04 0.  0.
        3    1    3    3  502    0  0.64161566462E+03  0.12229526769E+04 -0.21834306500E+03  0.13981979886E+04  0.10100000352E+00 0. -1.
       -3    1    3    3    0  502 -0.64161566462E+03 -0.12229526769E+04 -0.12272868249E+04  0.18475705323E+04  0.10100000352E+00 0.  1.
</event>
<event>
 5   0  0.2678723E-07  0.2901584E+04  0.7818609E-02  0.8272406E-01
       -2   -1    0    0    0  501  0.00000000000E+00  0.00000000000E+00  0.14650746590E+04  0.14650746590E+04  0.25500000920E-02 0. -1.
        2   -1    0    0  501    0  0.00000000000E+00  0.00000000000E+00 -0.14366487190E+04  0.14366487190E+04  0.25500000920E-02 0.  1.
    10030    2    1    2    0    0  0.00000000000E+00  0.00000000000E+00  0.28425939986E+02  0.29017233780E+04  0.29015841412E+04 0.  0.
        5    1    3    3  502    0 -0.10654832285E+04 -0.34233447837E+03  0.93747346371E+03  0.14599061581E+04  0.46999998093E+01 0. -1.
       -5    1    3    3    0  502  0.10654832285E+04  0.34233447837E+03 -0.90904752373E+03  0.14418172199E+04  0.46999998093E+01 0.  1.
</event>
<event>
 5   0  0.9443352E-08  0.2899390E+04  0.7818609E-02  0.8273059E-01
        1   -1    0    0  501    0  0.00000000000E+00  0.00000000000E+00  0.14510488683E+04  0.14510488683E+04  0.50400001928E-02 0. -1.
       -1   -1    0    0    0  501  0.00000000000E+00  0.00000000000E+00 -0.14483428907E+04  0.14483428907E+04  0.50400001928E-02 0.  1.
    10030    2    1    2    0    0  0.00000000000E+00  0.00000000000E+00  0.27059776531E+01  0.28993917590E+04  0.28993904963E+04 0.  0.
        4    1    3    3  502    0 -0.25349753940E+02 -0.94815375751E+03  0.10977003739E+04  0.14507190912E+04  0.12699999809E+01 0. -1.
       -4    1    3    3    0  502  0.25349753940E+02  0.94815375751E+03 -0.10949943962E+04  0.14486726678E+04  0.12699999809E+01 0.  1.
</event>
<event>
 5   0  0.9443352E-08  0.2898099E+04  0.7818609E-02  0.8273443E-01
       -1   -1    0    0    0  501  0.00000000000E+00  0.00000000000E+00  0.12853351531E+04  0.12853351531E+04  0.50400001928E-02 0.  1.
        1   -1    0    0  501    0  0.00000000000E+00  0.00000000000E+00 -0.16336167301E+04  0.16336167301E+04  0.50400001928E-02 0. -1.
    10030    2    1    2    0    0  0.00000000000E+00  0.00000000000E+00 -0.34828157701E+03  0.29189518833E+04  0.28980993841E+04 0.  0.
        4    1    3    3  502    0  0.89270923374E+03  0.42198001139E+03 -0.12423122850E+04  0.15869273243E+04  0.12699999809E+01 0. -1.
       -4    1    3    3    0  502 -0.89270923374E+03 -0.42198001139E+03  0.89403070804E+03  0.13320245590E+04  0.12699999809E+01 0.  1.
</event>
<event>
 5   0  0.2608591E-07  0.2900529E+04  0.7818609E-02  0.8272720E-01
       -2   -1    0    0    0  501  0.00000000000E+00  0.00000000000E+00  0.62217295631E+03  0.62217295632E+03  0.25500000920E-02 0.  1.
        2   -1    0    0  501    0  0.00000000000E+00  0.00000000000E+00 -0.33805189222E+04  0.33805189222E+04  0.25500000920E-02 0. -1.
    10030    2    1    2    0    0  0.00000000000E+00  0.00000000000E+00 -0.27583459659E+04  0.40026918785E+04  0.29005292288E+04 0.  0.
        2    1    3    3  502    0  0.82075417069E+03 -0.32329458258E+03  0.20937737580E+03  0.90663977485E+03  0.25500000920E-02 0.  1.
       -2    1    3    3    0  502 -0.82075417069E+03  0.32329458258E+03 -0.29677233417E+04  0.30960521037E+04  0.25500000920E-02 0. -1.
</event>
<event>
 5   0  0.2534588E-07  0.2897624E+04  0.7818609E-02  0.8273585E-01
        2   -1    0    0  501    0  0.00000000000E+00  0.00000000000E+00  0.13651558082E+04  0.13651558082E+04  0.25500000920E-02 0. -1.
       -2   -1    0    0    0  501  0.00000000000E+00  0.00000000000E+00 -0.15375941436E+04  0.15375941436E+04  0.25500000920E-02 0.  1.
    10030    2    1    2    0    0  0.00000000000E+00  0.00000000000E+00 -0.17243833545E+03  0.29027499518E+04  0.28976235613E+04 0.  0.
        3    1    3    3  502    0 -0.23484402209E+02 -0.14470248748E+04 -0.15433254846E+03  0.14554212624E+04  0.10100000352E+00 0. -1.
       -3    1    3    3    0  502  0.23484402209E+02  0.14470248748E+04 -0.18105786994E+02  0.14473286894E+04  0.10100000352E+00 0.  1.
</event>
<event>
 5   0  0.9421924E-08  0.2901257E+04  0.7818609E-02  0.8272504E-01
       -1   -1    0    0    0  501  0.00000000000E+00  0.00000000000E+00  0.12871619436E+04  0.12871619436E+04  0.50400001928E-02 0.  1.
        1   -1    0    0  501    0  0.00000000000E+00  0.00000000000E+00 -0.16348546551E+04  0.16348546551E+04  0.50400001928E-02 0. -1.
    10030    2    1    2    0    0  0.00000000000E+00  0.00000000000E+00 -0.34769271155E+03  0.29220165987E+04  0.29012567590E+04 0.  0.
        1    1    3    3  502    0  0.11504027645E+04 -0.88324151755E+03 -0.20198542946E+03  0.14643565866E+04  0.50400001928E-02 0.  1.
       -1    1    3    3    0  502 -0.11504027645E+04  0.88324151755E+03 -0.14570728209E+03  0.14576600121E+04  0.50400001928E-02 0. -1.
</event>
<event>
 5   0  0.2678723E-07  0.2900366E+04  0.7818609E-02  0.8272769E-01
        2   -1    0    0  501    0  0.00000000000E+00  0.00000000000E+00  0.13467991161E+04  0.13467991161E+04  0.25500000920E-02 0. -1.
       -2   -1    0    0    0  501  0.00000000000E+00  0.00000000000E+00 -0.15615028987E+04  0.15615028987E+04  0.25500000920E-02 0.  1.
    10030    2    1    2    0    0  0.00000000000E+00  0.00000000000E+00 -0.21470378256E+03  0.29083020147E+04  0.29003659932E+04 0.  0.
        5    1    3    3  502    0  0.11672220105E+03 -0.15355003322E+03  0.13338723780E+04  0.13477534254E+04  0.46999998093E+01 0. -1.
       -5    1    3    3    0  502 -0.11672220105E+03  0.15355003322E+03 -0.15485761605E+04  0.15605485894E+04  0.46999998093E+01 0.  1.
</event>
<event>
 5   0  0.9443352E-08  0.2898783E+04  0.7818609E-02  0.8273240E-01
       -1   -1    0    0    0  501  0.00000000000E+00  0.00000000000E+00  0.15993011314E+04  0.15993011315E+04  0.50400001928E-02 0.  1.
        1   -1    0    0  501    0  0.00000000000E+00  0.00000000000E+00 -0.13135332078E+04  0.13135332078E+04  0.50400001928E-02 0. -1.
    10030    2    1    2    0    0  0.00000000000E+00  0.00000000000E+00  0.28576792368E+03  0.29128343392E+04  0.28987826034E+04 0.  0.
        4    1    3    3  502    0  0.54447036195E+03  0.14153297922E+03  0.14851187039E+04  0.15880990954E+04  0.12699999809E+01 0.  1.
       -4    1    3    3    0  502 -0.54447036195E+03 -0.14153297922E+03 -0.11993507802E+04  0.13247352438E+04  0.12699999809E+01 0. -1.
</event>
<event>
 5   0  0.9388076E-08  0.2899623E+04  0.7818609E-02  0.8272990E-01
       -1   -1    0    0    0  501  0.00000000000E+00  0.00000000000E+00  0.28511450979E+04  0.28511450979E+04  0.50400001928E-02 0.  1.
        1   -1    0    0  501    0  0.00000000000E+00  0.00000000000E+00 -0.73723148869E+03  0.73723148870E+03  0.50400001928E-02 0. -1.
    10030    2    1    2    0    0  0.00000000000E+00  0.00000000000E+00  0.21139136092E+04  0.35883765866E+04  0.28996233859E+04 0.  0.
        5    1    3    3  502    0  0.36489786571E+03  0.77188055048E+01  0.27933520911E+04  0.28170992221E+04  0.46999998093E+01 0.  1.
       -5    1    3    3    0  502 -0.36489786571E+03 -0.77188055048E+01 -0.67943848187E+03  0.77127736451E+03  0.46999998093E+01 0. -1.
</event>
<event>
 5   0  0.2608591E-07  0.2900752E+04  0.7818609E-02  0.8272654E-01
        2   -1    0    0  501    0  0.00000000000E+00  0.00000000000E+00  0.17558659846E+04  0.17558659846E+04  0.25500000920E-02 0.  1.
       -2   -1    0    0    0  501  0.00000000000E+00  0.00000000000E+00 -0.11980355752E+04  0.11980355752E+04  0.25500000920E-02 0. -1.
    10030    2    1    2    0    0  0.00000000000E+00  0.00000000000E+00  0.55783040943E+03  0.29539015597E+04  0.29007515679E+04 0.  0.
        2    1    3    3  502    0 -0.54888290936E+03 -0.10489804237E+04  0.11320956702E+04  0.16380698960E+04  0.25500000920E-02 0.  1.
       -2    1    3    3    0  502  0.54888290936E+03  0.10489804237E+04 -0.57426526080E+03  0.13158316638E+04  0.25500000920E-02 0. -1.
</event>
<event>
 5   0  0.9421924E-08  0.2899946E+04  0.7818609E-02  0.8272894E-01
       -1   -1    0    0    0  501  0.00000000000E+00  0.00000000000E+00  0.17137126982E+04  0.17137126982E+04  0.50400001928E-02 0. -1.
        1   -1    0    0  501    0  0.00000000000E+00  0.00000000000E+00 -0.12268223893E+04  0.12268223893E+04  0.50400001928E-02 0.  1.
    10030    2    1    2    0    0  0.00000000000E+00  0.00000000000E+00  0.48689030889E+03  0.29405350874E+04  0.28999455904E+04 0.  0.
        1    1    3    3  502    0  0.75682383159E+03 -0.60724672990E+03  0.13359719302E+04  0.16511668302E+04  0.50400001928E-02 0. -1.
       -1    1    3    3    0  502 -0.75682383159E+03  0.60724672990E+03 -0.84908162128E+03  0.12893682572E+04  0.50400001928E-02 0.  1.
</event>
<event>
 5   0  0.9395744E-08  0.2898811E+04  0.7818609E-02  0.8273231E-01
       -1   -1    0    0    0  501  0.00000000000E+00  0.00000000000E+00  0.12594518037E+04  0.12594518038E+04  0.50400001928E-02 0. -1.
        1   -1    0    0  501    0  0.00000000000E+00  0.00000000000E+00 -0.16680081235E+04  0.16680081235E+04  0.50400001928E-02 0.  1.
    10030    2    1    2    0    0  0.00000000000E+00  0.00000000000E+00 -0.40855631978E+03  0.29274599273E+04  0.28988106802E+04 0.  0.
        2    1    3    3  502    0 -0.53149495455E+03  0.57746408233E+03 -0.14348546758E+04  0.16354692274E+04  0.25500000920E-02 0.  1.
       -2    1    3    3    0  502  0.53149495455E+03 -0.57746408233E+03  0.10262983560E+04  0.12919906999E+04  0.25500000920E-02 0. -1.
</event>
<event>
 5   0  0.2678723E-07  0.2909581E+04  0.7818609E-02  0.8270032E-01
        2   -1    0    0  501    0  0.00000000000E+00  0.00000000000E+00  0.23286839095E+04  0.23286839095E+04  0.25500000920E-02 0. -1.
       -2   -1    0    0    0  501  0.00000000000E+00  0.00000000000E+00 -0.90884644643E+03  0.90884644643E+03  0.25500000920E-02 0.  1.
    10030    2    1    2    0    0  0.00000000000E+00  0.00000000000E+00  0.14198374631E+04  0.32375303560E+04  0.29095814792E+04 0.  0.
        5    1    3    3  502    0 -0.17974644810E+03 -0.49870316303E+03  0.22173807115E+04  0.22798712551E+04  0.46999998093E+01 0. -1.
       -5    1    3    3    0  502  0.17974644810E+03  0.49870316303E+03 -0.79754324836E+03  0.95765910084E+03  0.46999998093E+01 0.  1.
</event>
<event>
 5   0  0.2492232E-07  0.2901426E+04  0.7818609E-02  0.8272453E-01
        2   -1    0    0  501    0  0.00000000000E+00  0.00000000000E+00  0.22120462550E+04  0.22120462550E+04  0.25500000920E-02 0. -1.
       -2   -1    0    0    0  501  0.00000000000E+00  0.00000000000E+00 -0.95141259275E+03  0.95141259276E+03  0.25500000920E-02 0.  1.
    10030    2    1    2    0    0  0.00000000000E+00  0.00000000000E+00  0.12606336622E+04  0.31634588478E+04  0.29014263132E+04 0.  0.
        4    1    3    3  502    0 -0.14405858358E+04 -0.52452525939E+02  0.80790122509E+03  0.16524965417E+04  0.12699999809E+01 0. -1.
       -4    1    3    3    0  502  0.14405858358E+04  0.52452525939E+02  0.45273243715E+03  0.15109623061E+04  0.12699999809E+01 0.  1.
</event>
<event>
 5   0  0.9395744E-08  0.2900620E+04  0.7818609E-02  0.8272693E-01
       -1   -1    0    0    0  501  0.00000000000E+00  0.00000000000E+00  0.20964697797E+04  0.20964697797E+04  0.50400001928E-02 0. -1.
        1   -1    0    0  501    0  0.00000000000E+00  0.00000000000E+00 -0.10033054936E+04  0.10033054936E+04  0.50400001928E-02 0.  1.
    10030    2    1    2    0    0  0.00000000000E+00  0.00000000000E+00  0.10931642862E+04  0.30997752733E+04  0.29006203800E+04 0.  0.
        2    1    3    3  502    0  0.33892428598E+03  0.35528825758E+03 -0.91177590939E+03  0.10355842441E+04  0.25500000920E-02 0.  1.
       -2    1    3    3    0  502 -0.33892428598E+03 -0.35528825758E+03  0.20049401955E+04  0.20641910293E+04  0.25500000920E-02 0. -1.
</event>
<event>
 5   0  0.9763851E-08  0.2899921E+04  0.7818609E-02  0.8272901E-01
        1   -1    0    0  501    0  0.00000000000E+00  0.00000000000E+00  0.19048657471E+04  0.19048657471E+04  0.50400001928E-02 0. -1.
       -1   -1    0    0    0  501  0.00000000000E+00  0.00000000000E+00 -0.11036920730E+04  0.11036920730E+04  0.50400001928E-02 0.  1.
    10030    2    1    2    0    0  0.00000000000E+00  0.00000000000E+00  0.80117367415E+03  0.30085578201E+04  0.28999208438E+04 0.  0.
        3    1    3    3  502    0 -0.73855088420E+03 -0.11878569068E+04  0.42766394043E+01  0.13987421990E+04  0.10100000352E+00 0.  1.
       -3    1    3    3    0  502  0.73855088420E+03  0.11878569068E+04  0.79689703475E+03  0.16098156210E+04  0.10100000352E+00 0. -1.
</event>
<event>
 5   0  0.9395744E-08  0.2900183E+04  0.7818609E-02  0.8272823E-01
        1   -1    0    0  501    0  0.00000000000E+00  0.00000000000E+00  0.18921757321E+04  0.18921757321E+04  0.50400001928E-02 0. -1.
       -1   -1    0    0    0  501  0.00000000000E+00  0.00000000000E+00 -0.11112947941E+04  0.11112947941E+04  0.50400001928E-02 0.  1.
    10030    2    1    2    0    0  0.00000000000E+00  0.00000000000E+00  0.78088093804E+03  0.30034705262E+04  0.29001827809E+04 0.  0.
        2    1    3    3  502    0 -0.52550004969E+03  0.63490433702E+03  0.16260420413E+04  0.18229828686E+04  0.25500000920E-02 0. -1.
       -2    1    3    3    0  502  0.52550004969E+03 -0.63490433702E+03 -0.84516110321E+03  0.11804876576E+04  0.25500000920E-02 0.  1.
</event>
<event>
 5   0  0.2534588E-07  0.2898977E+04  0.7818609E-02  0.8273182E-01
       -2   -1    0    0    0  501  0.00000000000E+00  0.00000000000E+00  0.11020351021E+04  0.11020351021E+04  0.25500000920E-02 0. -1.
        2   -1    0    0  501    0  0.00000000000E+00  0.00000000000E+00 -0.19064884058E+04  0.19064884058E+04  0.25500000920E-02 0.  1.
    10030    2    1    2    0    0  0.00000000000E+00  0.00000000000E+00 -0.80445330365E+03  0.30085235079E+04  0.28989771609E+04 0.  0.
        3    1    3    3  502    0 -0.82958438474E+03  0.11749816566E+04 -0.58852328710E+03  0.15540758715E+04  0.10100000352E+00 0.  1.
       -3    1    3    3    0  502  0.82958438474E+03 -0.11749816566E+04 -0.21593001655E+03  0.14544476364E+04  0.10100000352E+00 0. -1.
</event>
<event>
 5   0  0.8407500E-08  0.2900421E+04  0.7818609E-02  0.8272752E-01
        3   -1    0    0  501    0  0.00000000000E+00  0.00000000000E+00  0.11945641007E+04  0.11945641050E+04  0.10100000352E+00 0. -1.
       -3   -1    0    0    0  501  0.00000000000E+00  0.00000000000E+00 -0.17605678680E+04  0.17605678709E+04  0.10100000352E+00 0.  1.
    10030    2    1    2    0    0  0.00000000000E+00  0.00000000000E+00 -0.56600376724E+03  0.29551319759E+04  0.29004214746E+04 0.  0.
        1    1    3    3  502    0 -0.73752251015E+03 -0.50873816382E+03  0.87884020286E+03  0.12550354873E+04  0.50400001928E-02 0. -1.
       -1    1    3    3    0  502  0.73752251015E+03  0.50873816382E+03 -0.14448439701E+04  0.17000964885E+04  0.50400001928E-02 0.  1.
</event>
<event>
 5   0  0.9443352E-08  0.2903898E+04  0.7818609E-02  0.8271719E-01
       -1   -1    0    0    0  501  0.00000000000E+00  0.00000000000E+00  0.18898765062E+04  0.18898765062E+04  0.50400001928E-02 0. -1.
        1   -1    0    0  501    0  0.00000000000E+00  0.00000000000E+00 -0.11154989215E+04  0.11154989215E+04  0.50400001928E-02 0.  1.
    10030    2    1    2    0    0  0.00000000000E+00  0.00000000000E+00  0.77437758469E+03  0.30053754278E+04  0.29038975220E+04 0.  0.
        4    1    3    3  502    0  0.12601586694E+04  0.33137714944E+03  0.10501542625E+04  0.16735101658E+04  0.12699999809E+01 0. -1.
       -4    1    3    3    0  502 -0.12601586694E+04 -0.33137714944E+03 -0.27577667776E+03  0.13318652620E+04  0.12699999809E+01 0.  1.
</event>
<event>
 5   0  0.9763851E-08  0.2900891E+04  0.7818609E-02  0.8272612E-01
        1   -1    0    0  501    0  0.00000000000E+00  0.00000000000E+00  0.23082250564E+04  0.23082250564E+04  0.50400001928E-02 0. -1.
       -1   -1    0    0    0  501  0.00000000000E+00  0.00000000000E+00 -0.91143294697E+03  0.91143294698E+03  0.50400001928E-02 0.  1.
    10030    2    1    2    0    0  0.00000000000E+00  0.00000000000E+00  0.13967921094E+04  0.32196580033E+04  0.29008911496E+04 0.  0.
        3    1    3    3  502    0  0.57123889558E+03  0.11740418369E+04  0.13995630789E+04  0.19140180074E+04  0.10100000352E+00 0. -1.
       -3    1    3    3    0  502 -0.57123889558E+03 -0.11740418369E+04 -0.27709694924E+01  0.13056399960E+04  0.10100000352E+00 0.  1.
</event>
<event>
 5   0  0.2546841E-07  0.2900965E+04  0.7818609E-02  0.8272590E-01
       -2   -1    0    0    0  501  0.00000000000E+00  0.00000000000E+00  0.13979899889E+04  0.13979899889E+04  0.25500000920E-02 0. -1.
        2   -1    0    0  501    0  0.00000000000E+00  0.00000000000E+00 -0.15049464011E+04  0.15049464011E+04  0.25500000920E-02 0.  1.
    10030    2    1    2    0    0  0.00000000000E+00  0.00000000000E+00 -0.10695641216E+03  0.29029363899E+04  0.29009653583E+04 0.  0.
        1    1    3    3  502    0 -0.74372987762E+03 -0.10093684379E+04  0.67636035000E+03  0.14245778664E+04  0.50400001928E-02 0. -1.
       -1    1    3    3    0  502  0.74372987762E+03  0.10093684379E+04 -0.78331676216E+03  0.14783585236E+04  0.50400001928E-02 0.  1.
</event>
<event>
 5   0  0.9421924E-08  0.2898881E+04  0.7818609E-02  0.8273210E-01
       -1   -1    0    0    0  501  0.00000000000E+00  0.00000000000E+00  0.69219427404E+03  0.69219427405E+03  0.50400001928E-02 0. -1.
        1   -1    0    0  501    0  0.00000000000E+00  0.00000000000E+00 -0.30350993377E+04  0.30350993377E+04  0.50400001928E-02 0.  1.
    10030    2    1    2    0    0  0.00000000000E+00  0.00000000000E+00 -0.23429050636E+04  0.37272936117E+04  0.28988814275E+04 0.  0.
        1    1    3    3  502    0  0.19807279488E+03 -0.92040537111E+03 -0.25884263440E+04  0.27543292864E+04  0.50400001928E-02 0.  1.
       -1    1    3    3    0  502 -0.19807279488E+03  0.92040537111E+03  0.24552128041E+03  0.97296432535E+03  0.50400001928E-02 0. -1.
</event>
<event>
 5   0  0.2534588E-07  0.2901077E+04  0.7818609E-02  0.8272557E-01
       -2   -1    0    0    0  501  0.00000000000E+00  0.00000000000E+00  0.60587193820E+03  0.60587193821E+03  0.25500000920E-02 0. -1.
        2   -1    0    0  501    0  0.00000000000E+00  0.00000000000E+00 -0.34727831827E+04  0.34727831827E+04  0.25500000920E-02 0.  1.
    10030    2    1    2    0    0  0.00000000000E+00  0.00000000000E+00 -0.28669112445E+04  0.40786551209E+04  0.29010769572E+04 0.  0.
        3    1    3    3  502    0  0.69530757614E+03 -0.12296204013E+04 -0.97005305946E+03  0.17135991086E+04  0.10100000352E+00 0. -1.
       -3    1    3    3    0  502 -0.69530757614E+03  0.12296204013E+04 -0.18968581850E+04  0.23650560122E+04  0.10100000352E+00 0.  1.
</event>
<event>
 5   0  0.2534588E-07  0.2901404E+04  0.7818609E-02  0.8272460E-01
       -2   -1    0    0    0  501  0.00000000000E+00  0.00000000000E+00  0.12789680385E+04  0.12789680385E+04  0.25500000920E-02 0.  1.
        2   -1    0    0  501    0  0.00000000000E+00  0.00000000000E+00 -0.16454958282E+04  0.16454958282E+04  0.25500000920E-02 0. -1.
    10030    2    1    2    0    0  0.00000000000E+00  0.00000000000E+00 -0.36652778964E+03  0.29244638667E+04  0.29014041923E+04 0.  0.
        3    1    3    3  502    0 -0.82230082083E+03 -0.59413122824E+03 -0.12285042702E+04  0.15932336013E+04  0.10100000352E+00 0.  1.
       -3    1    3    3    0  502  0.82230082083E+03  0.59413122824E+03  0.86197648053E+03  0.13312302654E+04  0.10100000352E+00 0. -1.
</event>
<event>
 5   0  0.2492232E-07  0.2901186E+04  0.7818609E-02  0.8272525E-01
       -2   -1    0    0    0  501  0.00000000000E+00  0.00000000000E+00  0.19366441950E+04  0.19366441950E+04  0.25500000920E-02 0.  1.
        2   -1    0    0  501    0  0.00000000000E+00  0.00000000000E+00 -0.10865288656E+04  0.10865288656E+04  0.25500000920E-02 0. -1.
    10030    2    1    2    0    0  0.00000000000E+00  0.00000000000E+00  0.85011532947E+03  0.30231730606E+04  0.29011858405E+04 0.  0.
        4    1    3    3  502    0  0.44080144966E+03  0.88602898961E+03 -0.68013411515E+03  0.12008069437E+04  0.12699999809E+01 0. -1.
       -4    1    3    3    0  502 -0.44080144966E+03 -0.88602898961E+03  0.15302494446E+04  0.18223661169E+04  0.12699999809E+01 0.  1.
</event>
<event>
 5   0  0.9388076E-08  0.2896732E+04  0.7818609E-02  0.8273851E-01
        1   -1    0    0  501    0  0.00000000000E+00  0.00000000000E+00  0.13273419166E+04  0.13273419166E+04  0.50400001928E-02 0. -1.
       -1   -1    0    0    0  501  0.00000000000E+00  0.00000000000E+00 -0.15804244531E+04  0.15804244531E+04  0.50400001928E-02 0.  1.
    10030    2    1    2    0    0  0.00000000000E+00  0.00000000000E+00 -0.25308253651E+03  0.29077663697E+04  0.28967316911E+04 0.  0.
        5    1    3    3  502    0  0.74001580568E+03  0.12207386305E+04  0.11916726407E+03  0.14324975126E+04  0.46999998093E+01 0. -1.
       -5    1    3    3    0  502 -0.74001580568E+03 -0.12207386305E+04 -0.37224980058E+03  0.14752688571E+04  0.46999998093E+01 0.  1.
</event>
<event>
 5   0  0.2492232E-07  0.2899927E+04  0.7818609E-02  0.8272899E-01
       -2   -1    0    0    0  501  0.00000000000E+00  0.00000000000E+00  0.14061009760E+04  0.14061009760E+04  0.25500000920E-02 0. -1.
        2   -1    0    0  501    0  0.00000000000E+00  0.00000000000E+00 -0.14951942252E+04  0.14951942252E+04  0.25500000920E-02 0.  1.
    10030    2    1    2    0    0  0.00000000000E+00  0.00000000000E+00 -0.89093249215E+02  0.29012952012E+04  0.28999269366E+04 0.  0.
        4    1    3    3  502    0 -0.11777994009E+04 -0.53775082021E+02 -0.88891714269E+03  0.14765766108E+04  0.12699999809E+01 0.  1.
       -4    1    3    3    0  502  0.11777994009E+04  0.53775082021E+02  0.79982389347E+03  0.14247185904E+04  0.12699999809E+01 0. -1.
</event>
<event>
 5   0  0.9388076E-08  0.2900064E+04  0.7818609E-02  0.8272858E-01
       -1   -1    0    0    0  501  0.00000000000E+00  0.00000000000E+00  0.15418405713E+04  0.15418405713E+04  0.50400001928E-02 0.  1.
        1   -1    0    0  501    0  0.00000000000E+00  0.00000000000E+00 -0.13636905402E+04  0.13636905402E+04  0.50400001928E-02 0. -1.
    10030    2    1    2    0    0  0.00000000000E+00  0.00000000000E+00  0.17815003113E+03  0.29055311115E+04  0.29000644141E+04 0.  0.
        5    1    3    3  502    0 -0.16128436625E+02 -0.73047413589E+02 -0.13617483431E+04  0.13638096242E+04  0.46999998093E+01 0. -1.
       -5    1    3    3    0  502  0.16128436625E+02  0.73047413589E+02  0.15398983743E+04  0.15417214872E+04  0.46999998093E+01 0.  1.
</event>
<event>
 5   0  0.2546841E-07  0.2899684E+04  0.7818609E-02  0.8272972E-01
       -2   -1    0    0    0  501  0.00000000000E+00  0.00000000000E+00  0.16237506458E+04  0.16237506458E+04  0.25500000920E-02 0.  1.
        2   -1    0    0  501    0  0.00000000000E+00  0.00000000000E+00 -0.12945592646E+04  0.12945592646E+04  0.25500000920E-02 0. -1.
    10030    2    1    2    0    0  0.00000000000E+00  0.00000000000E+00  0.32919138124E+03  0.29183099104E+04  0.28996837358E+04 0.  0.
        1    1    3    3  502    0 -0.10877132849E+04  0.95575551871E+03  0.90279369787E+02  0.14507719208E+04  0.50400001928E-02 0. -1.
       -1    1    3    3    0  502  0.10877132849E+04 -0.95575551871E+03  0.23891201145E+03  0.14675379896E+04  0.50400001928E-02 0.  1.
</event>
<event>
 5   0  0.9395744E-08  0.2899818E+04  0.7818609E-02  0.8272932E-01
        1   -1    0    0  501    0  0.00000000000E+00  0.00000000000E+00  0.22782144460E+04  0.22782144460E+04  0.50400001928E-02 0.  1.
       -1   -1    0    0    0  501  0.00000000000E+00  0.00000000000E+00 -0.92275607974E+03  0.92275607976E+03  0.50400001928E-02 0. -1.
    10030    2    1    2    0    0  0.00000000000E+00  0.00000000000E+00  0.13554583662E+04  0.32009705258E+04  0.28998180847E+04 0.  0.
        2    1    3    3  502    0 -0.10002374707E+04  0.62089952140E+03  0.16119331953E+04  0.19960761107E+04  0.25500000920E-02 0. -1.
       -2    1    3    3    0  502  0.10002374707E+04 -0.62089952140E+03 -0.25647482909E+03  0.12048944151E+04  0.25500000920E-02 0.  1.
</event>
<event>
 5   0  0.2678723E-07  0.2902037E+04  0.7818609E-02  0.8272272E-01
        2   -1    0    0  501    0  0.00000000000E+00  0.00000000000E+00  0.26632521429E+04  0.26632521429E+04  0.25500000920E-02 0. -1.
       -2   -1    0    0    0  501  0.00000000000E+00  0.00000000000E+00 -0.79055754381E+03  0.79055754382E+03  0.25500000920E-02 0.  1.
    10030    2    1    2    0    0  0.00000000000E+00  0.00000000000E+00  0.18726945991E+04  0.34538096867E+04  0.29020365764E+04 0.  0.
        5    1    3    3  502    0 -0.13190949693E+04  0.38370209369E+03  0.14922721339E+04  0.20283335639E+04  0.46999998093E+01 0. -1.
       -5    1    3    3    0  502  0.13190949693E+04 -0.38370209369E+03  0.38042246520E+03  0.14254761228E+04  0.46999998093E+01 0.  1.
</event>
<event>
 5   0  0.9763851E-08  0.2914492E+04  0.7818609E-02  0.8268579E-01
       -1   -1    0    0    0  501  0.00000000000E+00  0.00000000000E+00  0.13327199539E+04  0.13327199539E+04  0.50400001928E-02 0. -1.
        1   -1    0    0  501    0  0.00000000000E+00  0.00000000000E+00 -0.15934070462E+04  0.15934070462E+04  0.50400001928E-02 0.  1.
    10030    2    1    2    0    0  0.00000000000E+00  0.00000000000E+00 -0.26068709236E+03  0.29261270001E+04  0.29144916299E+04 0.  0.
        3    1    3    3  502    0 -0.81699615821E+03  0.93070580897E+03 -0.90143922052E+03  0.15317600020E+04  0.10100000352E+00 0.  1.
       -3    1    3    3    0  502  0.81699615821E+03 -0.93070580897E+03  0.64075212815E+03  0.13943669981E+04  0.10100000352E+00 0. -1.
</event>
<event>
 5   0  0.9763851E-08  0.2899739E+04  0.7818609E-02  0.8272955E-01
       -1   -1    0    0    0  501  0.00000000000E+00  0.00000000000E+00  0.91650985974E+03  0.91650985976E+03  0.50400001928E-02 0. -1.
        1   -1    0    0  501    0  0.00000000000E+00  0.00000000000E+00 -0.22936154501E+04  0.22936154501E+04  0.50400001928E-02 0.  1.
    10030    2    1    2    0    0  0.00000000000E+00  0.00000000000E+00 -0.13771055903E+04  0.32101253098E+04  0.28997387292E+04 0.  0.
        3    1    3    3  502    0  0.24459169148E+03  0.12633509804E+04  0.50963153772E+02  0.12878191055E+04  0.10100000352E+00 0. -1.
       -3    1    3    3    0  502 -0.24459169148E+03 -0.12633509804E+04 -0.14280687441E+04  0.19223062043E+04  0.10100000352E+00 0.  1.
</event>
<event>
 5   0  0.9763851E-08  0.2912540E+04  0.7818609E-02  0.8269156E-01
       -1   -1    0    0    0  501  0.00000000000E+00  0.00000000000E+00  0.13071588300E+04  0.13071588300E+04  0.50400001928E-02 0. -1.
        1   -1    0    0  501    0  0.00000000000E+00  0.00000000000E+00 -0.16223904340E+04  0.16223904341E+04  0.50400001928E-02 0.  1.
    10030    2    1    2    0    0  0.00000000000E+00  0.00000000000E+00 -0.31523160403E+03  0.29295492641E+04  0.29125397725E+04 0.  0.
        3    1    3    3  502    0 -0.14071892571E+04  0.25101325678E+03 -0.43768891986E+03  0.14949116566E+04  0.10100000352E+00 0.  1.
       -3    1    3    3    0  502  0.14071892571E+04 -0.25101325678E+03  0.12245731583E+03  0.14346376075E+04  0.10100000352E+00 0. -1.
</event>
<event>
 5   0  0.9395744E-08  0.2900268E+04  0.7818609E-02  0.8272798E-01
        1   -1    0    0  501    0  0.00000000000E+00  0.00000000000E+00  0.13376919873E+04  0.13376919873E+04  0.50400001928E-02 0.  1.
       -1   -1    0    0    0  501  0.00000000000E+00  0.00000000000E+00 -0.15720274579E+04  0.15720274579E+04  0.50400001928E-02 0. -1.
    10030    2    1    2    0    0  0.00000000000E+00  0.00000000000E+00 -0.23433547061E+03  0.29097194452E+04  0.29002679423E+04 0.  0.
        2    1    3    3  502    0  0.14120297867E+04 -0.32911070341E+03 -0.89755431544E+02  0.14526520613E+04  0.25500000920E-02 0. -1.
       -2    1    3    3    0  502 -0.14120297867E+04  0.32911070341E+03 -0.14458003907E+03  0.14570673839E+04  0.25500000920E-02 0.  1.
</event>
<event>
 5   0  0.9388076E-08  0.2899790E+04  0.7818609E-02  0.8272940E-01
        1   -1    0    0  501    0  0.00000000000E+00  0.00000000000E+00  0.15354863806E+04  0.15354863806E+04  0.50400001928E-02 0.  1.
       -1   -1    0    0    0  501  0.00000000000E+00  0.00000000000E+00 -0.13690744851E+04  0.13690744851E+04  0.50400001928E-02 0. -1.
    10030    2    1    2    0    0  0.00000000000E+00  0.00000000000E+00  0.16641189557E+03  0.29045608657E+04  0.28997898033E+04 0.  0.
        5    1    3    3  502    0  0.12958993053E+04  0.39869592867E+03  0.59772383928E+03  0.14817588640E+04  0.46999998093E+01 0.  1.
       -5    1    3    3    0  502 -0.12958993053E+04 -0.39869592867E+03 -0.43131194371E+03  0.14228020017E+04  0.46999998093E+01 0. -1.
</event>
<event>
 5   0  0.2678723E-07  0.2898526E+04  0.7818609E-02  0.8273316E-01
       -2   -1    0    0    0  501  0.00000000000E+00  0.00000000000E+00  0.11933776919E+04  0.11933776919E+04  0.25500000920E-02 0.  1.
        2   -1    0    0  501    0  0.00000000000E+00  0.00000000000E+00 -0.17600157160E+04  0.17600157160E+04  0.25500000920E-02 0. -1.
    10030    2    1    2    0    0  0.00000000000E+00  0.00000000000E+00 -0.56663802416E+03  0.29533934079E+04  0.28985261723E+04 0.  0.
        5    1    3    3  502    0  0.10524915000E+04 -0.80478437570E+03  0.31510155090E+03  0.13618837419E+04  0.46999998093E+01 0.  1.
       -5    1    3    3    0  502 -0.10524915000E+04  0.80478437570E+03 -0.88173957506E+03  0.15915096661E+04  0.46999998093E+01 0. -1.
</event>
<event>
 5   0  0.8407500E-08  0.2902152E+04  0.7818609E-02  0.8272237E-01
       -3   -1    0    0    0  501  0.00000000000E+00  0.00000000000E+00  0.10001195952E+04  0.10001196003E+04  0.10100000352E+00 0.  1.
        3   -1    0    0  501    0  0.00000000000E+00  0.00000000000E+00 -0.21053703237E+04  0.21053703261E+04  0.10100000352E+00 0. -1.
    10030    2    1    2    0    0  0.00000000000E+00  0.00000000000E+00 -0.11052507285E+04  0.31054899265E+04  0.29021523927E+04 0.  0.
        1    1    3    3  502    0 -0.13052679366E+02  0.86335152782E+03 -0.18005589783E+04  0.19968872946E+04  0.50400001928E-02 0. -1.
       -1    1    3    3    0  502  0.13052679366E+02 -0.86335152782E+03  0.69530824985E+03  0.11086026319E+04  0.50400001928E-02 0.  1.
</event>
<event>
 5   0  0.2546841E-07  0.2899701E+04  0.7818609E-02  0.8272966E-01
       -2   -1    0    0    0  501  0.00000000000E+00  0.00000000000E+00  0.11148779447E+04  0.11148779447E+04  0.25500000920E-02 0.  1.
        2   -1    0    0  501    0  0.00000000000E+00  0.00000000000E+00 -0.18854681940E+04  0.18854681940E+04  0.25500000920E-02 0. -1.
    10030    2    1    2    0    0  0.00000000000E+00  0.00000000000E+00 -0.77059024930E+03  0.30003461386E+04  0.28997012983E+04 0.  0.
        1    1    3    3  502    0 -0.20822914774E+03 -0.10609808393E+04  0.61416448147E+03  0.12434780777E+04  0.50400001928E-02 0.  1.
       -1    1    3    3    0  502  0.20822914774E+03  0.10609808393E+04 -0.13847547308E+04  0.17568680610E+04  0.50400001928E-02 0. -1.
</event>
<event>
 5   0  0.9421924E-08  0.2899363E+04  0.7818609E-02  0.8273067E-01
        1   -1    0    0  501    0  0.00000000000E+00  0.00000000000E+00  0.17638930501E+04  0.17638930501E+04  0.50400001928E-02 0. -1.
       -1   -1    0    0    0  501  0.00000000000E+00  0.00000000000E+00 -0.11914417627E+04  0.11914417627E+04  0.50400001928E-02 0.  1.
    10030    2    1    2    0    0  0.00000000000E+00  0.00000000000E+00  0.57245128739E+03  0.29553348129E+04  0.28993625816E+04 0.  0.
        1    1    3    3  502    0 -0.92370600474E+03 -0.38170966920E+03 -0.78411295457E+03  0.12703417573E+04  0.50400001928E-02 0.  1.
       -1    1    3    3    0  502  0.92370600474E+03  0.38170966920E+03  0.13565642420E+04  0.16849930556E+04  0.50400001928E-02 0. -1.
</event>
<event>
 5   0  0.2492232E-07  0.2898198E+04  0.7818609E-02  0.8273414E-01
       -2   -1    0    0    0  501  0.00000000000E+00  0.00000000000E+00  0.11112995636E+04  0.11112995636E+04  0.25500000920E-02 0. -1.
        2   -1    0    0  501    0  0.00000000000E+00  0.00000000000E+00 -0.18895792231E+04  0.18895792231E+04  0.25500000920E-02 0.  1.
    10030    2    1    2    0    0  0.00000000000E+00  0.00000000000E+00 -0.77827965950E+03  0.30008787867E+04  0.28981984515E+04 0.  0.
        4    1    3    3  502    0  0.60852519017E+02  0.77929195204E+03 -0.16525702953E+04  0.18281108198E+04  0.12699999809E+01 0.  1.
       -4    1    3    3    0  502 -0.60852519017E+02 -0.77929195204E+03  0.87429063579E+03  0.11727679670E+04  0.12699999809E+01 0. -1.
</event>
<event>
 5   0  0.2534588E-07  0.2901313E+04  0.7818609E-02  0.8272487E-01
       -2   -1    0    0    0  501  0.00000000000E+00  0.00000000000E+00  0.11906656802E+04  0.11906656802E+04  0.25500000920E-02 0. -1.
        2   -1    0    0  501    0  0.00000000000E+00  0.00000000000E+00 -0.17674185542E+04  0.17674185542E+04  0.25500000920E-02 0.  1.
    10030    2    1    2    0    0  0.00000000000E+00  0.00000000000E+00 -0.57675287403E+03  0.29580842344E+04  0.29013132303E+04 0.  0.
        3    1    3    3  502    0  0.13408371985E+04 -0.50985870909E+03 -0.68271920837E+02  0.14361272094E+04  0.10100000352E+00 0. -1.
       -3    1    3    3    0  502 -0.13408371985E+04  0.50985870909E+03 -0.50848095319E+03  0.15219570251E+04  0.10100000352E+00 0.  1.
</event>
<event>
 5   0  0.9763851E-08  0.2900041E+04  0.7818609E-02  0.8272865E-01
        1   -1    0    0  501    0  0.00000000000E+00  0.00000000000E+00  0.24984765193E+04  0.24984765193E+04  0.50400001928E-02 0. -1.
       -1   -1    0    0    0  501  0.00000000000E+00  0.00000000000E+00 -0.84153683158E+03  0.84153683160E+03  0.50400001928E-02 0.  1.
    10030    2    1    2    0    0  0.00000000000E+00  0.00000000000E+00  0.16569396877E+04  0.33400133509E+04  0.29000413886E+04 0.  0.
        3    1    3    3  502    0  0.34924233063E+03  0.59356088354E+03  0.22980995467E+04  0.23990719591E+04  0.10100000352E+00 0. -1.
       -3    1    3    3    0  502 -0.34924233063E+03 -0.59356088354E+03 -0.64115985897E+03  0.94094139187E+03  0.10100000352E+00 0.  1.
</event>
<event>
 5   0  0.9388076E-08  0.2899052E+04  0.7818609E-02  0.8273159E-01
       -1   -1    0    0    0  501  0.00000000000E+00  0.00000000000E+00  0.15049150976E+04  0.15049150976E+04  0.50400001928E-02 0. -1.
        1   -1    0    0  501    0  0.00000000000E+00  0.00000000000E+00 -0.13961758031E+04  0.13961758031E+04  0.50400001928E-02 0.  1.
    10030    2    1    2    0    0  0.00000000000E+00  0.00000000000E+00  0.10873929449E+03  0.29010909006E+04  0.28990522899E+04 0.  0.
        5    1    3    3  502    0  0.11000130099E+04  0.91178473689E+02  0.99458439389E+03  0.14857867756E+04  0.46999998093E+01 0. -1.
       -5    1    3    3    0  502 -0.11000130099E+04 -0.91178473689E+02 -0.88584509939E+03  0.14153041250E+04  0.46999998093E+01 0.  1.
</event>
<event>
 5   0  0.9443352E-08  0.2898495E+04  0.7818609E-02  0.8273325E-01
       -1   -1    0    0    0  501  0.00000000000E+00  0.00000000000E+00  0.18036131794E+04  0.18036131794E+04  0.50400001928E-02 0. -1.
        1   -1    0    0  501    0  0.00000000000E+00  0.00000000000E+00 -0.11645057945E+04  0.11645057945E+04  0.50400001928E-02 0.  1.
    10030    2    1    2    0    0  0.00000000000E+00  0.00000000000E+00  0.63910738489E+03  0.29681189740E+04  0.28984947808E+04 0.  0.
        4    1    3    3  502    0 -0.20059832682E+03  0.62974339866E+03 -0.10011949666E+04  0.11996705427E+04  0.12699999809E+01 0.  1.
       -4    1    3    3    0  502  0.20059832682E+03 -0.62974339866E+03  0.16403023515E+04  0.17684484313E+04  0.12699999809E+01 0. -1.
</event>
<event>
 5   0  0.2534588E-07  0.2900028E+04  0.7818609E-02  0.8272869E-01
       -2   -1    0    0    0  501  0.00000000000E+00  0.00000000000E+00  0.32902068587E+04  0.32902068587E+04  0.25500000920E-02 0. -1.
        2   -1    0    0  501    0  0.00000000000E+00  0.00000000000E+00 -0.63903009517E+03  0.63903009518E+03  0.25500000920E-02 0.  1.
    10030    2    1    2    0    0  0.00000000000E+00  0.00000000000E+00  0.26511767636E+04  0.39292369539E+04  0.29000284151E+04 0.  0.
        3    1    3    3  502    0 -0.79150216433E+03 -0.59300913048E+03 -0.11111622187E+03  0.99522978751E+03  0.10100000352E+00 0.  1.
       -3    1    3    3    0  502  0.79150216433E+03  0.59300913048E+03  0.27622929854E+04  0.29340071664E+04  0.10100000352E+00 0. -1.
</event>
<event>
 5   0  0.2608591E-07  0.2902717E+04  0.7818609E-02  0.8272070E-01
        2   -1    0    0  501    0  0.00000000000E+00  0.00000000000E+00  0.12327362959E+04  0.12327362959E+04  0.25500000920E-02 0. -1.
       -2   -1    0    0    0  501  0.00000000000E+00  0.00000000000E+00 -0.17087521505E+04  0.17087521505E+04  0.25500000920E-02 0.  1.
    10030    2    1    2    0    0  0.00000000000E+00  0.00000000000E+00 -0.47601585461E+03  0.29414884464E+04  0.29027165185E+04 0.  0.
        2    1    3    3  502    0  0.76093670861E+03 -0.39957488293E+03  0.94712439371E+03  0.12789563631E+04  0.25500000920E-02 0. -1.
       -2    1    3    3    0  502 -0.76093670861E+03  0.39957488293E+03 -0.14231402483E+04  0.16625320833E+04  0.25500000920E-02 0.  1.
</event>
<event>
 5   0  0.2534588E-07  0.2883317E+04  0.7818609E-02  0.8277859E-01
       -2   -1    0    0    0  501  0.00000000000E+00  0.00000000000E+00  0.14892792996E+04  0.14892792996E+04  0.25500000920E-02 0. -1.
        2   -1    0    0  501    0  0.00000000000E+00  0.00000000000E+00 -0.13955603163E+04  0.13955603163E+04  0.25500000920E-02 0.  1.
    10030    2    1    2    0    0  0.00000000000E+00  0.00000000000E+00  0.93718983276E+02  0.28848396159E+04  0.28833169027E+04 0.  0.
        3    1    3    3  502    0 -0.29233982192E+03 -0.13253979911E+04 -0.43943903655E+03  0.14266215627E+04  0.10100000352E+00 0.  1.
       -3    1    3    3    0  502  0.29233982192E+03  0.13253979911E+04  0.53315801982E+03  0.14582180531E+04  0.10100000352E+00 0. -1.
</event>
<event>
 5   0  0.2608591E-07  0.2900165E+04  0.7818609E-02  0.8272828E-01
        2   -1    0    0  501    0  0.00000000000E+00  0.00000000000E+00  0.12486118446E+04  0.12486118446E+04  0.25500000920E-02 0. -1.
       -2   -1    0    0    0  501  0.00000000000E+00  0.00000000000E+00 -0.16840617642E+04  0.16840617642E+04  0.25500000920E-02 0.  1.
    10030    2    1    2    0    0  0.00000000000E+00  0.00000000000E+00 -0.43544991962E+03  0.29326736087E+04  0.29001651441E+04 0.  0.
        2    1    3    3  502    0 -0.45479571204E+03 -0.28806310215E+03  0.11438147725E+04  0.12641723476E+04  0.25500000920E-02 0. -1.
       -2    1    3    3    0  502  0.45479571204E+03  0.28806310215E+03 -0.15792646922E+04  0.16685012611E+04  0.25500000920E-02 0.  1.
</event>
<event>
 5   0  0.2534588E-07  0.2900521E+04  0.7818609E-02  0.8272722E-01
        2   -1    0    0  501    0  0.00000000000E+00  0.00000000000E+00  0.20184283173E+04  0.20184283173E+04  0.25500000920E-02 0. -1.
       -2   -1    0    0    0  501  0.00000000000E+00  0.00000000000E+00 -0.10420267039E+04  0.10420267039E+04  0.25500000920E-02 0.  1.
    10030    2    1    2    0    0  0.00000000000E+00  0.00000000000E+00  0.97640161340E+03  0.30604550212E+04  0.29005214749E+04 0.  0.
        3    1    3    3  502    0  0.78672400505E+03  0.10987392261E+03  0.17684679145E+04  0.19386814369E+04  0.10100000352E+00 0. -1.
       -3    1    3    3    0  502 -0.78672400505E+03 -0.10987392261E+03 -0.79206630108E+03  0.11217735843E+04  0.10100000352E+00 0.  1.
</event>
<event>
 5   0  0.2678723E-07  0.2899673E+04  0.7818609E-02  0.8272975E-01
        2   -1    0    0  501    0  0.00000000000E+00  0.00000000000E+00  0.17868668628E+04  0.17868668628E+04  0.25500000920E-02 0. -1.
       -2   -1    0    0    0  501  0.00000000000E+00  0.00000000000E+00 -0.11763755632E+04  0.11763755632E+04  0.25500000920E-02 0.  1.
    10030    2    1    2    0    0  0.00000000000E+00  0.00000000000E+00  0.61049129955E+03  0.29632424260E+04  0.28996734382E+04 0.  0.
        5    1    3    3  502    0  0.11798379401E+04 -0.54791305841E+02  0.11645027348E+04  0.16586465451E+04  0.46999998093E+01 0.  1.
       -5    1    3    3    0  502 -0.11798379401E+04  0.54791305841E+02 -0.55401143527E+03  0.13045958809E+04  0.46999998093E+01 0. -1.
</event>
<event>
 5   0  0.2492232E-07  0.2901778E+04  0.7818609E-02  0.8272349E-01
       -2   -1    0    0    0  501  0.00000000000E+00  0.00000000000E+00  0.92233890175E+03  0.92233890175E+03  0.25500000920E-02 0.  1.
        2   -1    0    0  501    0  0.00000000000E+00  0.00000000000E+00 -0.22823261670E+04  0.22823261670E+04  0.25500000920E-02 0. -1.
    10030    2    1    2    0    0  0.00000000000E+00  0.00000000000E+00 -0.13599872652E+04  0.32046650687E+04  0.29017775313E+04 0.  0.
        4    1    3    3  502    0  0.26127597265E+03  0.12519657023E+04  0.76642359591E+02  0.12812333581E+04  0.12699999809E+01 0.  1.
       -4    1    3    3    0  502 -0.26127597265E+03 -0.12519657023E+04 -0.14366296248E+04  0.19234317106E+04  0.12699999809E+01 0. -1.
</event>
<event>
 5   0  0.2492232E-07  0.2899566E+04  0.7818609E-02  0.8273007E-01
       -2   -1    0    0    0  501  0.00000000000E+00  0.00000000000E+00  0.14746839746E+04  0.14746839746E+04  0.25500000920E-02 0. -1.
        2   -1    0    0  501    0  0.00000000000E+00  0.00000000000E+00 -0.14253020118E+04  0.14253020118E+04  0.25500000920E-02 0.  1.
    10030    2    1    2    0    0  0.00000000000E+00  0.00000000000E+00  0.49381962765E+02  0.28999859864E+04  0.28995655094E+04 0.  0.
        4    1    3    3  502    0  0.13656299185E+04 -0.12933969483E+03  0.49400799472E+03  0.14579846854E+04  0.12699999809E+01 0. -1.
       -4    1    3    3    0  502 -0.13656299185E+04  0.12933969483E+03 -0.44462603196E+03  0.14420013011E+04  0.12699999809E+01 0.  1.
</event>
<event>
 5   0  0.9421924E-08  0.2901097E+04  0.7818609E-02  0.8272551E-01
        1   -1    0    0  501    0  0.00000000000E+00  0.00000000000E+00  0.83743444435E+03  0.83743444437E+03  0.50400001928E-02 0. -1.
       -1   -1    0    0    0  501  0.00000000000E+00  0.00000000000E+00 -0.25125441051E+04  0.25125441051E+04  0.50400001928E-02 0.  1.
    10030    2    1    2    0    0  0.00000000000E+00  0.00000000000E+00 -0.16751096608E+04  0.33499785495E+04  0.29010970178E+04 0.  0.
        1    1    3    3  502    0  0.28246310002E+03  0.14191816919E+04 -0.72076790658E+03  0.16165916160E+04  0.50400001928E-02 0.  1.
       -1    1    3    3    0  502 -0.28246310002E+03 -0.14191816919E+04 -0.95434175421E+03  0.17333869336E+04  0.50400001928E-02 0. -1.
</event>
<event>
 5   0  0.2608591E-07  0.2899460E+04  0.7818609E-02  0.8273038E-01
        2   -1    0    0  501    0  0.00000000000E+00  0.00000000000E+00  0.21913260116E+04  0.21913260116E+04  0.25500000920E-02 0.  1.
       -2   -1    0    0    0  501  0.00000000000E+00  0.00000000000E+00 -0.95910743080E+03  0.95910743080E+03  0.25500000920E-02 0. -1.
    10030    2    1    2    0    0  0.00000000000E+00  0.00000000000E+00  0.12322185808E+04  0.31504334424E+04  0.28994599918E+04 0.  0.
        2    1    3    3  502    0 -0.13303796872E+04  0.30145733380E+03  0.11494429722E+04  0.17838177548E+04  0.25500000920E-02 0.  1.
       -2    1    3    3    0  502  0.13303796872E+04 -0.30145733380E+03  0.82775608634E+02  0.13666156876E+04  0.25500000920E-02 0. -1.
</event>
<event>
 5   0  0.9388076E-08  0.2900128E+04  0.7818609E-02  0.8272840E-01
       -1   -1    0    0    0  501  0.00000000000E+00  0.00000000000E+00  0.10025061796E+04  0.10025061797E+04  0.50400001928E-02 0.  1.
        1   -1    0    0  501    0  0.00000000000E+00  0.00000000000E+00 -0.20974285341E+04  0.20974285341E+04  0.50400001928E-02 0. -1.
    10030    2    1    2    0    0  0.00000000000E+00  0.00000000000E+00 -0.10949223545E+04  0.30999347138E+04  0.29001276295E+04 0.  0.
        5    1    3    3  502    0 -0.26444417621E+03  0.23209945075E+02 -0.20712260979E+04  0.20881736189E+04  0.46999998093E+01 0. -1.
       -5    1    3    3    0  502  0.26444417621E+03 -0.23209945075E+02  0.97630374340E+03  0.10117610950E+04  0.46999998093E+01 0.  1.
</event>
<event>
 5   0  0.9421924E-08  0.2900953E+04  0.7818609E-02  0.8272594E-01
        1   -1    0    0  501    0  0.00000000000E+00  0.00000000000E+00  0.23089645250E+04  0.23089645250E+04  0.50400001928E-02 0. -1.
       -1   -1    0    0    0  501  0.00000000000E+00  0.00000000000E+00 -0.91118016456E+03  0.91118016458E+03  0.50400001928E-02 0.  1.
    10030    2    1    2    0    0  0.00000000000E+00  0.00000000000E+00  0.13977843605E+04  0.32201446896E+04  0.29009534129E+04 0.  0.
        1    1    3    3  502    0 -0.61801634014E+03  0.13102204459E+04  0.61837972008E+03  0.15751238973E+04  0.50400001928E-02 0.  1.
       -1    1    3    3    0  502  0.61801634014E+03 -0.13102204459E+04  0.77940464039E+03  0.16450207923E+04  0.50400001928E-02 0. -1.
</event>
<event>
 5   0  0.9388076E-08  0.2904575E+04  0.7818609E-02  0.8271518E-01
       -1   -1    0    0    0  501  0.00000000000E+00  0.00000000000E+00  0.10174075334E+04  0.10174075334E+04  0.50400001928E-02 0.  1.
        1   -1    0    0  501    0  0.00000000000E+00  0.00000000000E+00 -0.20730516244E+04  0.20730516244E+04  0.50400001928E-02 0. -1.
    10030    2    1    2    0    0  0.00000000000E+00  0.00000000000E+00 -0.10556440910E+04  0.30904591579E+04  0.29045745574E+04 0.  0.
        5    1    3    3  502    0 -0.51978428300E+03 -0.58615402891E+03 -0.18289318236E+04  0.19896647838E+04  0.46999998093E+01 0. -1.
       -5    1    3    3    0  502  0.51978428300E+03  0.58615402891E+03  0.77328773265E+03  0.11007943740E+04  0.46999998093E+01 0.  1.
</event>
<event>
 5   0  0.2546841E-07  0.2899199E+04  0.7818609E-02  0.8273116E-01
       -2   -1    0    0    0  501  0.00000000000E+00  0.00000000000E+00  0.19410327465E+04  0.19410327465E+04  0.25500000920E-02 0.  1.
        2   -1    0    0  501    0  0.00000000000E+00  0.00000000000E+00 -0.10825882350E+04  0.10825882350E+04  0.25500000920E-02 0. -1.
    10030    2    1    2    0    0  0.00000000000E+00  0.00000000000E+00  0.85844451147E+03  0.30236209815E+04  0.28991993482E+04 0.  0.
        1    1    3    3  502    0  0.51569803786E+03  0.59601446150E+03  0.16980533861E+04  0.18720478110E+04  0.50400001928E-02 0.  1.
       -1    1    3    3    0  502 -0.51569803786E+03 -0.59601446150E+03 -0.83960887464E+03  0.11515731705E+04  0.50400001928E-02 0. -1.
</event>
<event>
 5   0  0.2534588E-07  0.2912134E+04  0.7818609E-02  0.8269276E-01
        2   -1    0    0  501    0  0.00000000000E+00  0.00000000000E+00  0.14457112984E+04  0.14457112984E+04  0.25500000920E-02 0.  1.
       -2   -1    0    0    0  501  0.00000000000E+00  0.00000000000E+00 -0.14664970017E+04  0.14664970017E+04  0.25500000920E-02 0. -1.
    10030    2    1    2    0    0  0.00000000000E+00  0.00000000000E+00 -0.20785703252E+02  0.29122083001E+04  0.29121341209E+04 0.  0.
        3    1    3    3  502    0 -0.54845567977E+03  0.25739524229E+03  0.13136783860E+04  0.14466536750E+04  0.10100000352E+00 0.  1.
       -3    1    3    3    0  502  0.54845567977E+03 -0.25739524229E+03 -0.13344640893E+04  0.14655546251E+04  0.10100000352E+00 0. -1.
</event>
<event>
 5   0  0.2678723E-07  0.2898993E+04  0.7818609E-02  0.8273177E-01
        2   -1    0    0  501    0  0.00000000000E+00  0.00000000000E+00  0.74499229297E+03  0.74499229297E+03  0.25500000920E-02 0.  1.
       -2   -1    0    0    0  501  0.00000000000E+00  0.00000000000E+00 -0.28202164742E+04  0.28202164742E+04  0.25500000920E-02 0. -1.
    10030    2    1    2    0    0  0.00000000000E+00  0.00000000000E+00 -0.20752241812E+04  0.35652087672E+04  0.28989926097E+04 0.  0.
        5    1    3    3  502    0  0.79884788943E+03  0.21830814782E+03  0.42539667648E+03  0.93102138547E+03  0.46999998093E+01 0.  1.
       -5    1    3    3    0  502 -0.79884788943E+03 -0.21830814782E+03 -0.25006208577E+04  0.26341873817E+04  0.46999998093E+01 0. -1.
</event>
<event>
 5   0  0.9388076E-08  0.2901035E+04  0.7818609E-02  0.8272570E-01
       -1   -1    0    0    0  501  0.00000000000E+00  0.00000000000E+00  0.13492304309E+04  0.13492304309E+04  0.50400001928E-02 0. -1.
        1   -1    0    0  501    0  0.00000000000E+00  0.00000000000E+00 -0.15594083546E+04  0.15594083546E+04  0.50400001928E-02 0.  1.
    10030    2    1    2    0    0  0.00000000000E+00  0.00000000000E+00 -0.21017792366E+03  0.29086387856E+04  0.29010351300E+04 0.  0.
        5    1    3    3  502    0 -0.69566828873E+03  0.12725962957E+04 -0.12802722196E+03  0.14559769090E+04  0.46999998093E+01 0. -1.
       -5    1    3    3    0  502  0.69566828873E+03 -0.12725962957E+04 -0.82150701700E+02  0.14526618766E+04  0.46999998093E+01 0.  1.
</event>
<event>
 5   0  0.2534588E-07  0.2899822E+04  0.7818609E-02  0.8272930E-01
        2   -1    0    0  501    0  0.00000000000E+00  0.00000000000E+00  0.19361157776E+04  0.19361157776E+04  0.25500000920E-02 0.  1.
       -2   -1    0    0    0  501  0.00000000000E+00  0.00000000000E+00 -0.10858039645E+04  0.10858039645E+04  0.25500000920E-02 0. -1.
    10030    2    1    2    0    0  0.00000000000E+00  0.00000000000E+00  0.85031181308E+03  0.30219197420E+04  0.28998221925E+04 0.  0.
        3    1    3    3  502    0 -0.15765136558E+03  0.19953777679E+03  0.19126941315E+04  0.19295253635E+04  0.10100000352E+00 0.  1.
       -3    1    3    3    0  502  0.15765136558E+03 -0.19953777679E+03 -0.10623823185E+04  0.10923943785E+04  0.10100000352E+00 0. -1.
</event>
<event>
 5   0  0.2492232E-07  0.2895368E+04  0.7818609E-02  0.8274257E-01
        2   -1    0    0  501    0  0.00000000000E+00  0.00000000000E+00  0.20099619877E+04  0.20099619877E+04  0.25500000920E-02 0.  1.
       -2   -1    0    0    0  501  0.00000000000E+00  0.00000000000E+00 -0.10427004845E+04  0.10427004845E+04  0.25500000920E-02 0. -1.
    10030    2    1    2    0    0  0.00000000000E+00  0.00000000000E+00  0.96726150321E+03  0.30526624723E+04  0.28953675680E+04 0.  0.
        4    1    3    3  502    0  0.67565951163E+03  0.11286854000E+04 -0.15363976165E+03  0.13244067718E+04  0.12699999809E+01 0. -1.
       -4    1    3    3    0  502 -0.67565951163E+03 -0.11286854000E+04  0.11209012649E+04  0.17282557005E+04  0.12699999809E+01 0.  1.
</event>
<event>
 5   0  0.2678723E-07  0.2900459E+04  0.7818609E-02  0.8272741E-01
        2   -1    0    0  501    0  0.00000000000E+00  0.00000000000E+00  0.13512625448E+04  0.13512625448E+04  0.25500000920E-02 0. -1.
       -2   -1    0    0    0  501  0.00000000000E+00  0.00000000000E+00 -0.15564443651E+04  0.15564443651E+04  0.25500000920E-02 0.  1.
    10030    2    1    2    0    0  0.00000000000E+00  0.00000000000E+00 -0.20518182033E+03  0.29077069099E+04  0.29004585662E+04 0.  0.
        5    1    3    3  502    0  0.57036766488E+03  0.13333425710E+04 -0.10720663423E+03  0.14541791627E+04  0.46999998093E+01 0. -1.
       -5    1    3    3    0  502 -0.57036766488E+03 -0.13333425710E+04 -0.97975186103E+02  0.14535277472E+04  0.46999998093E+01 0.  1.
</event>
<event>
 5   0  0.9388076E-08  0.2899987E+04  0.7818609E-02  0.8272881E-01
       -1   -1    0    0    0  501  0.00000000000E+00  0.00000000000E+00  0.11472448102E+04  0.11472448102E+04  0.50400001928E-02 0.  1.
        1   -1    0    0  501    0  0.00000000000E+00  0.00000000000E+00 -0.18326350746E+04  0.18326350746E+04  0.50400001928E-02 0. -1.
    10030    2    1    2    0    0  0.00000000000E+00  0.00000000000E+00 -0.68539026437E+03  0.29798798847E+04  0.28999869505E+04 0.  0.
        5    1    3    3  502    0  0.11584319907E+04 -0.67897298706E+03 -0.90502852465E+03  0.16192799988E+04  0.46999998093E+01 0. -1.
       -5    1    3    3    0  502 -0.11584319907E+04  0.67897298706E+03  0.21963826028E+03  0.13605998859E+04  0.46999998093E+01 0.  1.
</event>
<event>
 5   0  0.2534588E-07  0.2898229E+04  0.7818609E-02  0.8273405E-01
        2   -1    0    0  501    0  0.00000000000E+00  0.00000000000E+00  0.25725263077E+04  0.25725263077E+04  0.25500000920E-02 0. -1.
       -2   -1    0    0    0  501  0.00000000000E+00  0.00000000000E+00 -0.81629208017E+03  0.81629208018E+03  0.25500000920E-02 0.  1.
    10030    2    1    2    0    0  0.00000000000E+00  0.00000000000E+00  0.17562342275E+04  0.33888183879E+04  0.28982290117E+04 0.  0.
        3    1    3    3  502    0  0.67515684219E+03 -0.39251548678E+03 -0.54917465898E+03  0.95472403615E+03  0.10100000352E+00 0.  1.
       -3    1    3    3    0  502 -0.67515684219E+03  0.39251548678E+03  0.23054088865E+04  0.24340943517E+04  0.10100000352E+00 0. -1.
</event>
<event>
 5   0  0.2546841E-07  0.2906524E+04  0.7818609E-02  0.8270939E-01
        2   -1    0    0  501    0  0.00000000000E+00  0.00000000000E+00  0.11704383347E+04  0.11704383347E+04  0.25500000920E-02 0.  1.
       -2   -1    0    0    0  501  0.00000000000E+00  0.00000000000E+00 -0.18044266970E+04  0.18044266970E+04  0.25500000920E-02 0. -1.
    10030    2    1    2    0    0  0.00000000000E+00  0.00000000000E+00 -0.63398836228E+03  0.29748650318E+04  0.29065238196E+04 0.  0.
        1    1    3    3  502    0 -0.74887268486E+03  0.11331958968E+04 -0.84589095696E+03  0.16001483524E+04  0.50400001928E-02 0. -1.
       -1    1    3    3    0  502  0.74887268486E+03 -0.11331958968E+04  0.21190259468E+03  0.13747166793E+04  0.50400001928E-02 0.  1.
</event>
<event>
 5   0  0.2492232E-07  0.2901409E+04  0.7818609E-02  0.8272458E-01
       -2   -1    0    0    0  501  0.00000000000E+00  0.00000000000E+00  0.10674160421E+04  0.10674160421E+04  0.25500000920E-02 0.  1.
        2   -1    0    0  501    0  0.00000000000E+00  0.00000000000E+00 -0.19716246223E+04  0.19716246223E+04  0.25500000920E-02 0. -1.
    10030    2    1    2    0    0  0.00000000000E+00  0.00000000000E+00 -0.90420858020E+03  0.30390406643E+04  0.29014091409E+04 0.  0.
        4    1    3    3  502    0 -0.72699403881E+03 -0.40820927873E+02  0.86214857737E+03  0.11284894607E+04  0.12699999809E+01 0.  1.
       -4    1    3    3    0  502  0.72699403881E+03  0.40820927873E+02 -0.17663571576E+04  0.19105512036E+04  0.12699999809E+01 0. -1.
</event>
<event>
 5   0  0.2546841E-07  0.2899762E+04  0.7818609E-02  0.8272948E-01
       -2   -1    0    0    0  501  0.00000000000E+00  0.00000000000E+00  0.84356417689E+03  0.84356417690E+03  0.25500000920E-02 0. -1.
        2   -1    0    0  501    0  0.00000000000E+00  0.00000000000E+00 -0.24919916124E+04  0.24919916124E+04  0.25500000920E-02 0.  1.
    10030    2    1    2    0    0  0.00000000000E+00  0.00000000000E+00 -0.16484274355E+04  0.33355557893E+04  0.28997619581E+04 0.  0.
        1    1    3    3  502    0 -0.53526672081E+03 -0.11149407225E+04  0.46174830028E+02  0.12376329796E+04  0.50400001928E-02 0. -1.
       -1    1    3    3    0  502  0.53526672081E+03  0.11149407225E+04 -0.16946022655E+04  0.20979228097E+04  0.50400001928E-02 0.  1.
</event>
<event>
 5   0  0.2534588E-07  0.2899435E+04  0.7818609E-02  0.8273046E-01
       -2   -1    0    0    0  501  0.00000000000E+00  0.00000000000E+00  0.87041358721E+03  0.87041358722E+03  0.25500000920E-02 0.  1.
        2   -1    0    0  501    0  0.00000000000E+00  0.00000000000E+00 -0.24145764260E+04  0.24145764260E+04  0.25500000920E-02 0. -1.
    10030    2    1    2    0    0  0.00000000000E+00  0.00000000000E+00 -0.15441628388E+04  0.32849900133E+04  0.28994345163E+04 0.  0.
        3    1    3    3  502    0  0.12304223809E+04  0.77124299274E+02  0.92099936113E+02  0.12362725433E+04  0.10100000352E+00 0.  1.
       -3    1    3    3    0  502 -0.12304223809E+04 -0.77124299274E+02 -0.16362627749E+04  0.20487174700E+04  0.10100000352E+00 0. -1.
</event>
<event>
 5   0  0.2608591E-07  0.2897284E+04  0.7818609E-02  0.8273686E-01
        2   -1    0    0  501    0  0.00000000000E+00  0.00000000000E+00  0.11906392609E+04  0.11906392609E+04  0.25500000920E-02 0.  1.
       -2   -1    0    0    0  501  0.00000000000E+00  0.00000000000E+00 -0.17625519365E+04  0.17625519365E+04  0.25500000920E-02 0. -1.
    10030    2    1    2    0    0  0.00000000000E+00  0.00000000000E+00 -0.57191267561E+03  0.29531911974E+04  0.28972839246E+04 0.  0.
        2    1    3    3  502    0  0.68638559136E+03 -0.87076314290E+02  0.10113385968E+04  0.12253624859E+04  0.25500000920E-02 0.  1.
       -2    1    3    3    0  502 -0.68638559136E+03  0.87076314290E+02 -0.15832512724E+04  0.17278287115E+04  0.25500000920E-02 0. -1.
</event>
<event>
 5   0  0.2546841E-07  0.2897157E+04  0.7818609E-02  0.8273724E-01
       -2   -1    0    0    0  501  0.00000000000E+00  0.00000000000E+00  0.21240923133E+04  0.21240923133E+04  0.25500000920E-02 0.  1.
        2   -1    0    0  501    0  0.00000000000E+00  0.00000000000E+00 -0.98789501362E+03  0.98789501362E+03  0.25500000920E-02 0. -1.
    10030    2    1    2    0    0  0.00000000000E+00  0.00000000000E+00  0.11361972997E+04  0.31119873269E+04  0.28971573687E+04 0.  0.
        1    1    3    3  502    0 -0.13747561712E+04  0.14130064401E+03  0.10344090475E+04  0.17262451970E+04  0.50400001928E-02 0.  1.
       -1    1    3    3    0  502  0.13747561712E+04 -0.14130064401E+03  0.10178825211E+03  0.13857421299E+04  0.50400001928E-02 0. -1.
</event>
<event>
 5   0  0.2608591E-07  0.2900844E+04  0.7818609E-02  0.8272626E-01
        2   -1    0    0  501    0  0.00000000000E+00  0.00000000000E+00  0.23084673807E+04  0.23084673807E+04  0.25500000920E-02 0. -1.
       -2   -1    0    0    0  501  0.00000000000E+00  0.00000000000E+00 -0.91130774424E+03  0.91130774425E+03  0.25500000920E-02 0.  1.
    10030    2    1    2    0    0  0.00000000000E+00  0.00000000000E+00  0.13971596365E+04  0.32197751250E+04  0.29008441540E+04 0.  0.
        2    1    3    3  502    0  0.11155623040E+04 -0.44451131291E+03  0.16014323596E+04  0.20016630995E+04  0.25500000920E-02 0. -1.
       -2    1    3    3    0  502 -0.11155623040E+04  0.44451131291E+03 -0.20427272311E+03  0.12181120255E+04  0.25500000920E-02 0.  1.
</event>
<event>
 5   0  0.9421924E-08  0.2901017E+04  0.7818609E-02  0.8272575E-01
        1   -1    0    0  501    0  0.00000000000E+00  0.00000000000E+00  0.15554034571E+04  0.15554034571E+04  0.50400001928E-02 0. -1.
       -1   -1    0    0    0  501  0.00000000000E+00  0.00000000000E+00 -0.13526877105E+04  0.13526877105E+04  0.50400001928E-02 0.  1.
    10030    2    1    2    0    0  0.00000000000E+00  0.00000000000E+00  0.20271574659E+03  0.29080911677E+04  0.29010171605E+04 0.  0.
        1    1    3    3  502    0  0.11411649039E+04  0.89436027393E+03  0.14432851690E+03  0.14570409597E+04  0.50400001928E-02 0. -1.
       -1    1    3    3    0  502 -0.11411649039E+04 -0.89436027393E+03  0.58387229691E+02  0.14510502080E+04  0.50400001928E-02 0.  1.
</event>
<event>
 5   0  0.9395744E-08  0.2900393E+04  0.7818609E-02  0.8272761E-01
       -1   -1    0    0    0  501  0.00000000000E+00  0.00000000000E+00  0.14687154831E+04  0.14687154831E+04  0.50400001928E-02 0. -1.
        1   -1    0    0  501    0  0.00000000000E+00  0.00000000000E+00 -0.14319109386E+04  0.14319109387E+04  0.50400001928E-02 0.  1.
    10030    2    1    2    0    0  0.00000000000E+00  0.00000000000E+00  0.36804544450E+02  0.29006264218E+04  0.29003929155E+04 0.  0.
        2    1    3    3  502    0 -0.33267261198E+03 -0.11771624247E+04  0.79736633812E+03  0.14601970819E+04  0.25500000920E-02 0. -1.
       -2    1    3    3    0  502  0.33267261198E+03  0.11771624247E+04 -0.76056179367E+03  0.14404293398E+04  0.25500000920E-02 0.  1.
</event>
<event>
 5   0  0.9443352E-08  0.2898571E+04  0.7818609E-02  0.8273303E-01
        1   -1    0    0  501    0  0.00000000000E+00  0.00000000000E+00  0.16934102305E+04  0.16934102305E+04  0.50400001928E-02 0. -1.
       -1   -1    0    0    0  501  0.00000000000E+00  0.00000000000E+00 -0.12403544138E+04  0.12403544138E+04  0.50400001928E-02 0.  1.
    10030    2    1    2    0    0  0.00000000000E+00  0.00000000000E+00  0.45305581672E+03  0.29337646443E+04  0.28985712713E+04 0.  0.
        4    1    3    3  502    0 -0.74232444199E+03  0.82134379671E+03 -0.72012271338E+03  0.13206928276E+04  0.12699999809E+01 0.  1.
       -4    1    3    3    0  502  0.74232444199E+03 -0.82134379671E+03  0.11731785301E+04  0.16130718167E+04  0.12699999809E+01 0. -1.
</event>
<event>
 5   0  0.8407500E-08  0.2899870E+04  0.7818609E-02  0.8272916E-01
        3   -1    0    0  501    0  0.00000000000E+00  0.00000000000E+00  0.23179336496E+04  0.23179336518E+04  0.10100000352E+00 0. -1.
       -3   -1    0    0    0  501  0.00000000000E+00  0.00000000000E+00 -0.90697682415E+03  0.90697682978E+03  0.10100000352E+00 0.  1.
    10030    2    1    2    0    0  0.00000000000E+00  0.00000000000E+00  0.14109568255E+04  0.32249104816E+04  0.28998704197E+04 0.  0.
        2    1    3    3  502    0 -0.10239615727E+03  0.14185214782E+04  0.10192841982E+04  0.17497509634E+04  0.25500000920E-02 0. -1.
       -2    1    3    3    0  502  0.10239615727E+03 -0.14185214782E+04  0.39167262728E+03  0.14751595182E+04  0.25500000920E-02 0.  1.
</event>
<event>
 5   0  0.2534588E-07  0.2899596E+04  0.7818609E-02  0.8272998E-01
        2   -1    0    0  501    0  0.00000000000E+00  0.00000000000E+00  0.23704038231E+04  0.23704038231E+04  0.25500000920E-02 0.  1.
       -2   -1    0    0    0  501  0.00000000000E+00  0.00000000000E+00 -0.88673229810E+03  0.88673229810E+03  0.25500000920E-02 0. -1.
    10030    2    1    2    0    0  0.00000000000E+00  0.00000000000E+00  0.14836715250E+04  0.32571361212E+04  0.28995955783E+04 0.  0.
        3    1    3    3  502    0 -0.10859644756E+04  0.86715776631E+03  0.27782403576E+03  0.14172041628E+04  0.10100000352E+00 0. -1.
       -3    1    3    3    0  502  0.10859644756E+04 -0.86715776631E+03  0.12058474892E+04  0.18399319584E+04  0.10100000352E+00 0.  1.
</event>
<event>
 5   0  0.2534588E-07  0.2898356E+04  0.7818609E-02  0.8273367E-01
       -2   -1    0    0    0  501  0.00000000000E+00  0.00000000000E+00  0.16064609274E+04  0.16064609274E+04  0.25500000920E-02 0.  1.
        2   -1    0    0  501    0  0.00000000000E+00  0.00000000000E+00 -0.13072936589E+04  0.13072936589E+04  0.25500000920E-02 0. -1.
    10030    2    1    2    0    0  0.00000000000E+00  0.00000000000E+00  0.29916726843E+03  0.29137545863E+04  0.28983555225E+04 0.  0.
        3    1    3    3  502    0 -0.20430527684E+03  0.39894595469E+03 -0.12358594297E+04  0.13146281075E+04  0.10100000352E+00 0. -1.
       -3    1    3    3    0  502  0.20430527684E+03 -0.39894595469E+03  0.15350266981E+04  0.15991264788E+04  0.10100000352E+00 0.  1.
</event>
<event>
 5   0  0.9763851E-08  0.2900105E+04  0.7818609E-02  0.8272846E-01
       -1   -1    0    0    0  501  0.00000000000E+00  0.00000000000E+00  0.19482688652E+04  0.19482688652E+04  0.50400001928E-02 0.  1.
        1   -1    0    0  501    0  0.00000000000E+00  0.00000000000E+00 -0.10792414636E+04  0.10792414636E+04  0.50400001928E-02 0. -1.
    10030    2    1    2    0    0  0.00000000000E+00  0.00000000000E+00  0.86902740155E+03  0.30275103288E+04  0.29001051992E+04 0.  0.
        3    1    3    3  502    0 -0.69293789882E+03  0.83692718454E+03 -0.56790081840E+03  0.12260185127E+04  0.10100000352E+00 0. -1.
       -3    1    3    3    0  502  0.69293789882E+03 -0.83692718454E+03  0.14369282199E+04  0.18014918161E+04  0.10100000352E+00 0.  1.
</event>
<event>
 5   0  0.9443352E-08  0.2899024E+04  0.7818609E-02  0.8273168E-01
        1   -1    0    0  501    0  0.00000000000E+00  0.00000000000E+00  0.20250633324E+04  0.20250633324E+04  0.50400001928E-02 0. -1.
       -1   -1    0    0    0  501  0.00000000000E+00  0.00000000000E+00 -0.10375403268E+04  0.10375403268E+04  0.50400001928E-02 0.  1.
    10030    2    1    2    0    0  0.00000000000E+00  0.00000000000E+00  0.98752300558E+03  0.30626036592E+04  0.28990238852E+04 0.  0.
        4    1    3    3  502    0  0.27988970263E+02 -0.13370995010E+04 -0.96765218254E+02  0.13408891000E+04  0.12699999809E+01 0.  1.
       -4    1    3    3    0  502 -0.27988970263E+02  0.13370995010E+04  0.10842882238E+04  0.17217145592E+04  0.12699999809E+01 0. -1.
</event>
<event>
 5   0  0.9388076E-08  0.2899993E+04  0.7818609E-02  0.8272880E-01
        1   -1    0    0  501    0  0.00000000000E+00  0.00000000000E+00  0.18915137480E+04  0.18915137480E+04  0.50400001928E-02 0. -1.
       -1   -1    0    0    0  501  0.00000000000E+00  0.00000000000E+00 -0.11115381376E+04  0.11115381376E+04  0.50400001928E-02 0.  1.
    10030    2    1    2    0    0  0.00000000000E+00  0.00000000000E+00  0.77997561033E+03  0.30030518856E+04  0.28999928750E+04 0.  0.
        5    1    3    3  502    0  0.75816281417E+03  0.74568041103E+03 -0.63074849114E+03  0.12364125029E+04  0.46999998093E+01 0.  1.
       -5    1    3    3    0  502 -0.75816281417E+03 -0.74568041103E+03  0.14107241015E+04  0.17666393827E+04  0.46999998093E+01 0. -1.
</event>
<event>
 5   0  0.2492232E-07  0.2899286E+04  0.7818609E-02  0.8273090E-01
       -2   -1    0    0    0  501  0.00000000000E+00  0.00000000000E+00  0.20761598756E+04  0.20761598756E+04  0.25500000920E-02 0.  1.
        2   -1    0    0  501    0  0.00000000000E+00  0.00000000000E+00 -0.10121880396E+04  0.10121880396E+04  0.25500000920E-02 0. -1.
    10030    2    1    2    0    0  0.00000000000E+00  0.00000000000E+00  0.10639718361E+04  0.30883479152E+04  0.28992855633E+04 0.  0.
        4    1    3    3  502    0  0.33371411511E+03  0.11428414297E+04 -0.34899550269E+03  0.12406655947E+04  0.12699999809E+01 0. -1.
       -4    1    3    3    0  502 -0.33371411511E+03 -0.11428414297E+04  0.14129673388E+04  0.18476823205E+04  0.12699999809E+01 0.  1.
</event>
<event>
 5   0  0.2492232E-07  0.2900199E+04  0.7818609E-02  0.8272818E-01
        2   -1    0    0  501    0  0.00000000000E+00  0.00000000000E+00  0.75493344710E+03  0.75493344710E+03  0.25500000920E-02 0. -1.
       -2   -1    0    0    0  501  0.00000000000E+00  0.00000000000E+00 -0.27853962935E+04  0.27853962935E+04  0.25500000920E-02 0.  1.
    10030    2    1    2    0    0  0.00000000000E+00  0.00000000000E+00 -0.20304628464E+04  0.35403297406E+04  0.29001991831E+04 0.  0.
        4    1    3    3  502    0  0.90378079630E+03  0.10515474189E+04 -0.49701404748E+03  0.14729549478E+04  0.12699999809E+01 0.  1.
       -4    1    3    3    0  502 -0.90378079630E+03 -0.10515474189E+04 -0.15334487989E+04  0.20673747928E+04  0.12699999809E+01 0. -1.
</event>
<event>
 5   0  0.2534588E-07  0.2899276E+04  0.7818609E-02  0.8273093E-01
       -2   -1    0    0    0  501  0.00000000000E+00  0.00000000000E+00  0.14835809276E+04  0.14835809276E+04  0.25500000920E-02 0.  1.
        2   -1    0    0  501    0  0.00000000000E+00  0.00000000000E+00 -0.14164719984E+04  0.14164719984E+04  0.25500000920E-02 0. -1.
    10030    2    1    2    0    0  0.00000000000E+00  0.00000000000E+00  0.67108929258E+02  0.29000529260E+04  0.28992763520E+04 0.  0.
        3    1    3    3  502    0  0.72148977405E+03  0.12130560326E+04  0.36439734523E+03  0.14576823617E+04  0.10100000352E+00 0. -1.
       -3    1    3    3    0  502 -0.72148977405E+03 -0.12130560326E+04 -0.29728841597E+03  0.14423705643E+04  0.10100000352E+00 0.  1.
</event>
<event>
 5   0  0.9421924E-08  0.2900203E+04  0.7818609E-02  0.8272817E-01
       -1   -1    0    0    0  501  0.00000000000E+00  0.00000000000E+00  0.20183198326E+04  0.20183198326E+04  0.50400001928E-02 0. -1.
        1   -1    0    0  501    0  0.00000000000E+00  0.00000000000E+00 -0.10418541008E+04  0.10418541008E+04  0.50400001928E-02 0.  1.
    10030    2    1    2    0    0  0.00000000000E+00  0.00000000000E+00  0.97646573175E+03  0.30601739334E+04  0.29002032993E+04 0.  0.
        1    1    3    3  502    0  0.50514603449E+03 -0.12995278087E+04  0.67689350517E+02  0.13958964467E+04  0.50400001928E-02 0.  1.
       -1    1    3    3    0  502 -0.50514603449E+03  0.12995278087E+04  0.90877638123E+03  0.16642774867E+04  0.50400001928E-02 0. -1.
</event>
<event>
 5   0  0.2492232E-07  0.2899985E+04  0.7818609E-02  0.8272882E-01
        2   -1    0    0  501    0  0.00000000000E+00  0.00000000000E+00  0.19671574137E+04  0.19671574137E+04  0.25500000920E-02 0. -1.
       -2   -1    0    0    0  501  0.00000000000E+00  0.00000000000E+00 -0.10687897876E+04  0.10687897876E+04  0.25500000920E-02 0.  1.
    10030    2    1    2    0    0  0.00000000000E+00  0.00000000000E+00  0.89836762610E+03  0.30359472013E+04  0.28999846581E+04 0.  0.
        4    1    3    3  502    0  0.86608278525E+03  0.93930333284E+03 -0.26858927738E+03  0.13055772497E+04  0.12699999809E+01 0.  1.
       -4    1    3    3    0  502 -0.86608278525E+03 -0.93930333284E+03  0.11669569035E+04  0.17303699516E+04  0.12699999809E+01 0. -1.
</event>
<event>
 5   0  0.9443352E-08  0.2900099E+04  0.7818609E-02  0.8272848E-01
       -1   -1    0    0    0  501  0.00000000000E+00  0.00000000000E+00  0.10705165862E+04  0.10705165863E+04  0.50400001928E-02 0. -1.
        1   -1    0    0  501    0  0.00000000000E+00  0.00000000000E+00 -0.19641397713E+04  0.19641397713E+04  0.50400001928E-02 0.  1.
    10030    2    1    2    0    0  0.00000000000E+00  0.00000000000E+00 -0.89362318504E+03  0.30346563575E+04  0.29000994486E+04 0.  0.
        4    1    3    3  502    0 -0.62500174572E+03  0.11046128358E+04  0.28704491875E+03  0.13012275348E+04  0.12699999809E+01 0. -1.
       -4    1    3    3    0  502  0.62500174572E+03 -0.11046128358E+04 -0.11806681038E+04  0.17334288227E+04  0.12699999809E+01 0.  1.
</event>
<event>
 5   0  0.2546841E-07  0.2902869E+04  0.7818609E-02  0.8272024E-01
        2   -1    0    0  501    0  0.00000000000E+00  0.00000000000E+00  0.28661451046E+04  0.28661451046E+04  0.25500000920E-02 0.  1.
       -2   -1    0    0    0  501  0.00000000000E+00  0.00000000000E+00 -0.73501565660E+03  0.73501565660E+03  0.25500000920E-02 0. -1.
    10030    2    1    2    0    0  0.00000000000E+00  0.00000000000E+00  0.21311294480E+04  0.36011607612E+04  0.29028685991E+04 0.  0.
        1    1    3    3  502    0 -0.42659075817E+03 -0.32631807716E+03 -0.60720347327E+03  0.81065357608E+03  0.50400001928E-02 0. -1.
       -1    1    3    3    0  502  0.42659075817E+03  0.32631807716E+03  0.27383329212E+04  0.27905071851E+04  0.50400001928E-02 0.  1.
</event>
<event>
 5   0  0.2678723E-07  0.2902962E+04  0.7818609E-02  0.8271997E-01
        2   -1    0    0  501    0  0.00000000000E+00  0.00000000000E+00  0.16853304880E+04  0.16853304880E+04  0.25500000920E-02 0.  1.
       -2   -1    0    0    0  501  0.00000000000E+00  0.00000000000E+00 -0.12500792102E+04  0.12500792102E+04  0.25500000920E-02 0. -1.
    10030    2    1    2    0    0  0.00000000000E+00  0.00000000000E+00  0.43525127783E+03  0.29354096982E+04  0.29029616638E+04 0.  0.
        5    1    3    3  502    0 -0.75909491506E+02 -0.88231143627E+03  0.13804968907E+04  0.16401309328E+04  0.46999998093E+01 0.  1.
       -5    1    3    3    0  502  0.75909491506E+02  0.88231143627E+03 -0.94524561288E+03  0.12952787654E+04  0.46999998093E+01 0. -1.
</event>
<event>
 5   0  0.9421924E-08  0.2900741E+04  0.7818609E-02  0.8272657E-01
        1   -1    0    0  501    0  0.00000000000E+00  0.00000000000E+00  0.16718943442E+04  0.16718943442E+04  0.50400001928E-02 0. -1.
       -1   -1    0    0    0  501  0.00000000000E+00  0.00000000000E+00 -0.12581985513E+04  0.12581985514E+04  0.50400001928E-02 0.  1.
    10030    2    1    2    0    0  0.00000000000E+00  0.00000000000E+00  0.41369579290E+03  0.29300928956E+04  0.29007413135E+04 0.  0.
        1    1    3    3  502    0  0.48807999153E+03 -0.12200663672E+04  0.82689211569E+03  0.15525896398E+04  0.50400001928E-02 0. -1.
       -1    1    3    3    0  502 -0.48807999153E+03  0.12200663672E+04 -0.41319632280E+03  0.13775032558E+04  0.50400001928E-02 0.  1.
</event>
<event>
 5   0  0.9421924E-08  0.2901104E+04  0.7818609E-02  0.8272549E-01
        1   -1    0    0  501    0  0.00000000000E+00  0.00000000000E+00  0.17002232532E+04  0.17002232532E+04  0.50400001928E-02 0.  1.
       -1   -1    0    0    0  501  0.00000000000E+00  0.00000000000E+00 -0.12375438991E+04  0.12375438991E+04  0.50400001928E-02 0. -1.
    10030    2    1    2    0    0  0.00000000000E+00  0.00000000000E+00  0.46267935413E+03  0.29377671523E+04  0.29011038686E+04 0.  0.
        1    1    3    3  502    0 -0.29946086799E+03 -0.69973769002E+03  0.14817694061E+04  0.16658181831E+04  0.50400001928E-02 0.  1.
       -1    1    3    3    0  502  0.29946086799E+03  0.69973769002E+03 -0.10190900519E+04  0.12719489692E+04  0.50400001928E-02 0. -1.
</event>
<event>
 5   0  0.9443352E-08  0.2900377E+04  0.7818609E-02  0.8272765E-01
       -1   -1    0    0    0  501  0.00000000000E+00  0.00000000000E+00  0.13745064267E+04  0.13745064267E+04  0.50400001928E-02 0. -1.
        1   -1    0    0  501    0  0.00000000000E+00  0.00000000000E+00 -0.15300381783E+04  0.15300381784E+04  0.50400001928E-02 0.  1.
    10030    2    1    2    0    0  0.00000000000E+00  0.00000000000E+00 -0.15553175165E+03  0.29045446051E+04  0.29003774301E+04 0.  0.
        4    1    3    3  502    0  0.34472441229E+02 -0.13621539084E+04 -0.57486004064E+03  0.14788905635E+04  0.12699999809E+01 0.  1.
       -4    1    3    3    0  502 -0.34472441229E+02  0.13621539084E+04  0.41932828899E+03  0.14256540416E+04  0.12699999809E+01 0. -1.
</event>
<event>
 5   0  0.2492232E-07  0.2900292E+04  0.7818609E-02  0.8272791E-01
       -2   -1    0    0    0  501  0.00000000000E+00  0.00000000000E+00  0.18099162588E+04  0.18099162588E+04  0.25500000920E-02 0. -1.
        2   -1    0    0  501    0  0.00000000000E+00  0.00000000000E+00 -0.11618897874E+04  0.11618897874E+04  0.25500000920E-02 0.  1.
    10030    2    1    2    0    0  0.00000000000E+00  0.00000000000E+00  0.64802647132E+03  0.29718060462E+04  0.29002918592E+04 0.  0.
        4    1    3    3  502    0  0.31668374559E+03  0.34007705719E+03  0.17315588454E+04  0.17928297877E+04  0.12699999809E+01 0. -1.
       -4    1    3    3    0  502 -0.31668374559E+03 -0.34007705719E+03 -0.10835323741E+04  0.11789762585E+04  0.12699999809E+01 0.  1.
</event>
<event>
 5   0  0.9421924E-08  0.2899155E+04  0.7818609E-02  0.8273129E-01
        1   -1    0    0  501    0  0.00000000000E+00  0.00000000000E+00  0.22244484418E+04  0.22244484418E+04  0.50400001928E-02 0.  1.
       -1   -1    0    0    0  501  0.00000000000E+00  0.00000000000E+00 -0.94462762159E+03  0.94462762160E+03  0.50400001928E-02 0. -1.
    10030    2    1    2    0    0  0.00000000000E+00  0.00000000000E+00  0.12798208202E+04  0.31690760634E+04  0.28991553535E+04 0.  0.
        1    1    3    3  502    0 -0.78933799284E+02  0.58413529059E+03 -0.80771110373E+03  0.99992090162E+03  0.50400001928E-02 0. -1.
       -1    1    3    3    0  502  0.78933799284E+02 -0.58413529059E+03  0.20875319239E+04  0.21691551618E+04  0.50400001928E-02 0.  1.
</event>
<event>
 5   0  0.2546841E-07  0.2901302E+04  0.7818609E-02  0.8272490E-01
       -2   -1    0    0    0  501  0.00000000000E+00  0.00000000000E+00  0.14165246156E+04  0.14165246156E+04  0.25500000920E-02 0. -1.
        2   -1    0    0  501    0  0.00000000000E+00  0.00000000000E+00 -0.14855997280E+04  0.14855997280E+04  0.25500000920E-02 0.  1.
    10030    2    1    2    0    0  0.00000000000E+00  0.00000000000E+00 -0.69075112400E+02  0.29021243435E+04  0.29013021791E+04 0.  0.
        1    1    3    3  502    0  0.51148595992E+03  0.12661812808E+03 -0.13864894809E+04  0.14832407486E+04  0.50400001928E-02 0.  1.
       -1    1    3    3    0  502 -0.51148595992E+03 -0.12661812808E+03  0.13174143685E+04  0.14188835949E+04  0.50400001928E-02 0. -1.
</event>
<event>
 5   0  0.8407500E-08  0.2899095E+04  0.7818609E-02  0.8273147E-01
       -3   -1    0    0    0  501  0.00000000000E+00  0.00000000000E+00  0.20493429754E+04  0.20493429779E+04  0.10100000352E+00 0.  1.
        3   -1    0    0  501    0  0.00000000000E+00  0.00000000000E+00 -0.10252985225E+04  0.10252985275E+04  0.10100000352E+00 0. -1.
    10030    2    1    2    0    0  0.00000000000E+00  0.00000000000E+00  0.10240444529E+04  0.30746415054E+04  0.28990952632E+04 0.  0.
        4    1    3    3  502    0 -0.11162164067E+04 -0.80749336198E+03  0.99009732606E+03  0.16965491222E+04  0.12699999809E+01 0.  1.
       -4    1    3    3    0  502  0.11162164067E+04  0.80749336198E+03  0.33947126849E+02  0.13780923832E+04  0.12699999809E+01 0. -1.
</event>
<event>
 5   0  0.2534588E-07  0.2901067E+04  0.7818609E-02  0.8272560E-01
        2   -1    0    0  501    0  0.00000000000E+00  0.00000000000E+00  0.28089342613E+04  0.28089342613E+04  0.25500000920E-02 0. -1.
       -2   -1    0    0    0  501  0.00000000000E+00  0.00000000000E+00 -0.74905533162E+03  0.74905533163E+03  0.25500000920E-02 0.  1.
    10030    2    1    2    0    0  0.00000000000E+00  0.00000000000E+00  0.20598789297E+04  0.35579895929E+04  0.29010668276E+04 0.  0.
        3    1    3    3  502    0  0.62924970621E+03 -0.10853472493E+04  0.19228980207E+04  0.22959683475E+04  0.10100000352E+00 0. -1.
       -3    1    3    3    0  502 -0.62924970621E+03  0.10853472493E+04  0.13698090896E+03  0.12620212454E+04  0.10100000352E+00 0.  1.
</event>
<event>
 5   0  0.9421924E-08  0.2904231E+04  0.7818609E-02  0.8271620E-01
       -1   -1    0    0    0  501  0.00000000000E+00  0.00000000000E+00  0.14966836797E+04  0.14966836797E+04  0.50400001928E-02 0.  1.
        1   -1    0    0  501    0  0.00000000000E+00  0.00000000000E+00 -0.14088745744E+04  0.14088745744E+04  0.50400001928E-02 0. -1.
    10030    2    1    2    0    0  0.00000000000E+00  0.00000000000E+00  0.87809105345E+02  0.29055582541E+04  0.29042311080E+04 0.  0.
        1    1    3    3  502    0 -0.12042801625E+04 -0.42481310032E+03  0.73551105790E+03  0.14736802218E+04  0.50400001928E-02 0.  1.
       -1    1    3    3    0  502  0.12042801625E+04  0.42481310032E+03 -0.64770195256E+03  0.14318780323E+04  0.50400001928E-02 0. -1.
</event>
<event>
 5   0  0.8407500E-08  0.2899396E+04  0.7818609E-02  0.8273057E-01
        3   -1    0    0  501    0  0.00000000000E+00  0.00000000000E+00  0.18670356828E+04  0.18670356855E+04  0.10100000352E+00 0.  1.
       -3   -1    0    0    0  501  0.00000000000E+00  0.00000000000E+00 -0.11256474637E+04  0.11256474683E+04  0.10100000352E+00 0. -1.
    10030    2    1    2    0    0  0.00000000000E+00  0.00000000000E+00  0.74138821903E+03  0.29926831538E+04  0.28993957935E+04 0.  0.
        4    1    3    3  502    0  0.99400904699E+03  0.44153065658E+03  0.13599780603E+04  0.17414204672E+04  0.12699999809E+01 0.  1.
       -4    1    3    3    0  502 -0.99400904699E+03 -0.44153065658E+03 -0.61858984127E+03  0.12512626866E+04  0.12699999809E+01 0. -1.
</event>
<event>
 5   0  0.2678723E-07  0.2902175E+04  0.7818609E-02  0.8272231E-01
       -2   -1    0    0    0  501  0.00000000000E+00  0.00000000000E+00  0.14298811835E+04  0.14298811835E+04  0.25500000920E-02 0. -1.
        2   -1    0    0  501    0  0.00000000000E+00  0.00000000000E+00 -0.14726083394E+04  0.14726083394E+04  0.25500000920E-02 0.  1.
    10030    2    1    2    0    0  0.00000000000E+00  0.00000000000E+00 -0.42727155938E+02  0.29024895229E+04  0.29021750155E+04 0.  0.
        5    1    3    3  502    0 -0.94716240671E+03 -0.49933180960E+03  0.95812194428E+03  0.14368258875E+04  0.46999998093E+01 0. -1.
       -5    1    3    3    0  502  0.94716240671E+03  0.49933180960E+03 -0.10008491002E+04  0.14656636354E+04  0.46999998093E+01 0.  1.
</event>
<event>
 5   0  0.9421924E-08  0.2897808E+04  0.7818609E-02  0.8273530E-01
        1   -1    0    0  501    0  0.00000000000E+00  0.00000000000E+00  0.15453206464E+04  0.15453206464E+04  0.50400001928E-02 0.  1.
       -1   -1    0    0    0  501  0.00000000000E+00  0.00000000000E+00 -0.13585026769E+04  0.13585026769E+04  0.50400001928E-02 0. -1.
    10030    2    1    2    0    0  0.00000000000E+00  0.00000000000E+00  0.18681796951E+03  0.29038233233E+04  0.28978076091E+04 0.  0.
        1    1    3    3  502    0 -0.95306815897E+03 -0.12695207663E+03  0.11795717209E+04  0.15217901268E+04  0.50400001928E-02 0.  1.
       -1    1    3    3    0  502  0.95306815897E+03  0.12695207663E+03 -0.99275375136E+03  0.13820331965E+04  0.50400001928E-02 0. -1.
</event>
<event>
 5   0  0.9388076E-08  0.2899220E+04  0.7818609E-02  0.8273110E-01
       -1   -1    0    0    0  501  0.00000000000E+00  0.00000000000E+00  0.12400287554E+04  0.12400287554E+04  0.50400001928E-02 0. -1.
        1   -1    0    0  501    0  0.00000000000E+00  0.00000000000E+00 -0.16946135194E+04  0.16946135194E+04  0.50400001928E-02 0.  1.
    10030    2    1    2    0    0  0.00000000000E+00  0.00000000000E+00 -0.45458476396E+03  0.29346422748E+04  0.28992202354E+04 0.  0.
        5    1    3    3  502    0 -0.11332265656E+04 -0.43667327221E+03 -0.10284558231E+04  0.15914237229E+04  0.46999998093E+01 0.  1.
       -5    1    3    3    0  502  0.11332265656E+04  0.43667327221E+03  0.57387105916E+03  0.13432185519E+04  0.46999998093E+01 0. -1.
</event>
<event>
 5   0  0.9763851E-08  0.2900001E+04  0.7818609E-02  0.8272877E-01
        1   -1    0    0  501    0  0.00000000000E+00  0.00000000000E+00  0.15221641453E+04  0.15221641454E+04  0.50400001928E-02 0.  1.
       -1   -1    0    0    0  501  0.00000000000E+00  0.00000000000E+00 -0.13812577747E+04  0.13812577747E+04  0.50400001928E-02 0. -1.
    10030    2    1    2    0    0  0.00000000000E+00  0.00000000000E+00  0.14090637063E+03  0.29034219201E+04  0.29000007312E+04 0.  0.
        3    1    3    3  502    0 -0.10633405265E+03  0.31484564695E+03 -0.13426176803E+04  0.13831330225E+04  0.10100000352E+00 0. -1.
       -3    1    3    3    0  502  0.10633405265E+03 -0.31484564695E+03  0.14835240510E+04  0.15202888976E+04  0.10100000352E+00 0.  1.
</event>
<event>
 5   0  0.2492232E-07  0.2900244E+04  0.7818609E-02  0.8272805E-01
       -2   -1    0    0    0  501  0.00000000000E+00  0.00000000000E+00  0.15580180730E+04  0.15580180730E+04  0.25500000920E-02 0.  1.
        2   -1    0    0  501    0  0.00000000000E+00  0.00000000000E+00 -0.13496978325E+04  0.13496978325E+04  0.25500000920E-02 0. -1.
    10030    2    1    2    0    0  0.00000000000E+00  0.00000000000E+00  0.20832024052E+03  0.29077159055E+04  0.29002438629E+04 0.  0.
        4    1    3    3  502    0  0.12854630882E+04 -0.54963917954E+03  0.49029316271E+03  0.14815220475E+04  0.12699999809E+01 0.  1.
       -4    1    3    3    0  502 -0.12854630882E+04  0.54963917954E+03 -0.28197292219E+03  0.14261938580E+04  0.12699999809E+01 0. -1.
</event>
<event>
 5   0  0.9395744E-08  0.2902307E+04  0.7818609E-02  0.8272191E-01
        1   -1    0    0  501    0  0.00000000000E+00  0.00000000000E+00  0.11050793645E+04  0.11050793645E+04  0.50400001928E-02 0.  1.
       -1   -1    0    0    0  501  0.00000000000E+00  0.00000000000E+00 -0.19056062748E+04  0.19056062748E+04  0.50400001928E-02 0. -1.
    10030    2    1    2    0    0  0.00000000000E+00  0.00000000000E+00 -0.80052691030E+03  0.30106856392E+04  0.29023067867E+04 0.  0.
        2    1    3    3  502    0 -0.10398655012E+04 -0.25252884813E+03  0.61651992993E+03  0.12349849812E+04  0.25500000920E-02 0.  1.
       -2    1    3    3    0  502  0.10398655012E+04  0.25252884813E+03 -0.14170468402E+04  0.17757006581E+04  0.25500000920E-02 0. -1.
</event>
<event>
 5   0  0.2546841E-07  0.2900450E+04  0.7818609E-02  0.8272744E-01
       -2   -1    0    0    0  501  0.00000000000E+00  0.00000000000E+00  0.12004740041E+04  0.12004740041E+04  0.25500000920E-02 0.  1.
        2   -1    0    0  501    0  0.00000000000E+00  0.00000000000E+00 -0.17519347536E+04  0.17519347536E+04  0.25500000920E-02 0. -1.
    10030    2    1    2    0    0  0.00000000000E+00  0.00000000000E+00 -0.55146074958E+03  0.29524087577E+04  0.29004497090E+04 0.  0.
        1    1    3    3  502    0 -0.62160788601E+03  0.16866403494E+03 -0.15983562391E+04  0.17232488468E+04  0.50400001928E-02 0. -1.
       -1    1    3    3    0  502  0.62160788601E+03 -0.16866403494E+03  0.10468954896E+04  0.12291599110E+04  0.50400001928E-02 0.  1.
</event>
<event>
 5   0  0.2492232E-07  0.2893667E+04  0.7818609E-02  0.8274764E-01
       -2   -1    0    0    0  501  0.00000000000E+00  0.00000000000E+00  0.12415257097E+04  0.12415257097E+04  0.25500000920E-02 0. -1.
        2   -1    0    0  501    0  0.00000000000E+00  0.00000000000E+00 -0.16860921402E+04  0.16860921402E+04  0.25500000920E-02 0.  1.
    10030    2    1    2    0    0  0.00000000000E+00  0.00000000000E+00 -0.44456643048E+03  0.29276178499E+04  0.28936666988E+04 0.  0.
        4    1    3    3  502    0  0.54995453514E+02  0.14235014225E+04  0.33555870874E+02  0.14249590903E+04  0.12699999809E+01 0.  1.
       -4    1    3    3    0  502 -0.54995453514E+02 -0.14235014225E+04 -0.47812230136E+03  0.15026587596E+04  0.12699999809E+01 0. -1.
</event>
<event>
 5   0  0.2492232E-07  0.2900436E+04  0.7818609E-02  0.8272748E-01
        2   -1    0    0  501    0  0.00000000000E+00  0.00000000000E+00  0.22593980757E+04  0.22593980757E+04  0.25500000920E-02 0. -1.
       -2   -1    0    0    0  501  0.00000000000E+00  0.00000000000E+00 -0.93083713001E+03  0.93083713001E+03  0.25500000920E-02 0.  1.
    10030    2    1    2    0    0  0.00000000000E+00  0.00000000000E+00  0.13285609457E+04  0.31902352057E+04  0.29004355675E+04 0.  0.
        4    1    3    3  502    0  0.24623942373E+03  0.96068129239E+03 -0.49954678000E+03  0.11104463056E+04  0.12699999809E+01 0.  1.
       -4    1    3    3    0  502 -0.24623942373E+03 -0.96068129239E+03  0.18281077257E+04  0.20797889001E+04  0.12699999809E+01 0. -1.
</event>
<event>
 5   0  0.2492232E-07  0.2901282E+04  0.7818609E-02  0.8272496E-01
        2   -1    0    0  501    0  0.00000000000E+00  0.00000000000E+00  0.21868126083E+04  0.21868126083E+04  0.25500000920E-02 0. -1.
       -2   -1    0    0    0  501  0.00000000000E+00  0.00000000000E+00 -0.96229521584E+03  0.96229521584E+03  0.25500000920E-02 0.  1.
    10030    2    1    2    0    0  0.00000000000E+00  0.00000000000E+00  0.12245173925E+04  0.31491078242E+04  0.29012820000E+04 0.  0.
        4    1    3    3  502    0  0.11471789783E+04 -0.88612742060E+03  0.67285081224E+03  0.15981149027E+04  0.12699999809E+01 0.  1.
       -4    1    3    3    0  502 -0.11471789783E+04  0.88612742060E+03  0.55166658027E+03  0.15509929215E+04  0.12699999809E+01 0. -1.
</event>
<event>
 5   0  0.2534588E-07  0.2900056E+04  0.7818609E-02  0.8272861E-01
       -2   -1    0    0    0  501  0.00000000000E+00  0.00000000000E+00  0.19817311298E+04  0.19817311298E+04  0.25500000920E-02 0.  1.
        2   -1    0    0  501    0  0.00000000000E+00  0.00000000000E+00 -0.10609819733E+04  0.10609819733E+04  0.25500000920E-02 0. -1.
    10030    2    1    2    0    0  0.00000000000E+00  0.00000000000E+00  0.92074915654E+03  0.30427131031E+04  0.29000558648E+04 0.  0.
        3    1    3    3  502    0 -0.62293012911E+03 -0.11404900141E+04  0.11353084225E+04  0.17255968946E+04  0.10100000352E+00 0.  1.
       -3    1    3    3    0  502  0.62293012911E+03  0.11404900141E+04 -0.21455926595E+03  0.13171162086E+04  0.10100000352E+00 0. -1.
</event>
<event>
 5   0  0.9763851E-08  0.2900042E+04  0.7818609E-02  0.8272865E-01
       -1   -1    0    0    0  501  0.00000000000E+00  0.00000000000E+00  0.10126711121E+04  0.10126711121E+04  0.50400001928E-02 0. -1.
        1   -1    0    0  501    0  0.00000000000E+00  0.00000000000E+00 -0.20762519846E+04  0.20762519846E+04  0.50400001928E-02 0.  1.
    10030    2    1    2    0    0  0.00000000000E+00  0.00000000000E+00 -0.10635808725E+04  0.30889230968E+04  0.29000416592E+04 0.  0.
        3    1    3    3  502    0 -0.96977426703E+03 -0.49931985077E+01  0.61641507589E+03  0.11491103589E+04  0.10100000352E+00 0. -1.
       -3    1    3    3    0  502  0.96977426703E+03  0.49931985077E+01 -0.16799959484E+04  0.19398127378E+04  0.10100000352E+00 0.  1.
</event>
<event>
 5   0  0.9443352E-08  0.2900102E+04  0.7818609E-02  0.8272847E-01
       -1   -1    0    0    0  501  0.00000000000E+00  0.00000000000E+00  0.22052204414E+04  0.22052204414E+04  0.50400001928E-02 0.  1.
        1   -1    0    0  501    0  0.00000000000E+00  0.00000000000E+00 -0.95348638608E+03  0.95348638610E+03  0.50400001928E-02 0. -1.
    10030    2    1    2    0    0  0.00000000000E+00  0.00000000000E+00  0.12517340553E+04  0.31587068275E+04  0.29001018390E+04 0.  0.
        4    1    3    3  502    0 -0.13341947362E+04  0.38378591919E+03  0.10818627868E+04  0.17600556605E+04  0.12699999809E+01 0.  1.
       -4    1    3    3    0  502  0.13341947362E+04 -0.38378591919E+03  0.16987126851E+03  0.13986511669E+04  0.12699999809E+01 0. -1.
</event>
<event>
 5   0  0.2534588E-07  0.2899634E+04  0.7818609E-02  0.8272986E-01
       -2   -1    0    0    0  501  0.00000000000E+00  0.00000000000E+00  0.88178143340E+03  0.88178143341E+03  0.25500000920E-02 0. -1.
        2   -1    0    0  501    0  0.00000000000E+00  0.00000000000E+00 -0.23837765635E+04  0.23837765635E+04  0.25500000920E-02 0.  1.
    10030    2    1    2    0    0  0.00000000000E+00  0.00000000000E+00 -0.15019951301E+04  0.32655579969E+04  0.28996344012E+04 0.  0.
        3    1    3    3  502    0 -0.60768269168E+03  0.10917776818E+04  0.77130725705E+02  0.12518809526E+04  0.10100000352E+00 0. -1.
       -3    1    3    3    0  502  0.60768269168E+03 -0.10917776818E+04 -0.15791258558E+04  0.20136770444E+04  0.10100000352E+00 0.  1.
</event>
<event>
 5   0  0.2608591E-07  0.2900617E+04  0.7818609E-02  0.8272694E-01
       -2   -1    0    0    0  501  0.00000000000E+00  0.00000000000E+00  0.93917465135E+03  0.93917465135E+03  0.25500000920E-02 0. -1.
        2   -1    0    0  501    0  0.00000000000E+00  0.00000000000E+00 -0.22396197842E+04  0.22396197842E+04  0.25500000920E-02 0.  1.
    10030    2    1    2    0    0  0.00000000000E+00  0.00000000000E+00 -0.13004451328E+04  0.31787944355E+04  0.29006165758E+04 0.  0.
        2    1    3    3  502    0  0.52079685048E+03 -0.13479973160E+04 -0.51569848983E+03  0.15343634041E+04  0.25500000920E-02 0. -1.
       -2    1    3    3    0  502 -0.52079685048E+03  0.13479973160E+04 -0.78474664298E+03  0.16444310314E+04  0.25500000920E-02 0.  1.
</event>
<event>
 5   0  0.9421924E-08  0.2901678E+04  0.7818609E-02  0.8272378E-01
       -1   -1    0    0    0  501  0.00000000000E+00  0.00000000000E+00  0.89546546229E+03  0.89546546230E+03  0.50400001928E-02 0.  1.
        1   -1    0    0  501    0  0.00000000000E+00  0.00000000000E+00 -0.23506595768E+04  0.23506595768E+04  0.50400001928E-02 0. -1.
    10030    2    1    2    0    0  0.00000000000E+00  0.00000000000E+00 -0.14551941146E+04  0.32461250392E+04  0.29016784554E+04 0.  0.
        1    1    3    3  502    0  0.22261265481E+02 -0.16098727383E+03 -0.23404444338E+04  0.23460802659E+04  0.50400001928E-02 0. -1.
       -1    1    3    3    0  502 -0.22261265481E+02  0.16098727383E+03  0.88525031920E+03  0.90004477330E+03  0.50400001928E-02 0.  1.
</event>
<event>
 5   0  0.2546841E-07  0.2898453E+04  0.7818609E-02  0.8273338E-01
        2   -1    0    0  501    0  0.00000000000E+00  0.00000000000E+00  0.13658208906E+04  0.13658208906E+04  0.25500000920E-02 0. -1.
       -2   -1    0    0    0  501  0.00000000000E+00  0.00000000000E+00 -0.15377251504E+04  0.15377251504E+04  0.25500000920E-02 0.  1.
    10030    2    1    2    0    0  0.00000000000E+00  0.00000000000E+00 -0.17190425975E+03  0.29035460410E+04  0.28984527834E+04 0.  0.
        1    1    3    3  502    0  0.65862112835E+03  0.11625116839E+04  0.47632014011E+03  0.14184837263E+04  0.50400001928E-02 0. -1.
       -1    1    3    3    0  502 -0.65862112835E+03 -0.11625116839E+04 -0.64822439985E+03  0.14850623147E+04  0.50400001928E-02 0.  1.
</event>
<event>
 5   0  0.9395744E-08  0.2901218E+04  0.7818609E-02  0.8272515E-01
       -1   -1    0    0    0  501  0.00000000000E+00  0.00000000000E+00  0.14721164049E+04  0.14721164049E+04  0.50400001928E-02 0. -1.
        1   -1    0    0  501    0  0.00000000000E+00  0.00000000000E+00 -0.14294160655E+04  0.14294160655E+04  0.50400001928E-02 0.  1.
    10030    2    1    2    0    0  0.00000000000E+00  0.00000000000E+00  0.42700339377E+02  0.29015324705E+04  0.29012182541E+04 0.  0.
        2    1    3    3  502    0  0.80830731682E+03 -0.11889567184E+04 -0.17177186525E+03  0.14479241590E+04  0.25500000920E-02 0.  1.
       -2    1    3    3    0  502 -0.80830731682E+03  0.11889567184E+04  0.21447220462E+03  0.14536083114E+04  0.25500000920E-02 0. -1.
</event>
<event>
 5   0  0.2678723E-07  0.2900437E+04  0.7818609E-02  0.8272748E-01
        2   -1    0    0  501    0  0.00000000000E+00  0.00000000000E+00  0.20936515054E+04  0.20936515054E+04  0.25500000920E-02 0.  1.
       -2   -1    0    0    0  501  0.00000000000E+00  0.00000000000E+00 -0.10045288910E+04  0.10045288910E+04  0.25500000920E-02 0. -1.
    10030    2    1    2    0    0  0.00000000000E+00  0.00000000000E+00  0.10891226144E+04  0.30981803965E+04  0.29004368119E+04 0.  0.
        5    1    3    3  502    0  0.82788529624E+02  0.29187229450E+03  0.20593660856E+04  0.20815989386E+04  0.46999998093E+01 0.  1.
       -5    1    3    3    0  502 -0.82788529624E+02 -0.29187229450E+03 -0.97024347122E+03  0.10165814578E+04  0.46999998093E+01 0. -1.
</event>
<event>
 5   0  0.9395744E-08  0.2895909E+04  0.7818609E-02  0.8274096E-01
       -1   -1    0    0    0  501  0.00000000000E+00  0.00000000000E+00  0.19060685649E+04  0.19060685649E+04  0.50400001928E-02 0.  1.
        1   -1    0    0  501    0  0.00000000000E+00  0.00000000000E+00 -0.10999459637E+04  0.10999459637E+04  0.50400001928E-02 0. -1.
    10030    2    1    2    0    0  0.00000000000E+00  0.00000000000E+00  0.80612260113E+03  0.30060145286E+04  0.28959091315E+04 0.  0.
        2    1    3    3  502    0  0.27062592019E+03  0.10863054231E+04 -0.55015321065E+03  0.12473838287E+04  0.25500000920E-02 0. -1.
       -2    1    3    3    0  502 -0.27062592019E+03 -0.10863054231E+04  0.13562758118E+04  0.17586306999E+04  0.25500000920E-02 0.  1.
</event>
<event>
 5   0  0.9763851E-08  0.2898861E+04  0.7818609E-02  0.8273217E-01
        1   -1    0    0  501    0  0.00000000000E+00  0.00000000000E+00  0.11895128243E+04  0.11895128243E+04  0.50400001928E-02 0. -1.
       -1   -1    0    0    0  501  0.00000000000E+00  0.00000000000E+00 -0.17661417082E+04  0.17661417082E+04  0.50400001928E-02 0.  1.
    10030    2    1    2    0    0  0.00000000000E+00  0.00000000000E+00 -0.57662888396E+03  0.29556545325E+04  0.28988606116E+04 0.  0.
        3    1    3    3  502    0 -0.16735823359E+03  0.99156549200E+03  0.77599353641E+03  0.12701877350E+04  0.10100000352E+00 0. -1.
       -3    1    3    3    0  502  0.16735823359E+03 -0.99156549200E+03 -0.13526224204E+04  0.16854667975E+04  0.10100000352E+00 0.  1.
</event>
<event>
 5   0  0.9388076E-08  0.2898558E+04  0.7818609E-02  0.8273307E-01
       -1   -1    0    0    0  501  0.00000000000E+00  0.00000000000E+00  0.10413421659E+04  0.10413421659E+04  0.50400001928E-02 0.  1.
        1   -1    0    0  501    0  0.00000000000E+00  0.00000000000E+00 -0.20170212199E+04  0.20170212199E+04  0.50400001928E-02 0. -1.
    10030    2    1    2    0    0  0.00000000000E+00  0.00000000000E+00 -0.97567905398E+03  0.30583633858E+04  0.28985577419E+04 0.  0.
        5    1    3    3  502    0 -0.78746989716E+03  0.42417879560E+03 -0.16910382759E+04  0.19130261447E+04  0.46999998093E+01 0. -1.
       -5    1    3    3    0  502  0.78746989716E+03 -0.42417879560E+03  0.71535922194E+03  0.11453372412E+04  0.46999998093E+01 0.  1.
</event>
<event>
 5   0  0.2546841E-07  0.2899230E+04  0.7818609E-02  0.8273107E-01
       -2   -1    0    0    0  501  0.00000000000E+00  0.00000000000E+00  0.17656302364E+04  0.17656302364E+04  0.25500000920E-02 0. -1.
        2   -1    0    0  501    0  0.00000000000E+00  0.00000000000E+00 -0.11901606509E+04  0.11901606509E+04  0.25500000920E-02 0.  1.
    10030    2    1    2    0    0  0.00000000000E+00  0.00000000000E+00  0.57546958557E+03  0.29557908873E+04  0.28992299884E+04 0.  0.
        1    1    3    3  502    0 -0.59814437332E+03 -0.34488684039E+03  0.15872228206E+04  0.17308956948E+04  0.50400001928E-02 0. -1.
       -1    1    3    3    0  502  0.59814437332E+03  0.34488684039E+03 -0.10117532350E+04  0.12248951925E+04  0.50400001928E-02 0.  1.
</event>
<event>
 5   0  0.9763851E-08  0.2900520E+04  0.7818609E-02  0.8272723E-01
       -1   -1    0    0    0  501  0.00000000000E+00  0.00000000000E+00  0.11465799804E+04  0.11465799804E+04  0.50400001928E-02 0.  1.
        1   -1    0    0  501    0  0.00000000000E+00  0.00000000000E+00 -0.18343724711E+04  0.18343724711E+04  0.50400001928E-02 0. -1.
    10030    2    1    2    0    0  0.00000000000E+00  0.00000000000E+00 -0.68779249078E+03  0.29809524515E+04  0.29005204719E+04 0.  0.
        3    1    3    3  502    0 -0.77947712631E+02  0.69314711210E+03 -0.16506607277E+04  0.17919848250E+04  0.10100000352E+00 0. -1.
       -3    1    3    3    0  502  0.77947712631E+02 -0.69314711210E+03  0.96286823693E+03  0.11889676265E+04  0.10100000352E+00 0.  1.
</event>
<event>
 5   0  0.2608591E-07  0.2900928E+04  0.7818609E-02  0.8272601E-01
        2   -1    0    0  501    0  0.00000000000E+00  0.00000000000E+00  0.13871981858E+04  0.13871981858E+04  0.25500000920E-02 0.  1.
       -2   -1    0    0    0  501  0.00000000000E+00  0.00000000000E+00 -0.15166154102E+04  0.15166154102E+04  0.25500000920E-02 0. -1.
    10030    2    1    2    0    0  0.00000000000E+00  0.00000000000E+00 -0.12941722440E+03  0.29038135961E+04  0.29009282278E+04 0.  0.
        2    1    3    3  502    0  0.66778655555E+03 -0.84913813365E+03 -0.10335926671E+04  0.14950880426E+04  0.25500000920E-02 0. -1.
       -2    1    3    3    0  502 -0.66778655555E+03  0.84913813365E+03  0.90417544269E+03  0.14087255535E+04  0.25500000920E-02 0.  1.
</event>
<event>
 5   0  0.9443352E-08  0.2902265E+04  0.7818609E-02  0.8272204E-01
        1   -1    0    0  501    0  0.00000000000E+00  0.00000000000E+00  0.15333601508E+04  0.15333601508E+04  0.50400001928E-02 0. -1.
       -1   -1    0    0    0  501  0.00000000000E+00  0.00000000000E+00 -0.13733143868E+04  0.13733143868E+04  0.50400001928E-02 0.  1.
    10030    2    1    2    0    0  0.00000000000E+00  0.00000000000E+00  0.16004576399E+03  0.29066745376E+04  0.29022650157E+04 0.  0.
        4    1    3    3  502    0  0.72462790465E+03 -0.21698684250E+03 -0.11602507782E+04  0.13850459817E+04  0.12699999809E+01 0.  1.
       -4    1    3    3    0  502 -0.72462790465E+03  0.21698684250E+03  0.13202965422E+04  0.15216285560E+04  0.12699999809E+01 0. -1.
</event>
<event>
 5   0  0.9388076E-08  0.2904389E+04  0.7818609E-02  0.8271573E-01
        1   -1    0    0  501    0  0.00000000000E+00  0.00000000000E+00  0.11826337681E+04  0.11826337681E+04  0.50400001928E-02 0.  1.
       -1   -1    0    0    0  501  0.00000000000E+00  0.00000000000E+00 -0.17831967202E+04  0.17831967202E+04  0.50400001928E-02 0. -1.
    10030    2    1    2    0    0  0.00000000000E+00  0.00000000000E+00 -0.60056295212E+03  0.29658304884E+04  0.29043888559E+04 0.  0.
        5    1    3    3  502    0 -0.25145399697E+03  0.41277000357E+03 -0.16986440920E+04  0.17660753183E+04  0.46999998093E+01 0. -1.
       -5    1    3    3    0  502  0.25145399697E+03 -0.41277000357E+03  0.10980811399E+04  0.11997551701E+04  0.46999998093E+01 0.  1.
</event>
<event>
 5   0  0.2678723E-07  0.2893233E+04  0.7818609E-02  0.8274894E-01
        2   -1    0    0  501    0  0.00000000000E+00  0.00000000000E+00  0.20584830807E+04  0.20584830807E+04  0.25500000920E-02 0. -1.
       -2   -1    0    0    0  501  0.00000000000E+00  0.00000000000E+00 -0.10166219960E+04  0.10166219960E+04  0.25500000920E-02 0.  1.
    10030    2    1    2    0    0  0.00000000000E+00  0.00000000000E+00  0.10418610847E+04  0.30751050768E+04  0.28932329172E+04 0.  0.
        5    1    3    3  502    0  0.38348979550E+03  0.17265162766E+01  0.20034637238E+04  0.20398422456E+04  0.46999998093E+01 0. -1.
       -5    1    3    3    0  502 -0.38348979550E+03 -0.17265162766E+01 -0.96160263912E+03  0.10352628312E+04  0.46999998093E+01 0.  1.
</event>
<event>
 5   0  0.9388076E-08  0.2899501E+04  0.7818609E-02  0.8273026E-01
        1   -1    0    0  501    0  0.00000000000E+00  0.00000000000E+00  0.10079818092E+04  0.10079818093E+04  0.50400001928E-02 0.  1.
       -1   -1    0    0    0  501  0.00000000000E+00  0.00000000000E+00 -0.20851335057E+04  0.20851335057E+04  0.50400001928E-02 0. -1.
    10030    2    1    2    0    0  0.00000000000E+00  0.00000000000E+00 -0.10771516964E+04  0.30931153150E+04  0.28995010906E+04 0.  0.
        5    1    3    3  502    0  0.11686163359E+04 -0.38082830139E+03  0.28156548461E+03  0.12609502559E+04  0.46999998093E+01 0.  1.
       -5    1    3    3    0  502 -0.11686163359E+04  0.38082830139E+03 -0.13587171811E+04  0.18321650591E+04  0.46999998093E+01 0. -1.
</event>
<event>
 5   0  0.9395744E-08  0.2902000E+04  0.7818609E-02  0.8272283E-01
        1   -1    0    0  501    0  0.00000000000E+00  0.00000000000E+00  0.15397539489E+04  0.15397539489E+04  0.50400001928E-02 0. -1.
       -1   -1    0    0    0  501  0.00000000000E+00  0.00000000000E+00 -0.13673622477E+04  0.13673622477E+04  0.50400001928E-02 0.  1.
    10030    2    1    2    0    0  0.00000000000E+00  0.00000000000E+00  0.17239170128E+03  0.29071161966E+04  0.29020002898E+04 0.  0.
        2    1    3    3  502    0  0.60911644687E+03 -0.49688879173E+03  0.13079688464E+04  0.15260091154E+04  0.25500000920E-02 0. -1.
       -2    1    3    3    0  502 -0.60911644687E+03  0.49688879173E+03 -0.11355771451E+04  0.13811070812E+04  0.25500000920E-02 0.  1.
</event>
<event>
 5   0  0.2546841E-07  0.2906454E+04  0.7818609E-02  0.8270960E-01
       -2   -1    0    0    0  501  0.00000000000E+00  0.00000000000E+00  0.87252861468E+03  0.87252861469E+03  0.25500000920E-02 0.  1.
        2   -1    0    0  501    0  0.00000000000E+00  0.00000000000E+00 -0.24204009195E+04  0.24204009195E+04  0.25500000920E-02 0. -1.
    10030    2    1    2    0    0  0.00000000000E+00  0.00000000000E+00 -0.15478723048E+04  0.32929295341E+04  0.29064542393E+04 0.  0.
        1    1    3    3  502    0  0.28617770489E+03  0.10802167187E+04 -0.18265045265E+04  0.21412343691E+04  0.50400001928E-02 0. -1.
       -1    1    3    3    0  502 -0.28617770489E+03 -0.10802167187E+04  0.27863222170E+03  0.11516951650E+04  0.50400001928E-02 0.  1.
</event>
<event>
 5   0  0.9443352E-08  0.2900413E+04  0.7818609E-02  0.8272755E-01
       -1   -1    0    0    0  501  0.00000000000E+00  0.00000000000E+00  0.85132535248E+03  0.85132535249E+03  0.50400001928E-02 0.  1.
        1   -1    0    0  501    0  0.00000000000E+00  0.00000000000E+00 -0.24703826496E+04  0.24703826496E+04  0.50400001928E-02 0. -1.
    10030    2    1    2    0    0  0.00000000000E+00  0.00000000000E+00 -0.16190572971E+04  0.33217080021E+04  0.29004133360E+04 0.  0.
        4    1    3    3  502    0 -0.41713503079E+03  0.82782162876E+03  0.46772791240E+03  0.10382973061E+04  0.12699999809E+01 0.  1.
       -4    1    3    3    0  502  0.41713503079E+03 -0.82782162876E+03 -0.20867852095E+04  0.22834106960E+04  0.12699999809E+01 0. -1.
</event>
<event>
 5   0  0.2546841E-07  0.2896985E+04  0.7818609E-02  0.8273775E-01
       -2   -1    0    0    0  501  0.00000000000E+00  0.00000000000E+00  0.15267594476E+04  0.15267594476E+04  0.25500000920E-02 0.  1.
        2   -1    0    0  501    0  0.00000000000E+00  0.00000000000E+00 -0.13742380138E+04  0.13742380138E+04  0.25500000920E-02 0. -1.
    10030    2    1    2    0    0  0.00000000000E+00  0.00000000000E+00  0.15252143377E+03  0.29009974613E+04  0.28969852404E+04 0.  0.
        1    1    3    3  502    0 -0.10391368163E+04 -0.76397188432E+03 -0.58394936582E+03  0.14157878460E+04  0.50400001928E-02 0. -1.
       -1    1    3    3    0  502  0.10391368163E+04  0.76397188432E+03  0.73647079959E+03  0.14852096154E+04  0.50400001928E-02 0.  1.
</event>
<event>
 5   0  0.2546841E-07  0.2899840E+04  0.7818609E-02  0.8272925E-01
       -2   -1    0    0    0  501  0.00000000000E+00  0.00000000000E+00  0.62092026344E+03  0.62092026345E+03  0.25500000920E-02 0.  1.
        2   -1    0    0  501    0  0.00000000000E+00  0.00000000000E+00 -0.33857284811E+04  0.33857284811E+04  0.25500000920E-02 0. -1.
    10030    2    1    2    0    0  0.00000000000E+00  0.00000000000E+00 -0.27648082176E+04  0.40066487445E+04  0.28998395959E+04 0.  0.
        1    1    3    3  502    0 -0.75638900849E+03  0.26491829247E+03  0.28706343167E+03  0.85129985768E+03  0.50400001928E-02 0.  1.
       -1    1    3    3    0  502  0.75638900849E+03 -0.26491829247E+03 -0.30518716493E+04  0.31553488869E+04  0.50400001928E-02 0. -1.
</event>
<event>
 5   0  0.9443352E-08  0.2900395E+04  0.7818609E-02  0.8272760E-01
       -1   -1    0    0    0  501  0.00000000000E+00  0.00000000000E+00  0.21374646655E+04  0.21374646655E+04  0.50400001928E-02 0.  1.
        1   -1    0    0  501    0  0.00000000000E+00  0.00000000000E+00 -0.98391007692E+03  0.98391007694E+03  0.50400001928E-02 0. -1.
    10030    2    1    2    0    0  0.00000000000E+00  0.00000000000E+00  0.11535545885E+04  0.31213747424E+04  0.29003951617E+04 0.  0.
        4    1    3    3  502    0 -0.43410072333E+03 -0.13818234781E+04  0.65432156563E+03  0.15893451126E+04  0.12699999809E+01 0.  1.
       -4    1    3    3    0  502  0.43410072333E+03  0.13818234781E+04  0.49923302290E+03  0.15320296298E+04  0.12699999809E+01 0. -1.
</event>
<event>
 5   0  0.9388076E-08  0.2900705E+04  0.7818609E-02  0.8272668E-01
        1   -1    0    0  501    0  0.00000000000E+00  0.00000000000E+00  0.69672000120E+03  0.69672000121E+03  0.50400001928E-02 0. -1.
       -1   -1    0    0    0  501  0.00000000000E+00  0.00000000000E+00 -0.30191796213E+04  0.30191796213E+04  0.50400001928E-02 0.  1.
    10030    2    1    2    0    0  0.00000000000E+00  0.00000000000E+00 -0.23224596201E+04  0.37158996225E+04  0.29007053138E+04 0.  0.
        5    1    3    3  502    0  0.29658683105E+03 -0.14080280822E+04 -0.13939195642E+04  0.20033823076E+04  0.46999998093E+01 0.  1.
       -5    1    3    3    0  502 -0.29658683105E+03  0.14080280822E+04 -0.92854005587E+03  0.17125173150E+04  0.46999998093E+01 0. -1.
</event>
<event>
 5   0  0.2492232E-07  0.2899721E+04  0.7818609E-02  0.8272960E-01
       -2   -1    0    0    0  501  0.00000000000E+00  0.00000000000E+00  0.13692298268E+04  0.13692298268E+04  0.25500000920E-02 0.  1.
        2   -1    0    0  501    0  0.00000000000E+00  0.00000000000E+00 -0.15352395859E+04  0.15352395859E+04  0.25500000920E-02 0. -1.
    10030    2    1    2    0    0  0.00000000000E+00  0.00000000000E+00 -0.16600975907E+03  0.29044694127E+04  0.28997212502E+04 0.  0.
        4    1    3    3  502    0 -0.40129229476E+03  0.13932155159E+04 -0.86049546912E+02  0.14524087294E+04  0.12699999809E+01 0.  1.
       -4    1    3    3    0  502  0.40129229476E+03 -0.13932155159E+04 -0.79960212155E+02  0.14520606833E+04  0.12699999809E+01 0. -1.
</event>
<event>
 5   0  0.9443352E-08  0.2900889E+04  0.7818609E-02  0.8272613E-01
        1   -1    0    0  501    0  0.00000000000E+00  0.00000000000E+00  0.15669535498E+04  0.15669535498E+04  0.50400001928E-02 0.  1.
       -1   -1    0    0    0  501  0.00000000000E+00  0.00000000000E+00 -0.13425980289E+04  0.13425980289E+04  0.50400001928E-02 0. -1.
    10030    2    1    2    0    0  0.00000000000E+00  0.00000000000E+00  0.22435552091E+03  0.29095515787E+04  0.29008886551E+04 0.  0.
        4    1    3    3  502    0 -0.50552428723E+03  0.82948719379E+03  0.11925124225E+04  0.15380803946E+04  0.12699999809E+01 0.  1.
       -4    1    3    3    0  502  0.50552428723E+03 -0.82948719379E+03 -0.96815690160E+03  0.13714711840E+04  0.12699999809E+01 0. -1.
</event>
<event>
 5   0  0.9421924E-08  0.2896220E+04  0.7818609E-02  0.8274003E-01
       -1   -1    0    0    0  501  0.00000000000E+00  0.00000000000E+00  0.10860041527E+04  0.10860041527E+04  0.50400001928E-02 0.  1.
        1   -1    0    0  501    0  0.00000000000E+00  0.00000000000E+00 -0.19309522631E+04  0.19309522631E+04  0.50400001928E-02 0. -1.
    10030    2    1    2    0    0  0.00000000000E+00  0.00000000000E+00 -0.84494811040E+03  0.30169564159E+04  0.28962197268E+04 0.  0.
        1    1    3    3  502    0 -0.72358436308E+03  0.57822572579E+03  0.73708055770E+03  0.11837259265E+04  0.50400001928E-02 0.  1.
       -1    1    3    3    0  502  0.72358436308E+03 -0.57822572579E+03 -0.15820286681E+04  0.18332304894E+04  0.50400001928E-02 0. -1.
</event>
<event>
 5   0  0.9388076E-08  0.2896056E+04  0.7818609E-02  0.8274052E-01
       -1   -1    0    0    0  501  0.00000000000E+00  0.00000000000E+00  0.12284939736E+04  0.12284939736E+04  0.50400001928E-02 0. -1.
        1   -1    0    0  501    0  0.00000000000E+00  0.00000000000E+00 -0.17067936273E+04  0.17067936274E+04  0.50400001928E-02 0.  1.
    10030    2    1    2    0    0  0.00000000000E+00  0.00000000000E+00 -0.47829965373E+03  0.29352876010E+04  0.28960564120E+04 0.  0.
        5    1    3    3  502    0 -0.32548684111E+03  0.59469923585E+03  0.10576964709E+04  0.12563251089E+04  0.46999998093E+01 0. -1.
       -5    1    3    3    0  502  0.32548684111E+03 -0.59469923585E+03 -0.15359961246E+04  0.16789624920E+04  0.46999998093E+01 0.  1.
</event>
<event>
 5   0  0.2492232E-07  0.2896656E+04  0.7818609E-02  0.8273873E-01
       -2   -1    0    0    0  501  0.00000000000E+00  0.00000000000E+00  0.11620294034E+04  0.11620294034E+04  0.25500000920E-02 0.  1.
        2   -1    0    0  501    0  0.00000000000E+00  0.00000000000E+00 -0.18051646791E+04  0.18051646791E+04  0.25500000920E-02 0. -1.
    10030    2    1    2    0    0  0.00000000000E+00  0.00000000000E+00 -0.64313527567E+03  0.29671940825E+04  0.28966563034E+04 0.  0.
        4    1    3    3  502    0 -0.13853068590E+04  0.29214756897E+03 -0.88005353659E+01  0.14158051978E+04  0.12699999809E+01 0.  1.
       -4    1    3    3    0  502  0.13853068590E+04 -0.29214756897E+03 -0.63433474030E+03  0.15513888847E+04  0.12699999809E+01 0. -1.
</event>
<event>
 5   0  0.2608591E-07  0.2909746E+04  0.7818609E-02  0.8269984E-01
       -2   -1    0    0    0  501  0.00000000000E+00  0.00000000000E+00  0.86826338503E+03  0.86826338503E+03  0.25500000920E-02 0. -1.
        2   -1    0    0  501    0  0.00000000000E+00  0.00000000000E+00 -0.24378026528E+04  0.24378026528E+04  0.25500000920E-02 0.  1.
    10030    2    1    2    0    0  0.00000000000E+00  0.00000000000E+00 -0.15695392678E+04  0.33060660378E+04  0.29097455444E+04 0.  0.
        2    1    3    3  502    0 -0.91294963365E+03  0.16881609026E+03 -0.20574601439E+04  0.22572368395E+04  0.25500000920E-02 0.  1.
       -2    1    3    3    0  502  0.91294963365E+03 -0.16881609026E+03  0.48792087611E+03  0.10488291983E+04  0.25500000920E-02 0. -1.
</event>
<event>
 5   0  0.9388076E-08  0.2898251E+04  0.7818609E-02  0.8273398E-01
        1   -1    0    0  501    0  0.00000000000E+00  0.00000000000E+00  0.26071289590E+04  0.26071289590E+04  0.50400001928E-02 0. -1.
       -1   -1    0    0    0  501  0.00000000000E+00  0.00000000000E+00 -0.80547040978E+03  0.80547040980E+03  0.50400001928E-02 0.  1.
    10030    2    1    2    0    0  0.00000000000E+00  0.00000000000E+00  0.18016585492E+04  0.34125993688E+04  0.28982513562E+04 0.  0.
        5    1    3    3  502    0 -0.12209112928E+03 -0.11110973896E+04 -0.18506185774E+03  0.11330108712E+04  0.46999998093E+01 0.  1.
       -5    1    3    3    0  502  0.12209112928E+03  0.11110973896E+04  0.19867204069E+04  0.22795884976E+04  0.46999998093E+01 0. -1.
</event>
<event>
 5   0  0.9421924E-08  0.2900089E+04  0.7818609E-02  0.8272851E-01
       -1   -1    0    0    0  501  0.00000000000E+00  0.00000000000E+00  0.12085612407E+04  0.12085612407E+04  0.50400001928E-02 0.  1.
        1   -1    0    0  501    0  0.00000000000E+00  0.00000000000E+00 -0.17397785678E+04  0.17397785678E+04  0.50400001928E-02 0. -1.
    10030    2    1    2    0    0  0.00000000000E+00  0.00000000000E+00 -0.53121732704E+03  0.29483398085E+04  0.29000889258E+04 0.  0.
        1    1    3    3  502    0  0.48336814816E+02  0.10895830701E+04  0.70585304134E+03  0.12991367250E+04  0.50400001928E-02 0. -1.
       -1    1    3    3    0  502 -0.48336814816E+02 -0.10895830701E+04 -0.12370703684E+04  0.16492030835E+04  0.50400001928E-02 0.  1.
</event>
<event>
 5   0  0.2534588E-07  0.2900557E+04  0.7818609E-02  0.8272712E-01
       -2   -1    0    0    0  501  0.00000000000E+00  0.00000000000E+00  0.99282900638E+03  0.99282900639E+03  0.25500000920E-02 0.  1.
        2   -1    0    0  501    0  0.00000000000E+00  0.00000000000E+00 -0.21184994486E+04  0.21184994486E+04  0.25500000920E-02 0. -1.
    10030    2    1    2    0    0  0.00000000000E+00  0.00000000000E+00 -0.11256704422E+04  0.31113284550E+04  0.29005569828E+04 0.  0.
        3    1    3    3  502    0 -0.48500449278E+03  0.13151447930E+04 -0.16367593441E+03  0.14112494486E+04  0.10100000352E+00 0.  1.
       -3    1    3    3    0  502  0.48500449278E+03 -0.13151447930E+04 -0.96199450778E+03  0.17000790063E+04  0.10100000352E+00 0. -1.
</event>
<event>
 5   0  0.2492232E-07  0.2899970E+04  0.7818609E-02  0.8272886E-01
        2   -1    0    0  501    0  0.00000000000E+00  0.00000000000E+00  0.20988235579E+04  0.20988235579E+04  0.25500000920E-02 0.  1.
       -2   -1    0    0    0  501  0.00000000000E+00  0.00000000000E+00 -0.10017308303E+04  0.10017308303E+04  0.25500000920E-02 0. -1.
    10030    2    1    2    0    0  0.00000000000E+00  0.00000000000E+00  0.10970927276E+04  0.31005543881E+04  0.28999698379E+04 0.  0.
        4    1    3    3  502    0 -0.41338385052E+03 -0.12642094788E+04  0.11658394849E+04  0.17686987114E+04  0.12699999809E+01 0.  1.
       -4    1    3    3    0  502  0.41338385052E+03  0.12642094788E+04 -0.68746757310E+02  0.13318556768E+04  0.12699999809E+01 0. -1.
</event>
<event>
 5   0  0.2492232E-07  0.2898456E+04  0.7818609E-02  0.8273337E-01
       -2   -1    0    0    0  501  0.00000000000E+00  0.00000000000E+00  0.14470495516E+04  0.14470495516E+04  0.25500000920E-02 0. -1.
        2   -1    0    0  501    0  0.00000000000E+00  0.00000000000E+00 -0.14514098038E+04  0.14514098038E+04  0.25500000920E-02 0.  1.
    10030    2    1    2    0    0  0.00000000000E+00  0.00000000000E+00 -0.43602521472E+01  0.28984593554E+04  0.28984560757E+04 0.  0.
        4    1    3    3  502    0  0.26287249301E+03  0.60087111606E+03 -0.12945098157E+04  0.14511737737E+04  0.12699999809E+01 0.  1.
       -4    1    3    3    0  502 -0.26287249301E+03 -0.60087111606E+03  0.12901495635E+04  0.14472855817E+04  0.12699999809E+01 0. -1.
</event>
<event>
 5   0  0.9763851E-08  0.2901840E+04  0.7818609E-02  0.8272330E-01
       -1   -1    0    0    0  501  0.00000000000E+00  0.00000000000E+00  0.28585315404E+04  0.28585315405E+04  0.50400001928E-02 0. -1.
        1   -1    0    0  501    0  0.00000000000E+00  0.00000000000E+00 -0.73645108273E+03  0.73645108275E+03  0.50400001928E-02 0.  1.
    10030    2    1    2    0    0  0.00000000000E+00  0.00000000000E+00  0.21220804577E+04  0.35949826232E+04  0.29018398633E+04 0.  0.
        3    1    3    3  502    0 -0.77717645095E+03 -0.32976328265E+03  0.25229101345E+04  0.26604177520E+04  0.10100000352E+00 0. -1.
       -3    1    3    3    0  502  0.77717645095E+03  0.32976328265E+03 -0.40082967674E+03  0.93456487118E+03  0.10100000352E+00 0.  1.
</event>
<event>
 5   0  0.9388076E-08  0.2898877E+04  0.7818609E-02  0.8273212E-01
       -1   -1    0    0    0  501  0.00000000000E+00  0.00000000000E+00  0.16026817529E+04  0.16026817529E+04  0.50400001928E-02 0.  1.
        1   -1    0    0  501    0  0.00000000000E+00  0.00000000000E+00 -0.13108481850E+04  0.13108481850E+04  0.50400001928E-02 0. -1.
    10030    2    1    2    0    0  0.00000000000E+00  0.00000000000E+00  0.29183356789E+03  0.29135299379E+04  0.28988773461E+04 0.  0.
        5    1    3    3  502    0 -0.39585947797E+03 -0.75386876761E+03 -0.10329687611E+04  0.13386819624E+04  0.46999998093E+01 0. -1.
       -5    1    3    3    0  502  0.39585947797E+03  0.75386876761E+03  0.13248023290E+04  0.15748479755E+04  0.46999998093E+01 0.  1.
</event>
<event>
 5   0  0.9763851E-08  0.2901254E+04  0.7818609E-02  0.8272505E-01
       -1   -1    0    0    0  501  0.00000000000E+00  0.00000000000E+00  0.11892442262E+04  0.11892442262E+04  0.50400001928E-02 0.  1.
        1   -1    0    0  501    0  0.00000000000E+00  0.00000000000E+00 -0.17694584782E+04  0.17694584782E+04  0.50400001928E-02 0. -1.
    10030    2    1    2    0    0  0.00000000000E+00  0.00000000000E+00 -0.58021425203E+03  0.29587027044E+04  0.29012537143E+04 0.  0.
        3    1    3    3  502    0  0.10014055192E+04  0.49686723727E+02  0.77900110722E+03  0.12696946560E+04  0.10100000352E+00 0.  1.
       -3    1    3    3    0  502 -0.10014055192E+04 -0.49686723727E+02 -0.13592153592E+04  0.16890080483E+04  0.10100000352E+00 0. -1.
</event>
<event>
 5   0  0.9395744E-08  0.2899985E+04  0.7818609E-02  0.8272882E-01
       -1   -1    0    0    0  501  0.00000000000E+00  0.00000000000E+00  0.11481121043E+04  0.11481121043E+04  0.50400001928E-02 0. -1.
        1   -1    0    0  501    0  0.00000000000E+00  0.00000000000E+00 -0.18312488448E+04  0.18312488448E+04  0.50400001928E-02 0.  1.
    10030    2    1    2    0    0  0.00000000000E+00  0.00000000000E+00 -0.68313674055E+03  0.29793609491E+04  0.28999854928E+04 0.  0.
        2    1    3    3  502    0 -0.15796372991E+03  0.34889308705E+03  0.10952091384E+04  0.11602422088E+04  0.25500000920E-02 0. -1.
       -2    1    3    3    0  502  0.15796372991E+03 -0.34889308705E+03 -0.17783458790E+04  0.18191187403E+04  0.25500000920E-02 0.  1.
</event>
<event>
 5   0  0.2534588E-07  0.2901128E+04  0.7818609E-02  0.8272542E-01
       -2   -1    0    0    0  501  0.00000000000E+00  0.00000000000E+00  0.29128114680E+04  0.29128114680E+04  0.25500000920E-02 0.  1.
        2   -1    0    0  501    0  0.00000000000E+00  0.00000000000E+00 -0.72237276487E+03  0.72237276487E+03  0.25500000920E-02 0. -1.
    10030    2    1    2    0    0  0.00000000000E+00  0.00000000000E+00  0.21904387031E+04  0.36351842328E+04  0.29011278315E+04 0.  0.
        3    1    3    3  502    0  0.42426189930E+03 -0.49902656943E+03 -0.52652063321E+03  0.84038661555E+03  0.10100000352E+00 0. -1.
       -3    1    3    3    0  502 -0.42426189930E+03  0.49902656943E+03  0.27169593363E+04  0.27947976173E+04  0.10100000352E+00 0.  1.
</event>
<event>
 5   0  0.2534588E-07  0.2890207E+04  0.7818609E-02  0.8275797E-01
       -2   -1    0    0    0  501  0.00000000000E+00  0.00000000000E+00  0.12110973284E+04  0.12110973284E+04  0.25500000920E-02 0.  1.
        2   -1    0    0  501    0  0.00000000000E+00  0.00000000000E+00 -0.17243240440E+04  0.17243240440E+04  0.25500000920E-02 0. -1.
    10030    2    1    2    0    0  0.00000000000E+00  0.00000000000E+00 -0.51322671563E+03  0.29354213724E+04  0.28902070812E+04 0.  0.
        3    1    3    3  502    0  0.64327074874E+03 -0.23828320129E+02 -0.15706695101E+04  0.16974592087E+04  0.10100000352E+00 0. -1.
       -3    1    3    3    0  502 -0.64327074874E+03  0.23828320129E+02  0.10574427945E+04  0.12379621637E+04  0.10100000352E+00 0.  1.
</event>
<event>
 5   0  0.9763851E-08  0.2899974E+04  0.7818609E-02  0.8272885E-01
       -1   -1    0    0    0  501  0.00000000000E+00  0.00000000000E+00  0.14359693782E+04  0.14359693782E+04  0.50400001928E-02 0.  1.
        1   -1    0    0  501    0  0.00000000000E+00  0.00000000000E+00 -0.14641412574E+04  0.14641412574E+04  0.50400001928E-02 0. -1.
    10030    2    1    2    0    0  0.00000000000E+00  0.00000000000E+00 -0.28171879198E+02  0.29001106356E+04  0.28999738006E+04 0.  0.
        3    1    3    3  502    0  0.22179002550E+03 -0.57493611204E+03  0.12985001449E+04  0.14373047640E+04  0.10100000352E+00 0.  1.
       -3    1    3    3    0  502 -0.22179002550E+03  0.57493611204E+03 -0.13266720241E+04  0.14628058716E+04  0.10100000352E+00 0. -1.
</event>
<event>
 5   0  0.2608591E-07  0.2900539E+04  0.7818609E-02  0.8272717E-01
        2   -1    0    0  501    0  0.00000000000E+00  0.00000000000E+00  0.26290267099E+04  0.26290267099E+04  0.25500000920E-02 0.  1.
       -2   -1    0    0    0  501  0.00000000000E+00  0.00000000000E+00 -0.80002317538E+03  0.80002317539E+03  0.25500000920E-02 0. -1.
    10030    2    1    2    0    0  0.00000000000E+00  0.00000000000E+00  0.18290035346E+04  0.34290498853E+04  0.29005394648E+04 0.  0.
        2    1    3    3  502    0 -0.13951459461E+04 -0.32202698577E+03  0.11870487461E+04  0.18598973940E+04  0.25500000920E-02 0.  1.
       -2    1    3    3    0  502  0.13951459461E+04  0.32202698577E+03  0.64195478845E+03  0.15691524913E+04  0.25500000920E-02 0. -1.
</event>
<event>
 5   0  0.2546841E-07  0.2900584E+04  0.7818609E-02  0.8272704E-01
        2   -1    0    0  501    0  0.00000000000E+00  0.00000000000E+00  0.17166567531E+04  0.17166567531E+04  0.25500000920E-02 0. -1.
       -2   -1    0    0    0  501  0.00000000000E+00  0.00000000000E+00 -0.12252579393E+04  0.12252579393E+04  0.25500000920E-02 0.  1.
    10030    2    1    2    0    0  0.00000000000E+00  0.00000000000E+00  0.49139881384E+03  0.29419146925E+04  0.29005842969E+04 0.  0.
        1    1    3    3  502    0  0.71450328701E+03 -0.46100293669E+03  0.14373054315E+04  0.16699956761E+04  0.50400001928E-02 0. -1.
       -1    1    3    3    0  502 -0.71450328701E+03  0.46100293669E+03 -0.94590661766E+03  0.12719190163E+04  0.50400001928E-02 0.  1.
</event>
<event>
 5   0  0.2492232E-07  0.2899850E+04  0.7818609E-02  0.8272922E-01
        2   -1    0    0  501    0  0.00000000000E+00  0.00000000000E+00  0.15276761831E+04  0.15276761831E+04  0.25500000920E-02 0. -1.
       -2   -1    0    0    0  501  0.00000000000E+00  0.00000000000E+00 -0.13761306065E+04  0.13761306065E+04  0.25500000920E-02 0.  1.
    10030    2    1    2    0    0  0.00000000000E+00  0.00000000000E+00  0.15154557659E+03  0.29038067897E+04  0.28998496185E+04 0.  0.
        4    1    3    3  502    0 -0.68122603816E+03  0.69676960870E+02  0.13555451840E+04  0.15186929093E+04  0.12699999809E+01 0. -1.
       -4    1    3    3    0  502  0.68122603816E+03 -0.69676960870E+02 -0.12039996075E+04  0.13851138804E+04  0.12699999809E+01 0.  1.
</event>
<event>
 5   0  0.9388076E-08  0.2899882E+04  0.7818609E-02  0.8272913E-01
        1   -1    0    0  501    0  0.00000000000E+00  0.00000000000E+00  0.16329322146E+04  0.16329322146E+04  0.50400001928E-02 0.  1.
       -1   -1    0    0    0  501  0.00000000000E+00  0.00000000000E+00 -0.12874563593E+04  0.12874563593E+04  0.50400001928E-02 0. -1.
    10030    2    1    2    0    0  0.00000000000E+00  0.00000000000E+00  0.34547585531E+03  0.29203885738E+04  0.28998820417E+04 0.  0.
        5    1    3    3  502    0 -0.12587978379E+04 -0.33826228952E+03  0.81229850830E+03  0.15358529649E+04  0.46999998093E+01 0.  1.
       -5    1    3    3    0  502  0.12587978379E+04  0.33826228952E+03 -0.46682265299E+03  0.13845356090E+04  0.46999998093E+01 0. -1.
</event>
<event>
 5   0  0.2546841E-07  0.2900392E+04  0.7818609E-02  0.8272761E-01
        2   -1    0    0  501    0  0.00000000000E+00  0.00000000000E+00  0.15713555116E+04  0.15713555116E+04  0.25500000920E-02 0. -1.
       -2   -1    0    0    0  501  0.00000000000E+00  0.00000000000E+00 -0.13383783922E+04  0.13383783922E+04  0.25500000920E-02 0.  1.
    10030    2    1    2    0    0  0.00000000000E+00  0.00000000000E+00  0.23297711940E+03  0.29097339037E+04  0.29003918791E+04 0.  0.
        1    1    3    3  502    0 -0.51444586064E+03 -0.73090117829E+03  0.12621814645E+04  0.15466005060E+04  0.50400001928E-02 0. -1.
       -1    1    3    3    0  502  0.51444586064E+03  0.73090117829E+03 -0.10292043451E+04  0.13631333977E+04  0.50400001928E-02 0.  1.
</event>
<event>
 5   0  0.2534588E-07  0.2905607E+04  0.7818609E-02  0.8271211E-01
       -2   -1    0    0    0  501  0.00000000000E+00  0.00000000000E+00  0.13386118858E+04  0.13386118858E+04  0.25500000920E-02 0. -1.
        2   -1    0    0  501    0  0.00000000000E+00  0.00000000000E+00 -0.15767364154E+04  0.15767364154E+04  0.25500000920E-02 0.  1.
    10030    2    1    2    0    0  0.00000000000E+00  0.00000000000E+00 -0.23812452962E+03  0.29153483013E+04  0.29056070667E+04 0.  0.
        3    1    3    3  502    0 -0.35230798659E+03  0.91636883661E+03 -0.11935330959E+04  0.15454365155E+04  0.10100000352E+00 0.  1.
       -3    1    3    3    0  502  0.35230798659E+03 -0.91636883661E+03  0.95540856629E+03  0.13699117858E+04  0.10100000352E+00 0. -1.
</event>
<event>
 5   0  0.9443352E-08  0.2900091E+04  0.7818609E-02  0.8272850E-01
        1   -1    0    0  501    0  0.00000000000E+00  0.00000000000E+00  0.13182037776E+04  0.13182037776E+04  0.50400001928E-02 0. -1.
       -1   -1    0    0    0  501  0.00000000000E+00  0.00000000000E+00 -0.15950734585E+04  0.15950734585E+04  0.50400001928E-02 0.  1.
    10030    2    1    2    0    0  0.00000000000E+00  0.00000000000E+00 -0.27686968084E+03  0.29132772361E+04  0.29000909355E+04 0.  0.
        4    1    3    3  502    0  0.54005747812E+02  0.12426954237E+04 -0.88708965960E+03  0.15277886680E+04  0.12699999809E+01 0.  1.
       -4    1    3    3    0  502 -0.54005747812E+02 -0.12426954237E+04  0.61021997876E+03  0.13854885681E+04  0.12699999809E+01 0. -1.
</event>
<event>
 5   0  0.2678723E-07  0.2901924E+04  0.7818609E-02  0.8272305E-01
        2   -1    0    0  501    0  0.00000000000E+00  0.00000000000E+00  0.13053123907E+04  0.13053123907E+04  0.25500000920E-02 0. -1.
       -2   -1    0    0    0  501  0.00000000000E+00  0.00000000000E+00 -0.16128631300E+04  0.16128631300E+04  0.25500000920E-02 0.  1.
    10030    2    1    2    0    0  0.00000000000E+00  0.00000000000E+00 -0.30755073929E+03  0.29181755208E+04  0.29019236573E+04 0.  0.
        5    1    3    3  502    0  0.14438392083E+04  0.56932693866E+02 -0.21298646606E+02  0.14451258469E+04  0.46999998093E+01 0.  1.
       -5    1    3    3    0  502 -0.14438392083E+04 -0.56932693866E+02 -0.28625209268E+03  0.14730496738E+04  0.46999998093E+01 0. -1.
</event>
<event>
 5   0  0.2608591E-07  0.2900922E+04  0.7818609E-02  0.8272603E-01
       -2   -1    0    0    0  501  0.00000000000E+00  0.00000000000E+00  0.13103742577E+04  0.13103742578E+04  0.25500000920E-02 0.  1.
        2   -1    0    0  501    0  0.00000000000E+00  0.00000000000E+00 -0.16055238526E+04  0.16055238526E+04  0.25500000920E-02 0. -1.
    10030    2    1    2    0    0  0.00000000000E+00  0.00000000000E+00 -0.29514959482E+03  0.29158981103E+04  0.29009220097E+04 0.  0.
        2    1    3    3  502    0  0.52113934723E+03  0.13502185623E+04 -0.24378067411E+03  0.14676870928E+04  0.25500000920E-02 0.  1.
       -2    1    3    3    0  502 -0.52113934723E+03 -0.13502185623E+04 -0.51368920709E+02  0.14482110175E+04  0.25500000920E-02 0. -1.
</event>
<event>
 5   0  0.2608591E-07  0.2899958E+04  0.7818609E-02  0.8272890E-01
       -2   -1    0    0    0  501  0.00000000000E+00  0.00000000000E+00  0.14214013368E+04  0.14214013368E+04  0.25500000920E-02 0. -1.
        2   -1    0    0  501    0  0.00000000000E+00  0.00000000000E+00 -0.14791307992E+04  0.14791307992E+04  0.25500000920E-02 0.  1.
    10030    2    1    2    0    0  0.00000000000E+00  0.00000000000E+00 -0.57729462342E+02  0.29005321360E+04  0.28999575826E+04 0.  0.
        2    1    3    3  502    0  0.54567685228E+03  0.10073714363E+04 -0.91779165578E+03  0.14679584331E+04  0.25500000920E-02 0.  1.
       -2    1    3    3    0  502 -0.54567685228E+03 -0.10073714363E+04  0.86006219344E+03  0.14325737029E+04  0.25500000920E-02 0. -1.
</event>
<event>
 5   0  0.9763851E-08  0.2899884E+04  0.7818609E-02  0.8272912E-01
       -1   -1    0    0    0  501  0.00000000000E+00  0.00000000000E+00  0.10070221383E+04  0.10070221383E+04  0.50400001928E-02 0.  1.
        1   -1    0    0  501    0  0.00000000000E+00  0.00000000000E+00 -0.20876712007E+04  0.20876712007E+04  0.50400001928E-02 0. -1.
    10030    2    1    2    0    0  0.00000000000E+00  0.00000000000E+00 -0.10806490625E+04  0.30946933390E+04  0.28998835263E+04 0.  0.
        3    1    3    3  502    0  0.64859260177E+01  0.87800832447E+03  0.69104890163E+03  0.11173581698E+04  0.10100000352E+00 0.  1.
       -3    1    3    3    0  502 -0.64859260177E+01 -0.87800832447E+03 -0.17716979641E+04  0.19773351692E+04  0.10100000352E+00 0. -1.
</event>
<event>
 5   0  0.9395744E-08  0.2902612E+04  0.7818609E-02  0.8272101E-01
        1   -1    0    0  501    0  0.00000000000E+00  0.00000000000E+00  0.15428085186E+04  0.15428085186E+04  0.50400001928E-02 0. -1.
       -1   -1    0    0    0  501  0.00000000000E+00  0.00000000000E+00 -0.13652303679E+04  0.13652303680E+04  0.50400001928E-02 0.  1.
    10030    2    1    2    0    0  0.00000000000E+00  0.00000000000E+00  0.17757815062E+03  0.29080388865E+04  0.29026119558E+04 0.  0.
        2    1    3    3  502    0  0.20547447163E+02 -0.76350510180E+03 -0.11475874339E+04  0.13785206406E+04  0.25500000920E-02 0.  1.
       -2    1    3    3    0  502 -0.20547447163E+02  0.76350510180E+03  0.13251655846E+04  0.15295182459E+04  0.25500000920E-02 0. -1.
</event>
<event>
 5   0  0.2546841E-07  0.2900354E+04  0.7818609E-02  0.8272772E-01
        2   -1    0    0  501    0  0.00000000000E+00  0.00000000000E+00  0.13128598898E+04  0.13128598899E+04  0.25500000920E-02 0. -1.
       -2   -1    0    0    0  501  0.00000000000E+00  0.00000000000E+00 -0.16018563779E+04  0.16018563779E+04  0.25500000920E-02 0.  1.
    10030    2    1    2    0    0  0.00000000000E+00  0.00000000000E+00 -0.28899648805E+03  0.29147162678E+04  0.29003537631E+04 0.  0.
        1    1    3    3  502    0  0.33876586636E+03  0.87004641839E+03  0.97062262650E+03  0.13467929928E+04  0.50400001928E-02 0. -1.
       -1    1    3    3    0  502 -0.33876586636E+03 -0.87004641839E+03 -0.12596191146E+04  0.15679232750E+04  0.50400001928E-02 0.  1.
</event>
<event>
 5   0  0.9395744E-08  0.2899973E+04  0.7818609E-02  0.8272886E-01
       -1   -1    0    0    0  501  0.00000000000E+00  0.00000000000E+00  0.13320054719E+04  0.13320054719E+04  0.50400001928E-02 0.  1.
        1   -1    0    0  501    0  0.00000000000E+00  0.00000000000E+00 -0.15784174810E+04  0.15784174810E+04  0.50400001928E-02 0. -1.
    10030    2    1    2    0    0  0.00000000000E+00  0.00000000000E+00 -0.24641200907E+03  0.29104229530E+04  0.28999729114E+04 0.  0.
        2    1    3    3  502    0 -0.11067961112E+03  0.12664045100E+04  0.57675283626E+03  0.13959492088E+04  0.25500000920E-02 0.  1.
       -2    1    3    3    0  502  0.11067961112E+03 -0.12664045100E+04 -0.82316484533E+03  0.15144737442E+04  0.25500000920E-02 0. -1.
</event>
<event>
 5   0  0.9388076E-08  0.2900826E+04  0.7818609E-02  0.8272632E-01
       -1   -1    0    0    0  501  0.00000000000E+00  0.00000000000E+00  0.18297363941E+04  0.18297363941E+04  0.50400001928E-02 0.  1.
        1   -1    0    0  501    0  0.00000000000E+00  0.00000000000E+00 -0.11497271653E+04  0.11497271653E+04  0.50400001928E-02 0. -1.
    10030    2    1    2    0    0  0.00000000000E+00  0.00000000000E+00  0.68000922886E+03  0.29794635594E+04  0.29008258394E+04 0.  0.
        5    1    3    3  502    0 -0.12190291448E+04  0.67612269457E+03 -0.71482364767E+02  0.13958172418E+04  0.46999998093E+01 0. -1.
       -5    1    3    3    0  502  0.12190291448E+04 -0.67612269457E+03  0.75149159362E+03  0.15836463176E+04  0.46999998093E+01 0.  1.
</event>
<event>
 5   0  0.2678723E-07  0.2901295E+04  0.7818609E-02  0.8272492E-01
        2   -1    0    0  501    0  0.00000000000E+00  0.00000000000E+00  0.19896136221E+04  0.19896136221E+04  0.25500000920E-02 0.  1.
       -2   -1    0    0    0  501  0.00000000000E+00  0.00000000000E+00 -0.10576816760E+04  0.10576816760E+04  0.25500000920E-02 0. -1.
    10030    2    1    2    0    0  0.00000000000E+00  0.00000000000E+00  0.93193194609E+03  0.30472952981E+04  0.29012947940E+04 0.  0.
        5    1    3    3  502    0 -0.37224542635E+03 -0.12309762793E+04  0.11709245263E+04  0.17392399472E+04  0.46999998093E+01 0.  1.
       -5    1    3    3    0  502  0.37224542635E+03  0.12309762793E+04 -0.23899258023E+03  0.13080553509E+04  0.46999998093E+01 0. -1.
</event>
<event>
 5   0  0.9395744E-08  0.2901301E+04  0.7818609E-02  0.8272490E-01
        1   -1    0    0  501    0  0.00000000000E+00  0.00000000000E+00  0.20304750370E+04  0.20304750370E+04  0.50400001928E-02 0.  1.
       -1   -1    0    0    0  501  0.00000000000E+00  0.00000000000E+00 -0.10364015069E+04  0.10364015069E+04  0.50400001928E-02 0. -1.
    10030    2    1    2    0    0  0.00000000000E+00  0.00000000000E+00  0.99407353008E+03  0.30668765439E+04  0.29013013550E+04 0.  0.
        2    1    3    3  502    0 -0.71856125500E+03 -0.10333879549E+04 -0.26534872121E+03  0.12863245650E+04  0.25500000920E-02 0. -1.
       -2    1    3    3    0  502  0.71856125500E+03  0.10333879549E+04  0.12594222513E+04  0.17805519789E+04  0.25500000920E-02 0.  1.
</event>
<event>
 5   0  0.9763851E-08  0.2899936E+04  0.7818609E-02  0.8272896E-01
        1   -1    0    0  501    0  0.00000000000E+00  0.00000000000E+00  0.18104535520E+04  0.18104535521E+04  0.50400001928E-02 0. -1.
       -1   -1    0    0    0  501  0.00000000000E+00  0.00000000000E+00 -0.11612602647E+04  0.11612602647E+04  0.50400001928E-02 0.  1.
    10030    2    1    2    0    0  0.00000000000E+00  0.00000000000E+00  0.64919328734E+03  0.29717138168E+04  0.28999363932E+04 0.  0.
        3    1    3    3  502    0 -0.13814008921E+04  0.24798035219E+03  0.69781593694E+03  0.15673894767E+04  0.10100000352E+00 0. -1.
       -3    1    3    3    0  502  0.13814008921E+04 -0.24798035219E+03 -0.48622649603E+02  0.14043243400E+04  0.10100000352E+00 0.  1.
</event>
<event>
 5   0  0.9388076E-08  0.2900680E+04  0.7818609E-02  0.8272675E-01
        1   -1    0    0  501    0  0.00000000000E+00  0.00000000000E+00  0.13418143083E+04  0.13418143083E+04  0.50400001928E-02 0.  1.
       -1   -1    0    0    0  501  0.00000000000E+00  0.00000000000E+00 -0.15676433526E+04  0.15676433526E+04  0.50400001928E-02 0. -1.
    10030    2    1    2    0    0  0.00000000000E+00  0.00000000000E+00 -0.22582904433E+03  0.29094576609E+04  0.29006801139E+04 0.  0.
        5    1    3    3  502    0  0.54383561380E+03  0.13444362106E+04 -0.98790300279E+02  0.14536325232E+04  0.46999998093E+01 0.  1.
       -5    1    3    3    0  502 -0.54383561380E+03 -0.13444362106E+04 -0.12703874405E+03  0.14558251377E+04  0.46999998093E+01 0. -1.
</event>
<event>
 5   0  0.2608591E-07  0.2899346E+04  0.7818609E-02  0.8273072E-01
       -2   -1    0    0    0  501  0.00000000000E+00  0.00000000000E+00  0.87536343606E+03  0.87536343606E+03  0.25500000920E-02 0. -1.
        2   -1    0    0  501    0  0.00000000000E+00  0.00000000000E+00 -0.24007770682E+04  0.24007770682E+04  0.25500000920E-02 0.  1.
    10030    2    1    2    0    0  0.00000000000E+00  0.00000000000E+00 -0.15254136321E+04  0.32761405042E+04  0.28993464530E+04 0.  0.
        2    1    3    3  502    0 -0.38639644168E+03  0.34812720385E+03 -0.22917277122E+04  0.23500022696E+04  0.25500000920E-02 0.  1.
       -2    1    3    3    0  502  0.38639644168E+03 -0.34812720385E+03  0.76631408012E+03  0.92613823461E+03  0.25500000920E-02 0. -1.
</event>
<event>
 5   0  0.2546841E-07  0.2900581E+04  0.7818609E-02  0.8272705E-01
       -2   -1    0    0    0  501  0.00000000000E+00  0.00000000000E+00  0.11484076182E+04  0.11484076182E+04  0.25500000920E-02 0.  1.
        2   -1    0    0  501    0  0.00000000000E+00  0.00000000000E+00 -0.18315299097E+04  0.18315299097E+04  0.25500000920E-02 0. -1.
    10030    2    1    2    0    0  0.00000000000E+00  0.00000000000E+00 -0.68312229151E+03  0.29799375279E+04  0.29005812529E+04 0.  0.
        1    1    3    3  502    0  0.83847710302E+03  0.53095601926E+03  0.74490886430E+03  0.12409058638E+04  0.50400001928E-02 0.  1.
       -1    1    3    3    0  502 -0.83847710302E+03 -0.53095601926E+03 -0.14280311558E+04  0.17390316641E+04  0.50400001928E-02 0. -1.
</event>
<event>
 5   0  0.9763851E-08  0.2902431E+04  0.7818609E-02  0.8272154E-01
        1   -1    0    0  501    0  0.00000000000E+00  0.00000000000E+00  0.16359326056E+04  0.16359326056E+04  0.50400001928E-02 0.  1.
       -1   -1    0    0    0  501  0.00000000000E+00  0.00000000000E+00 -0.12873554973E+04  0.12873554973E+04  0.50400001928E-02 0. -1.
    10030    2    1    2    0    0  0.00000000000E+00  0.00000000000E+00  0.34857710829E+03  0.29232881030E+04  0.29024312796E+04 0.  0.
        3    1    3    3  502    0  0.80697558728E+03 -0.10934461444E+04 -0.33847966626E+03  0.14005008261E+04  0.10100000352E+00 0.  1.
       -3    1    3    3    0  502 -0.80697558728E+03  0.10934461444E+04  0.68705677455E+03  0.15227872769E+04  0.10100000352E+00 0. -1.
</event>
<event>
 5   0  0.2546841E-07  0.2899221E+04  0.7818609E-02  0.8273109E-01
        2   -1    0    0  501    0  0.00000000000E+00  0.00000000000E+00  0.15601184951E+04  0.15601184951E+04  0.25500000920E-02 0.  1.
       -2   -1    0    0    0  501  0.00000000000E+00  0.00000000000E+00 -0.13469303095E+04  0.13469303095E+04  0.25500000920E-02 0. -1.
    10030    2    1    2    0    0  0.00000000000E+00  0.00000000000E+00  0.21318818562E+03  0.29070488046E+04  0.28992211971E+04 0.  0.
        1    1    3    3  502    0 -0.16737401525E+03 -0.30587923212E+03 -0.13042565900E+04  0.13500597832E+04  0.50400001928E-02 0. -1.
       -1    1    3    3    0  502  0.16737401525E+03  0.30587923212E+03  0.15174447756E+04  0.15569890214E+04  0.50400001928E-02 0.  1.
</event>
<event>
 5   0  0.2546841E-07  0.2900647E+04  0.7818609E-02  0.8272685E-01
       -2   -1    0    0    0  501  0.00000000000E+00  0.00000000000E+00  0.10542878962E+04  0.10542878962E+04  0.25500000920E-02 0. -1.
        2   -1    0    0  501    0  0.00000000000E+00  0.00000000000E+00 -0.19951273831E+04  0.19951273831E+04  0.25500000920E-02 0.  1.
    10030    2    1    2    0    0  0.00000000000E+00  0.00000000000E+00 -0.94083948688E+03  0.30494152793E+04  0.29006472736E+04 0.  0.
        1    1    3    3  502    0 -0.12371322359E+04  0.70269136299E+03 -0.17462213927E+03  0.14334448759E+04  0.50400001928E-02 0. -1.
       -1    1    3    3    0  502  0.12371322359E+04 -0.70269136299E+03 -0.76621734761E+03  0.16159704034E+04  0.50400001928E-02 0.  1.
</event>
<event>
 5   0  0.2678723E-07  0.2900224E+04  0.7818609E-02  0.8272811E-01
        2   -1    0    0  501    0  0.00000000000E+00  0.00000000000E+00  0.20088960401E+04  0.20088960401E+04  0.25500000920E-02 0. -1.
       -2   -1    0    0    0  501  0.00000000000E+00  0.00000000000E+00 -0.10467562647E+04  0.10467562647E+04  0.25500000920E-02 0.  1.
    10030    2    1    2    0    0  0.00000000000E+00  0.00000000000E+00  0.96213977546E+03  0.30556523048E+04  0.29002237949E+04 0.  0.
        5    1    3    3  502    0 -0.50611027537E+03  0.41657193099E+03 -0.88174325153E+03  0.10987142650E+04  0.46999998093E+01 0.  1.
       -5    1    3    3    0  502  0.50611027537E+03 -0.41657193099E+03  0.18438830270E+04  0.19569380398E+04  0.46999998093E+01 0. -1.
</event>
<event>
 5   0  0.2534588E-07  0.2903393E+04  0.7818609E-02  0.8271869E-01
       -2   -1    0    0    0  501  0.00000000000E+00  0.00000000000E+00  0.81997360740E+03  0.81997360740E+03  0.25500000920E-02 0.  1.
        2   -1    0    0  501    0  0.00000000000E+00  0.00000000000E+00 -0.25701108625E+04  0.25701108625E+04  0.25500000920E-02 0. -1.
    10030    2    1    2    0    0  0.00000000000E+00  0.00000000000E+00 -0.17501372551E+04  0.33900844699E+04  0.29033932392E+04 0.  0.
        3    1    3    3  502    0 -0.39979970818E+03  0.13921037480E+04 -0.76048379832E+03  0.16358876091E+04  0.10100000352E+00 0.  1.
       -3    1    3    3    0  502  0.39979970818E+03 -0.13921037480E+04 -0.98965345681E+03  0.17541968609E+04  0.10100000352E+00 0. -1.
</event>
<event>
 5   0  0.9421924E-08  0.2900102E+04  0.7818609E-02  0.8272847E-01
        1   -1    0    0  501    0  0.00000000000E+00  0.00000000000E+00  0.20918858554E+04  0.20918858554E+04  0.50400001928E-02 0.  1.
       -1   -1    0    0    0  501  0.00000000000E+00  0.00000000000E+00 -0.10051444825E+04  0.10051444825E+04  0.50400001928E-02 0. -1.
    10030    2    1    2    0    0  0.00000000000E+00  0.00000000000E+00  0.10867413729E+04  0.30970303380E+04  0.29001017401E+04 0.  0.
        1    1    3    3  502    0 -0.36864066305E+03 -0.12524426718E+04 -0.13045809050E+03  0.13120700812E+04  0.50400001928E-02 0. -1.
       -1    1    3    3    0  502  0.36864066305E+03  0.12524426718E+04  0.12171994634E+04  0.17849602568E+04  0.50400001928E-02 0.  1.
</event>
<event>
 5   0  0.9421924E-08  0.2900521E+04  0.7818609E-02  0.8272722E-01
       -1   -1    0    0    0  501  0.00000000000E+00  0.00000000000E+00  0.93927290370E+03  0.93927290372E+03  0.50400001928E-02 0. -1.
        1   -1    0    0  501    0  0.00000000000E+00  0.00000000000E+00 -0.22392386393E+04  0.22392386393E+04  0.50400001928E-02 0.  1.
    10030    2    1    2    0    0  0.00000000000E+00  0.00000000000E+00 -0.12999657356E+04  0.31785115431E+04  0.29005214558E+04 0.  0.
        1    1    3    3  502    0  0.37203623812E+02 -0.71635910053E+03  0.73125632126E+03  0.10243487092E+04  0.50400001928E-02 0. -1.
       -1    1    3    3    0  502 -0.37203623812E+02  0.71635910053E+03 -0.20312220569E+04  0.21541628339E+04  0.50400001928E-02 0.  1.
</event>
<event>
 5   0  0.9763851E-08  0.2901215E+04  0.7818609E-02  0.8272516E-01
        1   -1    0    0  501    0  0.00000000000E+00  0.00000000000E+00  0.23148218965E+04  0.23148218965E+04  0.50400001928E-02 0.  1.
       -1   -1    0    0    0  501  0.00000000000E+00  0.00000000000E+00 -0.90903872128E+03  0.90903872129E+03  0.50400001928E-02 0. -1.
    10030    2    1    2    0    0  0.00000000000E+00  0.00000000000E+00  0.14057831752E+04  0.32238606178E+04  0.29012154259E+04 0.  0.
        3    1    3    3  502    0 -0.76544951597E+03 -0.52055911711E+03  0.19439538591E+04  0.21531027315E+04  0.10100000352E+00 0.  1.
       -3    1    3    3    0  502  0.76544951597E+03  0.52055911711E+03 -0.53817068387E+03  0.10707578863E+04  0.10100000352E+00 0. -1.
</event>
<event>
 5   0  0.2678723E-07  0.2906884E+04  0.7818609E-02  0.8270832E-01
       -2   -1    0    0    0  501  0.00000000000E+00  0.00000000000E+00  0.14722705533E+04  0.14722705533E+04  0.25500000920E-02 0. -1.
        2   -1    0    0  501    0  0.00000000000E+00  0.00000000000E+00 -0.14348538163E+04  0.14348538163E+04  0.25500000920E-02 0.  1.
    10030    2    1    2    0    0  0.00000000000E+00  0.00000000000E+00  0.37416737001E+02  0.29071243696E+04  0.29068835698E+04 0.  0.
        5    1    3    3  502    0  0.39744756684E+03 -0.12544651560E+04  0.63586850318E+03  0.14615054702E+04  0.46999998093E+01 0. -1.
       -5    1    3    3    0  502 -0.39744756684E+03  0.12544651560E+04 -0.59845176618E+03  0.14456188994E+04  0.46999998093E+01 0.  1.
</event>
<event>
 5   0  0.2546841E-07  0.2901962E+04  0.7818609E-02  0.8272294E-01
        2   -1    0    0  501    0  0.00000000000E+00  0.00000000000E+00  0.21532912081E+04  0.21532912081E+04  0.25500000920E-02 0.  1.
       -2   -1    0    0    0  501  0.00000000000E+00  0.00000000000E+00 -0.97773380947E+03  0.97773380948E+03  0.25500000920E-02 0. -1.
    10030    2    1    2    0    0  0.00000000000E+00  0.00000000000E+00  0.11755573986E+04  0.31310250175E+04  0.29019618300E+04 0.  0.
        1    1    3    3  502    0  0.39332638692E+03  0.67090621704E+03  0.19094286169E+04  0.20617319035E+04  0.50400001928E-02 0.  1.
       -1    1    3    3    0  502 -0.39332638692E+03 -0.67090621704E+03 -0.73387121831E+03  0.10692931141E+04  0.50400001928E-02 0. -1.
</event>
<event>
 5   0  0.9388076E-08  0.2897942E+04  0.7818609E-02  0.8273490E-01
       -1   -1    0    0    0  501  0.00000000000E+00  0.00000000000E+00  0.16944010761E+04  0.16944010761E+04  0.50400001928E-02 0. -1.
        1   -1    0    0  501    0  0.00000000000E+00  0.00000000000E+00 -0.12390911123E+04  0.12390911123E+04  0.50400001928E-02 0.  1.
    10030    2    1    2    0    0  0.00000000000E+00  0.00000000000E+00  0.45530996379E+03  0.29334921884E+04  0.28979422451E+04 0.  0.
        5    1    3    3  502    0 -0.11613353817E+04  0.26247228439E+03  0.10635595899E+04  0.15964876010E+04  0.46999998093E+01 0. -1.
       -5    1    3    3    0  502  0.11613353817E+04 -0.26247228439E+03 -0.60824962614E+03  0.13370045873E+04  0.46999998093E+01 0.  1.
</event>
<event>
 5   0  0.9388076E-08  0.2897515E+04  0.7818609E-02  0.8273617E-01
        1   -1    0    0  501    0  0.00000000000E+00  0.00000000000E+00  0.13596498951E+04  0.13596498951E+04  0.50400001928E-02 0. -1.
       -1   -1    0    0    0  501  0.00000000000E+00  0.00000000000E+00 -0.15437049552E+04  0.15437049552E+04  0.50400001928E-02 0.  1.
    10030    2    1    2    0    0  0.00000000000E+00  0.00000000000E+00 -0.18405506011E+03  0.29033548503E+04  0.28975149907E+04 0.  0.
        5    1    3    3  502    0 -0.91869748338E+03  0.65092015550E+03 -0.10055524983E+04  0.15095893586E+04  0.46999998093E+01 0.  1.
       -5    1    3    3    0  502  0.91869748338E+03 -0.65092015550E+03  0.82149743819E+03  0.13937654917E+04  0.46999998093E+01 0. -1.
</event>
<event>
 5   0  0.2546841E-07  0.2901226E+04  0.7818609E-02  0.8272513E-01
        2   -1    0    0  501    0  0.00000000000E+00  0.00000000000E+00  0.13944907303E+04  0.13944907303E+04  0.25500000920E-02 0.  1.
       -2   -1    0    0    0  501  0.00000000000E+00  0.00000000000E+00 -0.15089938828E+04  0.15089938828E+04  0.25500000920E-02 0. -1.
    10030    2    1    2    0    0  0.00000000000E+00  0.00000000000E+00 -0.11450315246E+03  0.29034846131E+04  0.29012259351E+04 0.  0.
        1    1    3    3  502    0 -0.59768808974E+03 -0.11496843550E+04 -0.70988872037E+03  0.14774800046E+04  0.50400001928E-02 0. -1.
       -1    1    3    3    0  502  0.59768808974E+03  0.11496843550E+04  0.59538556791E+03  0.14260046084E+04  0.50400001928E-02 0.  1.
</event>
<event>
 5   0  0.9763851E-08  0.2881540E+04  0.7818609E-02  0.8278391E-01
        1   -1    0    0  501    0  0.00000000000E+00  0.00000000000E+00  0.18551339066E+04  0.18551339067E+04  0.50400001928E-02 0. -1.
       -1   -1    0    0    0  501  0.00000000000E+00  0.00000000000E+00 -0.11189586107E+04  0.11189586107E+04  0.50400001928E-02 0.  1.
    10030    2    1    2    0    0  0.00000000000E+00  0.00000000000E+00  0.73617529593E+03  0.29740925174E+04  0.28815399070E+04 0.  0.
        3    1    3    3  502    0 -0.28808793916E+03  0.32853185025E+03  0.17850974853E+04  0.18377978343E+04  0.10100000352E+00 0. -1.
       -3    1    3    3    0  502  0.28808793916E+03 -0.32853185025E+03 -0.10489221894E+04  0.11362946831E+04  0.10100000352E+00 0.  1.
</event>
<event>
 5   0  0.9395744E-08  0.2900201E+04  0.7818609E-02  0.8272818E-01
       -1   -1    0    0    0  501  0.00000000000E+00  0.00000000000E+00  0.75442434876E+03  0.75442434877E+03  0.50400001928E-02 0. -1.
        1   -1    0    0  501    0  0.00000000000E+00  0.00000000000E+00 -0.27872796000E+04  0.27872796000E+04  0.50400001928E-02 0.  1.
    10030    2    1    2    0    0  0.00000000000E+00  0.00000000000E+00 -0.20328552512E+04  0.35417039487E+04  0.29002010944E+04 0.  0.
        2    1    3    3  502    0  0.65148938984E+03  0.58508881827E+02  0.56402855452E+03  0.86370708266E+03  0.25500000920E-02 0. -1.
       -2    1    3    3    0  502 -0.65148938984E+03 -0.58508881827E+02 -0.25968838057E+04  0.26779968661E+04  0.25500000920E-02 0.  1.
</event>
<event>
 5   0  0.9443352E-08  0.2901726E+04  0.7818609E-02  0.8272364E-01
        1   -1    0    0  501    0  0.00000000000E+00  0.00000000000E+00  0.24102187595E+04  0.24102187595E+04  0.50400001928E-02 0. -1.
       -1   -1    0    0    0  501  0.00000000000E+00  0.00000000000E+00 -0.87336640583E+03  0.87336640584E+03  0.50400001928E-02 0.  1.
    10030    2    1    2    0    0  0.00000000000E+00  0.00000000000E+00  0.15368523536E+04  0.32835851653E+04  0.29017264483E+04 0.  0.
        4    1    3    3  502    0  0.64047833681E+03  0.75737896156E+03  0.19666197548E+04  0.22025962554E+04  0.12699999809E+01 0. -1.
       -4    1    3    3    0  502 -0.64047833681E+03 -0.75737896156E+03 -0.42976740119E+03  0.10809889099E+04  0.12699999809E+01 0.  1.
</event>
<event>
 5   0  0.9443352E-08  0.2899851E+04  0.7818609E-02  0.8272922E-01
        1   -1    0    0  501    0  0.00000000000E+00  0.00000000000E+00  0.15455796798E+04  0.15455796798E+04  0.50400001928E-02 0. -1.
       -1   -1    0    0    0  501  0.00000000000E+00  0.00000000000E+00 -0.13601908259E+04  0.13601908259E+04  0.50400001928E-02 0.  1.
    10030    2    1    2    0    0  0.00000000000E+00  0.00000000000E+00  0.18538885385E+03  0.29057705057E+04  0.28998505487E+04 0.  0.
        4    1    3    3  502    0  0.76151544167E+03 -0.92928001243E+03 -0.72063651714E+03  0.14009945439E+04  0.12699999809E+01 0.  1.
       -4    1    3    3    0  502 -0.76151544167E+03  0.92928001243E+03  0.90602537099E+03  0.15047759618E+04  0.12699999809E+01 0. -1.
</event>
<event>
 5   0  0.9421924E-08  0.2901863E+04  0.7818609E-02  0.8272323E-01
        1   -1    0    0  501    0  0.00000000000E+00  0.00000000000E+00  0.93467330895E+03  0.93467330897E+03  0.50400001928E-02 0. -1.
       -1   -1    0    0    0  501  0.00000000000E+00  0.00000000000E+00 -0.22523407829E+04  0.22523407829E+04  0.50400001928E-02 0.  1.
    10030    2    1    2    0    0  0.00000000000E+00  0.00000000000E+00 -0.13176674739E+04  0.31870140919E+04  0.29018634099E+04 0.  0.
        1    1    3    3  502    0 -0.21230846950E+03  0.94919104540E+02  0.91407082109E+03  0.94319138493E+03  0.50400001928E-02 0. -1.
       -1    1    3    3    0  502  0.21230846950E+03 -0.94919104540E+02 -0.22317382950E+04  0.22438227069E+04  0.50400001928E-02 0.  1.
</event>
<event>
 5   0  0.9763851E-08  0.2899961E+04  0.7818609E-02  0.8272889E-01
       -1   -1    0    0    0  501  0.00000000000E+00  0.00000000000E+00  0.13737248378E+04  0.13737248378E+04  0.50400001928E-02 0. -1.
        1   -1    0    0  501    0  0.00000000000E+00  0.00000000000E+00 -0.15304691010E+04  0.15304691010E+04  0.50400001928E-02 0.  1.
    10030    2    1    2    0    0  0.00000000000E+00  0.00000000000E+00 -0.15674426320E+03  0.29041939388E+04  0.28999609774E+04 0.  0.
        3    1    3    3  502    0 -0.85358947369E+03  0.79111945679E+03  0.78773614613E+03  0.14053516395E+04  0.10100000352E+00 0. -1.
       -3    1    3    3    0  502  0.85358947369E+03 -0.79111945679E+03 -0.94448040934E+03  0.14988422994E+04  0.10100000352E+00 0.  1.
</event>
<event>
 5   0  0.9443352E-08  0.2900965E+04  0.7818609E-02  0.8272590E-01
        1   -1    0    0  501    0  0.00000000000E+00  0.00000000000E+00  0.17673634378E+04  0.17673634378E+04  0.50400001928E-02 0.  1.
       -1   -1    0    0    0  501  0.00000000000E+00  0.00000000000E+00 -0.11904170101E+04  0.11904170101E+04  0.50400001928E-02 0. -1.
    10030    2    1    2    0    0  0.00000000000E+00  0.00000000000E+00  0.57694642770E+03  0.29577804480E+04  0.29009650115E+04 0.  0.
        4    1    3    3  502    0  0.50498968335E+03 -0.13323478057E+04  0.11617616340E+02  0.14248866051E+04  0.12699999809E+01 0.  1.
       -4    1    3    3    0  502 -0.50498968335E+03  0.13323478057E+04  0.56532881136E+03  0.15328938428E+04  0.12699999809E+01 0. -1.
</event>
<event>
 5   0  0.2534588E-07  0.2891494E+04  0.7818609E-02  0.8275413E-01
       -2   -1    0    0    0  501  0.00000000000E+00  0.00000000000E+00  0.68746913410E+03  0.68746913410E+03  0.25500000920E-02 0.  1.
        2   -1    0    0  501    0  0.00000000000E+00  0.00000000000E+00 -0.30404038615E+04  0.30404038615E+04  0.25500000920E-02 0. -1.
    10030    2    1    2    0    0  0.00000000000E+00  0.00000000000E+00 -0.23529347274E+04  0.37278729956E+04  0.28914936002E+04 0.  0.
        3    1    3    3  502    0  0.57701968268E+03  0.53685112116E+01  0.53256337228E+03  0.78524154934E+03  0.10100000352E+00 0.  1.
       -3    1    3    3    0  502 -0.57701968268E+03 -0.53685112116E+01 -0.28854980997E+04  0.29426314463E+04  0.10100000352E+00 0. -1.
</event>
<event>
 5   0  0.9395744E-08  0.2900857E+04  0.7818609E-02  0.8272623E-01
        1   -1    0    0  501    0  0.00000000000E+00  0.00000000000E+00  0.10636437750E+04  0.10636437750E+04  0.50400001928E-02 0.  1.
       -1   -1    0    0    0  501  0.00000000000E+00  0.00000000000E+00 -0.19778634842E+04  0.19778634842E+04  0.50400001928E-02 0. -1.
    10030    2    1    2    0    0  0.00000000000E+00  0.00000000000E+00 -0.91421970915E+03  0.30415072592E+04  0.29008565513E+04 0.  0.
        2    1    3    3  502    0 -0.13119379799E+04  0.60983638614E+03 -0.56536571785E+03  0.15532933000E+04  0.25500000920E-02 0.  1.
       -2    1    3    3    0  502  0.13119379799E+04 -0.60983638614E+03 -0.34885399130E+03  0.14882139592E+04  0.25500000920E-02 0. -1.
</event>
<event>
 5   0  0.9763851E-08  0.2899049E+04  0.7818609E-02  0.8273160E-01
        1   -1    0    0  501    0  0.00000000000E+00  0.00000000000E+00  0.18587981506E+04  0.18587981506E+04  0.50400001928E-02 0.  1.
       -1   -1    0    0    0  501  0.00000000000E+00  0.00000000000E+00 -0.11303654398E+04  0.11303654398E+04  0.50400001928E-02 0. -1.
    10030    2    1    2    0    0  0.00000000000E+00  0.00000000000E+00  0.72843271074E+03  0.29891635904E+04  0.28990489399E+04 0.  0.
        3    1    3    3  502    0 -0.46491235267E+03 -0.50835785741E+03 -0.95078997053E+03  0.11741263923E+04  0.10100000352E+00 0. -1.
       -3    1    3    3    0  502  0.46491235267E+03  0.50835785741E+03  0.16792226813E+04  0.18150371981E+04  0.10100000352E+00 0.  1.
</event>
<event>
 5   0  0.9395744E-08  0.2900049E+04  0.7818609E-02  0.8272863E-01
        1   -1    0    0  501    0  0.00000000000E+00  0.00000000000E+00  0.15046859869E+04  0.15046859869E+04  0.50400001928E-02 0. -1.
       -1   -1    0    0    0  501  0.00000000000E+00  0.00000000000E+00 -0.13973488418E+04  0.13973488418E+04  0.50400001928E-02 0.  1.
    10030    2    1    2    0    0  0.00000000000E+00  0.00000000000E+00  0.10733714516E+03  0.29020348287E+04  0.29000491176E+04 0.  0.
        2    1    3    3  502    0 -0.12651943225E+04 -0.70160420397E+03  0.15174633623E+03  0.14546450025E+04  0.25500000920E-02 0. -1.
       -2    1    3    3    0  502  0.12651943225E+04  0.70160420397E+03 -0.44409191065E+02  0.14473898262E+04  0.25500000920E-02 0.  1.
</event>
<event>
 5   0  0.2546841E-07  0.2899634E+04  0.7818609E-02  0.8272986E-01
        2   -1    0    0  501    0  0.00000000000E+00  0.00000000000E+00  0.18171979933E+04  0.18171979933E+04  0.25500000920E-02 0.  1.
       -2   -1    0    0    0  501  0.00000000000E+00  0.00000000000E+00 -0.11567093465E+04  0.11567093465E+04  0.25500000920E-02 0. -1.
    10030    2    1    2    0    0  0.00000000000E+00  0.00000000000E+00  0.66048864679E+03  0.29739073398E+04  0.28996343930E+04 0.  0.
        1    1    3    3  502    0  0.17868744675E+03  0.11431575870E+04  0.12262532035E+04  0.16859523693E+04  0.50400001928E-02 0.  1.
       -1    1    3    3    0  502 -0.17868744675E+03 -0.11431575870E+04 -0.56576455676E+03  0.12879549705E+04  0.50400001928E-02 0. -1.
</event>
<event>
 5   0  0.9421924E-08  0.2897350E+04  0.7818609E-02  0.8273666E-01
       -1   -1    0    0    0  501  0.00000000000E+00  0.00000000000E+00  0.95132202474E+03  0.95132202475E+03  0.50400001928E-02 0. -1.
        1   -1    0    0  501    0  0.00000000000E+00  0.00000000000E+00 -0.22060456936E+04  0.22060456936E+04  0.50400001928E-02 0.  1.
    10030    2    1    2    0    0  0.00000000000E+00  0.00000000000E+00 -0.12547236688E+04  0.31573677183E+04  0.28973504144E+04 0.  0.
        1    1    3    3  502    0 -0.14213490122E+04  0.26530514714E+03 -0.72507491639E+03  0.16175145965E+04  0.50400001928E-02 0. -1.
       -1    1    3    3    0  502  0.14213490122E+04 -0.26530514714E+03 -0.52964875243E+03  0.15398531218E+04  0.50400001928E-02 0.  1.
</event>
<event>
 5   0  0.2608591E-07  0.2899503E+04  0.7818609E-02  0.8273025E-01
        2   -1    0    0  501    0  0.00000000000E+00  0.00000000000E+00  0.15733548799E+04  0.15733548799E+04  0.25500000920E-02 0. -1.
       -2   -1    0    0    0  501  0.00000000000E+00  0.00000000000E+00 -0.13358580477E+04  0.13358580477E+04  0.25500000920E-02 0.  1.
    10030    2    1    2    0    0  0.00000000000E+00  0.00000000000E+00  0.23749683214E+03  0.29092129276E+04  0.28995025630E+04 0.  0.
        2    1    3    3  502    0  0.10442037695E+04  0.10025852335E+04  0.19800736837E+03  0.14610768565E+04  0.25500000920E-02 0.  1.
       -2    1    3    3    0  502 -0.10442037695E+04 -0.10025852335E+04  0.39489463776E+02  0.14481360711E+04  0.25500000920E-02 0. -1.
</event>
<event>
 5   0  0.8407500E-08  0.2901115E+04  0.7818609E-02  0.8272546E-01
        3   -1    0    0  501    0  0.00000000000E+00  0.00000000000E+00  0.10666402040E+04  0.10666402088E+04  0.10100000352E+00 0.  1.
       -3   -1    0    0    0  501  0.00000000000E+00  0.00000000000E+00 -0.19726591417E+04  0.19726591443E+04  0.10100000352E+00 0. -1.
    10030    2    1    2    0    0  0.00000000000E+00  0.00000000000E+00 -0.90601893771E+03  0.30392993532E+04  0.29011153446E+04 0.  0.
        3    1    3    3  502    0 -0.17079372102E+03  0.10817633628E+04 -0.14494908695E+04  0.18167020282E+04  0.10100000352E+00 0. -1.
       -3    1    3    3    0  502  0.17079372102E+03 -0.10817633628E+04  0.54347193175E+03  0.12225973250E+04  0.10100000352E+00 0.  1.
</event>
<event>
 5   0  0.9421924E-08  0.2905704E+04  0.7818609E-02  0.8271182E-01
       -1   -1    0    0    0  501  0.00000000000E+00  0.00000000000E+00  0.91281699574E+03  0.91281699575E+03  0.50400001928E-02 0. -1.
        1   -1    0    0  501    0  0.00000000000E+00  0.00000000000E+00 -0.23123788463E+04  0.23123788463E+04  0.50400001928E-02 0.  1.
    10030    2    1    2    0    0  0.00000000000E+00  0.00000000000E+00 -0.13995618505E+04  0.32251958420E+04  0.29057038469E+04 0.  0.
        1    1    3    3  502    0  0.40029387058E+03 -0.13626798904E+04 -0.10394466943E+04  0.17599946298E+04  0.50400001928E-02 0.  1.
       -1    1    3    3    0  502 -0.40029387058E+03  0.13626798904E+04 -0.36011515628E+03  0.14652012123E+04  0.50400001928E-02 0. -1.
</event>
<event>
 5   0  0.9763851E-08  0.2898223E+04  0.7818609E-02  0.8273406E-01
        1   -1    0    0  501    0  0.00000000000E+00  0.00000000000E+00  0.16451431670E+04  0.16451431670E+04  0.50400001928E-02 0.  1.
       -1   -1    0    0    0  501  0.00000000000E+00  0.00000000000E+00 -0.12764383360E+04  0.12764383360E+04  0.50400001928E-02 0. -1.
    10030    2    1    2    0    0  0.00000000000E+00  0.00000000000E+00  0.36870483097E+03  0.29215815030E+04  0.28982227703E+04 0.  0.
        3    1    3    3  502    0  0.12125112480E+03  0.77664952345E+02  0.16379136866E+04  0.16442308035E+04  0.10100000352E+00 0.  1.
       -3    1    3    3    0  502 -0.12125112480E+03 -0.77664952345E+02 -0.12692088557E+04  0.12773506995E+04  0.10100000352E+00 0. -1.
</event>
<event>
 5   0  0.2534588E-07  0.2900700E+04  0.7818609E-02  0.8272669E-01
        2   -1    0    0  501    0  0.00000000000E+00  0.00000000000E+00  0.26543903414E+04  0.26543903414E+04  0.25500000920E-02 0. -1.
       -2   -1    0    0    0  501  0.00000000000E+00  0.00000000000E+00 -0.79246617909E+03  0.79246617910E+03  0.25500000920E-02 0.  1.
    10030    2    1    2    0    0  0.00000000000E+00  0.00000000000E+00  0.18619241623E+04  0.34468565205E+04  0.29006996202E+04 0.  0.
        3    1    3    3  502    0  0.99833590509E+03 -0.66673621331E+03 -0.36087507472E+02  0.12010470748E+04  0.10100000352E+00 0.  1.
       -3    1    3    3    0  502 -0.99833590509E+03  0.66673621331E+03  0.18980116698E+04  0.22458094457E+04  0.10100000352E+00 0. -1.
</event>
<event>
 5   0  0.2492232E-07  0.2880717E+04  0.7818609E-02  0.8278638E-01
       -2   -1    0    0    0  501  0.00000000000E+00  0.00000000000E+00  0.18895605664E+04  0.18895605665E+04  0.25500000920E-02 0. -1.
        2   -1    0    0  501    0  0.00000000000E+00  0.00000000000E+00 -0.10979444203E+04  0.10979444203E+04  0.25500000920E-02 0.  1.
    10030    2    1    2    0    0  0.00000000000E+00  0.00000000000E+00  0.79161614611E+03  0.29875049868E+04  0.28807169114E+04 0.  0.
        4    1    3    3  502    0  0.94688232928E+03  0.98834370005E+03 -0.69397808742E+02  0.13704842515E+04  0.12699999809E+01 0.  1.
       -4    1    3    3    0  502 -0.94688232928E+03 -0.98834370005E+03  0.86101395485E+03  0.16170207353E+04  0.12699999809E+01 0. -1.
</event>
<event>
 5   0  0.9421924E-08  0.2900378E+04  0.7818609E-02  0.8272765E-01
        1   -1    0    0  501    0  0.00000000000E+00  0.00000000000E+00  0.17403267939E+04  0.17403267939E+04  0.50400001928E-02 0. -1.
       -1   -1    0    0    0  501  0.00000000000E+00  0.00000000000E+00 -0.12084216440E+04  0.12084216440E+04  0.50400001928E-02 0.  1.
    10030    2    1    2    0    0  0.00000000000E+00  0.00000000000E+00  0.53190514997E+03  0.29487484379E+04  0.29003782963E+04 0.  0.
        1    1    3    3  502    0 -0.19822726215E+03  0.58875658372E+03 -0.10662903612E+04  0.12340597623E+04  0.50400001928E-02 0.  1.
       -1    1    3    3    0  502  0.19822726215E+03 -0.58875658372E+03  0.15981955112E+04  0.17146886757E+04  0.50400001928E-02 0. -1.
</event>
<event>
 5   0  0.9388076E-08  0.2898293E+04  0.7818609E-02  0.8273386E-01
       -1   -1    0    0    0  501  0.00000000000E+00  0.00000000000E+00  0.11333087564E+04  0.11333087565E+04  0.50400001928E-02 0.  1.
        1   -1    0    0  501    0  0.00000000000E+00  0.00000000000E+00 -0.18530033782E+04  0.18530033782E+04  0.50400001928E-02 0. -1.
    10030    2    1    2    0    0  0.00000000000E+00  0.00000000000E+00 -0.71969462173E+03  0.29863121346E+04  0.28982925692E+04 0.  0.
        5    1    3    3  502    0 -0.73991452276E+03 -0.98542146580E+03 -0.11455497254E+04  0.16825086120E+04  0.46999998093E+01 0. -1.
       -5    1    3    3    0  502  0.73991452276E+03  0.98542146580E+03  0.42585510366E+03  0.13038035226E+04  0.46999998093E+01 0.  1.
</event>
<event>
 5   0  0.2534588E-07  0.2899293E+04  0.7818609E-02  0.8273088E-01
        2   -1    0    0  501    0  0.00000000000E+00  0.00000000000E+00  0.24304482886E+04  0.24304482886E+04  0.25500000920E-02 0. -1.
       -2   -1    0    0    0  501  0.00000000000E+00  0.00000000000E+00 -0.86464517619E+03  0.86464517619E+03  0.25500000920E-02 0.  1.
    10030    2    1    2    0    0  0.00000000000E+00  0.00000000000E+00  0.15658031124E+04  0.32950934648E+04  0.28992932854E+04 0.  0.
        3    1    3    3  502    0  0.71446085367E+03  0.61366069882E+03 -0.46955856937E+03  0.10523872980E+04  0.10100000352E+00 0.  1.
       -3    1    3    3    0  502 -0.71446085367E+03 -0.61366069882E+03  0.20353616818E+04  0.22427061668E+04  0.10100000352E+00 0. -1.
</event>
<event>
 5   0  0.9443352E-08  0.2899849E+04  0.7818609E-02  0.8272922E-01
       -1   -1    0    0    0  501  0.00000000000E+00  0.00000000000E+00  0.85768889443E+03  0.85768889445E+03  0.50400001928E-02 0.  1.
        1   -1    0    0  501    0  0.00000000000E+00  0.00000000000E+00 -0.24511001538E+04  0.24511001538E+04  0.50400001928E-02 0. -1.
    10030    2    1    2    0    0  0.00000000000E+00  0.00000000000E+00 -0.15934112594E+04  0.33087890483E+04  0.28998492244E+04 0.  0.
        4    1    3    3  502    0 -0.44735365821E+03 -0.12911229506E+04 -0.24339158599E+03  0.13879354618E+04  0.12699999809E+01 0.  1.
       -4    1    3    3    0  502  0.44735365821E+03  0.12911229506E+04 -0.13500196734E+04  0.19208535864E+04  0.12699999809E+01 0. -1.
</event>
<event>
 5   0  0.2534588E-07  0.2900060E+04  0.7818609E-02  0.8272860E-01
        2   -1    0    0  501    0  0.00000000000E+00  0.00000000000E+00  0.84057220969E+03  0.84057220969E+03  0.25500000920E-02 0.  1.
       -2   -1    0    0    0  501  0.00000000000E+00  0.00000000000E+00 -0.25013762813E+04  0.25013762813E+04  0.25500000920E-02 0. -1.
    10030    2    1    2    0    0  0.00000000000E+00  0.00000000000E+00 -0.16608040716E+04  0.33419484910E+04  0.29000602670E+04 0.  0.
        3    1    3    3  502    0  0.10761171212E+04 -0.29061428985E+03 -0.18991317209E+04  0.22020867438E+04  0.10100000352E+00 0. -1.
       -3    1    3    3    0  502 -0.10761171212E+04  0.29061428985E+03  0.23832764923E+03  0.11398617472E+04  0.10100000352E+00 0.  1.
</event>
<event>
 5   0  0.8407500E-08  0.2900237E+04  0.7818609E-02  0.8272807E-01
        3   -1    0    0  501    0  0.00000000000E+00  0.00000000000E+00  0.97623499023E+03  0.97623499546E+03  0.10100000352E+00 0.  1.
       -3   -1    0    0    0  501  0.00000000000E+00  0.00000000000E+00 -0.21540343805E+04  0.21540343829E+04  0.10100000352E+00 0. -1.
    10030    2    1    2    0    0  0.00000000000E+00  0.00000000000E+00 -0.11777993903E+04  0.31302693783E+04  0.29002370553E+04 0.  0.
        4    1    3    3  502    0 -0.64146628704E+03 -0.77153626751E+03  0.54108431637E+03  0.11399653766E+04  0.12699999809E+01 0.  1.
       -4    1    3    3    0  502  0.64146628704E+03  0.77153626751E+03 -0.17188837066E+04  0.19903040017E+04  0.12699999809E+01 0. -1.
</event>
<event>
 5   0  0.9395744E-08  0.2899416E+04  0.7818609E-02  0.8273051E-01
       -1   -1    0    0    0  501  0.00000000000E+00  0.00000000000E+00  0.84375808548E+03  0.84375808550E+03  0.50400001928E-02 0. -1.
        1   -1    0    0  501    0  0.00000000000E+00  0.00000000000E+00 -0.24908239120E+04  0.24908239120E+04  0.50400001928E-02 0.  1.
    10030    2    1    2    0    0  0.00000000000E+00  0.00000000000E+00 -0.16470658265E+04  0.33345819975E+04  0.28994156758E+04 0.  0.
        2    1    3    3  502    0  0.12452729693E+04 -0.41866287104E+03 -0.11862261286E+03  0.13191113266E+04  0.25500000920E-02 0. -1.
       -2    1    3    3    0  502 -0.12452729693E+04  0.41866287104E+03 -0.15284432137E+04  0.20154706709E+04  0.25500000920E-02 0.  1.
</event>
<event>
 5   0  0.2678723E-07  0.2900190E+04  0.7818609E-02  0.8272821E-01
       -2   -1    0    0    0  501  0.00000000000E+00  0.00000000000E+00  0.15155649213E+04  0.15155649213E+04  0.25500000920E-02 0. -1.
        2   -1    0    0  501    0  0.00000000000E+00  0.00000000000E+00 -0.13874530538E+04  0.13874530538E+04  0.25500000920E-02 0.  1.
    10030    2    1    2    0    0  0.00000000000E+00  0.00000000000E+00  0.12811186747E+03  0.29030179751E+04  0.29001897719E+04 0.  0.
        5    1    3    3  502    0 -0.35052760729E+02 -0.33259199702E+03 -0.13483150618E+04  0.13891802361E+04  0.46999998093E+01 0.  1.
       -5    1    3    3    0  502  0.35052760729E+02  0.33259199702E+03  0.14764269293E+04  0.15138377390E+04  0.46999998093E+01 0. -1.
</event>
<event>
 5   0  0.9421924E-08  0.2901323E+04  0.7818609E-02  0.8272484E-01
        1   -1    0    0  501    0  0.00000000000E+00  0.00000000000E+00  0.19341538015E+04  0.19341538015E+04  0.50400001928E-02 0.  1.
       -1   -1    0    0    0  501  0.00000000000E+00  0.00000000000E+00 -0.10880306097E+04  0.10880306098E+04  0.50400001928E-02 0. -1.
    10030    2    1    2    0    0  0.00000000000E+00  0.00000000000E+00  0.84612319170E+03  0.30221844112E+04  0.29013228293E+04 0.  0.
        1    1    3    3  502    0  0.45268215656E+03  0.49993907308E+03 -0.91479247416E+03  0.11365322180E+04  0.50400001928E-02 0. -1.
       -1    1    3    3    0  502 -0.45268215656E+03 -0.49993907308E+03  0.17609156659E+04  0.18856521933E+04  0.50400001928E-02 0.  1.
</event>
<event>
 5   0  0.9421924E-08  0.2898832E+04  0.7818609E-02  0.8273225E-01
        1   -1    0    0  501    0  0.00000000000E+00  0.00000000000E+00  0.19120054463E+04  0.19120054463E+04  0.50400001928E-02 0. -1.
       -1   -1    0    0    0  501  0.00000000000E+00  0.00000000000E+00 -0.10987453348E+04  0.10987453348E+04  0.50400001928E-02 0.  1.
    10030    2    1    2    0    0  0.00000000000E+00  0.00000000000E+00  0.81326011150E+03  0.30107507811E+04  0.28988322229E+04 0.  0.
        1    1    3    3  502    0  0.13556902665E+03  0.13967104242E+04  0.29816928687E+02  0.14035911154E+04  0.50400001928E-02 0.  1.
       -1    1    3    3    0  502 -0.13556902665E+03 -0.13967104242E+04  0.78344318281E+03  0.16071596656E+04  0.50400001928E-02 0. -1.
</event>
<event>
 5   0  0.2534588E-07  0.2899836E+04  0.7818609E-02  0.8272926E-01
        2   -1    0    0  501    0  0.00000000000E+00  0.00000000000E+00  0.13262034391E+04  0.13262034391E+04  0.25500000920E-02 0. -1.
       -2   -1    0    0    0  501  0.00000000000E+00  0.00000000000E+00 -0.15851728755E+04  0.15851728755E+04  0.25500000920E-02 0.  1.
    10030    2    1    2    0    0  0.00000000000E+00  0.00000000000E+00 -0.25896943637E+03  0.29113763146E+04  0.28998356636E+04 0.  0.
        3    1    3    3  502    0 -0.70896560636E+03  0.11173191688E+04 -0.72448767364E+03  0.15086141838E+04  0.10100000352E+00 0.  1.
       -3    1    3    3    0  502  0.70896560636E+03 -0.11173191688E+04  0.46551823727E+03  0.14027621308E+04  0.10100000352E+00 0. -1.
</event>
<event>
 5   0  0.9443352E-08  0.2903641E+04  0.7818609E-02  0.8271795E-01
        1   -1    0    0  501    0  0.00000000000E+00  0.00000000000E+00  0.21806203839E+04  0.21806203839E+04  0.50400001928E-02 0. -1.
       -1   -1    0    0    0  501  0.00000000000E+00  0.00000000000E+00 -0.96659791174E+03  0.96659791175E+03  0.50400001928E-02 0.  1.
    10030    2    1    2    0    0  0.00000000000E+00  0.00000000000E+00  0.12140224722E+04  0.31472182957E+04  0.29036412378E+04 0.  0.
        4    1    3    3  502    0  0.12394759323E+04  0.60271761179E+03  0.11243050024E+03  0.13828272982E+04  0.12699999809E+01 0.  1.
       -4    1    3    3    0  502 -0.12394759323E+04 -0.60271761179E+03  0.11015919719E+04  0.17643909975E+04  0.12699999809E+01 0. -1.
</event>
<event>
 5   0  0.9421924E-08  0.2900870E+04  0.7818609E-02  0.8272619E-01
       -1   -1    0    0    0  501  0.00000000000E+00  0.00000000000E+00  0.82860761535E+03  0.82860761537E+03  0.50400001928E-02 0. -1.
        1   -1    0    0  501    0  0.00000000000E+00  0.00000000000E+00 -0.25389113605E+04  0.25389113605E+04  0.50400001928E-02 0.  1.
    10030    2    1    2    0    0  0.00000000000E+00  0.00000000000E+00 -0.17103037451E+04  0.33675189759E+04  0.29008697234E+04 0.  0.
        1    1    3    3  502    0  0.10909930858E+04 -0.87841430545E+03 -0.12924202316E+04  0.19058404079E+04  0.50400001928E-02 0.  1.
       -1    1    3    3    0  502 -0.10909930858E+04  0.87841430545E+03 -0.41788351355E+03  0.14616785680E+04  0.50400001928E-02 0. -1.
</event>
<event>
 5   0  0.2678723E-07  0.2901506E+04  0.7818609E-02  0.8272430E-01
       -2   -1    0    0    0  501  0.00000000000E+00  0.00000000000E+00  0.19289935455E+04  0.19289935455E+04  0.25500000920E-02 0.  1.
        2   -1    0    0  501    0  0.00000000000E+00  0.00000000000E+00 -0.10910790410E+04  0.10910790410E+04  0.25500000920E-02 0. -1.
    10030    2    1    2    0    0  0.00000000000E+00  0.00000000000E+00  0.83791450455E+03  0.30200725865E+04  0.29015061108E+04 0.  0.
        5    1    3    3  502    0  0.19432012579E+03  0.63231403439E+03  0.17628736130E+04  0.18829038252E+04  0.46999998093E+01 0.  1.
       -5    1    3    3    0  502 -0.19432012579E+03 -0.63231403439E+03 -0.92495910849E+03  0.11371687613E+04  0.46999998093E+01 0. -1.
</event>
<event>
 5   0  0.9388076E-08  0.2899935E+04  0.7818609E-02  0.8272897E-01
       -1   -1    0    0    0  501  0.00000000000E+00  0.00000000000E+00  0.20585528747E+04  0.20585528748E+04  0.50400001928E-02 0. -1.
        1   -1    0    0  501    0  0.00000000000E+00  0.00000000000E+00 -0.10213030338E+04  0.10213030338E+04  0.50400001928E-02 0.  1.
    10030    2    1    2    0    0  0.00000000000E+00  0.00000000000E+00  0.10372498409E+04  0.30798559086E+04  0.28999353760E+04 0.  0.
        5    1    3    3  502    0  0.11293063347E+04  0.18779617237E+03  0.14636545845E+04  0.18581999442E+04  0.46999998093E+01 0. -1.
       -5    1    3    3    0  502 -0.11293063347E+04 -0.18779617237E+03 -0.42640474354E+03  0.12216559644E+04  0.46999998093E+01 0.  1.
</event>
<event>
 5   0  0.2534588E-07  0.2899462E+04  0.7818609E-02  0.8273038E-01
       -2   -1    0    0    0  501  0.00000000000E+00  0.00000000000E+00  0.10677958670E+04  0.10677958670E+04  0.25500000920E-02 0. -1.
        2   -1    0    0  501    0  0.00000000000E+00  0.00000000000E+00 -0.19682783489E+04  0.19682783489E+04  0.25500000920E-02 0.  1.
    10030    2    1    2    0    0  0.00000000000E+00  0.00000000000E+00 -0.90048248189E+03  0.30360742159E+04  0.28994616645E+04 0.  0.
        3    1    3    3  502    0  0.45170320747E+03 -0.91592826760E+03  0.62719998752E+03  0.11984741189E+04  0.10100000352E+00 0. -1.
       -3    1    3    3    0  502 -0.45170320747E+03  0.91592826760E+03 -0.15276824694E+04  0.18376000970E+04  0.10100000352E+00 0.  1.
</event>
<event>
 5   0  0.9395744E-08  0.2900810E+04  0.7818609E-02  0.8272636E-01
        1   -1    0    0  501    0  0.00000000000E+00  0.00000000000E+00  0.21002855793E+04  0.21002855793E+04  0.50400001928E-02 0. -1.
       -1   -1    0    0    0  501  0.00000000000E+00  0.00000000000E+00 -0.10016138736E+04  0.10016138736E+04  0.50400001928E-02 0.  1.
    10030    2    1    2    0    0  0.00000000000E+00  0.00000000000E+00  0.10986717058E+04  0.31018994529E+04  0.29008103521E+04 0.  0.
        2    1    3    3  502    0 -0.10720485309E+04 -0.76471419214E+03  0.11994265707E+04  0.17812074407E+04  0.25500000920E-02 0.  1.
       -2    1    3    3    0  502  0.10720485309E+04  0.76471419214E+03 -0.10075486490E+03  0.13206920122E+04  0.25500000920E-02 0. -1.
</event>
<event>
 5   0  0.9443352E-08  0.2899054E+04  0.7818609E-02  0.8273159E-01
       -1   -1    0    0    0  501  0.00000000000E+00  0.00000000000E+00  0.17422784297E+04  0.17422784297E+04  0.50400001928E-02 0.  1.
        1   -1    0    0  501    0  0.00000000000E+00  0.00000000000E+00 -0.12059659087E+04  0.12059659087E+04  0.50400001928E-02 0. -1.
    10030    2    1    2    0    0  0.00000000000E+00  0.00000000000E+00  0.53631252103E+03  0.29482443385E+04  0.28990539076E+04 0.  0.
        4    1    3    3  502    0  0.13876376315E+04  0.10120690163E+03 -0.14537056929E+03  0.13988978692E+04  0.12699999809E+01 0.  1.
       -4    1    3    3    0  502 -0.13876376315E+04 -0.10120690163E+03  0.68168309032E+03  0.15493464692E+04  0.12699999809E+01 0. -1.
</event>
<event>
 5   0  0.9421924E-08  0.2903992E+04  0.7818609E-02  0.8271691E-01
        1   -1    0    0  501    0  0.00000000000E+00  0.00000000000E+00  0.17102214707E+04  0.17102214707E+04  0.50400001928E-02 0.  1.
       -1   -1    0    0    0  501  0.00000000000E+00  0.00000000000E+00 -0.12327601416E+04  0.12327601416E+04  0.50400001928E-02 0. -1.
    10030    2    1    2    0    0  0.00000000000E+00  0.00000000000E+00  0.47746132908E+03  0.29429816123E+04  0.29039923294E+04 0.  0.
        1    1    3    3  502    0 -0.14432285239E+04 -0.12480769597E+03  0.13836909208E+03  0.14552084177E+04  0.50400001928E-02 0. -1.
       -1    1    3    3    0  502  0.14432285239E+04  0.12480769597E+03  0.33909223701E+03  0.14877731946E+04  0.50400001928E-02 0.  1.
</event>
<event>
 5   0  0.9443352E-08  0.2901729E+04  0.7818609E-02  0.8272363E-01
        1   -1    0    0  501    0  0.00000000000E+00  0.00000000000E+00  0.28476157544E+04  0.28476157544E+04  0.50400001928E-02 0.  1.
       -1   -1    0    0    0  501  0.00000000000E+00  0.00000000000E+00 -0.73921759692E+03  0.73921759694E+03  0.50400001928E-02 0. -1.
    10030    2    1    2    0    0  0.00000000000E+00  0.00000000000E+00  0.21083981575E+04  0.35868333513E+04  0.29017289156E+04 0.  0.
        4    1    3    3  502    0 -0.22120705935E+03 -0.81693049005E+03 -0.40246120190E+03  0.93716840569E+03  0.12699999809E+01 0. -1.
       -4    1    3    3    0  502  0.22120705935E+03  0.81693049005E+03  0.25108593594E+04  0.26496649456E+04  0.12699999809E+01 0.  1.
</event>
<event>
 5   0  0.2608591E-07  0.2900282E+04  0.7818609E-02  0.8272794E-01
        2   -1    0    0  501    0  0.00000000000E+00  0.00000000000E+00  0.16825798393E+04  0.16825798393E+04  0.25500000920E-02 0. -1.
       -2   -1    0    0    0  501  0.00000000000E+00  0.00000000000E+00 -0.12498122617E+04  0.12498122617E+04  0.25500000920E-02 0.  1.
    10030    2    1    2    0    0  0.00000000000E+00  0.00000000000E+00  0.43276757768E+03  0.29323921010E+04  0.29002819963E+04 0.  0.
        2    1    3    3  502    0  0.43036216242E+03  0.13243016615E+04 -0.19297206947E+03  0.14057825938E+04  0.25500000920E-02 0. -1.
       -2    1    3    3    0  502 -0.43036216242E+03 -0.13243016615E+04  0.62573964715E+03  0.15266095072E+04  0.25500000920E-02 0.  1.
</event>
<event>
 5   0  0.2546841E-07  0.2900877E+04  0.7818609E-02  0.8272617E-01
       -2   -1    0    0    0  501  0.00000000000E+00  0.00000000000E+00  0.87720563554E+03  0.87720563555E+03  0.25500000920E-02 0. -1.
        2   -1    0    0  501    0  0.00000000000E+00  0.00000000000E+00 -0.23982645432E+04  0.23982645432E+04  0.25500000920E-02 0.  1.
    10030    2    1    2    0    0  0.00000000000E+00  0.00000000000E+00 -0.15210589076E+04  0.32754701787E+04  0.29008765384E+04 0.  0.
        1    1    3    3  502    0  0.66458930147E+02 -0.12609033322E+04  0.45418075239E+02  0.12634701438E+04  0.50400001928E-02 0. -1.
       -1    1    3    3    0  502 -0.66458930147E+02  0.12609033322E+04 -0.15664769829E+04  0.20120000349E+04  0.50400001928E-02 0.  1.
</event>
<event>
 5   0  0.2534588E-07  0.2900227E+04  0.7818609E-02  0.8272810E-01
        2   -1    0    0  501    0  0.00000000000E+00  0.00000000000E+00  0.15908803011E+04  0.15908803011E+04  0.25500000920E-02 0. -1.
       -2   -1    0    0    0  501  0.00000000000E+00  0.00000000000E+00 -0.13218019743E+04  0.13218019743E+04  0.25500000920E-02 0.  1.
    10030    2    1    2    0    0  0.00000000000E+00  0.00000000000E+00  0.26907832682E+03  0.29126822754E+04  0.29002266966E+04 0.  0.
        3    1    3    3  502    0  0.72572425122E+03  0.84491462087E+03 -0.79803501509E+03  0.13701884180E+04  0.10100000352E+00 0.  1.
       -3    1    3    3    0  502 -0.72572425122E+03 -0.84491462087E+03  0.10671133419E+04  0.15424938574E+04  0.10100000352E+00 0. -1.
</event>
<event>
 5   0  0.2546841E-07  0.2893568E+04  0.7818609E-02  0.8274794E-01
        2   -1    0    0  501    0  0.00000000000E+00  0.00000000000E+00  0.15354642729E+04  0.15354642729E+04  0.25500000920E-02 0. -1.
       -2   -1    0    0    0  501  0.00000000000E+00  0.00000000000E+00 -0.13632258383E+04  0.13632258383E+04  0.25500000920E-02 0.  1.
    10030    2    1    2    0    0  0.00000000000E+00  0.00000000000E+00  0.17223843464E+03  0.28986901112E+04  0.28935684340E+04 0.  0.
        1    1    3    3  502    0  0.98499793633E+02 -0.71504199676E+03  0.13422115206E+04  0.15239813098E+04  0.50400001928E-02 0. -1.
       -1    1    3    3    0  502 -0.98499793633E+02  0.71504199676E+03 -0.11699730860E+04  0.13747088013E+04  0.50400001928E-02 0.  1.
</event>
<event>
 5   0  0.2492232E-07  0.2899834E+04  0.7818609E-02  0.8272927E-01
        2   -1    0    0  501    0  0.00000000000E+00  0.00000000000E+00  0.79224954982E+03  0.79224954982E+03  0.25500000920E-02 0. -1.
       -2   -1    0    0    0  501  0.00000000000E+00  0.00000000000E+00 -0.26535321359E+04  0.26535321359E+04  0.25500000920E-02 0.  1.
    10030    2    1    2    0    0  0.00000000000E+00  0.00000000000E+00 -0.18612825861E+04  0.34457816857E+04  0.28998342298E+04 0.  0.
        4    1    3    3  502    0 -0.19782344974E+03 -0.11650767633E+04  0.67589156251E+02  0.11836840324E+04  0.12699999809E+01 0. -1.
       -4    1    3    3    0  502  0.19782344974E+03  0.11650767633E+04 -0.19288717423E+04  0.22620976533E+04  0.12699999809E+01 0.  1.
</event>
<event>
 5   0  0.9763851E-08  0.2896856E+04  0.7818609E-02  0.8273814E-01
       -1   -1    0    0    0  501  0.00000000000E+00  0.00000000000E+00  0.13371698404E+04  0.13371698404E+04  0.50400001928E-02 0. -1.
        1   -1    0    0  501    0  0.00000000000E+00  0.00000000000E+00 -0.15689431783E+04  0.15689431783E+04  0.50400001928E-02 0.  1.
    10030    2    1    2    0    0  0.00000000000E+00  0.00000000000E+00 -0.23177333791E+03  0.29061130187E+04  0.28968558814E+04 0.  0.
        3    1    3    3  502    0 -0.26031248692E+03 -0.38023544119E+03 -0.14934469579E+04  0.15629220735E+04  0.10100000352E+00 0.  1.
       -3    1    3    3    0  502  0.26031248692E+03  0.38023544119E+03  0.12616736200E+04  0.13431909452E+04  0.10100000352E+00 0. -1.
</event>
<event>
 5   0  0.9421924E-08  0.2901158E+04  0.7818609E-02  0.8272533E-01
        1   -1    0    0  501    0  0.00000000000E+00  0.00000000000E+00  0.17654730212E+04  0.17654730212E+04  0.50400001928E-02 0. -1.
       -1   -1    0    0    0  501  0.00000000000E+00  0.00000000000E+00 -0.11918503870E+04  0.11918503870E+04  0.50400001928E-02 0.  1.
    10030    2    1    2    0    0  0.00000000000E+00  0.00000000000E+00  0.57362263412E+03  0.29573234082E+04  0.29011581850E+04 0.  0.
        1    1    3    3  502    0 -0.12808074588E+04 -0.37209522886E+03  0.86816550152E+03  0.15914251299E+04  0.50400001928E-02 0.  1.
       -1    1    3    3    0  502  0.12808074588E+04  0.37209522886E+03 -0.29454286740E+03  0.13658982783E+04  0.50400001928E-02 0. -1.
</event>
<event>
 5   0  0.8407500E-08  0.2900278E+04  0.7818609E-02  0.8272795E-01
        3   -1    0    0  501    0  0.00000000000E+00  0.00000000000E+00  0.14505242870E+04  0.14505242905E+04  0.10100000352E+00 0. -1.
       -3   -1    0    0    0  501  0.00000000000E+00  0.00000000000E+00 -0.14497535947E+04  0.14497535982E+04  0.10100000352E+00 0.  1.
    10030    2    1    2    0    0  0.00000000000E+00  0.00000000000E+00  0.77069232262E+00  0.29002778887E+04  0.29002777863E+04 0.  0.
        3    1    3    3  502    0  0.14290802410E+04  0.21908018931E+02  0.24564542617E+03  0.14502041174E+04  0.10100000352E+00 0. -1.
       -3    1    3    3    0  502 -0.14290802410E+04 -0.21908018931E+02 -0.24487473385E+03  0.14500737713E+04  0.10100000352E+00 0.  1.
</event>
<event>
 5   0  0.9421924E-08  0.2900856E+04  0.7818609E-02  0.8272623E-01
       -1   -1    0    0    0  501  0.00000000000E+00  0.00000000000E+00  0.21878042009E+04  0.21878042009E+04  0.50400001928E-02 0.  1.
        1   -1    0    0  501    0  0.00000000000E+00  0.00000000000E+00 -0.96157669874E+03  0.96157669876E+03  0.50400001928E-02 0. -1.
    10030    2    1    2    0    0  0.00000000000E+00  0.00000000000E+00  0.12262275021E+04  0.31493808996E+04  0.29008561088E+04 0.  0.
        1    1    3    3  502    0  0.13266682627E+04  0.42850428297E+01 -0.23348509613E+02  0.13268806253E+04  0.50400001928E-02 0. -1.
       -1    1    3    3    0  502 -0.13266682627E+04 -0.42850428297E+01  0.12495760117E+04  0.18225002743E+04  0.50400001928E-02 0.  1.
</event>
<event>
 5   0  0.9443352E-08  0.2897502E+04  0.7818609E-02  0.8273621E-01
        1   -1    0    0  501    0  0.00000000000E+00  0.00000000000E+00  0.27194404200E+04  0.27194404200E+04  0.50400001928E-02 0. -1.
       -1   -1    0    0    0  501  0.00000000000E+00  0.00000000000E+00 -0.77180583815E+03  0.77180583817E+03  0.50400001928E-02 0.  1.
    10030    2    1    2    0    0  0.00000000000E+00  0.00000000000E+00  0.19476345819E+04  0.34912462582E+04  0.28975023677E+04 0.  0.
        4    1    3    3  502    0 -0.10334138545E+04 -0.27733086512E+03  0.21507071691E+04  0.24021655945E+04  0.12699999809E+01 0. -1.
       -4    1    3    3    0  502  0.10334138545E+04  0.27733086512E+03 -0.20307258724E+03  0.10890806637E+04  0.12699999809E+01 0.  1.
</event>
<event>
 5   0  0.9763851E-08  0.2902317E+04  0.7818609E-02  0.8272188E-01
       -1   -1    0    0    0  501  0.00000000000E+00  0.00000000000E+00  0.12142000907E+04  0.12142000907E+04  0.50400001928E-02 0.  1.
        1   -1    0    0  501    0  0.00000000000E+00  0.00000000000E+00 -0.17343605237E+04  0.17343605237E+04  0.50400001928E-02 0. -1.
    10030    2    1    2    0    0  0.00000000000E+00  0.00000000000E+00 -0.52016043298E+03  0.29485606144E+04  0.29023168022E+04 0.  0.
        3    1    3    3  502    0  0.32804503740E+03  0.94974452486E+03 -0.13237738943E+04  0.16619282603E+04  0.10100000352E+00 0. -1.
       -3    1    3    3    0  502 -0.32804503740E+03 -0.94974452486E+03  0.80361346129E+03  0.12866323540E+04  0.10100000352E+00 0.  1.
</event>
<event>
 5   0  0.2492232E-07  0.2907717E+04  0.7818609E-02  0.8270585E-01
        2   -1    0    0  501    0  0.00000000000E+00  0.00000000000E+00  0.23325023469E+04  0.23325023469E+04  0.25500000920E-02 0. -1.
       -2   -1    0    0    0  501  0.00000000000E+00  0.00000000000E+00 -0.90619603781E+03  0.90619603781E+03  0.25500000920E-02 0.  1.
    10030    2    1    2    0    0  0.00000000000E+00  0.00000000000E+00  0.14263063091E+04  0.32386983847E+04  0.29077168947E+04 0.  0.
        4    1    3    3  502    0 -0.87457685700E+03  0.16185850833E+03  0.19941141736E+04  0.21834779151E+04  0.12699999809E+01 0. -1.
       -4    1    3    3    0  502  0.87457685700E+03 -0.16185850833E+03 -0.56780786452E+03  0.10552204696E+04  0.12699999809E+01 0.  1.
</event>
<event>
 5   0  0.9395744E-08  0.2899873E+04  0.7818609E-02  0.8272915E-01
        1   -1    0    0  501    0  0.00000000000E+00  0.00000000000E+00  0.13889579864E+04  0.13889579864E+04  0.50400001928E-02 0.  1.
       -1   -1    0    0    0  501  0.00000000000E+00  0.00000000000E+00 -0.15135918521E+04  0.15135918521E+04  0.50400001928E-02 0. -1.
    10030    2    1    2    0    0  0.00000000000E+00  0.00000000000E+00 -0.12463386576E+03  0.29025498385E+04  0.28998727497E+04 0.  0.
        2    1    3    3  502    0  0.13233634193E+04 -0.53949579336E+03  0.18279490958E+03  0.14407499539E+04  0.25500000920E-02 0.  1.
       -2    1    3    3    0  502 -0.13233634193E+04  0.53949579336E+03 -0.30742877534E+03  0.14617998846E+04  0.25500000920E-02 0. -1.
</event>
<event>
 5   0  0.9763851E-08  0.2902354E+04  0.7818609E-02  0.8272177E-01
       -1   -1    0    0    0  501  0.00000000000E+00  0.00000000000E+00  0.91782262138E+03  0.91782262139E+03  0.50400001928E-02 0.  1.
        1   -1    0    0  501    0  0.00000000000E+00  0.00000000000E+00 -0.22944681559E+04  0.22944681559E+04  0.50400001928E-02 0. -1.
    10030    2    1    2    0    0  0.00000000000E+00  0.00000000000E+00 -0.13766455345E+04  0.32122907773E+04  0.29023540636E+04 0.  0.
        3    1    3    3  502    0 -0.35500940128E+03 -0.53720489020E+03  0.75105242384E+03  0.98929294075E+03  0.10100000352E+00 0.  1.
       -3    1    3    3    0  502  0.35500940128E+03  0.53720489020E+03 -0.21276979584E+04  0.22229978366E+04  0.10100000352E+00 0. -1.
</event>
<event>
 5   0  0.2678723E-07  0.2903880E+04  0.7818609E-02  0.8271724E-01
       -2   -1    0    0    0  501  0.00000000000E+00  0.00000000000E+00  0.96893481607E+03  0.96893481608E+03  0.25500000920E-02 0. -1.
        2   -1    0    0  501    0  0.00000000000E+00  0.00000000000E+00 -0.21757193204E+04  0.21757193204E+04  0.25500000920E-02 0.  1.
    10030    2    1    2    0    0  0.00000000000E+00  0.00000000000E+00 -0.12067845043E+04  0.31446541365E+04  0.29038803003E+04 0.  0.
        5    1    3    3  502    0  0.12176814274E+04  0.64264969147E+03 -0.10435611973E+03  0.13808182264E+04  0.46999998093E+01 0. -1.
       -5    1    3    3    0  502 -0.12176814274E+04 -0.64264969147E+03 -0.11024283846E+04  0.17638359101E+04  0.46999998093E+01 0.  1.
</event>
<event>
 5   0  0.9395744E-08  0.2899613E+04  0.7818609E-02  0.8272992E-01
        1   -1    0    0  501    0  0.00000000000E+00  0.00000000000E+00  0.19898517759E+04  0.19898517759E+04  0.50400001928E-02 0.  1.
       -1   -1    0    0    0  501  0.00000000000E+00  0.00000000000E+00 -0.10563296994E+04  0.10563296994E+04  0.50400001928E-02 0. -1.
    10030    2    1    2    0    0  0.00000000000E+00  0.00000000000E+00  0.93352207651E+03  0.30461814752E+04  0.28996134420E+04 0.  0.
        2    1    3    3  502    0 -0.91896768806E+03  0.76559334088E+03  0.13275080613E+04  0.17868722473E+04  0.25500000920E-02 0.  1.
       -2    1    3    3    0  502  0.91896768806E+03 -0.76559334088E+03 -0.39398598483E+03  0.12593092279E+04  0.25500000920E-02 0. -1.
</event>
<event>
 5   0  0.9388076E-08  0.2900807E+04  0.7818609E-02  0.8272637E-01
        1   -1    0    0  501    0  0.00000000000E+00  0.00000000000E+00  0.18917489894E+04  0.18917489894E+04  0.50400001928E-02 0. -1.
       -1   -1    0    0    0  501  0.00000000000E+00  0.00000000000E+00 -0.11120242556E+04  0.11120242556E+04  0.50400001928E-02 0.  1.
    10030    2    1    2    0    0  0.00000000000E+00  0.00000000000E+00  0.77972473384E+03  0.30037732450E+04  0.29008073095E+04 0.  0.
        5    1    3    3  502    0  0.11178922018E+04 -0.16532985798E+03 -0.55160289612E+03  0.12574994162E+04  0.46999998093E+01 0.  1.
       -5    1    3    3    0  502 -0.11178922018E+04  0.16532985798E+03  0.13313276300E+04  0.17462738288E+04  0.46999998093E+01 0. -1.
</event>
<event>
 5   0  0.9388076E-08  0.2911134E+04  0.7818609E-02  0.8269573E-01
        1   -1    0    0  501    0  0.00000000000E+00  0.00000000000E+00  0.15083741492E+04  0.15083741492E+04  0.50400001928E-02 0. -1.
       -1   -1    0    0    0  501  0.00000000000E+00  0.00000000000E+00 -0.14046081906E+04  0.14046081906E+04  0.50400001928E-02 0.  1.
    10030    2    1    2    0    0  0.00000000000E+00  0.00000000000E+00  0.10376595855E+03  0.29129823398E+04  0.29111335830E+04 0.  0.
        5    1    3    3  502    0 -0.13641522637E+04 -0.38305616184E+03 -0.28150900225E+03  0.14446151149E+04  0.46999998093E+01 0. -1.
       -5    1    3    3    0  502  0.13641522637E+04  0.38305616184E+03  0.38527496080E+03  0.14683672249E+04  0.46999998093E+01 0.  1.
</event>
<event>
 5   0  0.2608591E-07  0.2899643E+04  0.7818609E-02  0.8272984E-01
       -2   -1    0    0    0  501  0.00000000000E+00  0.00000000000E+00  0.11453422589E+04  0.11453422589E+04  0.25500000920E-02 0. -1.
        2   -1    0    0  501    0  0.00000000000E+00  0.00000000000E+00 -0.18352433610E+04  0.18352433610E+04  0.25500000920E-02 0.  1.
    10030    2    1    2    0    0  0.00000000000E+00  0.00000000000E+00 -0.68990110212E+03  0.29805856199E+04  0.28996425826E+04 0.  0.
        2    1    3    3  502    0 -0.73981204548E+03  0.19148365045E+02  0.93656421296E+03  0.11936670589E+04  0.25500000920E-02 0. -1.
       -2    1    3    3    0  502  0.73981204548E+03 -0.19148365045E+02 -0.16264653151E+04  0.17869185610E+04  0.25500000920E-02 0.  1.
</event>
<event>
 5   0  0.2608591E-07  0.2899728E+04  0.7818609E-02  0.8272958E-01
        2   -1    0    0  501    0  0.00000000000E+00  0.00000000000E+00  0.24643702460E+04  0.24643702460E+04  0.25500000920E-02 0.  1.
       -2   -1    0    0    0  501  0.00000000000E+00  0.00000000000E+00 -0.85299915480E+03  0.85299915480E+03  0.25500000920E-02 0. -1.
    10030    2    1    2    0    0  0.00000000000E+00  0.00000000000E+00  0.16113710912E+04  0.33173694008E+04  0.28997280817E+04 0.  0.
        2    1    3    3  502    0 -0.53653750771E+03 -0.69114887633E+03 -0.51691467782E+03  0.10162480261E+04  0.25500000920E-02 0. -1.
       -2    1    3    3    0  502  0.53653750771E+03  0.69114887633E+03  0.21282857690E+04  0.23011213747E+04  0.25500000920E-02 0.  1.
</event>
<event>
 5   0  0.2678723E-07  0.2901368E+04  0.7818609E-02  0.8272471E-01
       -2   -1    0    0    0  501  0.00000000000E+00  0.00000000000E+00  0.84081405401E+03  0.84081405402E+03  0.25500000920E-02 0.  1.
        2   -1    0    0  501    0  0.00000000000E+00  0.00000000000E+00 -0.25029129100E+04  0.25029129100E+04  0.25500000920E-02 0. -1.
    10030    2    1    2    0    0  0.00000000000E+00  0.00000000000E+00 -0.16620988559E+04  0.33437269640E+04  0.29013681950E+04 0.  0.
        5    1    3    3  502    0  0.13929278354E+04  0.19903704070E+03 -0.42424611842E+03  0.14696498076E+04  0.46999998093E+01 0. -1.
       -5    1    3    3    0  502 -0.13929278354E+04 -0.19903704070E+03 -0.12378527375E+04  0.18740771563E+04  0.46999998093E+01 0.  1.
</event>
<event>
 5   0  0.2492232E-07  0.2899584E+04  0.7818609E-02  0.8273001E-01
       -2   -1    0    0    0  501  0.00000000000E+00  0.00000000000E+00  0.16593304187E+04  0.16593304187E+04  0.25500000920E-02 0. -1.
        2   -1    0    0  501    0  0.00000000000E+00  0.00000000000E+00 -0.12667139764E+04  0.12667139764E+04  0.25500000920E-02 0.  1.
    10030    2    1    2    0    0  0.00000000000E+00  0.00000000000E+00  0.39261644233E+03  0.29260443952E+04  0.28995841308E+04 0.  0.
        4    1    3    3  502    0 -0.80265603276E+03  0.31780368103E+03  0.13716858790E+04  0.16207342935E+04  0.12699999809E+01 0. -1.
       -4    1    3    3    0  502  0.80265603276E+03 -0.31780368103E+03 -0.97906943670E+03  0.13053101016E+04  0.12699999809E+01 0.  1.
</event>
<event>
 5   0  0.9421924E-08  0.2900462E+04  0.7818609E-02  0.8272740E-01
       -1   -1    0    0    0  501  0.00000000000E+00  0.00000000000E+00  0.12067023685E+04  0.12067023685E+04  0.50400001928E-02 0. -1.
        1   -1    0    0  501    0  0.00000000000E+00  0.00000000000E+00 -0.17429069640E+04  0.17429069640E+04  0.50400001928E-02 0.  1.
    10030    2    1    2    0    0  0.00000000000E+00  0.00000000000E+00 -0.53620459547E+03  0.29496093325E+04  0.29004620056E+04 0.  0.
        1    1    3    3  502    0 -0.10429085774E+04 -0.21799396001E+03  0.73243393210E+03  0.12929188421E+04  0.50400001928E-02 0. -1.
       -1    1    3    3    0  502  0.10429085774E+04  0.21799396001E+03 -0.12686385276E+04  0.16566904904E+04  0.50400001928E-02 0.  1.
</event>
<event>
 5   0  0.2492232E-07  0.2899672E+04  0.7818609E-02  0.8272975E-01
        2   -1    0    0  501    0  0.00000000000E+00  0.00000000000E+00  0.19652496581E+04  0.19652496581E+04  0.25500000920E-02 0.  1.
       -2   -1    0    0    0  501  0.00000000000E+00  0.00000000000E+00 -0.10695965341E+04  0.10695965341E+04  0.25500000920E-02 0. -1.
    10030    2    1    2    0    0  0.00000000000E+00  0.00000000000E+00  0.89565312408E+03  0.30348461922E+04  0.28996718593E+04 0.  0.
        4    1    3    3  502    0 -0.22163008270E+03  0.13664739585E+04 -0.31326091510E+01  0.13843346412E+04  0.12699999809E+01 0. -1.
       -4    1    3    3    0  502  0.22163008270E+03 -0.13664739585E+04  0.89878573323E+03  0.16505115510E+04  0.12699999809E+01 0.  1.
</event>
<event>
 5   0  0.9443352E-08  0.2899907E+04  0.7818609E-02  0.8272905E-01
       -1   -1    0    0    0  501  0.00000000000E+00  0.00000000000E+00  0.19600576428E+04  0.19600576428E+04  0.50400001928E-02 0. -1.
        1   -1    0    0  501    0  0.00000000000E+00  0.00000000000E+00 -0.10726039627E+04  0.10726039627E+04  0.50400001928E-02 0.  1.
    10030    2    1    2    0    0  0.00000000000E+00  0.00000000000E+00  0.88745368011E+03  0.30326616055E+04  0.28999073052E+04 0.  0.
        4    1    3    3  502    0  0.40173188712E+03  0.57493484653E+03 -0.88339300109E+03  0.11279731354E+04  0.12699999809E+01 0.  1.
       -4    1    3    3    0  502 -0.40173188712E+03 -0.57493484653E+03  0.17708466812E+04  0.19046884701E+04  0.12699999809E+01 0. -1.
</event>
<event>
 5   0  0.2546841E-07  0.2898734E+04  0.7818609E-02  0.8273254E-01
       -2   -1    0    0    0  501  0.00000000000E+00  0.00000000000E+00  0.13041550220E+04  0.13041550220E+04  0.25500000920E-02 0. -1.
        2   -1    0    0  501    0  0.00000000000E+00  0.00000000000E+00 -0.16107476712E+04  0.16107476712E+04  0.25500000920E-02 0.  1.
    10030    2    1    2    0    0  0.00000000000E+00  0.00000000000E+00 -0.30659264923E+03  0.29149026932E+04  0.28987339750E+04 0.  0.
        1    1    3    3  502    0  0.10951537913E+03 -0.11614331571E+04 -0.10181775035E+04  0.15484204937E+04  0.50400001928E-02 0.  1.
       -1    1    3    3    0  502 -0.10951537913E+03  0.11614331571E+04  0.71158485427E+03  0.13664821995E+04  0.50400001928E-02 0. -1.
</event>
<event>
 5   0  0.9763851E-08  0.2901248E+04  0.7818609E-02  0.8272506E-01
       -1   -1    0    0    0  501  0.00000000000E+00  0.00000000000E+00  0.17967884533E+04  0.17967884533E+04  0.50400001928E-02 0.  1.
        1   -1    0    0  501    0  0.00000000000E+00  0.00000000000E+00 -0.11711503071E+04  0.11711503071E+04  0.50400001928E-02 0. -1.
    10030    2    1    2    0    0  0.00000000000E+00  0.00000000000E+00  0.62563814618E+03  0.29679387605E+04  0.29012475585E+04 0.  0.
        3    1    3    3  502    0  0.59355260466E+03 -0.62699215321E+03 -0.87968968509E+03  0.12325898778E+04  0.10100000352E+00 0. -1.
       -3    1    3    3    0  502 -0.59355260466E+03  0.62699215321E+03  0.15053278313E+04  0.17353488826E+04  0.10100000352E+00 0.  1.
</event>
<event>
 5   0  0.2534588E-07  0.2900838E+04  0.7818609E-02  0.8272628E-01
        2   -1    0    0  501    0  0.00000000000E+00  0.00000000000E+00  0.16390649252E+04  0.16390649252E+04  0.25500000920E-02 0.  1.
       -2   -1    0    0    0  501  0.00000000000E+00  0.00000000000E+00 -0.12834847132E+04  0.12834847132E+04  0.25500000920E-02 0. -1.
    10030    2    1    2    0    0  0.00000000000E+00  0.00000000000E+00  0.35558021200E+03  0.29225496383E+04  0.29008376551E+04 0.  0.
        3    1    3    3  502    0 -0.47636541044E+03  0.10397542553E+03 -0.11984428368E+04  0.12938315720E+04  0.10100000352E+00 0. -1.
       -3    1    3    3    0  502  0.47636541044E+03 -0.10397542553E+03  0.15540230488E+04  0.16287180664E+04  0.10100000352E+00 0.  1.
</event>
<event>
 5   0  0.9388076E-08  0.2902842E+04  0.7818609E-02  0.8272033E-01
        1   -1    0    0  501    0  0.00000000000E+00  0.00000000000E+00  0.29655345948E+04  0.29655345948E+04  0.50400001928E-02 0.  1.
       -1   -1    0    0    0  501  0.00000000000E+00  0.00000000000E+00 -0.71036851476E+03  0.71036851478E+03  0.50400001928E-02 0. -1.
    10030    2    1    2    0    0  0.00000000000E+00  0.00000000000E+00  0.22551660800E+04  0.36759031096E+04  0.29028416461E+04 0.  0.
        5    1    3    3  502    0  0.51198062525E+03  0.10009234901E+04  0.22899914318E+04  0.25510889521E+04  0.46999998093E+01 0.  1.
       -5    1    3    3    0  502 -0.51198062525E+03 -0.10009234901E+04 -0.34825351808E+02  0.11248141575E+04  0.46999998093E+01 0. -1.
</event>
<event>
 5   0  0.2546841E-07  0.2901118E+04  0.7818609E-02  0.8272545E-01
        2   -1    0    0  501    0  0.00000000000E+00  0.00000000000E+00  0.18381907176E+04  0.18381907176E+04  0.25500000920E-02 0. -1.
       -2   -1    0    0    0  501  0.00000000000E+00  0.00000000000E+00 -0.11446696557E+04  0.11446696557E+04  0.25500000920E-02 0.  1.
    10030    2    1    2    0    0  0.00000000000E+00  0.00000000000E+00  0.69352106186E+03  0.29828603733E+04  0.29011178093E+04 0.  0.
        1    1    3    3  502    0 -0.75045591157E+03  0.37614422454E+03 -0.86955612410E+03  0.12086341075E+04  0.50400001928E-02 0.  1.
       -1    1    3    3    0  502  0.75045591157E+03 -0.37614422454E+03  0.15630771860E+04  0.17742262658E+04  0.50400001928E-02 0. -1.
</event>
<event>
 5   0  0.2534588E-07  0.2901488E+04  0.7818609E-02  0.8272435E-01
       -2   -1    0    0    0  501  0.00000000000E+00  0.00000000000E+00  0.11279330693E+04  0.11279330693E+04  0.25500000920E-02 0. -1.
        2   -1    0    0  501    0  0.00000000000E+00  0.00000000000E+00 -0.18659423837E+04  0.18659423837E+04  0.25500000920E-02 0.  1.
    10030    2    1    2    0    0  0.00000000000E+00  0.00000000000E+00 -0.73800931441E+03  0.29938754531E+04  0.29014879769E+04 0.  0.
        3    1    3    3  502    0 -0.43844857758E+03 -0.95780542258E+03  0.66026929461E+03  0.12432151601E+04  0.10100000352E+00 0. -1.
       -3    1    3    3    0  502  0.43844857758E+03  0.95780542258E+03 -0.13982786090E+04  0.17506602930E+04  0.10100000352E+00 0.  1.
</event>
<event>
 5   0  0.8407500E-08  0.2899109E+04  0.7818609E-02  0.8273143E-01
       -3   -1    0    0    0  501  0.00000000000E+00  0.00000000000E+00  0.11864491894E+04  0.11864491937E+04  0.10100000352E+00 0. -1.
        3   -1    0    0  501    0  0.00000000000E+00  0.00000000000E+00 -0.17710053338E+04  0.17710053367E+04  0.10100000352E+00 0.  1.
    10030    2    1    2    0    0  0.00000000000E+00  0.00000000000E+00 -0.58455614439E+03  0.29574545304E+04  0.28991087274E+04 0.  0.
        3    1    3    3  502    0  0.44960124611E+03  0.83393815835E+03  0.82689470046E+03  0.12575169932E+04  0.10100000352E+00 0. -1.
       -3    1    3    3    0  502 -0.44960124611E+03 -0.83393815835E+03 -0.14114508449E+04  0.16999375371E+04  0.10100000352E+00 0.  1.
</event>
<event>
 5   0  0.9443352E-08  0.2899382E+04  0.7818609E-02  0.8273061E-01
       -1   -1    0    0    0  501  0.00000000000E+00  0.00000000000E+00  0.14328556858E+04  0.14328556858E+04  0.50400001928E-02 0.  1.
        1   -1    0    0  501    0  0.00000000000E+00  0.00000000000E+00 -0.14667237319E+04  0.14667237319E+04  0.50400001928E-02 0. -1.
    10030    2    1    2    0    0  0.00000000000E+00  0.00000000000E+00 -0.33868046028E+02  0.28995794177E+04  0.28993816160E+04 0.  0.
        4    1    3    3  502    0  0.13176063698E+04  0.60065881920E+03  0.51803940288E+02  0.14489868267E+04  0.12699999809E+01 0. -1.
       -4    1    3    3    0  502 -0.13176063698E+04 -0.60065881920E+03 -0.85671986316E+02  0.14505925910E+04  0.12699999809E+01 0.  1.
</event>
<event>
 5   0  0.9395744E-08  0.2898515E+04  0.7818609E-02  0.8273319E-01
       -1   -1    0    0    0  501  0.00000000000E+00  0.00000000000E+00  0.86850179757E+03  0.86850179759E+03  0.50400001928E-02 0. -1.
        1   -1    0    0  501    0  0.00000000000E+00  0.00000000000E+00 -0.24183574781E+04  0.24183574781E+04  0.50400001928E-02 0.  1.
    10030    2    1    2    0    0  0.00000000000E+00  0.00000000000E+00 -0.15498556805E+04  0.32868592757E+04  0.28985153558E+04 0.  0.
        2    1    3    3  502    0 -0.13261501944E+04  0.58193234648E+03 -0.83732997264E+03  0.16728541709E+04  0.25500000920E-02 0. -1.
       -2    1    3    3    0  502  0.13261501944E+04 -0.58193234648E+03 -0.71252570785E+03  0.16140051048E+04  0.25500000920E-02 0.  1.
</event>
<event>
 5   0  0.2492232E-07  0.2900288E+04  0.7818609E-02  0.8272792E-01
       -2   -1    0    0    0  501  0.00000000000E+00  0.00000000000E+00  0.15801453720E+04  0.15801453720E+04  0.25500000920E-02 0. -1.
        2   -1    0    0  501    0  0.00000000000E+00  0.00000000000E+00 -0.13308381486E+04  0.13308381486E+04  0.25500000920E-02 0.  1.
    10030    2    1    2    0    0  0.00000000000E+00  0.00000000000E+00  0.24930722340E+03  0.29109835206E+04  0.29002880832E+04 0.  0.
        4    1    3    3  502    0  0.60167370444E+03  0.10807437111E+04 -0.63503782092E+03  0.13904290211E+04  0.12699999809E+01 0.  1.
       -4    1    3    3    0  502 -0.60167370444E+03 -0.10807437111E+04  0.88434504432E+03  0.15205544995E+04  0.12699999809E+01 0. -1.
</event>
<event>
 5   0  0.2546841E-07  0.2899877E+04  0.7818609E-02  0.8272914E-01
        2   -1    0    0  501    0  0.00000000000E+00  0.00000000000E+00  0.23445162307E+04  0.23445162307E+04  0.25500000920E-02 0. -1.
       -2   -1    0    0    0  501  0.00000000000E+00  0.00000000000E+00 -0.89669742879E+03  0.89669742879E+03  0.25500000920E-02 0.  1.
    10030    2    1    2    0    0  0.00000000000E+00  0.00000000000E+00  0.14478188019E+04  0.32412136595E+04  0.28998770152E+04 0.  0.
        1    1    3    3  502    0  0.10892895886E+04 -0.11039093259E+03  0.17863686392E+04  0.20951970984E+04  0.50400001928E-02 0. -1.
       -1    1    3    3    0  502 -0.10892895886E+04  0.11039093259E+03 -0.33854983733E+03  0.11460165611E+04  0.50400001928E-02 0.  1.
</event>
<event>
 5   0  0.9421924E-08  0.2904165E+04  0.7818609E-02  0.8271639E-01
        1   -1    0    0  501    0  0.00000000000E+00  0.00000000000E+00  0.17595869195E+04  0.17595869195E+04  0.50400001928E-02 0. -1.
       -1   -1    0    0    0  501  0.00000000000E+00  0.00000000000E+00 -0.11983170656E+04  0.11983170656E+04  0.50400001928E-02 0.  1.
    10030    2    1    2    0    0  0.00000000000E+00  0.00000000000E+00  0.56126985392E+03  0.29579039851E+04  0.29041646193E+04 0.  0.
        1    1    3    3  502    0 -0.13462683599E+04 -0.78636207639E+02 -0.26777157159E+03  0.13748904554E+04  0.50400001928E-02 0.  1.
       -1    1    3    3    0  502  0.13462683599E+04  0.78636207639E+02  0.82904142551E+03  0.15830135297E+04  0.50400001928E-02 0. -1.
</event>
<event>
 5   0  0.2678723E-07  0.2900318E+04  0.7818609E-02  0.8272783E-01
        2   -1    0    0  501    0  0.00000000000E+00  0.00000000000E+00  0.14065808939E+04  0.14065808939E+04  0.25500000920E-02 0. -1.
       -2   -1    0    0    0  501  0.00000000000E+00  0.00000000000E+00 -0.14950869971E+04  0.14950869971E+04  0.25500000920E-02 0.  1.
    10030    2    1    2    0    0  0.00000000000E+00  0.00000000000E+00 -0.88506103177E+02  0.29016678910E+04  0.29003177790E+04 0.  0.
        5    1    3    3  502    0 -0.19533111800E+03  0.43398948216E+03  0.13262158414E+04  0.14090321729E+04  0.46999998093E+01 0. -1.
       -5    1    3    3    0  502  0.19533111800E+03 -0.43398948216E+03 -0.14147219446E+04  0.14926357181E+04  0.46999998093E+01 0.  1.
</event>
<event>
 5   0  0.9443352E-08  0.2900403E+04  0.7818609E-02  0.8272758E-01
        1   -1    0    0  501    0  0.00000000000E+00  0.00000000000E+00  0.19968286813E+04  0.19968286813E+04  0.50400001928E-02 0.  1.
       -1   -1    0    0    0  501  0.00000000000E+00  0.00000000000E+00 -0.10532119050E+04  0.10532119050E+04  0.50400001928E-02 0. -1.
    10030    2    1    2    0    0  0.00000000000E+00  0.00000000000E+00  0.94361677639E+03  0.30500405863E+04  0.29004025509E+04 0.  0.
        4    1    3    3  502    0 -0.11260773650E+03  0.11973231327E+04 -0.38044782072E+03  0.12613506030E+04  0.12699999809E+01 0. -1.
       -4    1    3    3    0  502  0.11260773650E+03 -0.11973231327E+04  0.13240645971E+04  0.17886899834E+04  0.12699999809E+01 0.  1.
</event>
<event>
 5   0  0.9388076E-08  0.2900005E+04  0.7818609E-02  0.8272876E-01
       -1   -1    0    0    0  501  0.00000000000E+00  0.00000000000E+00  0.13334168081E+04  0.13334168081E+04  0.50400001928E-02 0. -1.
        1   -1    0    0  501    0  0.00000000000E+00  0.00000000000E+00 -0.15767817594E+04  0.15767817594E+04  0.50400001928E-02 0.  1.
    10030    2    1    2    0    0  0.00000000000E+00  0.00000000000E+00 -0.24336495130E+03  0.29101985675E+04  0.29000050349E+04 0.  0.
        5    1    3    3  502    0 -0.63564549720E+03  0.12789711540E+04 -0.37290780180E+03  0.14761079668E+04  0.46999998093E+01 0.  1.
       -5    1    3    3    0  502  0.63564549720E+03 -0.12789711540E+04  0.12954285050E+03  0.14340906007E+04  0.46999998093E+01 0. -1.
</event>
<event>
 5   0  0.9395744E-08  0.2899403E+04  0.7818609E-02  0.8273055E-01
        1   -1    0    0  501    0  0.00000000000E+00  0.00000000000E+00  0.12935719058E+04  0.12935719058E+04  0.50400001928E-02 0. -1.
       -1   -1    0    0    0  501  0.00000000000E+00  0.00000000000E+00 -0.16246751846E+04  0.16246751846E+04  0.50400001928E-02 0.  1.
    10030    2    1    2    0    0  0.00000000000E+00  0.00000000000E+00 -0.33110327877E+03  0.29182470904E+04  0.28994028178E+04 0.  0.
        2    1    3    3  502    0  0.12282489426E+03  0.80005164003E+03  0.10449560665E+04  0.13217797707E+04  0.25500000920E-02 0. -1.
       -2    1    3    3    0  502 -0.12282489426E+03 -0.80005164003E+03 -0.13760593452E+04  0.15964673197E+04  0.25500000920E-02 0.  1.
</event>
<event>
 5   0  0.2492232E-07  0.2901404E+04  0.7818609E-02  0.8272460E-01
       -2   -1    0    0    0  501  0.00000000000E+00  0.00000000000E+00  0.11253475259E+04  0.11253475259E+04  0.25500000920E-02 0.  1.
        2   -1    0    0  501    0  0.00000000000E+00  0.00000000000E+00 -0.18701214392E+04  0.18701214392E+04  0.25500000920E-02 0. -1.
    10030    2    1    2    0    0  0.00000000000E+00  0.00000000000E+00 -0.74477391328E+03  0.29954689652E+04  0.29014041668E+04 0.  0.
        4    1    3    3  502    0 -0.80362768060E+03 -0.62948629299E+03  0.69178988535E+03  0.12331444767E+04  0.12699999809E+01 0.  1.
       -4    1    3    3    0  502  0.80362768060E+03  0.62948629299E+03 -0.14365637986E+04  0.17623244884E+04  0.12699999809E+01 0. -1.
</event>
<event>
 5   0  0.9421924E-08  0.2902423E+04  0.7818609E-02  0.8272157E-01
       -1   -1    0    0    0  501  0.00000000000E+00  0.00000000000E+00  0.12105181832E+04  0.12105181832E+04  0.50400001928E-02 0.  1.
        1   -1    0    0  501    0  0.00000000000E+00  0.00000000000E+00 -0.17397632199E+04  0.17397632199E+04  0.50400001928E-02 0. -1.
    10030    2    1    2    0    0  0.00000000000E+00  0.00000000000E+00 -0.52924503677E+03  0.29502814031E+04  0.29024231340E+04 0.  0.
        1    1    3    3  502    0 -0.56232552627E+03 -0.12254649333E+04  0.28092131697E+03  0.13772766921E+04  0.50400001928E-02 0.  1.
       -1    1    3    3    0  502  0.56232552627E+03  0.12254649333E+04 -0.81016635374E+03  0.15730047110E+04  0.50400001928E-02 0. -1.
</event>
<event>
 5   0  0.9763851E-08  0.2899968E+04  0.7818609E-02  0.8272887E-01
        1   -1    0    0  501    0  0.00000000000E+00  0.00000000000E+00  0.22028064739E+04  0.22028064739E+04  0.50400001928E-02 0. -1.
       -1   -1    0    0    0  501  0.00000000000E+00  0.00000000000E+00 -0.95444313005E+03  0.95444313006E+03  0.50400001928E-02 0.  1.
    10030    2    1    2    0    0  0.00000000000E+00  0.00000000000E+00  0.12483633438E+04  0.31572496040E+04  0.28999679349E+04 0.  0.
        3    1    3    3  502    0 -0.48123699974E+03 -0.13663415293E+04  0.55553822235E+03  0.15514834679E+04  0.10100000352E+00 0.  1.
       -3    1    3    3    0  502  0.48123699974E+03  0.13663415293E+04  0.69282512150E+03  0.16057661360E+04  0.10100000352E+00 0. -1.
</event>
<event>
 5   0  0.2608591E-07  0.2894003E+04  0.7818609E-02  0.8274664E-01
        2   -1    0    0  501    0  0.00000000000E+00  0.00000000000E+00  0.12805957189E+04  0.12805957189E+04  0.25500000920E-02 0.  1.
       -2   -1    0    0    0  501  0.00000000000E+00  0.00000000000E+00 -0.16350304437E+04  0.16350304437E+04  0.25500000920E-02 0. -1.
    10030    2    1    2    0    0  0.00000000000E+00  0.00000000000E+00 -0.35443472479E+03  0.29156261626E+04  0.28940027550E+04 0.  0.
        2    1    3    3  502    0  0.29899401927E+03 -0.81143521231E+03  0.99161860292E+03  0.13157248880E+04  0.25500000920E-02 0.  1.
       -2    1    3    3    0  502 -0.29899401927E+03  0.81143521231E+03 -0.13460533277E+04  0.15999012746E+04  0.25500000920E-02 0. -1.
</event>
<event>
 5   0  0.2492232E-07  0.2878661E+04  0.7818609E-02  0.8279255E-01
       -2   -1    0    0    0  501  0.00000000000E+00  0.00000000000E+00  0.97068473070E+03  0.97068473070E+03  0.25500000920E-02 0.  1.
        2   -1    0    0  501    0  0.00000000000E+00  0.00000000000E+00 -0.21342381305E+04  0.21342381305E+04  0.25500000920E-02 0. -1.
    10030    2    1    2    0    0  0.00000000000E+00  0.00000000000E+00 -0.11635533998E+04  0.31049228612E+04  0.28786610533E+04 0.  0.
        4    1    3    3  502    0 -0.33360856029E+03  0.12717662185E+04  0.49905973480E+02  0.13157416939E+04  0.12699999809E+01 0.  1.
       -4    1    3    3    0  502  0.33360856029E+03 -0.12717662185E+04 -0.12134593733E+04  0.17891811673E+04  0.12699999809E+01 0. -1.
</event>
<event>
 5   0  0.9388076E-08  0.2899913E+04  0.7818609E-02  0.8272903E-01
        1   -1    0    0  501    0  0.00000000000E+00  0.00000000000E+00  0.10691440534E+04  0.10691440534E+04  0.50400001928E-02 0. -1.
       -1   -1    0    0    0  501  0.00000000000E+00  0.00000000000E+00 -0.19664080158E+04  0.19664080158E+04  0.50400001928E-02 0.  1.
    10030    2    1    2    0    0  0.00000000000E+00  0.00000000000E+00 -0.89726396241E+03  0.30355520692E+04  0.28999127136E+04 0.  0.
        5    1    3    3  502    0  0.30453889359E+03 -0.73985248752E+03  0.81715308639E+03  0.11436288286E+04  0.46999998093E+01 0. -1.
       -5    1    3    3    0  502 -0.30453889359E+03  0.73985248752E+03 -0.17144170488E+04  0.18919232406E+04  0.46999998093E+01 0.  1.
</event>
<event>
 5   0  0.2492232E-07  0.2899740E+04  0.7818609E-02  0.8272955E-01
       -2   -1    0    0    0  501  0.00000000000E+00  0.00000000000E+00  0.99332190087E+03  0.99332190088E+03  0.25500000920E-02 0. -1.
        2   -1    0    0  501    0  0.00000000000E+00  0.00000000000E+00 -0.21162563105E+04  0.21162563105E+04  0.25500000920E-02 0.  1.
    10030    2    1    2    0    0  0.00000000000E+00  0.00000000000E+00 -0.11229344096E+04  0.31095782114E+04  0.28997404995E+04 0.  0.
        4    1    3    3  502    0 -0.15595000682E+03  0.13432896007E+03  0.97757451234E+03  0.99900861568E+03  0.12699999809E+01 0. -1.
       -4    1    3    3    0  502  0.15595000682E+03 -0.13432896007E+03 -0.21005089220E+04  0.21105695957E+04  0.12699999809E+01 0.  1.
</event>
<event>
 5   0  0.9395744E-08  0.2900944E+04  0.7818609E-02  0.8272597E-01
        1   -1    0    0  501    0  0.00000000000E+00  0.00000000000E+00  0.15545378924E+04  0.15545378924E+04  0.50400001928E-02 0. -1.
       -1   -1    0    0    0  501  0.00000000000E+00  0.00000000000E+00 -0.13533728298E+04  0.13533728298E+04  0.50400001928E-02 0.  1.
    10030    2    1    2    0    0  0.00000000000E+00  0.00000000000E+00  0.20116506255E+03  0.29079107222E+04  0.29009442232E+04 0.  0.
        2    1    3    3  502    0 -0.38663480516E+02 -0.10503508727E+04 -0.90138656206E+03  0.13846405868E+04  0.25500000920E-02 0.  1.
       -2    1    3    3    0  502  0.38663480516E+02  0.10503508727E+04  0.11025516246E+04  0.15232701354E+04  0.25500000920E-02 0. -1.
</event>
<event>
 5   0  0.2678723E-07  0.2901104E+04  0.7818609E-02  0.8272549E-01
        2   -1    0    0  501    0  0.00000000000E+00  0.00000000000E+00  0.19563223953E+04  0.19563223953E+04  0.25500000920E-02 0.  1.
       -2   -1    0    0    0  501  0.00000000000E+00  0.00000000000E+00 -0.10755391295E+04  0.10755391295E+04  0.25500000920E-02 0. -1.
    10030    2    1    2    0    0  0.00000000000E+00  0.00000000000E+00  0.88078326582E+03  0.30318615248E+04  0.29011041251E+04 0.  0.
        5    1    3    3  502    0  0.33364009381E+02  0.63283636444E+03 -0.92321023357E+03  0.11197920551E+04  0.46999998093E+01 0. -1.
       -5    1    3    3    0  502 -0.33364009381E+02 -0.63283636444E+03  0.18039934994E+04  0.19120694697E+04  0.46999998093E+01 0.  1.
</event>
<event>
 5   0  0.9443352E-08  0.2897059E+04  0.7818609E-02  0.8273753E-01
        1   -1    0    0  501    0  0.00000000000E+00  0.00000000000E+00  0.83615036404E+03  0.83615036405E+03  0.50400001928E-02 0.  1.
       -1   -1    0    0    0  501  0.00000000000E+00  0.00000000000E+00 -0.25094021383E+04  0.25094021383E+04  0.50400001928E-02 0. -1.
    10030    2    1    2    0    0  0.00000000000E+00  0.00000000000E+00 -0.16732517743E+04  0.33455525024E+04  0.28970588613E+04 0.  0.
        4    1    3    3  502    0 -0.92529431511E+03  0.15067820854E+03  0.43857008214E+03  0.10349970154E+04  0.12699999809E+01 0.  1.
       -4    1    3    3    0  502  0.92529431511E+03 -0.15067820854E+03 -0.21118218564E+04  0.23105554870E+04  0.12699999809E+01 0. -1.
</event>
<event>
 5   0  0.2534588E-07  0.2899199E+04  0.7818609E-02  0.8273116E-01
       -2   -1    0    0    0  501  0.00000000000E+00  0.00000000000E+00  0.17809263544E+04  0.17809263544E+04  0.25500000920E-02 0.  1.
        2   -1    0    0  501    0  0.00000000000E+00  0.00000000000E+00 -0.11799130920E+04  0.11799130920E+04  0.25500000920E-02 0. -1.
    10030    2    1    2    0    0  0.00000000000E+00  0.00000000000E+00  0.60101326236E+03  0.29608394464E+04  0.28991987316E+04 0.  0.
        3    1    3    3  502    0  0.73711120706E+03  0.11982026051E+03 -0.96834568733E+03  0.12228586209E+04  0.10100000352E+00 0. -1.
       -3    1    3    3    0  502 -0.73711120706E+03 -0.11982026051E+03  0.15693589497E+04  0.17379808254E+04  0.10100000352E+00 0.  1.
</event>
<event>
 5   0  0.9395744E-08  0.2900111E+04  0.7818609E-02  0.8272845E-01
        1   -1    0    0  501    0  0.00000000000E+00  0.00000000000E+00  0.74937648442E+03  0.74937648443E+03  0.50400001928E-02 0.  1.
       -1   -1    0    0    0  501  0.00000000000E+00  0.00000000000E+00 -0.28058801529E+04  0.28058801529E+04  0.50400001928E-02 0. -1.
    10030    2    1    2    0    0  0.00000000000E+00  0.00000000000E+00 -0.20565036685E+04  0.35552566373E+04  0.29001107597E+04 0.  0.
        2    1    3    3  502    0  0.84740581949E+03 -0.58466317153E+03  0.22357115095E+03  0.10535234723E+04  0.25500000920E-02 0.  1.
       -2    1    3    3    0  502 -0.84740581949E+03  0.58466317153E+03 -0.22800748194E+04  0.25017331651E+04  0.25500000920E-02 0. -1.
</event>
<event>
 5   0  0.2608591E-07  0.2901621E+04  0.7818609E-02  0.8272395E-01
       -2   -1    0    0    0  501  0.00000000000E+00  0.00000000000E+00  0.10731965130E+04  0.10731965130E+04  0.25500000920E-02 0. -1.
        2   -1    0    0  501    0  0.00000000000E+00  0.00000000000E+00 -0.19612920817E+04  0.19612920817E+04  0.25500000920E-02 0.  1.
    10030    2    1    2    0    0  0.00000000000E+00  0.00000000000E+00 -0.88809556867E+03  0.30344885947E+04  0.29016214937E+04 0.  0.
        2    1    3    3  502    0  0.48316766059E+03  0.15066635593E+03 -0.18659771632E+04  0.19333965223E+04  0.25500000920E-02 0.  1.
       -2    1    3    3    0  502 -0.48316766059E+03 -0.15066635593E+03  0.97788159450E+03  0.11010920724E+04  0.25500000920E-02 0. -1.
</event>
<event>
 5   0  0.2492232E-07  0.2899164E+04  0.7818609E-02  0.8273126E-01
       -2   -1    0    0    0  501  0.00000000000E+00  0.00000000000E+00  0.98773836477E+03  0.98773836477E+03  0.25500000920E-02 0. -1.
        2   -1    0    0  501    0  0.00000000000E+00  0.00000000000E+00 -0.21273733992E+04  0.21273733992E+04  0.25500000920E-02 0.  1.
    10030    2    1    2    0    0  0.00000000000E+00  0.00000000000E+00 -0.11396350345E+04  0.31151117640E+04  0.28991642400E+04 0.  0.
        4    1    3    3  502    0 -0.53173003285E+03  0.79479055111E+03 -0.17403950091E+04  0.19858009086E+04  0.12699999809E+01 0.  1.
       -4    1    3    3    0  502  0.53173003285E+03 -0.79479055111E+03  0.60075997468E+03  0.11293108554E+04  0.12699999809E+01 0. -1.
</event>
<event>
 5   0  0.2678723E-07  0.2899640E+04  0.7818609E-02  0.8272984E-01
        2   -1    0    0  501    0  0.00000000000E+00  0.00000000000E+00  0.14248501354E+04  0.14248501354E+04  0.25500000920E-02 0. -1.
       -2   -1    0    0    0  501  0.00000000000E+00  0.00000000000E+00 -0.14752279556E+04  0.14752279556E+04  0.25500000920E-02 0.  1.
    10030    2    1    2    0    0  0.00000000000E+00  0.00000000000E+00 -0.50377820228E+02  0.29000780910E+04  0.28996404966E+04 0.  0.
        5    1    3    3  502    0 -0.29584247395E+03  0.10275602226E+04 -0.10043943129E+04  0.14670490129E+04  0.46999998093E+01 0.  1.
       -5    1    3    3    0  502  0.29584247395E+03 -0.10275602226E+04  0.95401649264E+03  0.14330290781E+04  0.46999998093E+01 0. -1.
</event>
<event>
 5   0  0.9421924E-08  0.2897887E+04  0.7818609E-02  0.8273506E-01
       -1   -1    0    0    0  501  0.00000000000E+00  0.00000000000E+00  0.11812994519E+04  0.11812994519E+04  0.50400001928E-02 0.  1.
        1   -1    0    0  501    0  0.00000000000E+00  0.00000000000E+00 -0.17772273264E+04  0.17772273264E+04  0.50400001928E-02 0. -1.
    10030    2    1    2    0    0  0.00000000000E+00  0.00000000000E+00 -0.59592787449E+03  0.29585267783E+04  0.28978872763E+04 0.  0.
        1    1    3    3  502    0 -0.92651740021E+02 -0.11665804119E+04  0.57428134403E+03  0.13035694322E+04  0.50400001928E-02 0.  1.
       -1    1    3    3    0  502  0.92651740021E+02  0.11665804119E+04 -0.11702092185E+04  0.16549573461E+04  0.50400001928E-02 0. -1.
</event>
<event>
 5   0  0.9395744E-08  0.2899370E+04  0.7818609E-02  0.8273065E-01
       -1   -1    0    0    0  501  0.00000000000E+00  0.00000000000E+00  0.12013209695E+04  0.12013209696E+04  0.50400001928E-02 0.  1.
        1   -1    0    0  501    0  0.00000000000E+00  0.00000000000E+00 -0.17493966782E+04  0.17493966782E+04  0.50400001928E-02 0. -1.
    10030    2    1    2    0    0  0.00000000000E+00  0.00000000000E+00 -0.54807570866E+03  0.29507176478E+04  0.28993702169E+04 0.  0.
        2    1    3    3  502    0 -0.75912519337E+03 -0.92012764431E+03  0.56437285580E+03  0.13196297441E+04  0.25500000920E-02 0.  1.
       -2    1    3    3    0  502  0.75912519337E+03  0.92012764431E+03 -0.11124485645E+04  0.16310879037E+04  0.25500000920E-02 0. -1.
</event>
<event>
 5   0  0.2678723E-07  0.2900189E+04  0.7818609E-02  0.8272821E-01
        2   -1    0    0  501    0  0.00000000000E+00  0.00000000000E+00  0.14844389658E+04  0.14844389658E+04  0.25500000920E-02 0.  1.
       -2   -1    0    0    0  501  0.00000000000E+00  0.00000000000E+00 -0.14165441939E+04  0.14165441939E+04  0.25500000920E-02 0. -1.
    10030    2    1    2    0    0  0.00000000000E+00  0.00000000000E+00  0.67894771927E+02  0.29009831597E+04  0.29001885444E+04 0.  0.
        5    1    3    3  502    0 -0.29589448071E+03  0.76006182193E+03  0.12332353478E+04  0.14785597823E+04  0.46999998093E+01 0.  1.
       -5    1    3    3    0  502  0.29589448071E+03 -0.76006182193E+03 -0.11653405758E+04  0.14224233774E+04  0.46999998093E+01 0. -1.
</event>
<event>
 5   0  0.9763851E-08  0.2901521E+04  0.7818609E-02  0.8272425E-01
       -1   -1    0    0    0  501  0.00000000000E+00  0.00000000000E+00  0.84844742089E+03  0.84844742091E+03  0.50400001928E-02 0.  1.
        1   -1    0    0  501    0  0.00000000000E+00  0.00000000000E+00 -0.24806553417E+04  0.24806553417E+04  0.50400001928E-02 0. -1.
    10030    2    1    2    0    0  0.00000000000E+00  0.00000000000E+00 -0.16322079208E+04  0.33291027626E+04  0.29015207232E+04 0.  0.
        3    1    3    3  502    0  0.19863852038E+03 -0.16543006402E+03  0.82180953423E+03  0.86150756735E+03  0.10100000352E+00 0.  1.
       -3    1    3    3    0  502 -0.19863852038E+03  0.16543006402E+03 -0.24540174550E+04  0.24675951952E+04  0.10100000352E+00 0. -1.
</event>
<event>
 5   0  0.2546841E-07  0.2900226E+04  0.7818609E-02  0.8272810E-01
       -2   -1    0    0    0  501  0.00000000000E+00  0.00000000000E+00  0.11268759270E+04  0.11268759270E+04  0.25500000920E-02 0. -1.
        2   -1    0    0  501    0  0.00000000000E+00  0.00000000000E+00 -0.18660689736E+04  0.18660689736E+04  0.25500000920E-02 0.  1.
    10030    2    1    2    0    0  0.00000000000E+00  0.00000000000E+00 -0.73919304667E+03  0.29929449006E+04  0.29002263391E+04 0.  0.
        1    1    3    3  502    0  0.11413199659E+04  0.83233656111E+03 -0.70784453663E+03  0.15800124378E+04  0.50400001928E-02 0.  1.
       -1    1    3    3    0  502 -0.11413199659E+04 -0.83233656111E+03 -0.31348510047E+02  0.14129324628E+04  0.50400001928E-02 0. -1.
</event>
<event>
 5   0  0.9421924E-08  0.2899790E+04  0.7818609E-02  0.8272940E-01
        1   -1    0    0  501    0  0.00000000000E+00  0.00000000000E+00  0.20518536403E+04  0.20518536403E+04  0.50400001928E-02 0.  1.
       -1   -1    0    0    0  501  0.00000000000E+00  0.00000000000E+00 -0.10245349744E+04  0.10245349744E+04  0.50400001928E-02 0. -1.
    10030    2    1    2    0    0  0.00000000000E+00  0.00000000000E+00  0.10273186659E+04  0.30763886147E+04  0.28997902109E+04 0.  0.
        1    1    3    3  502    0 -0.26615547849E+03 -0.25591935024E+03  0.20011394529E+04  0.20349183184E+04  0.50400001928E-02 0.  1.
       -1    1    3    3    0  502  0.26615547849E+03  0.25591935024E+03 -0.97382078707E+03  0.10414702962E+04  0.50400001928E-02 0. -1.
</event>
<event>
 5   0  0.2546841E-07  0.2899082E+04  0.7818609E-02  0.8273151E-01
        2   -1    0    0  501    0  0.00000000000E+00  0.00000000000E+00  0.22449132248E+04  0.22449132248E+04  0.25500000920E-02 0.  1.
       -2   -1    0    0    0  501  0.00000000000E+00  0.00000000000E+00 -0.93596906553E+03  0.93596906553E+03  0.25500000920E-02 0. -1.
    10030    2    1    2    0    0  0.00000000000E+00  0.00000000000E+00  0.13089441593E+04  0.31808822903E+04  0.28990821535E+04 0.  0.
        1    1    3    3  502    0 -0.13809407333E+04 -0.20030372603E+03  0.22382793208E+03  0.14132295761E+04  0.50400001928E-02 0. -1.
       -1    1    3    3    0  502  0.13809407333E+04  0.20030372603E+03  0.10851162272E+04  0.17676527142E+04  0.50400001928E-02 0.  1.
</event>
<event>
 5   0  0.2546841E-07  0.2893831E+04  0.7818609E-02  0.8274715E-01
       -2   -1    0    0    0  501  0.00000000000E+00  0.00000000000E+00  0.11343116310E+04  0.11343116310E+04  0.25500000920E-02 0. -1.
        2   -1    0    0  501    0  0.00000000000E+00  0.00000000000E+00 -0.18456698216E+04  0.18456698216E+04  0.25500000920E-02 0.  1.
    10030    2    1    2    0    0  0.00000000000E+00  0.00000000000E+00 -0.71135819067E+03  0.29799814526E+04  0.28938311945E+04 0.  0.
        1    1    3    3  502    0 -0.57418606823E+03 -0.26956267792E+03  0.98350188657E+03  0.11703117701E+04  0.50400001928E-02 0. -1.
       -1    1    3    3    0  502  0.57418606823E+03  0.26956267792E+03 -0.16948600772E+04  0.18096696825E+04  0.50400001928E-02 0.  1.
</event>
<event>
 5   0  0.2678723E-07  0.2899631E+04  0.7818609E-02  0.8272987E-01
        2   -1    0    0  501    0  0.00000000000E+00  0.00000000000E+00  0.23466061746E+04  0.23466061746E+04  0.25500000920E-02 0.  1.
       -2   -1    0    0    0  501  0.00000000000E+00  0.00000000000E+00 -0.89574679185E+03  0.89574679186E+03  0.25500000920E-02 0. -1.
    10030    2    1    2    0    0  0.00000000000E+00  0.00000000000E+00  0.14508593827E+04  0.32423529664E+04  0.28996309783E+04 0.  0.
        5    1    3    3  502    0 -0.89969490168E+03 -0.29379064120E+01  0.19966769597E+04  0.21900229494E+04  0.46999998093E+01 0.  1.
       -5    1    3    3    0  502  0.89969490168E+03  0.29379064120E+01 -0.54581757700E+03  0.10523300170E+04  0.46999998093E+01 0. -1.
</event>
<event>
 5   0  0.2534588E-07  0.2904849E+04  0.7818609E-02  0.8271436E-01
       -2   -1    0    0    0  501  0.00000000000E+00  0.00000000000E+00  0.83585397477E+03  0.83585397477E+03  0.25500000920E-02 0.  1.
        2   -1    0    0  501    0  0.00000000000E+00  0.00000000000E+00 -0.25238098949E+04  0.25238098949E+04  0.25500000920E-02 0. -1.
    10030    2    1    2    0    0  0.00000000000E+00  0.00000000000E+00 -0.16879559201E+04  0.33596638696E+04  0.29048487273E+04 0.  0.
        3    1    3    3  502    0  0.10645215490E+04  0.21510423413E+03  0.27141506017E+03  0.11194382988E+04  0.10100000352E+00 0.  1.
       -3    1    3    3    0  502 -0.10645215490E+04 -0.21510423413E+03 -0.19593709803E+04  0.22402255708E+04  0.10100000352E+00 0. -1.
</event>
<event>
 5   0  0.9395744E-08  0.2901189E+04  0.7818609E-02  0.8272524E-01
       -1   -1    0    0    0  501  0.00000000000E+00  0.00000000000E+00  0.13421925544E+04  0.13421925544E+04  0.50400001928E-02 0.  1.
        1   -1    0    0  501    0  0.00000000000E+00  0.00000000000E+00 -0.15677514729E+04  0.15677514729E+04  0.50400001928E-02 0. -1.
    10030    2    1    2    0    0  0.00000000000E+00  0.00000000000E+00 -0.22555891848E+03  0.29099440272E+04  0.29011889659E+04 0.  0.
        2    1    3    3  502    0  0.12633892666E+04  0.46194013484E+03  0.43170605085E+03  0.14127672284E+04  0.25500000920E-02 0. -1.
       -2    1    3    3    0  502 -0.12633892666E+04 -0.46194013484E+03 -0.65726496933E+03  0.14971767989E+04  0.25500000920E-02 0.  1.
</event>
<event>
 5   0  0.9763851E-08  0.2898535E+04  0.7818609E-02  0.8273314E-01
        1   -1    0    0  501    0  0.00000000000E+00  0.00000000000E+00  0.10690195788E+04  0.10690195788E+04  0.50400001928E-02 0.  1.
       -1   -1    0    0    0  501  0.00000000000E+00  0.00000000000E+00 -0.19647685127E+04  0.19647685127E+04  0.50400001928E-02 0. -1.
    10030    2    1    2    0    0  0.00000000000E+00  0.00000000000E+00 -0.89574893391E+03  0.30337880916E+04  0.28985348078E+04 0.  0.
        3    1    3    3  502    0  0.86510015874E+03 -0.40643903229E+03  0.69235628907E+03  0.11802322707E+04  0.10100000352E+00 0.  1.
       -3    1    3    3    0  502 -0.86510015874E+03  0.40643903229E+03 -0.15881052230E+04  0.18535558209E+04  0.10100000352E+00 0. -1.
</event>
<event>
 5   0  0.9395744E-08  0.2900742E+04  0.7818609E-02  0.8272657E-01
        1   -1    0    0  501    0  0.00000000000E+00  0.00000000000E+00  0.14441283270E+04  0.14441283270E+04  0.50400001928E-02 0.  1.
       -1   -1    0    0    0  501  0.00000000000E+00  0.00000000000E+00 -0.14566410041E+04  0.14566410041E+04  0.50400001928E-02 0. -1.
    10030    2    1    2    0    0  0.00000000000E+00  0.00000000000E+00 -0.12512677078E+02  0.29007693312E+04  0.29007423439E+04 0.  0.
        2    1    3    3  502    0  0.10641598737E+04 -0.98542927865E+03 -0.14589269391E+02  0.14504206103E+04  0.25500000920E-02 0. -1.
       -2    1    3    3    0  502 -0.10641598737E+04  0.98542927865E+03  0.20765923130E+01  0.14503487209E+04  0.25500000920E-02 0.  1.
</event>
<event>
 5   0  0.9421924E-08  0.2900353E+04  0.7818609E-02  0.8272773E-01
        1   -1    0    0  501    0  0.00000000000E+00  0.00000000000E+00  0.14498207312E+04  0.14498207312E+04  0.50400001928E-02 0.  1.
       -1   -1    0    0    0  501  0.00000000000E+00  0.00000000000E+00 -0.14505320590E+04  0.14505320590E+04  0.50400001928E-02 0. -1.
    10030    2    1    2    0    0  0.00000000000E+00  0.00000000000E+00 -0.71132779652E+00  0.29003527902E+04  0.29003527030E+04 0.  0.
        1    1    3    3  502    0 -0.93496866368E+03  0.31635058804E+03 -0.10627903309E+04  0.14504369632E+04  0.50400001928E-02 0. -1.
       -1    1    3    3    0  502  0.93496866368E+03 -0.31635058804E+03  0.10620790031E+04  0.14499158271E+04  0.50400001928E-02 0.  1.
</event>
<event>
 5   0  0.2546841E-07  0.2895265E+04  0.7818609E-02  0.8274288E-01
       -2   -1    0    0    0  501  0.00000000000E+00  0.00000000000E+00  0.10132335056E+04  0.10132335056E+04  0.25500000920E-02 0.  1.
        2   -1    0    0  501    0  0.00000000000E+00  0.00000000000E+00 -0.20682700681E+04  0.20682700681E+04  0.25500000920E-02 0. -1.
    10030    2    1    2    0    0  0.00000000000E+00  0.00000000000E+00 -0.10550365625E+04  0.30815035737E+04  0.28952654674E+04 0.  0.
        1    1    3    3  502    0 -0.14059445501E+04 -0.34490622371E+03 -0.52710526595E+03  0.15406103798E+04  0.50400001928E-02 0.  1.
       -1    1    3    3    0  502  0.14059445501E+04  0.34490622371E+03 -0.52793129653E+03  0.15408931939E+04  0.50400001928E-02 0. -1.
</event>
<event>
 5   0  0.9763851E-08  0.2899966E+04  0.7818609E-02  0.8272887E-01
       -1   -1    0    0    0  501  0.00000000000E+00  0.00000000000E+00  0.94790441426E+03  0.94790441427E+03  0.50400001928E-02 0. -1.
        1   -1    0    0  501    0  0.00000000000E+00  0.00000000000E+00 -0.22179993008E+04  0.22179993008E+04  0.50400001928E-02 0.  1.
    10030    2    1    2    0    0  0.00000000000E+00  0.00000000000E+00 -0.12700948866E+04  0.31659037151E+04  0.28999664330E+04 0.  0.
        3    1    3    3  502    0 -0.60020573948E+03  0.10576514473E+04  0.22703749144E+03  0.12371012677E+04  0.10100000352E+00 0. -1.
       -3    1    3    3    0  502  0.60020573948E+03 -0.10576514473E+04 -0.14971323780E+04  0.19288024474E+04  0.10100000352E+00 0.  1.
</event>
<event>
 5   0  0.2608591E-07  0.2900220E+04  0.7818609E-02  0.8272812E-01
       -2   -1    0    0    0  501  0.00000000000E+00  0.00000000000E+00  0.14201180862E+04  0.14201180862E+04  0.25500000920E-02 0. -1.
        2   -1    0    0  501    0  0.00000000000E+00  0.00000000000E+00 -0.14807353645E+04  0.14807353645E+04  0.25500000920E-02 0.  1.
    10030    2    1    2    0    0  0.00000000000E+00  0.00000000000E+00 -0.60617278304E+02  0.29008534506E+04  0.29002200413E+04 0.  0.
        2    1    3    3  502    0 -0.35315485964E+03 -0.39608755944E+03  0.13195102219E+04  0.14222204243E+04  0.25500000920E-02 0. -1.
       -2    1    3    3    0  502  0.35315485964E+03  0.39608755944E+03 -0.13801275002E+04  0.14786330263E+04  0.25500000920E-02 0.  1.
</event>
<event>
 5   0  0.9388076E-08  0.2900379E+04  0.7818609E-02  0.8272765E-01
        1   -1    0    0  501    0  0.00000000000E+00  0.00000000000E+00  0.17941344736E+04  0.17941344736E+04  0.50400001928E-02 0. -1.
       -1   -1    0    0    0  501  0.00000000000E+00  0.00000000000E+00 -0.11721805742E+04  0.11721805742E+04  0.50400001928E-02 0.  1.
    10030    2    1    2    0    0  0.00000000000E+00  0.00000000000E+00  0.62195389945E+03  0.29663150478E+04  0.29003789942E+04 0.  0.
        5    1    3    3  502    0  0.11402451566E+04 -0.48724506955E+02 -0.60406640383E+03  0.12912983408E+04  0.46999998093E+01 0.  1.
       -5    1    3    3    0  502 -0.11402451566E+04  0.48724506955E+02  0.12260203033E+04  0.16750167070E+04  0.46999998093E+01 0. -1.
</event>
<event>
 5   0  0.2492232E-07  0.2904876E+04  0.7818609E-02  0.8271428E-01
        2   -1    0    0  501    0  0.00000000000E+00  0.00000000000E+00  0.14515301528E+04  0.14515301528E+04  0.25500000920E-02 0. -1.
       -2   -1    0    0    0  501  0.00000000000E+00  0.00000000000E+00 -0.14533461076E+04  0.14533461076E+04  0.25500000920E-02 0.  1.
    10030    2    1    2    0    0  0.00000000000E+00  0.00000000000E+00 -0.18159548583E+01  0.29048762604E+04  0.29048756928E+04 0.  0.
        4    1    3    3  502    0 -0.30437430386E+03  0.70140355491E+03  0.12339863569E+04  0.14516661482E+04  0.12699999809E+01 0. -1.
       -4    1    3    3    0  502  0.30437430386E+03 -0.70140355491E+03 -0.12358023118E+04  0.14532101123E+04  0.12699999809E+01 0.  1.
</event>
<event>
 5   0  0.2546841E-07  0.2899573E+04  0.7818609E-02  0.8273004E-01
       -2   -1    0    0    0  501  0.00000000000E+00  0.00000000000E+00  0.87795922917E+03  0.87795922918E+03  0.25500000920E-02 0.  1.
        2   -1    0    0  501    0  0.00000000000E+00  0.00000000000E+00 -0.23940534569E+04  0.23940534569E+04  0.25500000920E-02 0. -1.
    10030    2    1    2    0    0  0.00000000000E+00  0.00000000000E+00 -0.15160942277E+04  0.32720126861E+04  0.28995732980E+04 0.  0.
        1    1    3    3  502    0 -0.12828003226E+04 -0.19999657776E+03 -0.29953474173E+02  0.12986425641E+04  0.50400001928E-02 0.  1.
       -1    1    3    3    0  502  0.12828003226E+04  0.19999657776E+03 -0.14861407536E+04  0.19733701220E+04  0.50400001928E-02 0. -1.
</event>
<event>
 5   0  0.2546841E-07  0.2897155E+04  0.7818609E-02  0.8273725E-01
        2   -1    0    0  501    0  0.00000000000E+00  0.00000000000E+00  0.20290707964E+04  0.20290707964E+04  0.25500000920E-02 0. -1.
       -2   -1    0    0    0  501  0.00000000000E+00  0.00000000000E+00 -0.10341562278E+04  0.10341562278E+04  0.25500000920E-02 0.  1.
    10030    2    1    2    0    0  0.00000000000E+00  0.00000000000E+00  0.99491456862E+03  0.30632270242E+04  0.28971546046E+04 0.  0.
        1    1    3    3  502    0  0.56097246553E+03 -0.83846025807E+03  0.15966001849E+04  0.18886073869E+04  0.50400001928E-02 0. -1.
       -1    1    3    3    0  502 -0.56097246553E+03  0.83846025807E+03 -0.60168561626E+03  0.11746196373E+04  0.50400001928E-02 0.  1.
</event>
<event>
 5   0  0.9443352E-08  0.2894798E+04  0.7818609E-02  0.8274427E-01
       -1   -1    0    0    0  501  0.00000000000E+00  0.00000000000E+00  0.14831194006E+04  0.14831194006E+04  0.50400001928E-02 0. -1.
        1   -1    0    0  501    0  0.00000000000E+00  0.00000000000E+00 -0.14125389058E+04  0.14125389058E+04  0.50400001928E-02 0.  1.
    10030    2    1    2    0    0  0.00000000000E+00  0.00000000000E+00  0.70580494736E+02  0.28956583064E+04  0.28947979932E+04 0.  0.
        4    1    3    3  502    0  0.14314339800E+04 -0.21421235906E+03  0.43782088883E+02  0.14480361384E+04  0.12699999809E+01 0.  1.
       -4    1    3    3    0  502 -0.14314339800E+04  0.21421235906E+03  0.26798405853E+02  0.14476221680E+04  0.12699999809E+01 0. -1.
</event>
<event>
 5   0  0.2492232E-07  0.2898805E+04  0.7818609E-02  0.8273233E-01
       -2   -1    0    0    0  501  0.00000000000E+00  0.00000000000E+00  0.18749810824E+04  0.18749810824E+04  0.25500000920E-02 0.  1.
        2   -1    0    0  501    0  0.00000000000E+00  0.00000000000E+00 -0.11204209604E+04  0.11204209604E+04  0.25500000920E-02 0. -1.
    10030    2    1    2    0    0  0.00000000000E+00  0.00000000000E+00  0.75456012204E+03  0.29954020428E+04  0.28988053437E+04 0.  0.
        4    1    3    3  502    0  0.47706059054E+03  0.14071789530E+03 -0.10294737126E+04  0.11433311292E+04  0.12699999809E+01 0. -1.
       -4    1    3    3    0  502 -0.47706059054E+03 -0.14071789530E+03  0.17840338347E+04  0.18520709137E+04  0.12699999809E+01 0.  1.
</event>
<event>
 5   0  0.2492232E-07  0.2899070E+04  0.7818609E-02  0.8273154E-01
       -2   -1    0    0    0  501  0.00000000000E+00  0.00000000000E+00  0.78990106896E+03  0.78990106896E+03  0.25500000920E-02 0.  1.
        2   -1    0    0  501    0  0.00000000000E+00  0.00000000000E+00 -0.26600192603E+04  0.26600192603E+04  0.25500000920E-02 0. -1.
    10030    2    1    2    0    0  0.00000000000E+00  0.00000000000E+00 -0.18701181914E+04  0.34499203293E+04  0.28990702352E+04 0.  0.
        4    1    3    3  502    0  0.87942380177E+03  0.67318393141E+03 -0.20479484561E+04  0.23282305127E+04  0.12699999809E+01 0. -1.
       -4    1    3    3    0  502 -0.87942380177E+03 -0.67318393141E+03  0.17783026473E+03  0.11216898166E+04  0.12699999809E+01 0.  1.
</event>
<event>
 5   0  0.9395744E-08  0.2897954E+04  0.7818609E-02  0.8273486E-01
        1   -1    0    0  501    0  0.00000000000E+00  0.00000000000E+00  0.15726291388E+04  0.15726291389E+04  0.50400001928E-02 0. -1.
       -1   -1    0    0    0  501  0.00000000000E+00  0.00000000000E+00 -0.13350475455E+04  0.13350475456E+04  0.50400001928E-02 0.  1.
    10030    2    1    2    0    0  0.00000000000E+00  0.00000000000E+00  0.23758159330E+03  0.29076766844E+04  0.28979542245E+04 0.  0.
        2    1    3    3  502    0 -0.66513374139E+03  0.75017860492E+03 -0.93083733007E+03  0.13680749133E+04  0.25500000920E-02 0.  1.
       -2    1    3    3    0  502  0.66513374139E+03 -0.75017860492E+03  0.11684189234E+04  0.15396017711E+04  0.25500000920E-02 0. -1.
</event>
<event>
 5   0  0.2546841E-07  0.2903091E+04  0.7818609E-02  0.8271958E-01
        2   -1    0    0  501    0  0.00000000000E+00  0.00000000000E+00  0.16053252247E+04  0.16053252247E+04  0.25500000920E-02 0. -1.
       -2   -1    0    0    0  501  0.00000000000E+00  0.00000000000E+00 -0.13124972807E+04  0.13124972807E+04  0.25500000920E-02 0.  1.
    10030    2    1    2    0    0  0.00000000000E+00  0.00000000000E+00  0.29282794396E+03  0.29178225054E+04  0.29030914502E+04 0.  0.
        1    1    3    3  502    0 -0.19351193002E+03  0.14246185743E+04 -0.54600988567E+02  0.14387377166E+04  0.50400001928E-02 0.  1.
       -1    1    3    3    0  502  0.19351193002E+03 -0.14246185743E+04  0.34742893252E+03  0.14790847888E+04  0.50400001928E-02 0. -1.
</event>
<event>
 5   0  0.9388076E-08  0.2900322E+04  0.7818609E-02  0.8272782E-01
        1   -1    0    0  501    0  0.00000000000E+00  0.00000000000E+00  0.11948336224E+04  0.11948336224E+04  0.50400001928E-02 0.  1.
       -1   -1    0    0    0  501  0.00000000000E+00  0.00000000000E+00 -0.17600505417E+04  0.17600505417E+04  0.50400001928E-02 0. -1.
    10030    2    1    2    0    0  0.00000000000E+00  0.00000000000E+00 -0.56521691936E+03  0.29548841641E+04  0.29003224402E+04 0.  0.
        5    1    3    3  502    0 -0.78652578892E+02 -0.11940541693E+04  0.55194365033E+03  0.13178070688E+04  0.46999998093E+01 0.  1.
       -5    1    3    3    0  502  0.78652578892E+02  0.11940541693E+04 -0.11171605697E+04  0.16370770953E+04  0.46999998093E+01 0. -1.
</event>
<event>
 5   0  0.9388076E-08  0.2899857E+04  0.7818609E-02  0.8272920E-01
       -1   -1    0    0    0  501  0.00000000000E+00  0.00000000000E+00  0.12952799281E+04  0.12952799281E+04  0.50400001928E-02 0.  1.
        1   -1    0    0  501    0  0.00000000000E+00  0.00000000000E+00 -0.16230411129E+04  0.16230411129E+04  0.50400001928E-02 0. -1.
    10030    2    1    2    0    0  0.00000000000E+00  0.00000000000E+00 -0.32776118478E+03  0.29183210410E+04  0.28998569454E+04 0.  0.
        5    1    3    3  502    0 -0.80751704332E+03 -0.39007226579E+03  0.98268502430E+03  0.13303879490E+04  0.46999998093E+01 0.  1.
       -5    1    3    3    0  502  0.80751704332E+03  0.39007226579E+03 -0.13104462091E+04  0.15879330920E+04  0.46999998093E+01 0. -1.
</event>
<event>
 5   0  0.9388076E-08  0.2902446E+04  0.7818609E-02  0.8272150E-01
       -1   -1    0    0    0  501  0.00000000000E+00  0.00000000000E+00  0.20750867899E+04  0.20750867899E+04  0.50400001928E-02 0. -1.
        1   -1    0    0  501    0  0.00000000000E+00  0.00000000000E+00 -0.10149203538E+04  0.10149203538E+04  0.50400001928E-02 0.  1.
    10030    2    1    2    0    0  0.00000000000E+00  0.00000000000E+00  0.10601664361E+04  0.30900071437E+04  0.29024457405E+04 0.  0.
        5    1    3    3  502    0  0.35716975417E+03 -0.15629651442E+03 -0.95811452790E+03  0.10344101567E+04  0.46999998093E+01 0.  1.
       -5    1    3    3    0  502 -0.35716975417E+03  0.15629651442E+03  0.20182809640E+04  0.20555969871E+04  0.46999998093E+01 0. -1.
</event>
<event>
 5   0  0.9395744E-08  0.2899002E+04  0.7818609E-02  0.8273174E-01
        1   -1    0    0  501    0  0.00000000000E+00  0.00000000000E+00  0.13510261158E+04  0.13510261158E+04  0.50400001928E-02 0. -1.
       -1   -1    0    0    0  501  0.00000000000E+00  0.00000000000E+00 -0.15551540212E+04  0.15551540212E+04  0.50400001928E-02 0.  1.
    10030    2    1    2    0    0  0.00000000000E+00  0.00000000000E+00 -0.20412790539E+03  0.29061801370E+04  0.28990023779E+04 0.  0.
        2    1    3    3  502    0 -0.11742198608E+04  0.11187560842E+03  0.74248574342E+03  0.13937695335E+04  0.25500000920E-02 0. -1.
       -2    1    3    3    0  502  0.11742198608E+04 -0.11187560842E+03 -0.94661364881E+03  0.15124106035E+04  0.25500000920E-02 0.  1.
</event>
<event>
 5   0  0.2534588E-07  0.2900071E+04  0.7818609E-02  0.8272856E-01
       -2   -1    0    0    0  501  0.00000000000E+00  0.00000000000E+00  0.13860062801E+04  0.13860062801E+04  0.25500000920E-02 0.  1.
        2   -1    0    0  501    0  0.00000000000E+00  0.00000000000E+00 -0.15170231827E+04  0.15170231827E+04  0.25500000920E-02 0. -1.
    10030    2    1    2    0    0  0.00000000000E+00  0.00000000000E+00 -0.13101690263E+03  0.29030294628E+04  0.29000714876E+04 0.  0.
        3    1    3    3  502    0 -0.26653068331E+03 -0.13251840459E+04  0.45986234931E+03  0.14278041711E+04  0.10100000352E+00 0.  1.
       -3    1    3    3    0  502  0.26653068331E+03  0.13251840459E+04 -0.59087925193E+03  0.14752252917E+04  0.10100000352E+00 0. -1.
</event>
<event>
 5   0  0.2678723E-07  0.2900749E+04  0.7818609E-02  0.8272655E-01
       -2   -1    0    0    0  501  0.00000000000E+00  0.00000000000E+00  0.12587294388E+04  0.12587294388E+04  0.25500000920E-02 0.  1.
        2   -1    0    0  501    0  0.00000000000E+00  0.00000000000E+00 -0.16711980022E+04  0.16711980022E+04  0.25500000920E-02 0. -1.
    10030    2    1    2    0    0  0.00000000000E+00  0.00000000000E+00 -0.41246856348E+03  0.29299274410E+04  0.29007489539E+04 0.  0.
        5    1    3    3  502    0  0.32823777246E+03  0.79942346924E+03  0.97027677858E+03  0.12993371524E+04  0.46999998093E+01 0.  1.
       -5    1    3    3    0  502 -0.32823777246E+03 -0.79942346924E+03 -0.13827453421E+04  0.16305902887E+04  0.46999998093E+01 0. -1.
</event>
<event>
 5   0  0.2608591E-07  0.2900770E+04  0.7818609E-02  0.8272648E-01
       -2   -1    0    0    0  501  0.00000000000E+00  0.00000000000E+00  0.13185295933E+04  0.13185295933E+04  0.25500000920E-02 0.  1.
        2   -1    0    0  501    0  0.00000000000E+00  0.00000000000E+00 -0.15954264880E+04  0.15954264880E+04  0.25500000920E-02 0. -1.
    10030    2    1    2    0    0  0.00000000000E+00  0.00000000000E+00 -0.27689689468E+03  0.29139560813E+04  0.29007702690E+04 0.  0.
        2    1    3    3  502    0  0.16799973220E+03 -0.11340874218E+04  0.75398100234E+03  0.13721754779E+04  0.25500000920E-02 0.  1.
       -2    1    3    3    0  502 -0.16799973220E+03  0.11340874218E+04 -0.10308778970E+04  0.15417806034E+04  0.25500000920E-02 0. -1.
</event>
<event>
 5   0  0.9443352E-08  0.2901624E+04  0.7818609E-02  0.8272394E-01
        1   -1    0    0  501    0  0.00000000000E+00  0.00000000000E+00  0.12757415330E+04  0.12757415330E+04  0.50400001928E-02 0.  1.
       -1   -1    0    0    0  501  0.00000000000E+00  0.00000000000E+00 -0.16499076344E+04  0.16499076344E+04  0.50400001928E-02 0. -1.
    10030    2    1    2    0    0  0.00000000000E+00  0.00000000000E+00 -0.37416610144E+03  0.29256491675E+04  0.29016241624E+04 0.  0.
        4    1    3    3  502    0 -0.85590365017E+03  0.10848652208E+04  0.25856121651E+03  0.14058304028E+04  0.12699999809E+01 0.  1.
       -4    1    3    3    0  502  0.85590365017E+03 -0.10848652208E+04 -0.63272731795E+03  0.15198187647E+04  0.12699999809E+01 0. -1.
</event>
<event>
 5   0  0.2546841E-07  0.2901199E+04  0.7818609E-02  0.8272521E-01
       -2   -1    0    0    0  501  0.00000000000E+00  0.00000000000E+00  0.99786887882E+03  0.99786887882E+03  0.25500000920E-02 0.  1.
        2   -1    0    0  501    0  0.00000000000E+00  0.00000000000E+00 -0.21087327090E+04  0.21087327090E+04  0.25500000920E-02 0. -1.
    10030    2    1    2    0    0  0.00000000000E+00  0.00000000000E+00 -0.11108638302E+04  0.31066015878E+04  0.29011988860E+04 0.  0.
        1    1    3    3  502    0  0.12558428330E+04  0.70624658322E+03 -0.73561051138E+03  0.16177293600E+04  0.50400001928E-02 0. -1.
       -1    1    3    3    0  502 -0.12558428330E+04 -0.70624658322E+03 -0.37525331879E+03  0.14888722279E+04  0.50400001928E-02 0.  1.
</event>
<event>
 5   0  0.9395744E-08  0.2900311E+04  0.7818609E-02  0.8272785E-01
       -1   -1    0    0    0  501  0.00000000000E+00  0.00000000000E+00  0.73911951432E+03  0.73911951434E+03  0.50400001928E-02 0. -1.
        1   -1    0    0  501    0  0.00000000000E+00  0.00000000000E+00 -0.28452116483E+04  0.28452116484E+04  0.50400001928E-02 0.  1.
    10030    2    1    2    0    0  0.00000000000E+00  0.00000000000E+00 -0.21060921340E+04  0.35843311627E+04  0.29003113293E+04 0.  0.
        2    1    3    3  502    0  0.39672582677E+02  0.99013618786E+03  0.25543619393E+03  0.10233236211E+04  0.25500000920E-02 0. -1.
       -2    1    3    3    0  502 -0.39672582677E+02 -0.99013618786E+03 -0.23615283280E+04  0.25610075416E+04  0.25500000920E-02 0.  1.
</event>
<event>
 5   0  0.9421924E-08  0.2904200E+04  0.7818609E-02  0.8271629E-01
        1   -1    0    0  501    0  0.00000000000E+00  0.00000000000E+00  0.18922820977E+04  0.18922820977E+04  0.50400001928E-02 0.  1.
       -1   -1    0    0    0  501  0.00000000000E+00  0.00000000000E+00 -0.11143126385E+04  0.11143126385E+04  0.50400001928E-02 0. -1.
    10030    2    1    2    0    0  0.00000000000E+00  0.00000000000E+00  0.77796945916E+03  0.30065947362E+04  0.29041996193E+04 0.  0.
        1    1    3    3  502    0 -0.10639448878E+04 -0.95258790826E+03  0.66130158186E+03  0.15737605375E+04  0.50400001928E-02 0. -1.
       -1    1    3    3    0  502  0.10639448878E+04  0.95258790826E+03  0.11666787730E+03  0.14328341987E+04  0.50400001928E-02 0.  1.
</event>
<event>
 5   0  0.9763851E-08  0.2899980E+04  0.7818609E-02  0.8272883E-01
        1   -1    0    0  501    0  0.00000000000E+00  0.00000000000E+00  0.21015104900E+04  0.21015104900E+04  0.50400001928E-02 0. -1.
       -1   -1    0    0    0  501  0.00000000000E+00  0.00000000000E+00 -0.10004572872E+04  0.10004572872E+04  0.50400001928E-02 0.  1.
    10030    2    1    2    0    0  0.00000000000E+00  0.00000000000E+00  0.11010532028E+04  0.31019677771E+04  0.28999803336E+04 0.  0.
        3    1    3    3  502    0 -0.64906665569E+03 -0.72983025914E+03  0.16968673508E+04  0.19578811371E+04  0.10100000352E+00 0. -1.
       -3    1    3    3    0  502  0.64906665569E+03  0.72983025914E+03 -0.59581414801E+03  0.11440866400E+04  0.10100000352E+00 0.  1.
</event>
<event>
 5   0  0.9395744E-08  0.2899773E+04  0.7818609E-02  0.8272945E-01
        1   -1    0    0  501    0  0.00000000000E+00  0.00000000000E+00  0.20594707237E+04  0.20594707237E+04  0.50400001928E-02 0. -1.
       -1   -1    0    0    0  501  0.00000000000E+00  0.00000000000E+00 -0.10207334940E+04  0.10207334940E+04  0.50400001928E-02 0.  1.
    10030    2    1    2    0    0  0.00000000000E+00  0.00000000000E+00  0.10387372297E+04  0.30802042176E+04  0.28997729204E+04 0.  0.
        2    1    3    3  502    0  0.45571410167E+03 -0.53220072610E+03  0.18677043245E+04  0.19948013433E+04  0.25500000920E-02 0. -1.
       -2    1    3    3    0  502 -0.45571410167E+03  0.53220072610E+03 -0.82896709484E+03  0.10854028744E+04  0.25500000920E-02 0.  1.
</event>
<event>
 5   0  0.9763851E-08  0.2900467E+04  0.7818609E-02  0.8272739E-01
       -1   -1    0    0    0  501  0.00000000000E+00  0.00000000000E+00  0.10019371957E+04  0.10019371957E+04  0.50400001928E-02 0.  1.
        1   -1    0    0  501    0  0.00000000000E+00  0.00000000000E+00 -0.20991106080E+04  0.20991106080E+04  0.50400001928E-02 0. -1.
    10030    2    1    2    0    0  0.00000000000E+00  0.00000000000E+00 -0.10971734123E+04  0.31010478038E+04  0.29004668563E+04 0.  0.
        3    1    3    3  502    0  0.40603150477E+03 -0.49396694139E+03 -0.19402598792E+04  0.20429080574E+04  0.10100000352E+00 0. -1.
       -3    1    3    3    0  502 -0.40603150477E+03  0.49396694139E+03  0.84308646687E+03  0.10581397464E+04  0.10100000352E+00 0.  1.
</event>
<event>
 5   0  0.9421924E-08  0.2900659E+04  0.7818609E-02  0.8272681E-01
       -1   -1    0    0    0  501  0.00000000000E+00  0.00000000000E+00  0.89345216422E+03  0.89345216423E+03  0.50400001928E-02 0. -1.
        1   -1    0    0  501    0  0.00000000000E+00  0.00000000000E+00 -0.23543019112E+04  0.23543019112E+04  0.50400001928E-02 0.  1.
    10030    2    1    2    0    0  0.00000000000E+00  0.00000000000E+00 -0.14608497469E+04  0.32477540754E+04  0.29006593304E+04 0.  0.
        1    1    3    3  502    0 -0.58884955027E+03 -0.10450473653E+04  0.18234809961E+03  0.12133089541E+04  0.50400001928E-02 0. -1.
       -1    1    3    3    0  502  0.58884955027E+03  0.10450473653E+04 -0.16431978466E+04  0.20344451213E+04  0.50400001928E-02 0.  1.
</event>
<event>
 5   0  0.9395744E-08  0.2901908E+04  0.7818609E-02  0.8272310E-01
        1   -1    0    0  501    0  0.00000000000E+00  0.00000000000E+00  0.20788160662E+04  0.20788160662E+04  0.50400001928E-02 0. -1.
       -1   -1    0    0    0  501  0.00000000000E+00  0.00000000000E+00 -0.10127243941E+04  0.10127243941E+04  0.50400001928E-02 0.  1.
    10030    2    1    2    0    0  0.00000000000E+00  0.00000000000E+00  0.10660916721E+04  0.30915404604E+04  0.29019081593E+04 0.  0.
        2    1    3    3  502    0 -0.12575027374E+04 -0.72039395736E+03  0.60828043565E+03  0.15717142478E+04  0.25500000920E-02 0.  1.
       -2    1    3    3    0  502  0.12575027374E+04  0.72039395736E+03  0.45781123647E+03  0.15198262126E+04  0.25500000920E-02 0. -1.
</event>
<event>
 5   0  0.2608591E-07  0.2900101E+04  0.7818609E-02  0.8272848E-01
        2   -1    0    0  501    0  0.00000000000E+00  0.00000000000E+00  0.18609827319E+04  0.18609827319E+04  0.25500000920E-02 0.  1.
       -2   -1    0    0    0  501  0.00000000000E+00  0.00000000000E+00 -0.11298578744E+04  0.11298578744E+04  0.25500000920E-02 0. -1.
    10030    2    1    2    0    0  0.00000000000E+00  0.00000000000E+00  0.73112485752E+03  0.29908406063E+04  0.29001006836E+04 0.  0.
        2    1    3    3  502    0  0.11544619317E+04  0.85517584596E+03  0.56801546638E+03  0.15449108872E+04  0.25500000920E-02 0.  1.
       -2    1    3    3    0  502 -0.11544619317E+04 -0.85517584596E+03  0.16310939114E+03  0.14459297191E+04  0.25500000920E-02 0. -1.
</event>
<event>
 5   0  0.9395744E-08  0.2898965E+04  0.7818609E-02  0.8273186E-01
       -1   -1    0    0    0  501  0.00000000000E+00  0.00000000000E+00  0.95697058633E+03  0.95697058635E+03  0.50400001928E-02 0.  1.
        1   -1    0    0  501    0  0.00000000000E+00  0.00000000000E+00 -0.21954690485E+04  0.21954690486E+04  0.50400001928E-02 0. -1.
    10030    2    1    2    0    0  0.00000000000E+00  0.00000000000E+00 -0.12384984622E+04  0.31524396349E+04  0.28989648516E+04 0.  0.
        2    1    3    3  502    0 -0.12295004377E+04  0.39871142807E+03  0.94126536077E+02  0.12959559923E+04  0.25500000920E-02 0.  1.
       -2    1    3    3    0  502  0.12295004377E+04 -0.39871142807E+03 -0.13326249983E+04  0.18564836426E+04  0.25500000920E-02 0. -1.
</event>
<event>
 5   0  0.9388076E-08  0.2901779E+04  0.7818609E-02  0.8272348E-01
       -1   -1    0    0    0  501  0.00000000000E+00  0.00000000000E+00  0.11352572300E+04  0.11352572300E+04  0.50400001928E-02 0. -1.
        1   -1    0    0  501    0  0.00000000000E+00  0.00000000000E+00 -0.18542760974E+04  0.18542760974E+04  0.50400001928E-02 0.  1.
    10030    2    1    2    0    0  0.00000000000E+00  0.00000000000E+00 -0.71901886744E+03  0.29895333274E+04  0.29017790033E+04 0.  0.
        5    1    3    3  502    0 -0.13991771901E+04 -0.38201433506E+03 -0.39842058991E+03  0.15041252667E+04  0.46999998093E+01 0.  1.
       -5    1    3    3    0  502  0.13991771901E+04  0.38201433506E+03 -0.32059827753E+03  0.14854080608E+04  0.46999998093E+01 0. -1.
</event>
<event>
 5   0  0.2534588E-07  0.2901794E+04  0.7818609E-02  0.8272344E-01
       -2   -1    0    0    0  501  0.00000000000E+00  0.00000000000E+00  0.11947497690E+04  0.11947497690E+04  0.25500000920E-02 0. -1.
        2   -1    0    0  501    0  0.00000000000E+00  0.00000000000E+00 -0.17619606170E+04  0.17619606170E+04  0.25500000920E-02 0.  1.
    10030    2    1    2    0    0  0.00000000000E+00  0.00000000000E+00 -0.56721084802E+03  0.29567103861E+04  0.29017939556E+04 0.  0.
        3    1    3    3  502    0  0.39813087848E+03  0.12075801371E+04 -0.99564669009E+03  0.16149521124E+04  0.10100000352E+00 0.  1.
       -3    1    3    3    0  502 -0.39813087848E+03 -0.12075801371E+04  0.42843584206E+03  0.13417582736E+04  0.10100000352E+00 0. -1.
</event>
<event>
 5   0  0.2534588E-07  0.2900024E+04  0.7818609E-02  0.8272870E-01
        2   -1    0    0  501    0  0.00000000000E+00  0.00000000000E+00  0.17838959585E+04  0.17838959585E+04  0.25500000920E-02 0.  1.
       -2   -1    0    0    0  501  0.00000000000E+00  0.00000000000E+00 -0.11786193281E+04  0.11786193281E+04  0.25500000920E-02 0. -1.
    10030    2    1    2    0    0  0.00000000000E+00  0.00000000000E+00  0.60527663038E+03  0.29625152866E+04  0.29000236248E+04 0.  0.
        3    1    3    3  502    0  0.46236782906E+03 -0.11537669500E+04  0.10654363515E+04  0.16371062316E+04  0.10100000352E+00 0.  1.
       -3    1    3    3    0  502 -0.46236782906E+03  0.11537669500E+04 -0.46015972108E+03  0.13254090551E+04  0.10100000352E+00 0. -1.
</event>
<event>
 5   0  0.2492232E-07  0.2899808E+04  0.7818609E-02  0.8272935E-01
       -2   -1    0    0    0  501  0.00000000000E+00  0.00000000000E+00  0.15475675553E+04  0.15475675553E+04  0.25500000920E-02 0. -1.
        2   -1    0    0  501    0  0.00000000000E+00  0.00000000000E+00 -0.13584039176E+04  0.13584039176E+04  0.25500000920E-02 0.  1.
    10030    2    1    2    0    0  0.00000000000E+00  0.00000000000E+00  0.18916363766E+03  0.29059714730E+04  0.28998081522E+04 0.  0.
        4    1    3    3  502    0 -0.67303061016E+03  0.33257514334E+03 -0.11484754121E+04  0.13720691722E+04  0.12699999809E+01 0.  1.
       -4    1    3    3    0  502  0.67303061016E+03 -0.33257514334E+03  0.13376390497E+04  0.15339023008E+04  0.12699999809E+01 0. -1.
</event>
<event>
 5   0  0.2534588E-07  0.2899668E+04  0.7818609E-02  0.8272976E-01
       -2   -1    0    0    0  501  0.00000000000E+00  0.00000000000E+00  0.81205463370E+03  0.81205463370E+03  0.25500000920E-02 0. -1.
        2   -1    0    0  501    0  0.00000000000E+00  0.00000000000E+00 -0.25885193282E+04  0.25885193282E+04  0.25500000920E-02 0.  1.
    10030    2    1    2    0    0  0.00000000000E+00  0.00000000000E+00 -0.17764646945E+04  0.34005739619E+04  0.28996683361E+04 0.  0.
        3    1    3    3  502    0  0.47357082258E+03  0.12529318828E+04 -0.15389863347E+04  0.20402417934E+04  0.10100000352E+00 0.  1.
       -3    1    3    3    0  502 -0.47357082258E+03 -0.12529318828E+04 -0.23747835977E+03  0.13603321685E+04  0.10100000352E+00 0. -1.
</event>
<event>
 5   0  0.2546841E-07  0.2900089E+04  0.7818609E-02  0.8272851E-01
       -2   -1    0    0    0  501  0.00000000000E+00  0.00000000000E+00  0.10689913903E+04  0.10689913903E+04  0.25500000920E-02 0.  1.
        2   -1    0    0  501    0  0.00000000000E+00  0.00000000000E+00 -0.19669276853E+04  0.19669276853E+04  0.25500000920E-02 0. -1.
    10030    2    1    2    0    0  0.00000000000E+00  0.00000000000E+00 -0.89793629506E+03  0.30359190756E+04  0.29000887992E+04 0.  0.
        1    1    3    3  502    0  0.10027717755E+04 -0.75150718609E+03 -0.12127389173E+04  0.17438606499E+04  0.50400001928E-02 0. -1.
       -1    1    3    3    0  502 -0.10027717755E+04  0.75150718609E+03  0.31480262225E+03  0.12920584257E+04  0.50400001928E-02 0.  1.
</event>
<event>
 5   0  0.2534588E-07  0.2901918E+04  0.7818609E-02  0.8272307E-01
       -2   -1    0    0    0  501  0.00000000000E+00  0.00000000000E+00  0.10773133855E+04  0.10773133855E+04  0.25500000920E-02 0. -1.
        2   -1    0    0  501    0  0.00000000000E+00  0.00000000000E+00 -0.19541960954E+04  0.19541960954E+04  0.25500000920E-02 0.  1.
    10030    2    1    2    0    0  0.00000000000E+00  0.00000000000E+00 -0.87688270989E+03  0.30315094810E+04  0.29019177187E+04 0.  0.
        3    1    3    3  502    0 -0.98153601641E+03  0.10683393441E+04 -0.41462647585E+03  0.15088661406E+04  0.10100000352E+00 0. -1.
       -3    1    3    3    0  502  0.98153601641E+03 -0.10683393441E+04 -0.46225623404E+03  0.15226433403E+04  0.10100000352E+00 0.  1.
</event>
<event>
 5   0  0.2678723E-07  0.2900096E+04  0.7818609E-02  0.8272849E-01
       -2   -1    0    0    0  501  0.00000000000E+00  0.00000000000E+00  0.10976376458E+04  0.10976376458E+04  0.25500000920E-02 0.  1.
        2   -1    0    0  501    0  0.00000000000E+00  0.00000000000E+00 -0.19156035743E+04  0.19156035743E+04  0.25500000920E-02 0. -1.
    10030    2    1    2    0    0  0.00000000000E+00  0.00000000000E+00 -0.81796592848E+03  0.30132412200E+04  0.29000955829E+04 0.  0.
        5    1    3    3  502    0  0.42571745041E+03 -0.11808510514E+04 -0.11632329995E+04  0.17113671887E+04  0.46999998093E+01 0. -1.
       -5    1    3    3    0  502 -0.42571745041E+03  0.11808510514E+04  0.34526707104E+03  0.13018740314E+04  0.46999998093E+01 0.  1.
</event>
<event>
 5   0  0.9388076E-08  0.2895969E+04  0.7818609E-02  0.8274078E-01
        1   -1    0    0  501    0  0.00000000000E+00  0.00000000000E+00  0.21711397979E+04  0.21711397979E+04  0.50400001928E-02 0. -1.
       -1   -1    0    0    0  501  0.00000000000E+00  0.00000000000E+00 -0.96569540284E+03  0.96569540285E+03  0.50400001928E-02 0.  1.
    10030    2    1    2    0    0  0.00000000000E+00  0.00000000000E+00  0.12054443951E+04  0.31368352008E+04  0.28959694210E+04 0.  0.
        5    1    3    3  502    0  0.56728569347E+03  0.12913364066E+04  0.95749204970E+03  0.17047509754E+04  0.46999998093E+01 0. -1.
       -5    1    3    3    0  502 -0.56728569347E+03 -0.12913364066E+04  0.24795234537E+03  0.14320842254E+04  0.46999998093E+01 0.  1.
</event>
<event>
 5   0  0.9421924E-08  0.2899897E+04  0.7818609E-02  0.8272908E-01
       -1   -1    0    0    0  501  0.00000000000E+00  0.00000000000E+00  0.11281265867E+04  0.11281265867E+04  0.50400001928E-02 0. -1.
        1   -1    0    0  501    0  0.00000000000E+00  0.00000000000E+00 -0.18635768492E+04  0.18635768492E+04  0.50400001928E-02 0.  1.
    10030    2    1    2    0    0  0.00000000000E+00  0.00000000000E+00 -0.73545026250E+03  0.29917034360E+04  0.28998969568E+04 0.  0.
        1    1    3    3  502    0 -0.10067046817E+04 -0.85536572454E+03  0.24889757101E+03  0.13442673989E+04  0.50400001928E-02 0. -1.
       -1    1    3    3    0  502  0.10067046817E+04  0.85536572454E+03 -0.98434783351E+03  0.16474360371E+04  0.50400001928E-02 0.  1.
</event>
<event>
 5   0  0.9763851E-08  0.2899792E+04  0.7818609E-02  0.8272939E-01
       -1   -1    0    0    0  501  0.00000000000E+00  0.00000000000E+00  0.13507428895E+04  0.13507428895E+04  0.50400001928E-02 0.  1.
        1   -1    0    0  501    0  0.00000000000E+00  0.00000000000E+00 -0.15563278441E+04  0.15563278441E+04  0.50400001928E-02 0. -1.
    10030    2    1    2    0    0  0.00000000000E+00  0.00000000000E+00 -0.20558495459E+03  0.29070707336E+04  0.28997922471E+04 0.  0.
        3    1    3    3  502    0  0.31549414991E+03 -0.36387575875E+03  0.12682133994E+04  0.13565792874E+04  0.10100000352E+00 0.  1.
       -3    1    3    3    0  502 -0.31549414991E+03  0.36387575875E+03 -0.14737983539E+04  0.15504914462E+04  0.10100000352E+00 0. -1.
</event>
<event>
 5   0  0.9421924E-08  0.2899397E+04  0.7818609E-02  0.8273057E-01
       -1   -1    0    0    0  501  0.00000000000E+00  0.00000000000E+00  0.74113847549E+03  0.74113847551E+03  0.50400001928E-02 0.  1.
        1   -1    0    0  501    0  0.00000000000E+00  0.00000000000E+00 -0.28356718245E+04  0.28356718245E+04  0.50400001928E-02 0. -1.
    10030    2    1    2    0    0  0.00000000000E+00  0.00000000000E+00 -0.20945333491E+04  0.35768103001E+04  0.28993968291E+04 0.  0.
        1    1    3    3  502    0 -0.11040251374E+02  0.12819100893E+04 -0.18823322686E+04  0.22774086444E+04  0.50400001928E-02 0. -1.
       -1    1    3    3    0  502  0.11040251374E+02 -0.12819100893E+04 -0.21220108044E+03  0.12994016556E+04  0.50400001928E-02 0.  1.
</event>
<event>
 5   0  0.9443352E-08  0.2900423E+04  0.7818609E-02  0.8272752E-01
        1   -1    0    0  501    0  0.00000000000E+00  0.00000000000E+00  0.16801175057E+04  0.16801175057E+04  0.50400001928E-02 0.  1.
       -1   -1    0    0    0  501  0.00000000000E+00  0.00000000000E+00 -0.12517656780E+04  0.12517656780E+04  0.50400001928E-02 0. -1.
    10030    2    1    2    0    0  0.00000000000E+00  0.00000000000E+00  0.42835182770E+03  0.29318831838E+04  0.29004230234E+04 0.  0.
        4    1    3    3  502    0  0.23477193003E+03  0.11795457947E+04 -0.60496284629E+03  0.13462643868E+04  0.12699999809E+01 0. -1.
       -4    1    3    3    0  502 -0.23477193003E+03 -0.11795457947E+04  0.10333146740E+04  0.15856187970E+04  0.12699999809E+01 0.  1.
</event>
<event>
 5   0  0.2492232E-07  0.2900389E+04  0.7818609E-02  0.8272762E-01
        2   -1    0    0  501    0  0.00000000000E+00  0.00000000000E+00  0.27013370399E+04  0.27013370399E+04  0.25500000920E-02 0.  1.
       -2   -1    0    0    0  501  0.00000000000E+00  0.00000000000E+00 -0.77852686095E+03  0.77852686095E+03  0.25500000920E-02 0. -1.
    10030    2    1    2    0    0  0.00000000000E+00  0.00000000000E+00  0.19228101790E+04  0.34798639009E+04  0.29003885575E+04 0.  0.
        4    1    3    3  502    0 -0.83481460469E+03 -0.10991361716E+04  0.42746908556E+03  0.14449038653E+04  0.12699999809E+01 0. -1.
       -4    1    3    3    0  502  0.83481460469E+03  0.10991361716E+04  0.14953410934E+04  0.20349600356E+04  0.12699999809E+01 0.  1.
</event>
<event>
 5   0  0.2678723E-07  0.2899101E+04  0.7818609E-02  0.8273145E-01
       -2   -1    0    0    0  501  0.00000000000E+00  0.00000000000E+00  0.13208015648E+04  0.13208015649E+04  0.25500000920E-02 0.  1.
        2   -1    0    0  501    0  0.00000000000E+00  0.00000000000E+00 -0.15908493667E+04  0.15908493667E+04  0.25500000920E-02 0. -1.
    10030    2    1    2    0    0  0.00000000000E+00  0.00000000000E+00 -0.27004780190E+03  0.29116509316E+04  0.28991007799E+04 0.  0.
        5    1    3    3  502    0 -0.77126681102E+03 -0.56876446593E+03 -0.12273113098E+04  0.15571321886E+04  0.46999998093E+01 0. -1.
       -5    1    3    3    0  502  0.77126681102E+03  0.56876446593E+03  0.95726350795E+03  0.13545187430E+04  0.46999998093E+01 0.  1.
</event>
<event>
 5   0  0.9421924E-08  0.2899606E+04  0.7818609E-02  0.8272995E-01
       -1   -1    0    0    0  501  0.00000000000E+00  0.00000000000E+00  0.11479987425E+04  0.11479987426E+04  0.50400001928E-02 0. -1.
        1   -1    0    0  501    0  0.00000000000E+00  0.00000000000E+00 -0.18309497752E+04  0.18309497752E+04  0.50400001928E-02 0.  1.
    10030    2    1    2    0    0  0.00000000000E+00  0.00000000000E+00 -0.68295103265E+03  0.29789485178E+04  0.28996055177E+04 0.  0.
        1    1    3    3  502    0  0.14188032174E+04  0.28369745550E+03 -0.43586569028E+03  0.15111140645E+04  0.50400001928E-02 0.  1.
       -1    1    3    3    0  502 -0.14188032174E+04 -0.28369745550E+03 -0.24708534238E+03  0.14678344533E+04  0.50400001928E-02 0. -1.
</event>
<event>
 5   0  0.2534588E-07  0.2901095E+04  0.7818609E-02  0.8272552E-01
        2   -1    0    0  501    0  0.00000000000E+00  0.00000000000E+00  0.15026947454E+04  0.15026947454E+04  0.25500000920E-02 0.  1.
       -2   -1    0    0    0  501  0.00000000000E+00  0.00000000000E+00 -0.14002094422E+04  0.14002094422E+04  0.25500000920E-02 0. -1.
    10030    2    1    2    0    0  0.00000000000E+00  0.00000000000E+00  0.10248530323E+03  0.29029041877E+04  0.29010945323E+04 0.  0.
        3    1    3    3  502    0  0.80565419225E+03  0.11755723012E+04 -0.21918219411E+03  0.14419049057E+04  0.10100000352E+00 0. -1.
       -3    1    3    3    0  502 -0.80565419225E+03 -0.11755723012E+04  0.32166749734E+03  0.14609992819E+04  0.10100000352E+00 0.  1.
</event>
<event>
 5   0  0.2546841E-07  0.2899213E+04  0.7818609E-02  0.8273112E-01
       -2   -1    0    0    0  501  0.00000000000E+00  0.00000000000E+00  0.87812929256E+03  0.87812929256E+03  0.25500000920E-02 0. -1.
        2   -1    0    0  501    0  0.00000000000E+00  0.00000000000E+00 -0.23929951908E+04  0.23929951908E+04  0.25500000920E-02 0.  1.
    10030    2    1    2    0    0  0.00000000000E+00  0.00000000000E+00 -0.15148658983E+04  0.32711244834E+04  0.28992131167E+04 0.  0.
        1    1    3    3  502    0 -0.52264857531E+03 -0.51475875577E+03 -0.21681084693E+04  0.22888495898E+04  0.50400001928E-02 0.  1.
       -1    1    3    3    0  502  0.52264857531E+03  0.51475875577E+03  0.65324257106E+03  0.98227489360E+03  0.50400001928E-02 0. -1.
</event>
<event>
 5   0  0.2608591E-07  0.2903249E+04  0.7818609E-02  0.8271911E-01
        2   -1    0    0  501    0  0.00000000000E+00  0.00000000000E+00  0.14580571640E+04  0.14580571640E+04  0.25500000920E-02 0. -1.
       -2   -1    0    0    0  501  0.00000000000E+00  0.00000000000E+00 -0.14452203702E+04  0.14452203702E+04  0.25500000920E-02 0.  1.
    10030    2    1    2    0    0  0.00000000000E+00  0.00000000000E+00  0.12836793826E+02  0.29032775343E+04  0.29032491553E+04 0.  0.
        2    1    3    3  502    0 -0.49369004122E+03 -0.13422161607E+04  0.25529797898E+03  0.14527391841E+04  0.25500000920E-02 0. -1.
       -2    1    3    3    0  502  0.49369004122E+03  0.13422161607E+04 -0.24246118515E+03  0.14505383502E+04  0.25500000920E-02 0.  1.
</event>
<event>
 5   0  0.9395744E-08  0.2898469E+04  0.7818609E-02  0.8273333E-01
       -1   -1    0    0    0  501  0.00000000000E+00  0.00000000000E+00  0.12612688804E+04  0.12612688804E+04  0.50400001928E-02 0. -1.
        1   -1    0    0  501    0  0.00000000000E+00  0.00000000000E+00 -0.16652125641E+04  0.16652125641E+04  0.50400001928E-02 0.  1.
    10030    2    1    2    0    0  0.00000000000E+00  0.00000000000E+00 -0.40394368370E+03  0.29264814445E+04  0.28984691037E+04 0.  0.
        2    1    3    3  502    0 -0.64636792396E+03  0.36900794828E+03 -0.14575019358E+04  0.16365421632E+04  0.25500000920E-02 0.  1.
       -2    1    3    3    0  502  0.64636792396E+03 -0.36900794828E+03  0.10535582521E+04  0.12899392813E+04  0.25500000920E-02 0. -1.
</event>
<event>
 5   0  0.9443352E-08  0.2899636E+04  0.7818609E-02  0.8272986E-01
        1   -1    0    0  501    0  0.00000000000E+00  0.00000000000E+00  0.24215582095E+04  0.24215582095E+04  0.50400001928E-02 0.  1.
       -1   -1    0    0    0  501  0.00000000000E+00  0.00000000000E+00 -0.86802491987E+03  0.86802491988E+03  0.50400001928E-02 0. -1.
    10030    2    1    2    0    0  0.00000000000E+00  0.00000000000E+00  0.15535332896E+04  0.32895831294E+04  0.28996364398E+04 0.  0.
        4    1    3    3  502    0 -0.30184287524E+03 -0.12406604231E+04 -0.23369296834E+01  0.12768533514E+04  0.12699999809E+01 0. -1.
       -4    1    3    3    0  502  0.30184287524E+03  0.12406604231E+04  0.15558702193E+04  0.20127297780E+04  0.12699999809E+01 0.  1.
</event>
<event>
 5   0  0.2678723E-07  0.2899788E+04  0.7818609E-02  0.8272940E-01
        2   -1    0    0  501    0  0.00000000000E+00  0.00000000000E+00  0.15539745312E+04  0.15539745312E+04  0.25500000920E-02 0. -1.
       -2   -1    0    0    0  501  0.00000000000E+00  0.00000000000E+00 -0.13527848352E+04  0.13527848352E+04  0.25500000920E-02 0.  1.
    10030    2    1    2    0    0  0.00000000000E+00  0.00000000000E+00  0.20118969596E+03  0.29067593664E+04  0.28997883924E+04 0.  0.
        5    1    3    3  502    0 -0.92832161452E+03 -0.10967897861E+04  0.29455997583E+03  0.14668048692E+04  0.46999998093E+01 0.  1.
       -5    1    3    3    0  502  0.92832161452E+03  0.10967897861E+04 -0.93370279863E+02  0.14399544972E+04  0.46999998093E+01 0. -1.
</event>
<event>
 5   0  0.9395744E-08  0.2900391E+04  0.7818609E-02  0.8272761E-01
        1   -1    0    0  501    0  0.00000000000E+00  0.00000000000E+00  0.26019496735E+04  0.26019496735E+04  0.50400001928E-02 0.  1.
       -1   -1    0    0    0  501  0.00000000000E+00  0.00000000000E+00 -0.80826608449E+03  0.80826608451E+03  0.50400001928E-02 0. -1.
    10030    2    1    2    0    0  0.00000000000E+00  0.00000000000E+00  0.17936835890E+04  0.34102157580E+04  0.29003914734E+04 0.  0.
        2    1    3    3  502    0  0.72148173733E+03 -0.86617980243E+03 -0.17580287097E+03  0.11409250619E+04  0.25500000920E-02 0. -1.
       -2    1    3    3    0  502 -0.72148173733E+03  0.86617980243E+03  0.19694864600E+04  0.22692906961E+04  0.25500000920E-02 0.  1.
</event>
<event>
 5   0  0.9388076E-08  0.2902464E+04  0.7818609E-02  0.8272145E-01
       -1   -1    0    0    0  501  0.00000000000E+00  0.00000000000E+00  0.14185097350E+04  0.14185097351E+04  0.50400001928E-02 0.  1.
        1   -1    0    0  501    0  0.00000000000E+00  0.00000000000E+00 -0.14847086208E+04  0.14847086208E+04  0.50400001928E-02 0. -1.
    10030    2    1    2    0    0  0.00000000000E+00  0.00000000000E+00 -0.66198885788E+02  0.29032183559E+04  0.29024635277E+04 0.  0.
        5    1    3    3  502    0  0.36152246173E+03 -0.29917646239E+03  0.13405189568E+04  0.14202880727E+04  0.46999998093E+01 0.  1.
       -5    1    3    3    0  502 -0.36152246173E+03  0.29917646239E+03 -0.14067178426E+04  0.14829302832E+04  0.46999998093E+01 0. -1.
</event>
<event>
 5   0  0.9443352E-08  0.2898876E+04  0.7818609E-02  0.8273212E-01
       -1   -1    0    0    0  501  0.00000000000E+00  0.00000000000E+00  0.11000855360E+04  0.11000855360E+04  0.50400001928E-02 0.  1.
        1   -1    0    0  501    0  0.00000000000E+00  0.00000000000E+00 -0.19097332317E+04  0.19097332317E+04  0.50400001928E-02 0. -1.
    10030    2    1    2    0    0  0.00000000000E+00  0.00000000000E+00 -0.80964769576E+03  0.30098187677E+04  0.28988755791E+04 0.  0.
        4    1    3    3  502    0  0.15791276747E+03 -0.10122967680E+04  0.65968869374E+03  0.12185532299E+04  0.12699999809E+01 0.  1.
       -4    1    3    3    0  502 -0.15791276747E+03  0.10122967680E+04 -0.14693363895E+04  0.17912655378E+04  0.12699999809E+01 0. -1.
</event>
<event>
 5   0  0.9763851E-08  0.2899512E+04  0.7818609E-02  0.8273023E-01
        1   -1    0    0  501    0  0.00000000000E+00  0.00000000000E+00  0.15994383788E+04  0.15994383788E+04  0.50400001928E-02 0. -1.
       -1   -1    0    0    0  501  0.00000000000E+00  0.00000000000E+00 -0.13140816388E+04  0.13140816388E+04  0.50400001928E-02 0.  1.
    10030    2    1    2    0    0  0.00000000000E+00  0.00000000000E+00  0.28535674005E+03  0.29135200176E+04  0.28995121010E+04 0.  0.
        3    1    3    3  502    0 -0.11826612520E+04  0.31526801389E+03 -0.63806380283E+03  0.13802923546E+04  0.10100000352E+00 0.  1.
       -3    1    3    3    0  502  0.11826612520E+04 -0.31526801389E+03  0.92342054288E+03  0.15332276630E+04  0.10100000352E+00 0. -1.
</event>
<event>
 5   0  0.9388076E-08  0.2899148E+04  0.7818609E-02  0.8273131E-01
        1   -1    0    0  501    0  0.00000000000E+00  0.00000000000E+00  0.14295696076E+04  0.14295696076E+04  0.50400001928E-02 0. -1.
       -1   -1    0    0    0  501  0.00000000000E+00  0.00000000000E+00 -0.14698584578E+04  0.14698584578E+04  0.50400001928E-02 0.  1.
    10030    2    1    2    0    0  0.00000000000E+00  0.00000000000E+00 -0.40288850229E+02  0.28994280655E+04  0.28991481362E+04 0.  0.
        5    1    3    3  502    0  0.51622721291E+03 -0.77736901881E+03 -0.11295079307E+04  0.14651291350E+04  0.46999998093E+01 0.  1.
       -5    1    3    3    0  502 -0.51622721291E+03  0.77736901881E+03  0.10892190804E+04  0.14342989305E+04  0.46999998093E+01 0. -1.
</event>
<event>
 5   0  0.9421924E-08  0.2899452E+04  0.7818609E-02  0.8273041E-01
       -1   -1    0    0    0  501  0.00000000000E+00  0.00000000000E+00  0.73177275833E+03  0.73177275835E+03  0.50400001928E-02 0. -1.
        1   -1    0    0  501    0  0.00000000000E+00  0.00000000000E+00 -0.28720740221E+04  0.28720740221E+04  0.50400001928E-02 0.  1.
    10030    2    1    2    0    0  0.00000000000E+00  0.00000000000E+00 -0.21403012638E+04  0.36038467805E+04  0.28994520374E+04 0.  0.
        1    1    3    3  502    0  0.28023338819E+03 -0.80541003036E+03 -0.25273571205E+04  0.26673488867E+04  0.50400001928E-02 0.  1.
       -1    1    3    3    0  502 -0.28023338819E+03  0.80541003036E+03  0.38705585668E+03  0.93649789379E+03  0.50400001928E-02 0. -1.
</event>
<event>
 5   0  0.2546841E-07  0.2899632E+04  0.7818609E-02  0.8272987E-01
       -2   -1    0    0    0  501  0.00000000000E+00  0.00000000000E+00  0.20301434633E+04  0.20301434633E+04  0.25500000920E-02 0.  1.
        2   -1    0    0  501    0  0.00000000000E+00  0.00000000000E+00 -0.10353785536E+04  0.10353785536E+04  0.25500000920E-02 0. -1.
    10030    2    1    2    0    0  0.00000000000E+00  0.00000000000E+00  0.99476490968E+03  0.30655220170E+04  0.28996323924E+04 0.  0.
        1    1    3    3  502    0  0.49789056420E+03 -0.13547557413E+04  0.64198811063E+03  0.15796856860E+04  0.50400001928E-02 0.  1.
       -1    1    3    3    0  502 -0.49789056420E+03  0.13547557413E+04  0.35277679905E+03  0.14858363309E+04  0.50400001928E-02 0. -1.
</event>
<event>
 5   0  0.9421924E-08  0.2898643E+04  0.7818609E-02  0.8273281E-01
       -1   -1    0    0    0  501  0.00000000000E+00  0.00000000000E+00  0.16703476882E+04  0.16703476882E+04  0.50400001928E-02 0. -1.
        1   -1    0    0  501    0  0.00000000000E+00  0.00000000000E+00 -0.12575418985E+04  0.12575418985E+04  0.50400001928E-02 0.  1.
    10030    2    1    2    0    0  0.00000000000E+00  0.00000000000E+00  0.41280578964E+03  0.29278895867E+04  0.28986425810E+04 0.  0.
        1    1    3    3  502    0 -0.94417423202E+03  0.40204720891E+03  0.12401672418E+04  0.16096961596E+04  0.50400001928E-02 0. -1.
       -1    1    3    3    0  502  0.94417423202E+03 -0.40204720891E+03 -0.82736145220E+03  0.13181934271E+04  0.50400001928E-02 0.  1.
</event>
<event>
 5   0  0.2492232E-07  0.2900460E+04  0.7818609E-02  0.8272741E-01
        2   -1    0    0  501    0  0.00000000000E+00  0.00000000000E+00  0.24119003072E+04  0.24119003072E+04  0.25500000920E-02 0.  1.
       -2   -1    0    0    0  501  0.00000000000E+00  0.00000000000E+00 -0.87199594580E+03  0.87199594580E+03  0.25500000920E-02 0. -1.
    10030    2    1    2    0    0  0.00000000000E+00  0.00000000000E+00  0.15399043614E+04  0.32838962530E+04  0.29004601632E+04 0.  0.
        4    1    3    3  502    0 -0.35837316416E+02  0.87094832421E+03 -0.54228984254E+03  0.10266037127E+04  0.12699999809E+01 0. -1.
       -4    1    3    3    0  502  0.35837316416E+02 -0.87094832421E+03  0.20821942039E+04  0.22572925403E+04  0.12699999809E+01 0.  1.
</event>
<event>
 5   0  0.2678723E-07  0.2900724E+04  0.7818609E-02  0.8272662E-01
        2   -1    0    0  501    0  0.00000000000E+00  0.00000000000E+00  0.21057436577E+04  0.21057436577E+04  0.25500000920E-02 0.  1.
       -2   -1    0    0    0  501  0.00000000000E+00  0.00000000000E+00 -0.99895824121E+03  0.99895824121E+03  0.25500000920E-02 0. -1.
    10030    2    1    2    0    0  0.00000000000E+00  0.00000000000E+00  0.11067854165E+04  0.31047018989E+04  0.29007240343E+04 0.  0.
        5    1    3    3  502    0  0.44570834124E+03  0.61874520673E+03  0.18738506633E+04  0.20230768534E+04  0.46999998093E+01 0.  1.
       -5    1    3    3    0  502 -0.44570834124E+03 -0.61874520673E+03 -0.76706524681E+03  0.10816250455E+04  0.46999998093E+01 0. -1.
</event>
<event>
 5   0  0.9395744E-08  0.2900117E+04  0.7818609E-02  0.8272843E-01
       -1   -1    0    0    0  501  0.00000000000E+00  0.00000000000E+00  0.21192214491E+04  0.21192214491E+04  0.50400001928E-02 0. -1.
        1   -1    0    0  501    0  0.00000000000E+00  0.00000000000E+00 -0.99218968194E+03  0.99218968195E+03  0.50400001928E-02 0.  1.
    10030    2    1    2    0    0  0.00000000000E+00  0.00000000000E+00  0.11270317671E+04  0.31114111310E+04  0.29001170015E+04 0.  0.
        2    1    3    3  502    0 -0.79550377105E+03 -0.67362518840E+03  0.16449603751E+04  0.19474320989E+04  0.25500000920E-02 0. -1.
       -2    1    3    3    0  502  0.79550377105E+03  0.67362518840E+03 -0.51792860799E+03  0.11639790321E+04  0.25500000920E-02 0.  1.
</event>
<event>
 5   0  0.9421924E-08  0.2900725E+04  0.7818609E-02  0.8272662E-01
        1   -1    0    0  501    0  0.00000000000E+00  0.00000000000E+00  0.20064126267E+04  0.20064126267E+04  0.50400001928E-02 0.  1.
       -1   -1    0    0    0  501  0.00000000000E+00  0.00000000000E+00 -0.10484144896E+04  0.10484144896E+04  0.50400001928E-02 0. -1.
    10030    2    1    2    0    0  0.00000000000E+00  0.00000000000E+00  0.95799813709E+03  0.30548271163E+04  0.29007254747E+04 0.  0.
        1    1    3    3  502    0  0.45197728788E+03  0.10563011034E+04 -0.45317831203E+03  0.12350814031E+04  0.50400001928E-02 0. -1.
       -1    1    3    3    0  502 -0.45197728788E+03 -0.10563011034E+04  0.14111764491E+04  0.18197457131E+04  0.50400001928E-02 0.  1.
</event>
<event>
 5   0  0.2608591E-07  0.2898359E+04  0.7818609E-02  0.8273366E-01
       -2   -1    0    0    0  501  0.00000000000E+00  0.00000000000E+00  0.15158272597E+04  0.15158272597E+04  0.25500000920E-02 0.  1.
        2   -1    0    0  501    0  0.00000000000E+00  0.00000000000E+00 -0.13854619969E+04  0.13854619969E+04  0.25500000920E-02 0. -1.
    10030    2    1    2    0    0  0.00000000000E+00  0.00000000000E+00  0.13036526282E+03  0.29012892566E+04  0.28983588888E+04 0.  0.
        2    1    3    3  502    0  0.54772772520E+03  0.69946669490E+03  0.12112689114E+04  0.15021423680E+04  0.25500000920E-02 0.  1.
       -2    1    3    3    0  502 -0.54772772520E+03 -0.69946669490E+03 -0.10809036485E+04  0.13991468885E+04  0.25500000920E-02 0. -1.
</event>
<event>
 5   0  0.9763851E-08  0.2899774E+04  0.7818609E-02  0.8272945E-01
       -1   -1    0    0    0  501  0.00000000000E+00  0.00000000000E+00  0.14286293068E+04  0.14286293068E+04  0.50400001928E-02 0. -1.
        1   -1    0    0  501    0  0.00000000000E+00  0.00000000000E+00 -0.14714612018E+04  0.14714612018E+04  0.50400001928E-02 0.  1.
    10030    2    1    2    0    0  0.00000000000E+00  0.00000000000E+00 -0.42831895052E+02  0.29000905086E+04  0.28997741958E+04 0.  0.
        3    1    3    3  502    0  0.11999238270E+04 -0.44468008938E+03  0.66028514652E+03  0.14399771031E+04  0.10100000352E+00 0. -1.
       -3    1    3    3    0  502 -0.11999238270E+04  0.44468008938E+03 -0.70311704157E+03  0.14601134055E+04  0.10100000352E+00 0.  1.
</event>
<event>
 5   0  0.9763851E-08  0.2898405E+04  0.7818609E-02  0.8273352E-01
       -1   -1    0    0    0  501  0.00000000000E+00  0.00000000000E+00  0.13982854100E+04  0.13982854100E+04  0.50400001928E-02 0. -1.
        1   -1    0    0  501    0  0.00000000000E+00  0.00000000000E+00 -0.15019741619E+04  0.15019741620E+04  0.50400001928E-02 0.  1.
    10030    2    1    2    0    0  0.00000000000E+00  0.00000000000E+00 -0.10368875196E+03  0.29002595720E+04  0.28984054629E+04 0.  0.
        3    1    3    3  502    0 -0.16660683743E+02  0.93918349678E+03 -0.11561106195E+04  0.14896090070E+04  0.10100000352E+00 0.  1.
       -3    1    3    3    0  502  0.16660683743E+02 -0.93918349678E+03  0.10524218675E+04  0.14106505650E+04  0.10100000352E+00 0. -1.
</event>
<event>
 5   0  0.2608591E-07  0.2900428E+04  0.7818609E-02  0.8272750E-01
       -2   -1    0    0    0  501  0.00000000000E+00  0.00000000000E+00  0.11189414421E+04  0.11189414421E+04  0.25500000920E-02 0.  1.
        2   -1    0    0  501    0  0.00000000000E+00  0.00000000000E+00 -0.18795621649E+04  0.18795621649E+04  0.25500000920E-02 0. -1.
    10030    2    1    2    0    0  0.00000000000E+00  0.00000000000E+00 -0.76062072283E+03  0.29985036070E+04  0.29004275542E+04 0.  0.
        2    1    3    3  502    0 -0.19266525958E+03  0.13755933883E+04  0.50609111789E+02  0.13899418529E+04  0.25500000920E-02 0.  1.
       -2    1    3    3    0  502  0.19266525958E+03 -0.13755933883E+04 -0.81122983462E+03  0.16085617541E+04  0.25500000920E-02 0. -1.
</event>
<event>
 5   0  0.9388076E-08  0.2896553E+04  0.7818609E-02  0.8273904E-01
       -1   -1    0    0    0  501  0.00000000000E+00  0.00000000000E+00  0.15163616097E+04  0.15163616097E+04  0.50400001928E-02 0.  1.
        1   -1    0    0  501    0  0.00000000000E+00  0.00000000000E+00 -0.13832482664E+04  0.13832482664E+04  0.50400001928E-02 0. -1.
    10030    2    1    2    0    0  0.00000000000E+00  0.00000000000E+00  0.13311334329E+03  0.28996098761E+04  0.28965528256E+04 0.  0.
        5    1    3    3  502    0 -0.44543602404E+03  0.90440464450E+03  0.11074239649E+04  0.14975883749E+04  0.46999998093E+01 0.  1.
       -5    1    3    3    0  502  0.44543602404E+03 -0.90440464450E+03 -0.97431062164E+03  0.14020215012E+04  0.46999998093E+01 0. -1.
</event>
<event>
 5   0  0.2534588E-07  0.2900146E+04  0.7818609E-02  0.8272834E-01
       -2   -1    0    0    0  501  0.00000000000E+00  0.00000000000E+00  0.83257995823E+03  0.83257995823E+03  0.25500000920E-02 0. -1.
        2   -1    0    0  501    0  0.00000000000E+00  0.00000000000E+00 -0.25255368678E+04  0.25255368678E+04  0.25500000920E-02 0.  1.
    10030    2    1    2    0    0  0.00000000000E+00  0.00000000000E+00 -0.16929569096E+04  0.33581168260E+04  0.29001457756E+04 0.  0.
        3    1    3    3  502    0 -0.71299099507E+03  0.18965751866E+03  0.59900586578E+03  0.95033371553E+03  0.10100000352E+00 0. -1.
       -3    1    3    3    0  502  0.71299099507E+03 -0.18965751866E+03 -0.22919627753E+04  0.24077831105E+04  0.10100000352E+00 0.  1.
</event>
<event>
 5   0  0.2534588E-07  0.2900499E+04  0.7818609E-02  0.8272729E-01
        2   -1    0    0  501    0  0.00000000000E+00  0.00000000000E+00  0.15955964505E+04  0.15955964505E+04  0.25500000920E-02 0. -1.
       -2   -1    0    0    0  501  0.00000000000E+00  0.00000000000E+00 -0.13181428244E+04  0.13181428244E+04  0.25500000920E-02 0.  1.
    10030    2    1    2    0    0  0.00000000000E+00  0.00000000000E+00  0.27745362612E+03  0.29137392749E+04  0.29004992755E+04 0.  0.
        3    1    3    3  502    0 -0.47463973502E+03  0.22658467121E+02  0.15151739579E+04  0.15879384173E+04  0.10100000352E+00 0. -1.
       -3    1    3    3    0  502  0.47463973502E+03 -0.22658467121E+02 -0.12377203318E+04  0.13258008576E+04  0.10100000352E+00 0.  1.
</event>
<event>
 5   0  0.2608591E-07  0.2903163E+04  0.7818609E-02  0.8271937E-01
       -2   -1    0    0    0  501  0.00000000000E+00  0.00000000000E+00  0.22299942126E+04  0.22299942126E+04  0.25500000920E-02 0.  1.
        2   -1    0    0  501    0  0.00000000000E+00  0.00000000000E+00 -0.94488563592E+03  0.94488563592E+03  0.25500000920E-02 0. -1.
    10030    2    1    2    0    0  0.00000000000E+00  0.00000000000E+00  0.12851085767E+04  0.31748798485E+04  0.29031634468E+04 0.  0.
        2    1    3    3  502    0 -0.95499243374E+03  0.10205807017E+04  0.10710056075E+04  0.17608658463E+04  0.25500000920E-02 0.  1.
       -2    1    3    3    0  502  0.95499243374E+03 -0.10205807017E+04  0.21410296915E+03  0.14140140023E+04  0.25500000920E-02 0. -1.
</event>
<event>
 5   0  0.9443352E-08  0.2899771E+04  0.7818609E-02  0.8272946E-01
        1   -1    0    0  501    0  0.00000000000E+00  0.00000000000E+00  0.16932861604E+04  0.16932861604E+04  0.50400001928E-02 0. -1.
       -1   -1    0    0    0  501  0.00000000000E+00  0.00000000000E+00 -0.12414720977E+04  0.12414720977E+04  0.50400001928E-02 0.  1.
    10030    2    1    2    0    0  0.00000000000E+00  0.00000000000E+00  0.45181406271E+03  0.29347582581E+04  0.28997706954E+04 0.  0.
        4    1    3    3  502    0 -0.18213560665E+03  0.44267629660E+02 -0.12291578936E+04  0.12433679031E+04  0.12699999809E+01 0.  1.
       -4    1    3    3    0  502  0.18213560665E+03 -0.44267629660E+02  0.16809719563E+04  0.16913903550E+04  0.12699999809E+01 0. -1.
</event>
<event>
 5   0  0.2546841E-07  0.2901290E+04  0.7818609E-02  0.8272494E-01
       -2   -1    0    0    0  501  0.00000000000E+00  0.00000000000E+00  0.90685848314E+03  0.90685848314E+03  0.25500000920E-02 0. -1.
        2   -1    0    0  501    0  0.00000000000E+00  0.00000000000E+00 -0.23205059050E+04  0.23205059050E+04  0.25500000920E-02 0.  1.
    10030    2    1    2    0    0  0.00000000000E+00  0.00000000000E+00 -0.14136474219E+04  0.32273643881E+04  0.29012896892E+04 0.  0.
        1    1    3    3  502    0  0.15035793527E+03 -0.57387496960E+03 -0.21793983155E+04  0.22586980779E+04  0.50400001928E-02 0.  1.
       -1    1    3    3    0  502 -0.15035793527E+03  0.57387496960E+03  0.76575089366E+03  0.96866631024E+03  0.50400001928E-02 0. -1.
</event>
<event>
 5   0  0.2608591E-07  0.2900100E+04  0.7818609E-02  0.8272848E-01
       -2   -1    0    0    0  501  0.00000000000E+00  0.00000000000E+00  0.12401513335E+04  0.12401513335E+04  0.25500000920E-02 0.  1.
        2   -1    0    0  501    0  0.00000000000E+00  0.00000000000E+00 -0.16954743299E+04  0.16954743299E+04  0.25500000920E-02 0. -1.
    10030    2    1    2    0    0  0.00000000000E+00  0.00000000000E+00 -0.45532299645E+03  0.29356256634E+04  0.29000998266E+04 0.  0.
        2    1    3    3  502    0  0.86374035862E+03  0.78334954574E+03 -0.11001720505E+04  0.16031414344E+04  0.25500000920E-02 0. -1.
       -2    1    3    3    0  502 -0.86374035862E+03 -0.78334954574E+03  0.64484905406E+03  0.13324842290E+04  0.25500000920E-02 0.  1.
</event>
<event>
 5   0  0.2546841E-07  0.2899612E+04  0.7818609E-02  0.8272993E-01
        2   -1    0    0  501    0  0.00000000000E+00  0.00000000000E+00  0.17882602463E+04  0.17882602463E+04  0.25500000920E-02 0. -1.
       -2   -1    0    0    0  501  0.00000000000E+00  0.00000000000E+00 -0.11754094086E+04  0.11754094086E+04  0.25500000920E-02 0.  1.
    10030    2    1    2    0    0  0.00000000000E+00  0.00000000000E+00  0.61285083768E+03  0.29636696549E+04  0.28996123317E+04 0.  0.
        1    1    3    3  502    0 -0.31513048153E+03 -0.62736552412E+03 -0.99007812179E+03  0.12137336646E+04  0.50400001928E-02 0.  1.
       -1    1    3    3    0  502  0.31513048153E+03  0.62736552412E+03  0.16029289595E+04  0.17499359904E+04  0.50400001928E-02 0. -1.
</event>
<event>
 5   0  0.2534588E-07  0.2900108E+04  0.7818609E-02  0.8272845E-01
        2   -1    0    0  501    0  0.00000000000E+00  0.00000000000E+00  0.20109118178E+04  0.20109118178E+04  0.25500000920E-02 0.  1.
       -2   -1    0    0    0  501  0.00000000000E+00  0.00000000000E+00 -0.10456234483E+04  0.10456234483E+04  0.25500000920E-02 0. -1.
    10030    2    1    2    0    0  0.00000000000E+00  0.00000000000E+00  0.96528836953E+03  0.30565352661E+04  0.29001079629E+04 0.  0.
        3    1    3    3  502    0  0.79781886491E+03 -0.12079096478E+04  0.57142485004E+03  0.15563055702E+04  0.10100000352E+00 0. -1.
       -3    1    3    3    0  502 -0.79781886491E+03  0.12079096478E+04  0.39386351949E+03  0.15002296959E+04  0.10100000352E+00 0.  1.
</event>
<event>
 5   0  0.9395744E-08  0.2899239E+04  0.7818609E-02  0.8273104E-01
        1   -1    0    0  501    0  0.00000000000E+00  0.00000000000E+00  0.14327478675E+04  0.14327478675E+04  0.50400001928E-02 0.  1.
       -1   -1    0    0    0  501  0.00000000000E+00  0.00000000000E+00 -0.14666898268E+04  0.14666898268E+04  0.50400001928E-02 0. -1.
    10030    2    1    2    0    0  0.00000000000E+00  0.00000000000E+00 -0.33941959227E+02  0.28994376943E+04  0.28992390185E+04 0.  0.
        2    1    3    3  502    0 -0.10426578061E+04 -0.10055673312E+04  0.38672417940E+02  0.14490674636E+04  0.25500000920E-02 0. -1.
       -2    1    3    3    0  502  0.10426578061E+04  0.10055673312E+04 -0.72614377167E+02  0.14503702307E+04  0.25500000920E-02 0.  1.
</event>
<event>
 5   0  0.2546841E-07  0.2899896E+04  0.7818609E-02  0.8272909E-01
       -2   -1    0    0    0  501  0.00000000000E+00  0.00000000000E+00  0.14607283627E+04  0.14607283627E+04  0.25500000920E-02 0.  1.
        2   -1    0    0  501    0  0.00000000000E+00  0.00000000000E+00 -0.14392468867E+04  0.14392468867E+04  0.25500000920E-02 0. -1.
    10030    2    1    2    0    0  0.00000000000E+00  0.00000000000E+00  0.21481475967E+02  0.28999752494E+04  0.28998956866E+04 0.  0.
        1    1    3    3  502    0  0.38946034599E+03  0.13956966214E+04 -0.41225369337E+02  0.14496026874E+04  0.50400001928E-02 0.  1.
       -1    1    3    3    0  502 -0.38946034599E+03 -0.13956966214E+04  0.62706845304E+02  0.14503725620E+04  0.50400001928E-02 0. -1.
</event>
<event>
 5   0  0.2492232E-07  0.2900195E+04  0.7818609E-02  0.8272820E-01
       -2   -1    0    0    0  501  0.00000000000E+00  0.00000000000E+00  0.13546405989E+04  0.13546405989E+04  0.25500000920E-02 0. -1.
        2   -1    0    0  501    0  0.00000000000E+00  0.00000000000E+00 -0.15522807099E+04  0.15522807099E+04  0.25500000920E-02 0.  1.
    10030    2    1    2    0    0  0.00000000000E+00  0.00000000000E+00 -0.19764011108E+03  0.29069213088E+04  0.29001948007E+04 0.  0.
        4    1    3    3  502    0 -0.23541450885E+03  0.12925227109E+04  0.51639984907E+03  0.14116321639E+04  0.12699999809E+01 0. -1.
       -4    1    3    3    0  502  0.23541450885E+03 -0.12925227109E+04 -0.71403996015E+03  0.14952891449E+04  0.12699999809E+01 0.  1.
</event>
<event>
 5   0  0.9421924E-08  0.2900198E+04  0.7818609E-02  0.8272819E-01
       -1   -1    0    0    0  501  0.00000000000E+00  0.00000000000E+00  0.16426609328E+04  0.16426609328E+04  0.50400001928E-02 0. -1.
        1   -1    0    0  501    0  0.00000000000E+00  0.00000000000E+00 -0.12801100672E+04  0.12801100672E+04  0.50400001928E-02 0.  1.
    10030    2    1    2    0    0  0.00000000000E+00  0.00000000000E+00  0.36255086557E+03  0.29227710000E+04  0.29001977843E+04 0.  0.
        1    1    3    3  502    0  0.42213954061E+03 -0.10692796114E+04 -0.70947399137E+03  0.13508937869E+04  0.50400001928E-02 0.  1.
       -1    1    3    3    0  502 -0.42213954061E+03  0.10692796114E+04  0.10720248569E+04  0.15718772131E+04  0.50400001928E-02 0. -1.
</event>
<event>
 5   0  0.9395744E-08  0.2899959E+04  0.7818609E-02  0.8272890E-01
       -1   -1    0    0    0  501  0.00000000000E+00  0.00000000000E+00  0.11305311084E+04  0.11305311084E+04  0.50400001928E-02 0.  1.
        1   -1    0    0  501    0  0.00000000000E+00  0.00000000000E+00 -0.18596932490E+04  0.18596932490E+04  0.50400001928E-02 0. -1.
    10030    2    1    2    0    0  0.00000000000E+00  0.00000000000E+00 -0.72916214055E+03  0.29902243574E+04  0.28999593584E+04 0.  0.
        2    1    3    3  502    0  0.96629338810E+02  0.37839672306E+03 -0.18044409595E+04  0.18462200534E+04  0.25500000920E-02 0. -1.
       -2    1    3    3    0  502 -0.96629338810E+02 -0.37839672306E+03  0.10752788190E+04  0.11440043040E+04  0.25500000920E-02 0.  1.
</event>
<event>
 5   0  0.9388076E-08  0.2897764E+04  0.7818609E-02  0.8273543E-01
        1   -1    0    0  501    0  0.00000000000E+00  0.00000000000E+00  0.17181874119E+04  0.17181874120E+04  0.50400001928E-02 0. -1.
       -1   -1    0    0    0  501  0.00000000000E+00  0.00000000000E+00 -0.12217868967E+04  0.12217868967E+04  0.50400001928E-02 0.  1.
    10030    2    1    2    0    0  0.00000000000E+00  0.00000000000E+00  0.49640051524E+03  0.29399743087E+04  0.28977638731E+04 0.  0.
        5    1    3    3  502    0 -0.15044515299E+03  0.38059283348E+03  0.16583208058E+04  0.17080792236E+04  0.46999998093E+01 0. -1.
       -5    1    3    3    0  502  0.15044515299E+03 -0.38059283348E+03 -0.11619202906E+04  0.12318950851E+04  0.46999998093E+01 0.  1.
</event>
<event>
 5   0  0.9763851E-08  0.2901049E+04  0.7818609E-02  0.8272566E-01
       -1   -1    0    0    0  501  0.00000000000E+00  0.00000000000E+00  0.12987417463E+04  0.12987417463E+04  0.50400001928E-02 0.  1.
        1   -1    0    0  501    0  0.00000000000E+00  0.00000000000E+00 -0.16200456248E+04  0.16200456248E+04  0.50400001928E-02 0. -1.
    10030    2    1    2    0    0  0.00000000000E+00  0.00000000000E+00 -0.32130387844E+03  0.29187873711E+04  0.29010486958E+04 0.  0.
        3    1    3    3  502    0 -0.15302629049E+03 -0.23742757161E+03 -0.15921065450E+04  0.16169700548E+04  0.10100000352E+00 0. -1.
       -3    1    3    3    0  502  0.15302629049E+03  0.23742757161E+03  0.12708026666E+04  0.13018173162E+04  0.10100000352E+00 0.  1.
</event>
<event>
 5   0  0.2492232E-07  0.2900444E+04  0.7818609E-02  0.8272745E-01
        2   -1    0    0  501    0  0.00000000000E+00  0.00000000000E+00  0.17428604233E+04  0.17428604233E+04  0.25500000920E-02 0. -1.
       -2   -1    0    0    0  501  0.00000000000E+00  0.00000000000E+00 -0.12067199300E+04  0.12067199300E+04  0.25500000920E-02 0.  1.
    10030    2    1    2    0    0  0.00000000000E+00  0.00000000000E+00  0.53614049327E+03  0.29495803533E+04  0.29004443853E+04 0.  0.
        4    1    3    3  502    0  0.38073889217E+03  0.51445395004E+03  0.15914685556E+04  0.17153421662E+04  0.12699999809E+01 0. -1.
       -4    1    3    3    0  502 -0.38073889217E+03 -0.51445395004E+03 -0.10553280623E+04  0.12342381872E+04  0.12699999809E+01 0.  1.
</event>
<event>
 5   0  0.9421924E-08  0.2900812E+04  0.7818609E-02  0.8272636E-01
       -1   -1    0    0    0  501  0.00000000000E+00  0.00000000000E+00  0.89050167489E+03  0.89050167490E+03  0.50400001928E-02 0. -1.
        1   -1    0    0  501    0  0.00000000000E+00  0.00000000000E+00 -0.23623514017E+04  0.23623514017E+04  0.50400001928E-02 0.  1.
    10030    2    1    2    0    0  0.00000000000E+00  0.00000000000E+00 -0.14718497269E+04  0.32528530766E+04  0.29008122173E+04 0.  0.
        1    1    3    3  502    0 -0.53481103433E+03 -0.12226690563E+04 -0.13729669791E+04  0.19146751133E+04  0.50400001928E-02 0.  1.
       -1    1    3    3    0  502  0.53481103433E+03  0.12226690563E+04 -0.98882747747E+02  0.13381779633E+04  0.50400001928E-02 0. -1.
</event>
<event>
 5   0  0.2678723E-07  0.2899144E+04  0.7818609E-02  0.8273132E-01
        2   -1    0    0  501    0  0.00000000000E+00  0.00000000000E+00  0.15754051629E+04  0.15754051629E+04  0.25500000920E-02 0.  1.
       -2   -1    0    0    0  501  0.00000000000E+00  0.00000000000E+00 -0.13337898612E+04  0.13337898612E+04  0.25500000920E-02 0. -1.
    10030    2    1    2    0    0  0.00000000000E+00  0.00000000000E+00  0.24161530168E+03  0.29091950241E+04  0.28991443107E+04 0.  0.
        5    1    3    3  502    0  0.67354221375E+03 -0.34073516921E+03  0.13626267973E+04  0.15577334329E+04  0.46999998093E+01 0.  1.
       -5    1    3    3    0  502 -0.67354221375E+03  0.34073516921E+03 -0.11210114956E+04  0.13514615912E+04  0.46999998093E+01 0. -1.
</event>
<event>
 5   0  0.2678723E-07  0.2897737E+04  0.7818609E-02  0.8273551E-01
       -2   -1    0    0    0  501  0.00000000000E+00  0.00000000000E+00  0.17998544428E+04  0.17998544428E+04  0.25500000920E-02 0.  1.
        2   -1    0    0  501    0  0.00000000000E+00  0.00000000000E+00 -0.11663274733E+04  0.11663274733E+04  0.25500000920E-02 0. -1.
    10030    2    1    2    0    0  0.00000000000E+00  0.00000000000E+00  0.63352696943E+03  0.29661819161E+04  0.28977368304E+04 0.  0.
        5    1    3    3  502    0  0.86632227354E+03  0.47035236124E+03  0.14036591753E+04  0.17152337438E+04  0.46999998093E+01 0.  1.
       -5    1    3    3    0  502 -0.86632227354E+03 -0.47035236124E+03 -0.77013220587E+03  0.12509481723E+04  0.46999998093E+01 0. -1.
</event>
<event>
 5   0  0.2678723E-07  0.2902208E+04  0.7818609E-02  0.8272221E-01
        2   -1    0    0  501    0  0.00000000000E+00  0.00000000000E+00  0.15195451620E+04  0.15195451620E+04  0.25500000920E-02 0.  1.
       -2   -1    0    0    0  501  0.00000000000E+00  0.00000000000E+00 -0.13857457005E+04  0.13857457005E+04  0.25500000920E-02 0. -1.
    10030    2    1    2    0    0  0.00000000000E+00  0.00000000000E+00  0.13379946155E+03  0.29052908625E+04  0.29022082454E+04 0.  0.
        5    1    3    3  502    0 -0.34948269128E+02  0.14734044763E+03 -0.13778069125E+04  0.13861113112E+04  0.46999998093E+01 0. -1.
       -5    1    3    3    0  502  0.34948269128E+02 -0.14734044763E+03  0.15116063740E+04  0.15191795513E+04  0.46999998093E+01 0.  1.
</event>
<event>
 5   0  0.2608591E-07  0.2901046E+04  0.7818609E-02  0.8272566E-01
       -2   -1    0    0    0  501  0.00000000000E+00  0.00000000000E+00  0.11996562221E+04  0.11996562221E+04  0.25500000920E-02 0. -1.
        2   -1    0    0  501    0  0.00000000000E+00  0.00000000000E+00 -0.17538501148E+04  0.17538501148E+04  0.25500000920E-02 0.  1.
    10030    2    1    2    0    0  0.00000000000E+00  0.00000000000E+00 -0.55419389272E+03  0.29535063369E+04  0.29010461581E+04 0.  0.
        2    1    3    3  502    0  0.44166600144E+03  0.13786773875E+04 -0.18492241695E+03  0.14594576033E+04  0.25500000920E-02 0. -1.
       -2    1    3    3    0  502 -0.44166600144E+03 -0.13786773875E+04 -0.36927147576E+03  0.14940487336E+04  0.25500000920E-02 0.  1.
</event>
<event>
 5   0  0.9443352E-08  0.2899707E+04  0.7818609E-02  0.8272965E-01
       -1   -1    0    0    0  501  0.00000000000E+00  0.00000000000E+00  0.16544034989E+04  0.16544034989E+04  0.50400001928E-02 0. -1.
        1   -1    0    0  501    0  0.00000000000E+00  0.00000000000E+00 -0.12705936666E+04  0.12705936666E+04  0.50400001928E-02 0.  1.
    10030    2    1    2    0    0  0.00000000000E+00  0.00000000000E+00  0.38380983230E+03  0.29249971654E+04  0.28997066111E+04 0.  0.
        4    1    3    3  502    0  0.13466379755E+04  0.26077771754E+03 -0.28190892981E+03  0.14003260737E+04  0.12699999809E+01 0.  1.
       -4    1    3    3    0  502 -0.13466379755E+04 -0.26077771754E+03  0.66571876211E+03  0.15246710918E+04  0.12699999809E+01 0. -1.
</event>
<event>
 5   0  0.2546841E-07  0.2900113E+04  0.7818609E-02  0.8272844E-01
       -2   -1    0    0    0  501  0.00000000000E+00  0.00000000000E+00  0.27249904427E+04  0.27249904427E+04  0.25500000920E-02 0.  1.
        2   -1    0    0  501    0  0.00000000000E+00  0.00000000000E+00 -0.77162240343E+03  0.77162240344E+03  0.25500000920E-02 0. -1.
    10030    2    1    2    0    0  0.00000000000E+00  0.00000000000E+00  0.19533680393E+04  0.34966128462E+04  0.29001128770E+04 0.  0.
        1    1    3    3  502    0  0.65435757064E+03 -0.57309697499E+03 -0.42213517144E+03  0.96686197360E+03  0.50400001928E-02 0. -1.
       -1    1    3    3    0  502 -0.65435757064E+03  0.57309697499E+03  0.23755032107E+04  0.25297508726E+04  0.50400001928E-02 0.  1.
</event>
<event>
 5   0  0.2678723E-07  0.2899613E+04  0.7818609E-02  0.8272993E-01
        2   -1    0    0  501    0  0.00000000000E+00  0.00000000000E+00  0.30799665989E+04  0.30799665989E+04  0.25500000920E-02 0.  1.
       -2   -1    0    0    0  501  0.00000000000E+00  0.00000000000E+00 -0.68245493493E+03  0.68245493494E+03  0.25500000920E-02 0. -1.
    10030    2    1    2    0    0  0.00000000000E+00  0.00000000000E+00  0.23975116640E+04  0.37624215339E+04  0.28996126672E+04 0.  0.
        5    1    3    3  502    0  0.46475196030E+03  0.42827559981E+03 -0.49429996415E+03  0.80235211632E+03  0.46999998093E+01 0. -1.
       -5    1    3    3    0  502 -0.46475196030E+03 -0.42827559981E+03  0.28918116282E+04  0.29600694176E+04  0.46999998093E+01 0.  1.
</event>
<event>
 5   0  0.2492232E-07  0.2900445E+04  0.7818609E-02  0.8272745E-01
        2   -1    0    0  501    0  0.00000000000E+00  0.00000000000E+00  0.16300802233E+04  0.16300802233E+04  0.25500000920E-02 0. -1.
       -2   -1    0    0    0  501  0.00000000000E+00  0.00000000000E+00 -0.12902097842E+04  0.12902097842E+04  0.25500000920E-02 0.  1.
    10030    2    1    2    0    0  0.00000000000E+00  0.00000000000E+00  0.33987043918E+03  0.29202900075E+04  0.29004451059E+04 0.  0.
        4    1    3    3  502    0  0.91053171832E+03 -0.11276215380E+04  0.22073334001E+03  0.14660570123E+04  0.12699999809E+01 0.  1.
       -4    1    3    3    0  502 -0.91053171832E+03  0.11276215380E+04  0.11913709917E+03  0.14542329952E+04  0.12699999809E+01 0. -1.
</event>
<event>
 5   0  0.2534588E-07  0.2901313E+04  0.7818609E-02  0.8272487E-01
       -2   -1    0    0    0  501  0.00000000000E+00  0.00000000000E+00  0.87956603564E+03  0.87956603564E+03  0.25500000920E-02 0. -1.
        2   -1    0    0  501    0  0.00000000000E+00  0.00000000000E+00 -0.23925486222E+04  0.23925486222E+04  0.25500000920E-02 0.  1.
    10030    2    1    2    0    0  0.00000000000E+00  0.00000000000E+00 -0.15129825866E+04  0.32721146579E+04  0.29013131556E+04 0.  0.
        3    1    3    3  502    0 -0.54106264108E+03  0.80627402413E+03 -0.19720000133E+04  0.21980925017E+04  0.10100000352E+00 0.  1.
       -3    1    3    3    0  502  0.54106264108E+03 -0.80627402413E+03  0.45901742674E+03  0.10740221561E+04  0.10100000352E+00 0. -1.
</event>
<event>
 5   0  0.2678723E-07  0.2898918E+04  0.7818609E-02  0.8273200E-01
        2   -1    0    0  501    0  0.00000000000E+00  0.00000000000E+00  0.24897526052E+04  0.24897526052E+04  0.25500000920E-02 0.  1.
       -2   -1    0    0    0  501  0.00000000000E+00  0.00000000000E+00 -0.84383115686E+03  0.84383115686E+03  0.25500000920E-02 0. -1.
    10030    2    1    2    0    0  0.00000000000E+00  0.00000000000E+00  0.16459214483E+04  0.33335837621E+04  0.28989176057E+04 0.  0.
        5    1    3    3  502    0  0.55591782219E+03  0.62055290026E+02 -0.71470122051E+03  0.90758768648E+03  0.46999998093E+01 0. -1.
       -5    1    3    3    0  502 -0.55591782219E+03 -0.62055290026E+02  0.23606226688E+04  0.24259960756E+04  0.46999998093E+01 0.  1.
</event>
<event>
 5   0  0.9443352E-08  0.2901296E+04  0.7818609E-02  0.8272492E-01
       -1   -1    0    0    0  501  0.00000000000E+00  0.00000000000E+00  0.14321601312E+04  0.14321601313E+04  0.50400001928E-02 0.  1.
        1   -1    0    0  501    0  0.00000000000E+00  0.00000000000E+00 -0.14693748524E+04  0.14693748524E+04  0.50400001928E-02 0. -1.
    10030    2    1    2    0    0  0.00000000000E+00  0.00000000000E+00 -0.37214721170E+02  0.29015349837E+04  0.29012963182E+04 0.  0.
        4    1    3    3  502    0  0.36692236640E+03 -0.13972671698E+04  0.11327805599E+03  0.14490759462E+04  0.12699999809E+01 0.  1.
       -4    1    3    3    0  502 -0.36692236640E+03  0.13972671698E+04 -0.15049277716E+03  0.14524590375E+04  0.12699999809E+01 0. -1.
</event>
<event>
 5   0  0.9763851E-08  0.2899149E+04  0.7818609E-02  0.8273131E-01
       -1   -1    0    0    0  501  0.00000000000E+00  0.00000000000E+00  0.16798152025E+04  0.16798152025E+04  0.50400001928E-02 0. -1.
        1   -1    0    0  501    0  0.00000000000E+00  0.00000000000E+00 -0.12508915796E+04  0.12508915796E+04  0.50400001928E-02 0.  1.
    10030    2    1    2    0    0  0.00000000000E+00  0.00000000000E+00  0.42892362289E+03  0.29307067821E+04  0.28991493181E+04 0.  0.
        3    1    3    3  502    0 -0.12094061517E+04 -0.40106561777E+03 -0.48425637613E+03  0.13630924831E+04  0.10100000352E+00 0.  1.
       -3    1    3    3    0  502  0.12094061517E+04  0.40106561777E+03  0.91317999902E+03  0.15676142990E+04  0.10100000352E+00 0. -1.
</event>
<event>
 5   0  0.9388076E-08  0.2899291E+04  0.7818609E-02  0.8273089E-01
       -1   -1    0    0    0  501  0.00000000000E+00  0.00000000000E+00  0.13232530784E+04  0.13232530784E+04  0.50400001928E-02 0.  1.
        1   -1    0    0  501    0  0.00000000000E+00  0.00000000000E+00 -0.15881101987E+04  0.15881101987E+04  0.50400001928E-02 0. -1.
    10030    2    1    2    0    0  0.00000000000E+00  0.00000000000E+00 -0.26485712025E+03  0.29113632771E+04  0.28992907473E+04 0.  0.
        5    1    3    3  502    0 -0.31455842771E+03 -0.59372489426E+03  0.11574408073E+04  0.13383376132E+04  0.46999998093E+01 0.  1.
       -5    1    3    3    0  502  0.31455842771E+03  0.59372489426E+03 -0.14222979276E+04  0.15730256639E+04  0.46999998093E+01 0. -1.
</event>
<event>
 5   0  0.2546841E-07  0.2899422E+04  0.7818609E-02  0.8273050E-01
        2   -1    0    0  501    0  0.00000000000E+00  0.00000000000E+00  0.17082783863E+04  0.17082783863E+04  0.25500000920E-02 0. -1.
       -2   -1    0    0    0  501  0.00000000000E+00  0.00000000000E+00 -0.12302803400E+04  0.12302803400E+04  0.25500000920E-02 0.  1.
    10030    2    1    2    0    0  0.00000000000E+00  0.00000000000E+00  0.47799804624E+03  0.29385587263E+04  0.28994215381E+04 0.  0.
        1    1    3    3  502    0  0.95684292579E+03 -0.38206930997E+03 -0.79463803599E+03  0.13011437086E+04  0.50400001928E-02 0.  1.
       -1    1    3    3    0  502 -0.95684292579E+03  0.38206930997E+03  0.12726360822E+04  0.16374150177E+04  0.50400001928E-02 0. -1.
</event>
<event>
 5   0  0.2678723E-07  0.2900366E+04  0.7818609E-02  0.8272769E-01
        2   -1    0    0  501    0  0.00000000000E+00  0.00000000000E+00  0.23832554410E+04  0.23832554410E+04  0.25500000920E-02 0. -1.
       -2   -1    0    0    0  501  0.00000000000E+00  0.00000000000E+00 -0.88241914292E+03  0.88241914292E+03  0.25500000920E-02 0.  1.
    10030    2    1    2    0    0  0.00000000000E+00  0.00000000000E+00  0.15008362981E+04  0.32656745839E+04  0.29003656484E+04 0.  0.
        5    1    3    3  502    0 -0.65575988928E+03  0.15121783687E+03  0.21967833113E+04  0.22975567182E+04  0.46999998093E+01 0. -1.
       -5    1    3    3    0  502  0.65575988928E+03 -0.15121783687E+03 -0.69594701326E+03  0.96811786568E+03  0.46999998093E+01 0.  1.
</event>
<event>
 5   0  0.9388076E-08  0.2899411E+04  0.7818609E-02  0.8273053E-01
       -1   -1    0    0    0  501  0.00000000000E+00  0.00000000000E+00  0.10648172282E+04  0.10648172282E+04  0.50400001928E-02 0. -1.
        1   -1    0    0  501    0  0.00000000000E+00  0.00000000000E+00 -0.19737155557E+04  0.19737155557E+04  0.50400001928E-02 0.  1.
    10030    2    1    2    0    0  0.00000000000E+00  0.00000000000E+00 -0.90889832754E+03  0.30385327839E+04  0.28994112004E+04 0.  0.
        5    1    3    3  502    0 -0.61235058807E+03 -0.57265319115E+03  0.78497340683E+03  0.11485252542E+04  0.46999998093E+01 0. -1.
       -5    1    3    3    0  502  0.61235058807E+03  0.57265319115E+03 -0.16938717344E+04  0.18900075298E+04  0.46999998093E+01 0.  1.
</event>
<event>
 5   0  0.9421924E-08  0.2899415E+04  0.7818609E-02  0.8273052E-01
       -1   -1    0    0    0  501  0.00000000000E+00  0.00000000000E+00  0.11449803843E+04  0.11449803843E+04  0.50400001928E-02 0.  1.
        1   -1    0    0  501    0  0.00000000000E+00  0.00000000000E+00 -0.18355350435E+04  0.18355350435E+04  0.50400001928E-02 0. -1.
    10030    2    1    2    0    0  0.00000000000E+00  0.00000000000E+00 -0.69055465921E+03  0.29805154278E+04  0.28994148510E+04 0.  0.
        1    1    3    3  502    0  0.13129046101E+04  0.60675559866E+03 -0.24361336404E+03  0.14667032225E+04  0.50400001928E-02 0.  1.
       -1    1    3    3    0  502 -0.13129046101E+04 -0.60675559866E+03 -0.44694129517E+03  0.15138122053E+04  0.50400001928E-02 0. -1.
</event>
<event>
 5   0  0.2492232E-07  0.2900306E+04  0.7818609E-02  0.8272787E-01
       -2   -1    0    0    0  501  0.00000000000E+00  0.00000000000E+00  0.12515745738E+04  0.12515745738E+04  0.25500000920E-02 0. -1.
        2   -1    0    0  501    0  0.00000000000E+00  0.00000000000E+00 -0.16802381082E+04  0.16802381082E+04  0.25500000920E-02 0.  1.
    10030    2    1    2    0    0  0.00000000000E+00  0.00000000000E+00 -0.42866353441E+03  0.29318126819E+04  0.29003057039E+04 0.  0.
        4    1    3    3  502    0  0.31290887762E+03 -0.11412317364E+04 -0.10616618913E+04  0.15897954039E+04  0.12699999809E+01 0.  1.
       -4    1    3    3    0  502 -0.31290887762E+03  0.11412317364E+04  0.63299835694E+03  0.13420172781E+04  0.12699999809E+01 0. -1.
</event>
<event>
 5   0  0.9421924E-08  0.2898793E+04  0.7818609E-02  0.8273237E-01
        1   -1    0    0  501    0  0.00000000000E+00  0.00000000000E+00  0.11309782980E+04  0.11309782980E+04  0.50400001928E-02 0. -1.
       -1   -1    0    0    0  501  0.00000000000E+00  0.00000000000E+00 -0.18574624910E+04  0.18574624910E+04  0.50400001928E-02 0.  1.
    10030    2    1    2    0    0  0.00000000000E+00  0.00000000000E+00 -0.72648419304E+03  0.29884407890E+04  0.28987926912E+04 0.  0.
        1    1    3    3  502    0 -0.14762444765E+02 -0.13698991484E+04 -0.85106530519E+03  0.16128092758E+04  0.50400001928E-02 0.  1.
       -1    1    3    3    0  502  0.14762444765E+02  0.13698991484E+04  0.12458111215E+03  0.13756315132E+04  0.50400001928E-02 0. -1.
</event>
<event>
 5   0  0.2492232E-07  0.2900319E+04  0.7818609E-02  0.8272783E-01
       -2   -1    0    0    0  501  0.00000000000E+00  0.00000000000E+00  0.13057648059E+04  0.13057648059E+04  0.25500000920E-02 0.  1.
        2   -1    0    0  501    0  0.00000000000E+00  0.00000000000E+00 -0.16105219663E+04  0.16105219663E+04  0.25500000920E-02 0. -1.
    10030    2    1    2    0    0  0.00000000000E+00  0.00000000000E+00 -0.30475716034E+03  0.29162867722E+04  0.29003192257E+04 0.  0.
        4    1    3    3  502    0  0.10655690614E+04  0.74413434029E+03  0.49442638580E+03  0.13905511155E+04  0.12699999809E+01 0.  1.
       -4    1    3    3    0  502 -0.10655690614E+04 -0.74413434029E+03 -0.79918354614E+03  0.15257356567E+04  0.12699999809E+01 0. -1.
</event>
<event>
 5   0  0.2546841E-07  0.2899747E+04  0.7818609E-02  0.8272953E-01
        2   -1    0    0  501    0  0.00000000000E+00  0.00000000000E+00  0.11573031451E+04  0.11573031451E+04  0.25500000920E-02 0. -1.
       -2   -1    0    0    0  501  0.00000000000E+00  0.00000000000E+00 -0.18164072281E+04  0.18164072281E+04  0.25500000920E-02 0.  1.
    10030    2    1    2    0    0  0.00000000000E+00  0.00000000000E+00 -0.65910408303E+03  0.29737103732E+04  0.28997474358E+04 0.  0.
        1    1    3    3  502    0 -0.56657247804E+03  0.11960542288E+04  0.27765158826E+03  0.13522723452E+04  0.50400001928E-02 0. -1.
       -1    1    3    3    0  502  0.56657247804E+03 -0.11960542288E+04 -0.93675567129E+03  0.16214380280E+04  0.50400001928E-02 0.  1.
</event>
<event>
 5   0  0.9395744E-08  0.2898695E+04  0.7818609E-02  0.8273266E-01
       -1   -1    0    0    0  501  0.00000000000E+00  0.00000000000E+00  0.12140963817E+04  0.12140963817E+04  0.50400001928E-02 0. -1.
        1   -1    0    0  501    0  0.00000000000E+00  0.00000000000E+00 -0.17301827766E+04  0.17301827766E+04  0.50400001928E-02 0.  1.
    10030    2    1    2    0    0  0.00000000000E+00  0.00000000000E+00 -0.51608639486E+03  0.29442791583E+04  0.28986953263E+04 0.  0.
        2    1    3    3  502    0 -0.46746632683E+03 -0.71729832692E+03  0.92977703778E+03  0.12639331456E+04  0.25500000920E-02 0. -1.
       -2    1    3    3    0  502  0.46746632683E+03  0.71729832692E+03 -0.14458634326E+04  0.16803460127E+04  0.25500000920E-02 0.  1.
</event>
<event>
 5   0  0.9421924E-08  0.2901250E+04  0.7818609E-02  0.8272506E-01
       -1   -1    0    0    0  501  0.00000000000E+00  0.00000000000E+00  0.23870804009E+04  0.23870804009E+04  0.50400001928E-02 0. -1.
        1   -1    0    0  501    0  0.00000000000E+00  0.00000000000E+00 -0.88154263882E+03  0.88154263883E+03  0.50400001928E-02 0.  1.
    10030    2    1    2    0    0  0.00000000000E+00  0.00000000000E+00  0.15055377621E+04  0.32686230397E+04  0.29012501827E+04 0.  0.
        1    1    3    3  502    0 -0.15804373867E+03 -0.20441549512E+03  0.23609455441E+04  0.23750426060E+04  0.50400001928E-02 0. -1.
       -1    1    3    3    0  502  0.15804373867E+03  0.20441549512E+03 -0.85540778203E+03  0.89358043374E+03  0.50400001928E-02 0.  1.
</event>
<event>
 5   0  0.8407500E-08  0.2904855E+04  0.7818609E-02  0.8271434E-01
       -3   -1    0    0    0  501  0.00000000000E+00  0.00000000000E+00  0.18372501640E+04  0.18372501668E+04  0.10100000352E+00 0. -1.
        3   -1    0    0  501    0  0.00000000000E+00  0.00000000000E+00 -0.11482084082E+04  0.11482084127E+04  0.10100000352E+00 0.  1.
    10030    2    1    2    0    0  0.00000000000E+00  0.00000000000E+00  0.68904175578E+03  0.29854585794E+04  0.29048553128E+04 0.  0.
        5    1    3    3  502    0  0.23177749175E+03  0.14242845767E+04  0.51407324077E+03  0.15318618567E+04  0.46999998093E+01 0. -1.
       -5    1    3    3    0  502 -0.23177749175E+03 -0.14242845767E+04  0.17496851500E+03  0.14535967227E+04  0.46999998093E+01 0.  1.
</event>
<event>
 5   0  0.2492232E-07  0.2891888E+04  0.7818609E-02  0.8275295E-01
       -2   -1    0    0    0  501  0.00000000000E+00  0.00000000000E+00  0.16883489089E+04  0.16883489089E+04  0.25500000920E-02 0.  1.
        2   -1    0    0  501    0  0.00000000000E+00  0.00000000000E+00 -0.12383428031E+04  0.12383428031E+04  0.25500000920E-02 0. -1.
    10030    2    1    2    0    0  0.00000000000E+00  0.00000000000E+00  0.45000610587E+03  0.29266917120E+04  0.28918884629E+04 0.  0.
        4    1    3    3  502    0  0.11641342990E+04 -0.76040720820E+03  0.62641911843E+03  0.15250673143E+04  0.12699999809E+01 0.  1.
       -4    1    3    3    0  502 -0.11641342990E+04  0.76040720820E+03 -0.17641301257E+03  0.14016243977E+04  0.12699999809E+01 0. -1.
</event>
<event>
 5   0  0.9443352E-08  0.2898231E+04  0.7818609E-02  0.8273404E-01
        1   -1    0    0  501    0  0.00000000000E+00  0.00000000000E+00  0.23469616331E+04  0.23469616332E+04  0.50400001928E-02 0.  1.
       -1   -1    0    0    0  501  0.00000000000E+00  0.00000000000E+00 -0.89474661298E+03  0.89474661299E+03  0.50400001928E-02 0. -1.
    10030    2    1    2    0    0  0.00000000000E+00  0.00000000000E+00  0.14522150202E+04  0.32417082461E+04  0.28982311654E+04 0.  0.
        4    1    3    3  502    0  0.10596146692E+04  0.86972630237E+03  0.20061213220E+03  0.13854435855E+04  0.12699999809E+01 0. -1.
       -4    1    3    3    0  502 -0.10596146692E+04 -0.86972630237E+03  0.12516028880E+04  0.18562646606E+04  0.12699999809E+01 0.  1.
</event>
<event>
 5   0  0.2492232E-07  0.2899058E+04  0.7818609E-02  0.8273158E-01
       -2   -1    0    0    0  501  0.00000000000E+00  0.00000000000E+00  0.70476636933E+03  0.70476636933E+03  0.25500000920E-02 0. -1.
        2   -1    0    0  501    0  0.00000000000E+00  0.00000000000E+00 -0.29813196960E+04  0.29813196960E+04  0.25500000920E-02 0.  1.
    10030    2    1    2    0    0  0.00000000000E+00  0.00000000000E+00 -0.22765533267E+04  0.36860860654E+04  0.28990576800E+04 0.  0.
        4    1    3    3  502    0  0.99019332451E+02  0.13533461831E+04 -0.17863329774E+04  0.22432872840E+04  0.12699999809E+01 0.  1.
       -4    1    3    3    0  502 -0.99019332451E+02 -0.13533461831E+04 -0.49022034929E+03  0.14427987813E+04  0.12699999809E+01 0. -1.
</event>
<event>
 5   0  0.9395744E-08  0.2900708E+04  0.7818609E-02  0.8272667E-01
       -1   -1    0    0    0  501  0.00000000000E+00  0.00000000000E+00  0.89973277911E+03  0.89973277912E+03  0.50400001928E-02 0. -1.
        1   -1    0    0  501    0  0.00000000000E+00  0.00000000000E+00 -0.23379459595E+04  0.23379459595E+04  0.50400001928E-02 0.  1.
    10030    2    1    2    0    0  0.00000000000E+00  0.00000000000E+00 -0.14382131804E+04  0.32376787386E+04  0.29007079243E+04 0.  0.
        2    1    3    3  502    0  0.74460633066E+03  0.54552743766E+03 -0.19677633409E+04  0.21735066917E+04  0.25500000920E-02 0.  1.
       -2    1    3    3    0  502 -0.74460633066E+03 -0.54552743766E+03  0.52955016055E+03  0.10641720469E+04  0.25500000920E-02 0. -1.
</event>
<event>
 5   0  0.2546841E-07  0.2899509E+04  0.7818609E-02  0.8273024E-01
       -2   -1    0    0    0  501  0.00000000000E+00  0.00000000000E+00  0.10284251460E+04  0.10284251460E+04  0.25500000920E-02 0. -1.
        2   -1    0    0  501    0  0.00000000000E+00  0.00000000000E+00 -0.20436951548E+04  0.20436951548E+04  0.25500000920E-02 0.  1.
    10030    2    1    2    0    0  0.00000000000E+00  0.00000000000E+00 -0.10152700088E+04  0.30721203008E+04  0.28995085708E+04 0.  0.
        1    1    3    3  502    0 -0.28038673954E+03 -0.14223543104E+04 -0.49821887072E+03  0.15329483198E+04  0.50400001928E-02 0.  1.
       -1    1    3    3    0  502  0.28038673954E+03  0.14223543104E+04 -0.51705113803E+03  0.15391719811E+04  0.50400001928E-02 0. -1.
</event>
<event>
 5   0  0.9763851E-08  0.2909857E+04  0.7818609E-02  0.8269951E-01
       -1   -1    0    0    0  501  0.00000000000E+00  0.00000000000E+00  0.10374053324E+04  0.10374053324E+04  0.50400001928E-02 0.  1.
        1   -1    0    0  501    0  0.00000000000E+00  0.00000000000E+00 -0.20404920414E+04  0.20404920414E+04  0.50400001928E-02 0. -1.
    10030    2    1    2    0    0  0.00000000000E+00  0.00000000000E+00 -0.10030867090E+04  0.30778973738E+04  0.29098572642E+04 0.  0.
        3    1    3    3  502    0  0.26048899593E+03  0.90744865315E+03 -0.16724952673E+04  0.19205618981E+04  0.10100000352E+00 0. -1.
       -3    1    3    3    0  502 -0.26048899593E+03 -0.90744865315E+03  0.66940855834E+03  0.11573354757E+04  0.10100000352E+00 0.  1.
</event>
<event>
 5   0  0.9421924E-08  0.2901236E+04  0.7818609E-02  0.8272510E-01
        1   -1    0    0  501    0  0.00000000000E+00  0.00000000000E+00  0.15986629579E+04  0.15986629579E+04  0.50400001928E-02 0.  1.
       -1   -1    0    0    0  501  0.00000000000E+00  0.00000000000E+00 -0.13162831224E+04  0.13162831224E+04  0.50400001928E-02 0. -1.
    10030    2    1    2    0    0  0.00000000000E+00  0.00000000000E+00  0.28237983550E+03  0.29149460803E+04  0.29012363364E+04 0.  0.
        1    1    3    3  502    0  0.78957241664E+03  0.11416955924E+04 -0.28198877097E+03  0.14164784127E+04  0.50400001928E-02 0. -1.
       -1    1    3    3    0  502 -0.78957241664E+03 -0.11416955924E+04  0.56436860647E+03  0.14984676676E+04  0.50400001928E-02 0.  1.
</event>
<event>
 5   0  0.9763851E-08  0.2899144E+04  0.7818609E-02  0.8273132E-01
       -1   -1    0    0    0  501  0.00000000000E+00  0.00000000000E+00  0.14694073770E+04  0.14694073770E+04  0.50400001928E-02 0.  1.
        1   -1    0    0  501    0  0.00000000000E+00  0.00000000000E+00 -0.14300039336E+04  0.14300039336E+04  0.50400001928E-02 0. -1.
    10030    2    1    2    0    0  0.00000000000E+00  0.00000000000E+00  0.39403443332E+02  0.28994113106E+04  0.28991435488E+04 0.  0.
        3    1    3    3  502    0 -0.49686622549E+03  0.98778460838E+03  0.95715900216E+03  0.14624458432E+04  0.10100000352E+00 0.  1.
       -3    1    3    3    0  502  0.49686622549E+03 -0.98778460838E+03 -0.91775555883E+03  0.14369654674E+04  0.10100000352E+00 0. -1.
</event>
<event>
 5   0  0.2534588E-07  0.2897815E+04  0.7818609E-02  0.8273528E-01
        2   -1    0    0  501    0  0.00000000000E+00  0.00000000000E+00  0.18872241583E+04  0.18872241583E+04  0.25500000920E-02 0.  1.
       -2   -1    0    0    0  501  0.00000000000E+00  0.00000000000E+00 -0.11123920946E+04  0.11123920946E+04  0.25500000920E-02 0. -1.
    10030    2    1    2    0    0  0.00000000000E+00  0.00000000000E+00  0.77483206364E+03  0.29996162529E+04  0.28978152007E+04 0.  0.
        3    1    3    3  502    0 -0.68318559694E+03 -0.12423699127E+04  0.78420256274E+02  0.14199913051E+04  0.10100000352E+00 0. -1.
       -3    1    3    3    0  502  0.68318559694E+03  0.12423699127E+04  0.69641180736E+03  0.15796249477E+04  0.10100000352E+00 0.  1.
</event>
<event>
 5   0  0.2608591E-07  0.2909880E+04  0.7818609E-02  0.8269944E-01
       -2   -1    0    0    0  501  0.00000000000E+00  0.00000000000E+00  0.87147925846E+03  0.87147925846E+03  0.25500000920E-02 0. -1.
        2   -1    0    0  501    0  0.00000000000E+00  0.00000000000E+00 -0.24290315850E+04  0.24290315850E+04  0.25500000920E-02 0.  1.
    10030    2    1    2    0    0  0.00000000000E+00  0.00000000000E+00 -0.15575523266E+04  0.33005108435E+04  0.29098801656E+04 0.  0.
        2    1    3    3  502    0 -0.35663711358E+03  0.26479900984E+03 -0.23502417693E+04  0.23918496860E+04  0.25500000920E-02 0.  1.
       -2    1    3    3    0  502  0.35663711358E+03 -0.26479900984E+03  0.79268944274E+03  0.90866115744E+03  0.25500000920E-02 0. -1.
</event>
<event>
 5   0  0.9443352E-08  0.2899779E+04  0.7818609E-02  0.8272943E-01
       -1   -1    0    0    0  501  0.00000000000E+00  0.00000000000E+00  0.17567274207E+04  0.17567274207E+04  0.50400001928E-02 0.  1.
        1   -1    0    0  501    0  0.00000000000E+00  0.00000000000E+00 -0.11966456390E+04  0.11966456390E+04  0.50400001928E-02 0. -1.
    10030    2    1    2    0    0  0.00000000000E+00  0.00000000000E+00  0.56008178179E+03  0.29533730597E+04  0.28997794446E+04 0.  0.
        4    1    3    3  502    0 -0.25792997749E+03 -0.71211019826E+03 -0.97915453181E+03  0.12378909555E+04  0.12699999809E+01 0. -1.
       -4    1    3    3    0  502  0.25792997749E+03  0.71211019826E+03  0.15392363136E+04  0.17154821042E+04  0.12699999809E+01 0.  1.
</event>
<event>
 5   0  0.2546841E-07  0.2900305E+04  0.7818609E-02  0.8272787E-01
       -2   -1    0    0    0  501  0.00000000000E+00  0.00000000000E+00  0.12796268113E+04  0.12796268113E+04  0.25500000920E-02 0. -1.
        2   -1    0    0  501    0  0.00000000000E+00  0.00000000000E+00 -0.16434023700E+04  0.16434023700E+04  0.25500000920E-02 0.  1.
    10030    2    1    2    0    0  0.00000000000E+00  0.00000000000E+00 -0.36377555870E+03  0.29230291813E+04  0.29003046284E+04 0.  0.
        1    1    3    3  502    0 -0.95303387208E+03 -0.10919867853E+04 -0.13426254001E+03  0.14555875550E+04  0.50400001928E-02 0. -1.
       -1    1    3    3    0  502  0.95303387208E+03  0.10919867853E+04 -0.22951301869E+03  0.14674416262E+04  0.50400001928E-02 0.  1.
</event>
<event>
 5   0  0.2678723E-07  0.2900159E+04  0.7818609E-02  0.8272830E-01
       -2   -1    0    0    0  501  0.00000000000E+00  0.00000000000E+00  0.14191426291E+04  0.14191426291E+04  0.25500000920E-02 0. -1.
        2   -1    0    0  501    0  0.00000000000E+00  0.00000000000E+00 -0.14816905400E+04  0.14816905400E+04  0.25500000920E-02 0.  1.
    10030    2    1    2    0    0  0.00000000000E+00  0.00000000000E+00 -0.62547910882E+02  0.29008331691E+04  0.29001587601E+04 0.  0.
        5    1    3    3  502    0 -0.40239314716E+03 -0.28174206352E+03 -0.13959259608E+04  0.14798412798E+04  0.46999998093E+01 0.  1.
       -5    1    3    3    0  502  0.40239314716E+03  0.28174206352E+03  0.13333780500E+04  0.14209918893E+04  0.46999998093E+01 0. -1.
</event>
<event>
 5   0  0.9443352E-08  0.2899633E+04  0.7818609E-02  0.8272987E-01
        1   -1    0    0  501    0  0.00000000000E+00  0.00000000000E+00  0.13674556510E+04  0.13674556510E+04  0.50400001928E-02 0.  1.
       -1   -1    0    0    0  501  0.00000000000E+00  0.00000000000E+00 -0.15371373675E+04  0.15371373675E+04  0.50400001928E-02 0. -1.
    10030    2    1    2    0    0  0.00000000000E+00  0.00000000000E+00 -0.16968171652E+03  0.29045930185E+04  0.28996325144E+04 0.  0.
        4    1    3    3  502    0 -0.33347387183E+03 -0.11483949973E+04  0.73628683974E+03  0.14043275317E+04  0.12699999809E+01 0.  1.
       -4    1    3    3    0  502  0.33347387183E+03  0.11483949973E+04 -0.90596855625E+03  0.15002654868E+04  0.12699999809E+01 0. -1.
</event>
<event>
 5   0  0.2546841E-07  0.2895809E+04  0.7818609E-02  0.8274125E-01
        2   -1    0    0  501    0  0.00000000000E+00  0.00000000000E+00  0.16174892884E+04  0.16174892884E+04  0.25500000920E-02 0.  1.
       -2   -1    0    0    0  501  0.00000000000E+00  0.00000000000E+00 -0.12960999725E+04  0.12960999725E+04  0.25500000920E-02 0. -1.
    10030    2    1    2    0    0  0.00000000000E+00  0.00000000000E+00  0.32138931595E+03  0.29135892609E+04  0.28958092632E+04 0.  0.
        1    1    3    3  502    0  0.11696398776E+04 -0.77879983121E+03  0.51189542981E+03  0.14955345371E+04  0.50400001928E-02 0.  1.
       -1    1    3    3    0  502 -0.11696398776E+04  0.77879983121E+03 -0.19050611386E+03  0.14180547239E+04  0.50400001928E-02 0. -1.
</event>
<event>
 5   0  0.9421924E-08  0.2900278E+04  0.7818609E-02  0.8272795E-01
        1   -1    0    0  501    0  0.00000000000E+00  0.00000000000E+00  0.14470912828E+04  0.14470912828E+04  0.50400001928E-02 0. -1.
       -1   -1    0    0    0  501  0.00000000000E+00  0.00000000000E+00 -0.14531932595E+04  0.14531932596E+04  0.50400001928E-02 0.  1.
    10030    2    1    2    0    0  0.00000000000E+00  0.00000000000E+00 -0.61019767029E+01  0.29002845424E+04  0.29002781233E+04 0.  0.
        1    1    3    3  502    0  0.92690510168E+03  0.56811739886E+03  0.95663486053E+03  0.14481231656E+04  0.50400001928E-02 0. -1.
       -1    1    3    3    0  502 -0.92690510168E+03 -0.56811739886E+03 -0.96273683723E+03  0.14521613768E+04  0.50400001928E-02 0.  1.
</event>
<event>
 5   0  0.2546841E-07  0.2901716E+04  0.7818609E-02  0.8272367E-01
       -2   -1    0    0    0  501  0.00000000000E+00  0.00000000000E+00  0.11073958192E+04  0.11073958192E+04  0.25500000920E-02 0.  1.
        2   -1    0    0  501    0  0.00000000000E+00  0.00000000000E+00 -0.19008461792E+04  0.19008461792E+04  0.25500000920E-02 0. -1.
    10030    2    1    2    0    0  0.00000000000E+00  0.00000000000E+00 -0.79345036000E+03  0.30082419984E+04  0.29017161210E+04 0.  0.
        1    1    3    3  502    0  0.14007977919E+04 -0.35341259166E+03 -0.53525013625E+03  0.15406581782E+04  0.50400001928E-02 0. -1.
       -1    1    3    3    0  502 -0.14007977919E+04  0.35341259166E+03 -0.25820022376E+03  0.14675838202E+04  0.50400001928E-02 0.  1.
</event>
<event>
 5   0  0.9443352E-08  0.2900241E+04  0.7818609E-02  0.8272806E-01
        1   -1    0    0  501    0  0.00000000000E+00  0.00000000000E+00  0.11705203689E+04  0.11705203689E+04  0.50400001928E-02 0.  1.
       -1   -1    0    0    0  501  0.00000000000E+00  0.00000000000E+00 -0.17965088115E+04  0.17965088115E+04  0.50400001928E-02 0. -1.
    10030    2    1    2    0    0  0.00000000000E+00  0.00000000000E+00 -0.62598844262E+03  0.29670291805E+04  0.29002414774E+04 0.  0.
        4    1    3    3  502    0  0.33155366891E+03  0.13838740607E+04 -0.27620121160E+02  0.14233059176E+04  0.12699999809E+01 0.  1.
       -4    1    3    3    0  502 -0.33155366891E+03 -0.13838740607E+04 -0.59836832146E+03  0.15437232628E+04  0.12699999809E+01 0. -1.
</event>
<event>
 5   0  0.2608591E-07  0.2900184E+04  0.7818609E-02  0.8272823E-01
        2   -1    0    0  501    0  0.00000000000E+00  0.00000000000E+00  0.19365157235E+04  0.19365157235E+04  0.25500000920E-02 0.  1.
       -2   -1    0    0    0  501  0.00000000000E+00  0.00000000000E+00 -0.10858507611E+04  0.10858507611E+04  0.25500000920E-02 0. -1.
    10030    2    1    2    0    0  0.00000000000E+00  0.00000000000E+00  0.85066496236E+03  0.30223664846E+04  0.29001841819E+04 0.  0.
        2    1    3    3  502    0  0.21958117733E+03  0.65255833736E+03 -0.90464595404E+03  0.11368520481E+04  0.25500000920E-02 0. -1.
       -2    1    3    3    0  502 -0.21958117733E+03 -0.65255833736E+03  0.17553109164E+04  0.18855144365E+04  0.25500000920E-02 0.  1.
</event>
<event>
 5   0  0.2608591E-07  0.2898539E+04  0.7818609E-02  0.8273312E-01
       -2   -1    0    0    0  501  0.00000000000E+00  0.00000000000E+00  0.97437353014E+03  0.97437353014E+03  0.25500000920E-02 0. -1.
        2   -1    0    0  501    0  0.00000000000E+00  0.00000000000E+00 -0.21556233641E+04  0.21556233641E+04  0.25500000920E-02 0.  1.
    10030    2    1    2    0    0  0.00000000000E+00  0.00000000000E+00 -0.11812498340E+04  0.31299968943E+04  0.28985391817E+04 0.  0.
        2    1    3    3  502    0 -0.45789102547E+03 -0.47144020831E+03  0.80421037815E+03  0.10385925060E+04  0.25500000920E-02 0. -1.
       -2    1    3    3    0  502  0.45789102547E+03  0.47144020831E+03 -0.19854602121E+04  0.20914043882E+04  0.25500000920E-02 0.  1.
</event>
<event>
 5   0  0.9443352E-08  0.2910360E+04  0.7818609E-02  0.8269802E-01
       -1   -1    0    0    0  501  0.00000000000E+00  0.00000000000E+00  0.87240056097E+03  0.87240056098E+03  0.50400001928E-02 0.  1.
        1   -1    0    0  501    0  0.00000000000E+00  0.00000000000E+00 -0.24272668067E+04  0.24272668067E+04  0.50400001928E-02 0. -1.
    10030    2    1    2    0    0  0.00000000000E+00  0.00000000000E+00 -0.15548662458E+04  0.32996673677E+04  0.29103600628E+04 0.  0.
        4    1    3    3  502    0  0.14414983989E+04  0.13630400886E+03 -0.61293584656E+03  0.15723194274E+04  0.12699999809E+01 0.  1.
       -4    1    3    3    0  502 -0.14414983989E+04 -0.13630400886E+03 -0.94193039922E+03  0.17273479403E+04  0.12699999809E+01 0. -1.
</event>
<event>
 5   0  0.9388076E-08  0.2900297E+04  0.7818609E-02  0.8272789E-01
       -1   -1    0    0    0  501  0.00000000000E+00  0.00000000000E+00  0.24660488172E+04  0.24660488172E+04  0.50400001928E-02 0.  1.
        1   -1    0    0  501    0  0.00000000000E+00  0.00000000000E+00 -0.85275324857E+03  0.85275324859E+03  0.50400001928E-02 0. -1.
    10030    2    1    2    0    0  0.00000000000E+00  0.00000000000E+00  0.16132955687E+04  0.33188020658E+04  0.29002973227E+04 0.  0.
        5    1    3    3  502    0  0.65627374564E+03 -0.79906175671E+03  0.19700745647E+04  0.22249518648E+04  0.46999998093E+01 0.  1.
       -5    1    3    3    0  502 -0.65627374564E+03  0.79906175671E+03 -0.35677899604E+03  0.10938502010E+04  0.46999998093E+01 0. -1.
</event>
<event>
 5   0  0.9395744E-08  0.2900704E+04  0.7818609E-02  0.8272668E-01
        1   -1    0    0  501    0  0.00000000000E+00  0.00000000000E+00  0.95914111393E+03  0.95914111394E+03  0.50400001928E-02 0. -1.
       -1   -1    0    0    0  501  0.00000000000E+00  0.00000000000E+00 -0.21931300348E+04  0.21931300348E+04  0.50400001928E-02 0.  1.
    10030    2    1    2    0    0  0.00000000000E+00  0.00000000000E+00 -0.12339889209E+04  0.31522711488E+04  0.29007041798E+04 0.  0.
        2    1    3    3  502    0 -0.13332945053E+04  0.29130562173E+03 -0.83514858585E+02  0.13672995044E+04  0.25500000920E-02 0. -1.
       -2    1    3    3    0  502  0.13332945053E+04 -0.29130562173E+03 -0.11504740623E+04  0.17849716444E+04  0.25500000920E-02 0.  1.
</event>
<event>
 5   0  0.2534588E-07  0.2899933E+04  0.7818609E-02  0.8272897E-01
       -2   -1    0    0    0  501  0.00000000000E+00  0.00000000000E+00  0.12827812282E+04  0.12827812282E+04  0.25500000920E-02 0. -1.
        2   -1    0    0  501    0  0.00000000000E+00  0.00000000000E+00 -0.16389411689E+04  0.16389411689E+04  0.25500000920E-02 0.  1.
    10030    2    1    2    0    0  0.00000000000E+00  0.00000000000E+00 -0.35615994064E+03  0.29217223971E+04  0.28999330789E+04 0.  0.
        3    1    3    3  502    0 -0.14811726287E+03  0.62624875411E+03 -0.14871798745E+04  0.16204413642E+04  0.10100000352E+00 0.  1.
       -3    1    3    3    0  502  0.14811726287E+03 -0.62624875411E+03  0.11310199338E+04  0.13012810329E+04  0.10100000352E+00 0. -1.
</event>
<event>
 5   0  0.9395744E-08  0.2898866E+04  0.7818609E-02  0.8273215E-01
        1   -1    0    0  501    0  0.00000000000E+00  0.00000000000E+00  0.11088295642E+04  0.11088295642E+04  0.50400001928E-02 0.  1.
       -1   -1    0    0    0  501  0.00000000000E+00  0.00000000000E+00 -0.18946605106E+04  0.18946605106E+04  0.50400001928E-02 0. -1.
    10030    2    1    2    0    0  0.00000000000E+00  0.00000000000E+00 -0.78583094645E+03  0.30034900748E+04  0.28988657011E+04 0.  0.
        2    1    3    3  502    0 -0.11174358899E+04  0.88668331625E+03 -0.12676836068E+03  0.14321105016E+04  0.25500000920E-02 0.  1.
       -2    1    3    3    0  502  0.11174358899E+04 -0.88668331625E+03 -0.65906258577E+03  0.15713795733E+04  0.25500000920E-02 0. -1.
</event>
<event>
 5   0  0.9421924E-08  0.2899248E+04  0.7818609E-02  0.8273101E-01
        1   -1    0    0  501    0  0.00000000000E+00  0.00000000000E+00  0.15911192029E+04  0.15911192029E+04  0.50400001928E-02 0. -1.
       -1   -1    0    0    0  501  0.00000000000E+00  0.00000000000E+00 -0.13207118099E+04  0.13207118099E+04  0.50400001928E-02 0.  1.
    10030    2    1    2    0    0  0.00000000000E+00  0.00000000000E+00  0.27040739302E+03  0.29118310128E+04  0.28992481248E+04 0.  0.
        1    1    3    3  502    0 -0.63899910653E+03  0.13010497683E+04  0.11615921573E+03  0.14541469394E+04  0.50400001928E-02 0.  1.
       -1    1    3    3    0  502  0.63899910653E+03 -0.13010497683E+04  0.15424817729E+03  0.14576840735E+04  0.50400001928E-02 0. -1.
</event>
<event>
 5   0  0.2546841E-07  0.2901513E+04  0.7818609E-02  0.8272427E-01
        2   -1    0    0  501    0  0.00000000000E+00  0.00000000000E+00  0.90983511414E+03  0.90983511414E+03  0.25500000920E-02 0. -1.
       -2   -1    0    0    0  501  0.00000000000E+00  0.00000000000E+00 -0.23132699520E+04  0.23132699520E+04  0.25500000920E-02 0.  1.
    10030    2    1    2    0    0  0.00000000000E+00  0.00000000000E+00 -0.14034348379E+04  0.32231050662E+04  0.29015128680E+04 0.  0.
        1    1    3    3  502    0 -0.78897558832E+03  0.40832329170E+03  0.57235091195E+03  0.10567856717E+04  0.50400001928E-02 0. -1.
       -1    1    3    3    0  502  0.78897558832E+03 -0.40832329170E+03 -0.19757857499E+04  0.21663193945E+04  0.50400001928E-02 0.  1.
</event>
<event>
 5   0  0.8407500E-08  0.2914031E+04  0.7818609E-02  0.8268715E-01
       -3   -1    0    0    0  501  0.00000000000E+00  0.00000000000E+00  0.13585793869E+04  0.13585793907E+04  0.10100000352E+00 0.  1.
        3   -1    0    0  501    0  0.00000000000E+00  0.00000000000E+00 -0.15625832863E+04  0.15625832895E+04  0.10100000352E+00 0. -1.
    10030    2    1    2    0    0  0.00000000000E+00  0.00000000000E+00 -0.20400389934E+03  0.29211626802E+04  0.29140305100E+04 0.  0.
        4    1    3    3  502    0 -0.61039021176E+03  0.36280495397E+03  0.11733887591E+04  0.13715124637E+04  0.12699999809E+01 0.  1.
       -4    1    3    3    0  502  0.61039021176E+03 -0.36280495397E+03 -0.13773926584E+04  0.15496502165E+04  0.12699999809E+01 0. -1.
</event>
<event>
 5   0  0.9388076E-08  0.2900104E+04  0.7818609E-02  0.8272846E-01
       -1   -1    0    0    0  501  0.00000000000E+00  0.00000000000E+00  0.99002627430E+03  0.99002627431E+03  0.50400001928E-02 0. -1.
        1   -1    0    0  501    0  0.00000000000E+00  0.00000000000E+00 -0.21238338236E+04  0.21238338236E+04  0.50400001928E-02 0.  1.
    10030    2    1    2    0    0  0.00000000000E+00  0.00000000000E+00 -0.11338075493E+04  0.31138600980E+04  0.29001043345E+04 0.  0.
        5    1    3    3  502    0 -0.72597018082E+03  0.36373893398E+03 -0.18568225013E+04  0.20266106205E+04  0.46999998093E+01 0.  1.
       -5    1    3    3    0  502  0.72597018082E+03 -0.36373893398E+03  0.72301495198E+03  0.10872494775E+04  0.46999998093E+01 0. -1.
</event>
<event>
 5   0  0.2608591E-07  0.2895446E+04  0.7818609E-02  0.8274234E-01
        2   -1    0    0  501    0  0.00000000000E+00  0.00000000000E+00  0.19443302815E+04  0.19443302815E+04  0.25500000920E-02 0. -1.
       -2   -1    0    0    0  501  0.00000000000E+00  0.00000000000E+00 -0.10779557916E+04  0.10779557916E+04  0.25500000920E-02 0.  1.
    10030    2    1    2    0    0  0.00000000000E+00  0.00000000000E+00  0.86637448989E+03  0.30222860731E+04  0.28954461402E+04 0.  0.
        2    1    3    3  502    0  0.11577446738E+03 -0.42649064987E+03 -0.10058297015E+04  0.10986315989E+04  0.25500000920E-02 0.  1.
       -2    1    3    3    0  502 -0.11577446738E+03  0.42649064987E+03  0.18722041914E+04  0.19236544742E+04  0.25500000920E-02 0. -1.
</event>
<event>
 5   0  0.2608591E-07  0.2900283E+04  0.7818609E-02  0.8272793E-01
       -2   -1    0    0    0  501  0.00000000000E+00  0.00000000000E+00  0.11956943145E+04  0.11956943145E+04  0.25500000920E-02 0. -1.
        2   -1    0    0  501    0  0.00000000000E+00  0.00000000000E+00 -0.17587358225E+04  0.17587358225E+04  0.25500000920E-02 0.  1.
    10030    2    1    2    0    0  0.00000000000E+00  0.00000000000E+00 -0.56304150809E+03  0.29544301370E+04  0.29002830370E+04 0.  0.
        2    1    3    3  502    0 -0.28752564241E+03  0.27393913125E+03  0.11392208993E+04  0.12064567544E+04  0.25500000920E-02 0. -1.
       -2    1    3    3    0  502  0.28752564241E+03 -0.27393913125E+03 -0.17022624074E+04  0.17479733826E+04  0.25500000920E-02 0.  1.
</event>
<event>
 5   0  0.9763851E-08  0.2899448E+04  0.7818609E-02  0.8273042E-01
       -1   -1    0    0    0  501  0.00000000000E+00  0.00000000000E+00  0.96260904040E+03  0.96260904042E+03  0.50400001928E-02 0. -1.
        1   -1    0    0  501    0  0.00000000000E+00  0.00000000000E+00 -0.21833365800E+04  0.21833365800E+04  0.50400001928E-02 0.  1.
    10030    2    1    2    0    0  0.00000000000E+00  0.00000000000E+00 -0.12207275396E+04  0.31459456205E+04  0.28994478993E+04 0.  0.
        3    1    3    3  502    0 -0.13418926360E+04 -0.11310833190E+03 -0.11928767772E+04  0.17990064917E+04  0.10100000352E+00 0.  1.
       -3    1    3    3    0  502  0.13418926360E+04  0.11310833190E+03 -0.27850762384E+02  0.13469391287E+04  0.10100000352E+00 0. -1.
</event>
<event>
 5   0  0.2678723E-07  0.2901071E+04  0.7818609E-02  0.8272559E-01
        2   -1    0    0  501    0  0.00000000000E+00  0.00000000000E+00  0.21552401405E+04  0.21552401405E+04  0.25500000920E-02 0.  1.
       -2   -1    0    0    0  501  0.00000000000E+00  0.00000000000E+00 -0.97624991440E+03  0.97624991440E+03  0.25500000920E-02 0. -1.
    10030    2    1    2    0    0  0.00000000000E+00  0.00000000000E+00  0.11789902261E+04  0.31314900549E+04  0.29010708386E+04 0.  0.
        5    1    3    3  502    0 -0.74807718228E+03 -0.12414590606E+04  0.65046921480E+03  0.15887014695E+04  0.46999998093E+01 0. -1.
       -5    1    3    3    0  502  0.74807718228E+03  0.12414590606E+04  0.52852101127E+03  0.15427885854E+04  0.46999998093E+01 0.  1.
</event>
<event>
 5   0  0.9443352E-08  0.2896247E+04  0.7818609E-02  0.8273995E-01
       -1   -1    0    0    0  501  0.00000000000E+00  0.00000000000E+00  0.86402283700E+03  0.86402283701E+03  0.50400001928E-02 0. -1.
        1   -1    0    0  501    0  0.00000000000E+00  0.00000000000E+00 -0.24270905355E+04  0.24270905355E+04  0.50400001928E-02 0.  1.
    10030    2    1    2    0    0  0.00000000000E+00  0.00000000000E+00 -0.15630676985E+04  0.32911133725E+04  0.28962469854E+04 0.  0.
        4    1    3    3  502    0  0.31477105671E+03 -0.41897379145E+02  0.82397190374E+03  0.88304446070E+03  0.12699999809E+01 0. -1.
       -4    1    3    3    0  502 -0.31477105671E+03  0.41897379145E+02 -0.23870396022E+04  0.24080689118E+04  0.12699999809E+01 0.  1.
</event>
<event>
 5   0  0.2608591E-07  0.2904780E+04  0.7818609E-02  0.8271457E-01
        2   -1    0    0  501    0  0.00000000000E+00  0.00000000000E+00  0.27802318005E+04  0.27802318005E+04  0.25500000920E-02 0.  1.
       -2   -1    0    0    0  501  0.00000000000E+00  0.00000000000E+00 -0.75872710814E+03  0.75872710814E+03  0.25500000920E-02 0. -1.
    10030    2    1    2    0    0  0.00000000000E+00  0.00000000000E+00  0.20215046923E+04  0.35389589086E+04  0.29047803593E+04 0.  0.
        2    1    3    3  502    0  0.23247468815E+03  0.26429662227E+01 -0.73590973897E+03  0.77176072057E+03  0.25500000920E-02 0. -1.
       -2    1    3    3    0  502 -0.23247468815E+03 -0.26429662227E+01  0.27574144313E+04  0.27671981880E+04  0.25500000920E-02 0.  1.
</event>
<event>
 5   0  0.9388076E-08  0.2900037E+04  0.7818609E-02  0.8272866E-01
        1   -1    0    0  501    0  0.00000000000E+00  0.00000000000E+00  0.21817528999E+04  0.21817528999E+04  0.50400001928E-02 0. -1.
       -1   -1    0    0    0  501  0.00000000000E+00  0.00000000000E+00 -0.96369951417E+03  0.96369951418E+03  0.50400001928E-02 0.  1.
    10030    2    1    2    0    0  0.00000000000E+00  0.00000000000E+00  0.12180533857E+04  0.31454524141E+04  0.29000373858E+04 0.  0.
        5    1    3    3  502    0 -0.34853507074E+03 -0.31432344662E+03 -0.87902798802E+03  0.99648794190E+03  0.46999998093E+01 0.  1.
       -5    1    3    3    0  502  0.34853507074E+03  0.31432344662E+03  0.20970813737E+04  0.21489644722E+04  0.46999998093E+01 0. -1.
</event>
<event>
 5   0  0.8407500E-08  0.2897657E+04  0.7818609E-02  0.8273575E-01
        3   -1    0    0  501    0  0.00000000000E+00  0.00000000000E+00  0.19481608736E+04  0.19481608762E+04  0.10100000352E+00 0.  1.
       -3   -1    0    0    0  501  0.00000000000E+00  0.00000000000E+00 -0.10774798785E+04  0.10774798833E+04  0.10100000352E+00 0. -1.
    10030    2    1    2    0    0  0.00000000000E+00  0.00000000000E+00  0.87068099504E+03  0.30256407594E+04  0.28976570898E+04 0.  0.
        4    1    3    3  502    0 -0.75521637104E+03 -0.69234005813E+03  0.15049967070E+04  0.18206326439E+04  0.12699999809E+01 0.  1.
       -4    1    3    3    0  502  0.75521637104E+03  0.69234005813E+03 -0.63431571194E+03  0.12050081155E+04  0.12699999809E+01 0. -1.
</event>
<event>
 5   0  0.9395744E-08  0.2902072E+04  0.7818609E-02  0.8272261E-01
        1   -1    0    0  501    0  0.00000000000E+00  0.00000000000E+00  0.27330706517E+04  0.27330706517E+04  0.50400001928E-02 0. -1.
       -1   -1    0    0    0  501  0.00000000000E+00  0.00000000000E+00 -0.77038076885E+03  0.77038076887E+03  0.50400001928E-02 0.  1.
    10030    2    1    2    0    0  0.00000000000E+00  0.00000000000E+00  0.19626898829E+04  0.35034514206E+04  0.29020717221E+04 0.  0.
        2    1    3    3  502    0 -0.11649762258E+04 -0.40424107840E+02 -0.61840285352E+02  0.11673165535E+04  0.25500000920E-02 0.  1.
       -2    1    3    3    0  502  0.11649762258E+04  0.40424107840E+02  0.20245301682E+04  0.23361348671E+04  0.25500000920E-02 0. -1.
</event>
<event>
 5   0  0.9388076E-08  0.2900056E+04  0.7818609E-02  0.8272861E-01
        1   -1    0    0  501    0  0.00000000000E+00  0.00000000000E+00  0.17102454320E+04  0.17102454320E+04  0.50400001928E-02 0.  1.
       -1   -1    0    0    0  501  0.00000000000E+00  0.00000000000E+00 -0.12294030266E+04  0.12294030266E+04  0.50400001928E-02 0. -1.
    10030    2    1    2    0    0  0.00000000000E+00  0.00000000000E+00  0.48084240539E+03  0.29396484585E+04  0.29000557996E+04 0.  0.
        5    1    3    3  502    0 -0.11111181805E+04  0.45352787799E+03 -0.58449983531E+03  0.13348907426E+04  0.46999998093E+01 0. -1.
       -5    1    3    3    0  502  0.11111181805E+04 -0.45352787799E+03  0.10653422407E+04  0.16047577160E+04  0.46999998093E+01 0.  1.
</event>
<event>
 5   0  0.2608591E-07  0.2899925E+04  0.7818609E-02  0.8272900E-01
        2   -1    0    0  501    0  0.00000000000E+00  0.00000000000E+00  0.18922578630E+04  0.18922578630E+04  0.25500000920E-02 0.  1.
       -2   -1    0    0    0  501  0.00000000000E+00  0.00000000000E+00 -0.11110488491E+04  0.11110488491E+04  0.25500000920E-02 0. -1.
    10030    2    1    2    0    0  0.00000000000E+00  0.00000000000E+00  0.78120901395E+03  0.30033067121E+04  0.28999247720E+04 0.  0.
        2    1    3    3  502    0 -0.11990620872E+04 -0.18713471156E+03  0.12123792232E+04  0.17154103503E+04  0.25500000920E-02 0.  1.
       -2    1    3    3    0  502  0.11990620872E+04  0.18713471156E+03 -0.43117020920E+03  0.12878963617E+04  0.25500000920E-02 0. -1.
</event>
<event>
 5   0  0.2608591E-07  0.2900398E+04  0.7818609E-02  0.8272759E-01
       -2   -1    0    0    0  501  0.00000000000E+00  0.00000000000E+00  0.22380224896E+04  0.22380224896E+04  0.25500000920E-02 0. -1.
        2   -1    0    0  501    0  0.00000000000E+00  0.00000000000E+00 -0.93970325099E+03  0.93970325099E+03  0.25500000920E-02 0.  1.
    10030    2    1    2    0    0  0.00000000000E+00  0.00000000000E+00  0.12983192386E+04  0.31777257406E+04  0.29003979101E+04 0.  0.
        2    1    3    3  502    0 -0.86673838146E+03 -0.89169428075E+03 -0.16832270320E+03  0.12548651898E+04  0.25500000920E-02 0.  1.
       -2    1    3    3    0  502  0.86673838146E+03  0.89169428075E+03  0.14666419418E+04  0.19228605508E+04  0.25500000920E-02 0. -1.
</event>
<event>
 5   0  0.9443352E-08  0.2899783E+04  0.7818609E-02  0.8272942E-01
       -1   -1    0    0    0  501  0.00000000000E+00  0.00000000000E+00  0.24937392976E+04  0.24937392976E+04  0.50400001928E-02 0.  1.
        1   -1    0    0  501    0  0.00000000000E+00  0.00000000000E+00 -0.84298529260E+03  0.84298529262E+03  0.50400001928E-02 0. -1.
    10030    2    1    2    0    0  0.00000000000E+00  0.00000000000E+00  0.16507540050E+04  0.33367245903E+04  0.28997831309E+04 0.  0.
        4    1    3    3  502    0  0.12657032823E+04  0.57004113871E+03  0.34369341467E+03  0.14300624024E+04  0.12699999809E+01 0.  1.
       -4    1    3    3    0  502 -0.12657032823E+04 -0.57004113871E+03  0.13070605904E+04  0.19066621878E+04  0.12699999809E+01 0. -1.
</event>
<event>
 5   0  0.2492232E-07  0.2900847E+04  0.7818609E-02  0.8272626E-01
       -2   -1    0    0    0  501  0.00000000000E+00  0.00000000000E+00  0.81781248722E+03  0.81781248722E+03  0.25500000920E-02 0.  1.
        2   -1    0    0  501    0  0.00000000000E+00  0.00000000000E+00 -0.25723841253E+04  0.25723841253E+04  0.25500000920E-02 0. -1.
    10030    2    1    2    0    0  0.00000000000E+00  0.00000000000E+00 -0.17545716381E+04  0.33901966126E+04  0.29008466762E+04 0.  0.
        4    1    3    3  502    0 -0.68690317599E+03  0.12741344894E+04 -0.76971803364E+03  0.16394273801E+04  0.12699999809E+01 0.  1.
       -4    1    3    3    0  502  0.68690317599E+03 -0.12741344894E+04 -0.98485360448E+03  0.17507692325E+04  0.12699999809E+01 0. -1.
</event>
<event>
 5   0  0.8407500E-08  0.2898226E+04  0.7818609E-02  0.8273405E-01
       -3   -1    0    0    0  501  0.00000000000E+00  0.00000000000E+00  0.20707681888E+04  0.20707681912E+04  0.10100000352E+00 0. -1.
        3   -1    0    0  501    0  0.00000000000E+00  0.00000000000E+00 -0.10140819693E+04  0.10140819743E+04  0.10100000352E+00 0.  1.
    10030    2    1    2    0    0  0.00000000000E+00  0.00000000000E+00  0.10566862195E+04  0.30848501656E+04  0.28982261433E+04 0.  0.
        4    1    3    3  502    0 -0.12670684673E+04  0.58804797583E+03  0.11794538536E+03  0.14018472276E+04  0.12699999809E+01 0. -1.
       -4    1    3    3    0  502  0.12670684673E+04 -0.58804797583E+03  0.93874083411E+03  0.16830029380E+04  0.12699999809E+01 0.  1.
</event>
<event>
 5   0  0.9763851E-08  0.2900848E+04  0.7818609E-02  0.8272625E-01
       -1   -1    0    0    0  501  0.00000000000E+00  0.00000000000E+00  0.19165725603E+04  0.19165725603E+04  0.50400001928E-02 0.  1.
        1   -1    0    0  501    0  0.00000000000E+00  0.00000000000E+00 -0.10976519715E+04  0.10976519715E+04  0.50400001928E-02 0. -1.
    10030    2    1    2    0    0  0.00000000000E+00  0.00000000000E+00  0.81892058876E+03  0.30142245318E+04  0.29008479101E+04 0.  0.
        3    1    3    3  502    0 -0.77495083327E+03  0.20530722899E+03  0.16654329251E+04  0.18483416054E+04  0.10100000352E+00 0.  1.
       -3    1    3    3    0  502  0.77495083327E+03 -0.20530722899E+03 -0.84651233632E+03  0.11658829264E+04  0.10100000352E+00 0. -1.
</event>
<event>
 5   0  0.2608591E-07  0.2900362E+04  0.7818609E-02  0.8272770E-01
       -2   -1    0    0    0  501  0.00000000000E+00  0.00000000000E+00  0.10920226084E+04  0.10920226084E+04  0.25500000920E-02 0.  1.
        2   -1    0    0  501    0  0.00000000000E+00  0.00000000000E+00 -0.19258069477E+04  0.19258069477E+04  0.25500000920E-02 0. -1.
    10030    2    1    2    0    0  0.00000000000E+00  0.00000000000E+00 -0.83378433927E+03  0.30178295561E+04  0.29003618577E+04 0.  0.
        2    1    3    3  502    0 -0.20311571900E+03 -0.85101358906E+03  0.78647084423E+03  0.11764423118E+04  0.25500000920E-02 0.  1.
       -2    1    3    3    0  502  0.20311571900E+03  0.85101358906E+03 -0.16202551835E+04  0.18413872444E+04  0.25500000920E-02 0. -1.
</event>
<event>
 5   0  0.9421924E-08  0.2899379E+04  0.7818609E-02  0.8273062E-01
       -1   -1    0    0    0  501  0.00000000000E+00  0.00000000000E+00  0.13852350481E+04  0.13852350481E+04  0.50400001928E-02 0.  1.
        1   -1    0    0  501    0  0.00000000000E+00  0.00000000000E+00 -0.15171426515E+04  0.15171426515E+04  0.50400001928E-02 0. -1.
    10030    2    1    2    0    0  0.00000000000E+00  0.00000000000E+00 -0.13190760339E+03  0.29023776997E+04  0.28993786741E+04 0.  0.
        1    1    3    3  502    0 -0.25958486777E+03 -0.96049154091E+03  0.98949482990E+03  0.14032206962E+04  0.50400001928E-02 0.  1.
       -1    1    3    3    0  502  0.25958486777E+03  0.96049154091E+03 -0.11214024333E+04  0.14991570035E+04  0.50400001928E-02 0. -1.
</event>
<event>
 5   0  0.2608591E-07  0.2900939E+04  0.7818609E-02  0.8272598E-01
       -2   -1    0    0    0  501  0.00000000000E+00  0.00000000000E+00  0.12178687957E+04  0.12178687957E+04  0.25500000920E-02 0.  1.
        2   -1    0    0  501    0  0.00000000000E+00  0.00000000000E+00 -0.17274944687E+04  0.17274944687E+04  0.25500000920E-02 0. -1.
    10030    2    1    2    0    0  0.00000000000E+00  0.00000000000E+00 -0.50962567295E+03  0.29453632644E+04  0.29009388881E+04 0.  0.
        2    1    3    3  502    0 -0.49056912835E+03 -0.10358362824E+04  0.64775871537E+03  0.13165129042E+04  0.25500000920E-02 0.  1.
       -2    1    3    3    0  502  0.49056912835E+03  0.10358362824E+04 -0.11573843883E+04  0.16288503602E+04  0.25500000920E-02 0. -1.
</event>
<event>
 5   0  0.2608591E-07  0.2899931E+04  0.7818609E-02  0.8272898E-01
        2   -1    0    0  501    0  0.00000000000E+00  0.00000000000E+00  0.24553447400E+04  0.24553447400E+04  0.25500000920E-02 0.  1.
       -2   -1    0    0    0  501  0.00000000000E+00  0.00000000000E+00 -0.85625457830E+03  0.85625457831E+03  0.25500000920E-02 0. -1.
    10030    2    1    2    0    0  0.00000000000E+00  0.00000000000E+00  0.15990901617E+04  0.33115993183E+04  0.28999311543E+04 0.  0.
        2    1    3    3  502    0  0.11205518906E+04  0.77684203923E+03  0.13627978987E+04  0.19277806427E+04  0.25500000920E-02 0. -1.
       -2    1    3    3    0  502 -0.11205518906E+04 -0.77684203923E+03  0.23629226300E+03  0.13838186757E+04  0.25500000920E-02 0.  1.
</event>
<event>
 5   0  0.9763851E-08  0.2900214E+04  0.7818609E-02  0.8272814E-01
       -1   -1    0    0    0  501  0.00000000000E+00  0.00000000000E+00  0.10304400502E+04  0.10304400502E+04  0.50400001928E-02 0.  1.
        1   -1    0    0  501    0  0.00000000000E+00  0.00000000000E+00 -0.20406910846E+04  0.20406910846E+04  0.50400001928E-02 0. -1.
    10030    2    1    2    0    0  0.00000000000E+00  0.00000000000E+00 -0.10102510345E+04  0.30711311348E+04  0.29002136636E+04 0.  0.
        3    1    3    3  502    0 -0.60521483264E+03 -0.11991493332E+04 -0.10837386955E+04  0.17259008335E+04  0.10100000352E+00 0. -1.
       -3    1    3    3    0  502  0.60521483264E+03  0.11991493332E+04  0.73487660991E+02  0.13452303013E+04  0.10100000352E+00 0.  1.
</event>
<event>
 5   0  0.9421924E-08  0.2898598E+04  0.7818609E-02  0.8273295E-01
        1   -1    0    0  501    0  0.00000000000E+00  0.00000000000E+00  0.16223577137E+04  0.16223577137E+04  0.50400001928E-02 0. -1.
       -1   -1    0    0    0  501  0.00000000000E+00  0.00000000000E+00 -0.12947010856E+04  0.12947010856E+04  0.50400001928E-02 0.  1.
    10030    2    1    2    0    0  0.00000000000E+00  0.00000000000E+00  0.32765662810E+03  0.29170587993E+04  0.28985984843E+04 0.  0.
        1    1    3    3  502    0 -0.12141811161E+04  0.61354731991E+03  0.66680349583E+03  0.15150257419E+04  0.50400001928E-02 0. -1.
       -1    1    3    3    0  502  0.12141811161E+04 -0.61354731991E+03 -0.33914686772E+03  0.14020330575E+04  0.50400001928E-02 0.  1.
</event>
<event>
 5   0  0.9763851E-08  0.2899524E+04  0.7818609E-02  0.8273019E-01
        1   -1    0    0  501    0  0.00000000000E+00  0.00000000000E+00  0.16042887625E+04  0.16042887626E+04  0.50400001928E-02 0. -1.
       -1   -1    0    0    0  501  0.00000000000E+00  0.00000000000E+00 -0.13101198542E+04  0.13101198542E+04  0.50400001928E-02 0.  1.
    10030    2    1    2    0    0  0.00000000000E+00  0.00000000000E+00  0.29416890836E+03  0.29144086167E+04  0.28995244849E+04 0.  0.
        3    1    3    3  502    0  0.11597531661E+04 -0.71008259948E+03 -0.35805462911E+03  0.14062175621E+04  0.10100000352E+00 0.  1.
       -3    1    3    3    0  502 -0.11597531661E+04  0.71008259948E+03  0.65222353747E+03  0.15081910547E+04  0.10100000352E+00 0. -1.
</event>
<event>
 5   0  0.8407500E-08  0.2893007E+04  0.7818609E-02  0.8274961E-01
        3   -1    0    0  501    0  0.00000000000E+00  0.00000000000E+00  0.11539832338E+04  0.11539832382E+04  0.10100000352E+00 0. -1.
       -3   -1    0    0    0  501  0.00000000000E+00  0.00000000000E+00 -0.18131738904E+04  0.18131738932E+04  0.10100000352E+00 0.  1.
    10030    2    1    2    0    0  0.00000000000E+00  0.00000000000E+00 -0.65919065665E+03  0.29671571314E+04  0.28930069341E+04 0.  0.
        5    1    3    3  502    0 -0.98493882358E+02 -0.19944953723E+03 -0.17955189168E+04  0.18092516225E+04  0.46999998093E+01 0.  1.
       -5    1    3    3    0  502  0.98493882358E+02  0.19944953723E+03  0.11363282602E+04  0.11579055090E+04  0.46999998093E+01 0. -1.
</event>
<event>
 5   0  0.9443352E-08  0.2901853E+04  0.7818609E-02  0.8272326E-01
        1   -1    0    0  501    0  0.00000000000E+00  0.00000000000E+00  0.10933656633E+04  0.10933656633E+04  0.50400001928E-02 0. -1.
       -1   -1    0    0    0  501  0.00000000000E+00  0.00000000000E+00 -0.19254191837E+04  0.19254191837E+04  0.50400001928E-02 0.  1.
    10030    2    1    2    0    0  0.00000000000E+00  0.00000000000E+00 -0.83205352040E+03  0.30187848469E+04  0.29018526653E+04 0.  0.
        4    1    3    3  502    0 -0.89833994472E+02 -0.12779007623E+04 -0.11247156395E+04  0.17047250181E+04  0.12699999809E+01 0.  1.
       -4    1    3    3    0  502  0.89833994472E+02  0.12779007623E+04  0.29266211913E+03  0.13140598288E+04  0.12699999809E+01 0. -1.
</event>
<event>
 5   0  0.9443352E-08  0.2883010E+04  0.7818609E-02  0.8277950E-01
       -1   -1    0    0    0  501  0.00000000000E+00  0.00000000000E+00  0.12774352408E+04  0.12774352409E+04  0.50400001928E-02 0.  1.
        1   -1    0    0  501    0  0.00000000000E+00  0.00000000000E+00 -0.16266476742E+04  0.16266476742E+04  0.50400001928E-02 0. -1.
    10030    2    1    2    0    0  0.00000000000E+00  0.00000000000E+00 -0.34921243335E+03  0.29040829151E+04  0.28830102764E+04 0.  0.
        4    1    3    3  502    0 -0.84607303753E+03  0.10868841697E+04  0.25368228190E+03  0.14005402872E+04  0.12699999809E+01 0.  1.
       -4    1    3    3    0  502  0.84607303753E+03 -0.10868841697E+04 -0.60289471525E+03  0.15035426278E+04  0.12699999809E+01 0. -1.
</event>
<event>
 5   0  0.2546841E-07  0.2899752E+04  0.7818609E-02  0.8272951E-01
       -2   -1    0    0    0  501  0.00000000000E+00  0.00000000000E+00  0.10985622524E+04  0.10985622524E+04  0.25500000920E-02 0. -1.
        2   -1    0    0  501    0  0.00000000000E+00  0.00000000000E+00 -0.19135382434E+04  0.19135382434E+04  0.25500000920E-02 0.  1.
    10030    2    1    2    0    0  0.00000000000E+00  0.00000000000E+00 -0.81497599097E+03  0.30121004958E+04  0.28997523224E+04 0.  0.
        1    1    3    3  502    0  0.76091624180E+03  0.33324659858E+03 -0.16418438061E+04  0.18400266047E+04  0.50400001928E-02 0.  1.
       -1    1    3    3    0  502 -0.76091624180E+03 -0.33324659858E+03  0.82686781510E+03  0.11720738911E+04  0.50400001928E-02 0. -1.
</event>
<event>
 5   0  0.2534588E-07  0.2904554E+04  0.7818609E-02  0.8271524E-01
       -2   -1    0    0    0  501  0.00000000000E+00  0.00000000000E+00  0.11858727481E+04  0.11858727481E+04  0.25500000920E-02 0.  1.
        2   -1    0    0  501    0  0.00000000000E+00  0.00000000000E+00 -0.17785282807E+04  0.17785282807E+04  0.25500000920E-02 0. -1.
    10030    2    1    2    0    0  0.00000000000E+00  0.00000000000E+00 -0.59265553254E+03  0.29644010288E+04  0.29045538176E+04 0.  0.
        3    1    3    3  502    0  0.76080901013E+03  0.23226156544E+02  0.96598249502E+03  0.12298341332E+04  0.10100000352E+00 0.  1.
       -3    1    3    3    0  502 -0.76080901013E+03 -0.23226156544E+02 -0.15586380276E+04  0.17345668956E+04  0.10100000352E+00 0. -1.
</event>
<event>
 5   0  0.8407500E-08  0.2899595E+04  0.7818609E-02  0.8272998E-01
        3   -1    0    0  501    0  0.00000000000E+00  0.00000000000E+00  0.19511710327E+04  0.19511710353E+04  0.10100000352E+00 0. -1.
       -3   -1    0    0    0  501  0.00000000000E+00  0.00000000000E+00 -0.10772567675E+04  0.10772567722E+04  0.10100000352E+00 0.  1.
    10030    2    1    2    0    0  0.00000000000E+00  0.00000000000E+00  0.87391426518E+03  0.30284278076E+04  0.28995945997E+04 0.  0.
        4    1    3    3  502    0  0.61137347036E+03  0.79367861381E+02 -0.93353188612E+03  0.11187315017E+04  0.12699999809E+01 0.  1.
       -4    1    3    3    0  502 -0.61137347036E+03 -0.79367861381E+02  0.18074461513E+04  0.19096963058E+04  0.12699999809E+01 0. -1.
</event>
<event>
 5   0  0.2608591E-07  0.2899714E+04  0.7818609E-02  0.8272963E-01
       -2   -1    0    0    0  501  0.00000000000E+00  0.00000000000E+00  0.13715042041E+04  0.13715042041E+04  0.25500000920E-02 0.  1.
        2   -1    0    0  501    0  0.00000000000E+00  0.00000000000E+00 -0.15326860658E+04  0.15326860658E+04  0.25500000920E-02 0. -1.
    10030    2    1    2    0    0  0.00000000000E+00  0.00000000000E+00 -0.16118186166E+03  0.29041902700E+04  0.28997140431E+04 0.  0.
        2    1    3    3  502    0  0.66614401505E+03 -0.10920814165E+04  0.60288152128E+03  0.14141625782E+04  0.25500000920E-02 0.  1.
       -2    1    3    3    0  502 -0.66614401505E+03  0.10920814165E+04 -0.76406338295E+03  0.14900276917E+04  0.25500000920E-02 0. -1.
</event>
<event>
 5   0  0.2492232E-07  0.2900326E+04  0.7818609E-02  0.8272781E-01
        2   -1    0    0  501    0  0.00000000000E+00  0.00000000000E+00  0.28962012412E+04  0.28962012412E+04  0.25500000920E-02 0.  1.
       -2   -1    0    0    0  501  0.00000000000E+00  0.00000000000E+00 -0.72611394681E+03  0.72611394682E+03  0.25500000920E-02 0. -1.
    10030    2    1    2    0    0  0.00000000000E+00  0.00000000000E+00  0.21700872944E+04  0.36223151881E+04  0.29003255776E+04 0.  0.
        4    1    3    3  502    0  0.11592458769E+04 -0.86996895465E+03  0.10254927237E+04  0.17754813219E+04  0.12699999809E+01 0.  1.
       -4    1    3    3    0  502 -0.11592458769E+04  0.86996895465E+03  0.11445945707E+04  0.18468338662E+04  0.12699999809E+01 0. -1.
</event>
<event>
 5   0  0.9443352E-08  0.2906407E+04  0.7818609E-02  0.8270974E-01
        1   -1    0    0  501    0  0.00000000000E+00  0.00000000000E+00  0.10213346756E+04  0.10213346757E+04  0.50400001928E-02 0. -1.
       -1   -1    0    0    0  501  0.00000000000E+00  0.00000000000E+00 -0.20676866616E+04  0.20676866616E+04  0.50400001928E-02 0.  1.
    10030    2    1    2    0    0  0.00000000000E+00  0.00000000000E+00 -0.10463519860E+04  0.30890213373E+04  0.29064067753E+04 0.  0.
        4    1    3    3  502    0  0.66450391967E+03 -0.49418734090E+03  0.74601237627E+03  0.11145952923E+04  0.12699999809E+01 0. -1.
       -4    1    3    3    0  502 -0.66450391967E+03  0.49418734090E+03 -0.17923643622E+04  0.19744260450E+04  0.12699999809E+01 0.  1.
</event>
<event>
 5   0  0.2678723E-07  0.2898238E+04  0.7818609E-02  0.8273402E-01
       -2   -1    0    0    0  501  0.00000000000E+00  0.00000000000E+00  0.94006266525E+03  0.94006266525E+03  0.25500000920E-02 0. -1.
        2   -1    0    0  501    0  0.00000000000E+00  0.00000000000E+00 -0.22338358189E+04  0.22338358189E+04  0.25500000920E-02 0.  1.
    10030    2    1    2    0    0  0.00000000000E+00  0.00000000000E+00 -0.12937731536E+04  0.31738984841E+04  0.28982378464E+04 0.  0.
        5    1    3    3  502    0  0.16880778560E+03  0.64667405166E+03  0.76119229704E+03  0.10129754196E+04  0.46999998093E+01 0. -1.
       -5    1    3    3    0  502 -0.16880778560E+03 -0.64667405166E+03 -0.20549654507E+04  0.21609230646E+04  0.46999998093E+01 0.  1.
</event>
<event>
 5   0  0.2534588E-07  0.2899088E+04  0.7818609E-02  0.8273149E-01
        2   -1    0    0  501    0  0.00000000000E+00  0.00000000000E+00  0.12569195736E+04  0.12569195736E+04  0.25500000920E-02 0. -1.
       -2   -1    0    0    0  501  0.00000000000E+00  0.00000000000E+00 -0.16716877947E+04  0.16716877947E+04  0.25500000920E-02 0.  1.
    10030    2    1    2    0    0  0.00000000000E+00  0.00000000000E+00 -0.41476822112E+03  0.29286073682E+04  0.28990875185E+04 0.  0.
        3    1    3    3  502    0 -0.95398753270E+03 -0.34632039096E+03  0.83811670866E+03  0.13162331303E+04  0.10100000352E+00 0. -1.
       -3    1    3    3    0  502  0.95398753270E+03  0.34632039096E+03 -0.12528849298E+04  0.16123742379E+04  0.10100000352E+00 0.  1.
</event>
<event>
 5   0  0.9443352E-08  0.2897453E+04  0.7818609E-02  0.8273636E-01
       -1   -1    0    0    0  501  0.00000000000E+00  0.00000000000E+00  0.14262183836E+04  0.14262183837E+04  0.50400001928E-02 0.  1.
        1   -1    0    0  501    0  0.00000000000E+00  0.00000000000E+00 -0.14715895413E+04  0.14715895413E+04  0.50400001928E-02 0. -1.
    10030    2    1    2    0    0  0.00000000000E+00  0.00000000000E+00 -0.45371157663E+02  0.28978079250E+04  0.28974527137E+04 0.  0.
        4    1    3    3  502    0  0.16717680348E+03 -0.21710484492E+03 -0.14454364605E+04  0.14711800609E+04  0.12699999809E+01 0. -1.
       -4    1    3    3    0  502 -0.16717680348E+03  0.21710484492E+03  0.14000653029E+04  0.14266278641E+04  0.12699999809E+01 0.  1.
</event>
<event>
 5   0  0.9763851E-08  0.2901586E+04  0.7818609E-02  0.8272406E-01
        1   -1    0    0  501    0  0.00000000000E+00  0.00000000000E+00  0.28421757668E+04  0.28421757668E+04  0.50400001928E-02 0. -1.
       -1   -1    0    0    0  501  0.00000000000E+00  0.00000000000E+00 -0.74055935529E+03  0.74055935531E+03  0.50400001928E-02 0.  1.
    10030    2    1    2    0    0  0.00000000000E+00  0.00000000000E+00  0.21016164115E+04  0.35827351221E+04  0.29015856724E+04 0.  0.
        3    1    3    3  502    0 -0.12593084355E+04 -0.10514625066E+03  0.19307675019E+04  0.23075477516E+04  0.10100000352E+00 0. -1.
       -3    1    3    3    0  502  0.12593084355E+04  0.10514625066E+03  0.17084890961E+03  0.12751873704E+04  0.10100000352E+00 0.  1.
</event>
<event>
 5   0  0.2492232E-07  0.2906787E+04  0.7818609E-02  0.8270861E-01
       -2   -1    0    0    0  501  0.00000000000E+00  0.00000000000E+00  0.11530207479E+04  0.11530207479E+04  0.25500000920E-02 0.  1.
        2   -1    0    0  501    0  0.00000000000E+00  0.00000000000E+00 -0.18320164720E+04  0.18320164720E+04  0.25500000920E-02 0. -1.
    10030    2    1    2    0    0  0.00000000000E+00  0.00000000000E+00 -0.67899572412E+03  0.29850372198E+04  0.29067872317E+04 0.  0.
        4    1    3    3  502    0  0.92845745770E+03  0.99098479362E+02 -0.14832567352E+04  0.17526853439E+04  0.12699999809E+01 0. -1.
       -4    1    3    3    0  502 -0.92845745770E+03 -0.99098479362E+02  0.80426101104E+03  0.12323518760E+04  0.12699999809E+01 0.  1.
</event>
<event>
 5   0  0.2534588E-07  0.2899770E+04  0.7818609E-02  0.8272946E-01
        2   -1    0    0  501    0  0.00000000000E+00  0.00000000000E+00  0.89752229416E+03  0.89752229416E+03  0.25500000920E-02 0.  1.
       -2   -1    0    0    0  501  0.00000000000E+00  0.00000000000E+00 -0.23421894042E+04  0.23421894042E+04  0.25500000920E-02 0. -1.
    10030    2    1    2    0    0  0.00000000000E+00  0.00000000000E+00 -0.14446671101E+04  0.32397116984E+04  0.28997704788E+04 0.  0.
        3    1    3    3  502    0  0.67615484321E+03  0.11219279189E+04 -0.14166898327E+04  0.19294863875E+04  0.10100000352E+00 0. -1.
       -3    1    3    3    0  502 -0.67615484321E+03 -0.11219279189E+04 -0.27977277392E+02  0.13102253109E+04  0.10100000352E+00 0.  1.
</event>
<event>
 5   0  0.2608591E-07  0.2900297E+04  0.7818609E-02  0.8272789E-01
       -2   -1    0    0    0  501  0.00000000000E+00  0.00000000000E+00  0.92230478286E+03  0.92230478287E+03  0.25500000920E-02 0. -1.
        2   -1    0    0  501    0  0.00000000000E+00  0.00000000000E+00 -0.22800816096E+04  0.22800816096E+04  0.25500000920E-02 0.  1.
    10030    2    1    2    0    0  0.00000000000E+00  0.00000000000E+00 -0.13577768267E+04  0.32023863925E+04  0.29002966564E+04 0.  0.
        2    1    3    3  502    0 -0.24064104497E+01 -0.12625960703E+04 -0.14664679516E+04  0.19351183118E+04  0.25500000920E-02 0.  1.
       -2    1    3    3    0  502  0.24064104497E+01  0.12625960703E+04  0.10869112485E+03  0.12672680807E+04  0.25500000920E-02 0. -1.
</event>
<event>
 5   0  0.2608591E-07  0.2902609E+04  0.7818609E-02  0.8272102E-01
       -2   -1    0    0    0  501  0.00000000000E+00  0.00000000000E+00  0.98914233194E+03  0.98914233194E+03  0.25500000920E-02 0.  1.
        2   -1    0    0  501    0  0.00000000000E+00  0.00000000000E+00 -0.21294047300E+04  0.21294047300E+04  0.25500000920E-02 0. -1.
    10030    2    1    2    0    0  0.00000000000E+00  0.00000000000E+00 -0.11402623981E+04  0.31185470620E+04  0.29026087303E+04 0.  0.
        2    1    3    3  502    0  0.90829508129E+03 -0.86429375329E+03 -0.13554546275E+04  0.18464183962E+04  0.25500000920E-02 0. -1.
       -2    1    3    3    0  502 -0.90829508129E+03  0.86429375329E+03  0.21519222939E+03  0.12721286658E+04  0.25500000920E-02 0.  1.
</event>
<event>
 5   0  0.2492232E-07  0.2901349E+04  0.7818609E-02  0.8272476E-01
        2   -1    0    0  501    0  0.00000000000E+00  0.00000000000E+00  0.13961071470E+04  0.13961071470E+04  0.25500000920E-02 0.  1.
       -2   -1    0    0    0  501  0.00000000000E+00  0.00000000000E+00 -0.15073750149E+04  0.15073750149E+04  0.25500000920E-02 0. -1.
    10030    2    1    2    0    0  0.00000000000E+00  0.00000000000E+00 -0.11126786787E+03  0.29034821619E+04  0.29013493629E+04 0.  0.
        4    1    3    3  502    0  0.89708863758E+03 -0.86874462942E+02 -0.11931930052E+04  0.14953348643E+04  0.12699999809E+01 0. -1.
       -4    1    3    3    0  502 -0.89708863758E+03  0.86874462942E+02  0.10819251373E+04  0.14081472975E+04  0.12699999809E+01 0.  1.
</event>
<event>
 5   0  0.2678723E-07  0.2898989E+04  0.7818609E-02  0.8273178E-01
       -2   -1    0    0    0  501  0.00000000000E+00  0.00000000000E+00  0.30252728520E+04  0.30252728520E+04  0.25500000920E-02 0. -1.
        2   -1    0    0  501    0  0.00000000000E+00  0.00000000000E+00 -0.69449435807E+03  0.69449435807E+03  0.25500000920E-02 0.  1.
    10030    2    1    2    0    0  0.00000000000E+00  0.00000000000E+00  0.23307784939E+04  0.37197672100E+04  0.28989894290E+04 0.  0.
        5    1    3    3  502    0 -0.12691450526E+04 -0.43528376608E+03  0.18691361610E+04  0.23008461921E+04  0.46999998093E+01 0. -1.
       -5    1    3    3    0  502  0.12691450526E+04  0.43528376608E+03  0.46164233289E+03  0.14189210179E+04  0.46999998093E+01 0.  1.
</event>
<event>
 5   0  0.2678723E-07  0.2902191E+04  0.7818609E-02  0.8272226E-01
        2   -1    0    0  501    0  0.00000000000E+00  0.00000000000E+00  0.14608318101E+04  0.14608318101E+04  0.25500000920E-02 0. -1.
       -2   -1    0    0    0  501  0.00000000000E+00  0.00000000000E+00 -0.14414240815E+04  0.14414240815E+04  0.25500000920E-02 0.  1.
    10030    2    1    2    0    0  0.00000000000E+00  0.00000000000E+00  0.19407728531E+02  0.29022558916E+04  0.29021910000E+04 0.  0.
        5    1    3    3  502    0  0.51582822550E+03  0.66491089173E+03  0.11918769913E+04  0.14590332774E+04  0.46999998093E+01 0. -1.
       -5    1    3    3    0  502 -0.51582822550E+03 -0.66491089173E+03 -0.11724692627E+04  0.14432226142E+04  0.46999998093E+01 0.  1.
</event>
<event>
 5   0  0.2534588E-07  0.2901053E+04  0.7818609E-02  0.8272564E-01
        2   -1    0    0  501    0  0.00000000000E+00  0.00000000000E+00  0.10724129044E+04  0.10724129044E+04  0.25500000920E-02 0. -1.
       -2   -1    0    0    0  501  0.00000000000E+00  0.00000000000E+00 -0.19619562258E+04  0.19619562258E+04  0.25500000920E-02 0.  1.
    10030    2    1    2    0    0  0.00000000000E+00  0.00000000000E+00 -0.88954332137E+03  0.30343691302E+04  0.29010530326E+04 0.  0.
        3    1    3    3  502    0  0.10367331160E+04 -0.76130885479E+03  0.25657989677E+03  0.13115791931E+04  0.10100000352E+00 0. -1.
       -3    1    3    3    0  502 -0.10367331160E+04  0.76130885479E+03 -0.11461232181E+04  0.17227899371E+04  0.10100000352E+00 0.  1.
</event>
<event>
 5   0  0.9421924E-08  0.2901714E+04  0.7818609E-02  0.8272368E-01
       -1   -1    0    0    0  501  0.00000000000E+00  0.00000000000E+00  0.11229781696E+04  0.11229781696E+04  0.50400001928E-02 0. -1.
        1   -1    0    0  501    0  0.00000000000E+00  0.00000000000E+00 -0.18744673490E+04  0.18744673491E+04  0.50400001928E-02 0.  1.
    10030    2    1    2    0    0  0.00000000000E+00  0.00000000000E+00 -0.75148917947E+03  0.29974455186E+04  0.29017139160E+04 0.  0.
        1    1    3    3  502    0  0.60414425492E+03 -0.89105951706E+03  0.62897354401E+03  0.12468300056E+04  0.50400001928E-02 0. -1.
       -1    1    3    3    0  502 -0.60414425492E+03  0.89105951706E+03 -0.13804627235E+04  0.17506155131E+04  0.50400001928E-02 0.  1.
</event>
<event>
 5   0  0.9421924E-08  0.2900771E+04  0.7818609E-02  0.8272648E-01
       -1   -1    0    0    0  501  0.00000000000E+00  0.00000000000E+00  0.19438596068E+04  0.19438596068E+04  0.50400001928E-02 0. -1.
        1   -1    0    0  501    0  0.00000000000E+00  0.00000000000E+00 -0.10821864653E+04  0.10821864653E+04  0.50400001928E-02 0.  1.
    10030    2    1    2    0    0  0.00000000000E+00  0.00000000000E+00  0.86167314149E+03  0.30260460721E+04  0.29007713160E+04 0.  0.
        1    1    3    3  502    0 -0.21353530286E+03 -0.13860226161E+04  0.44769337666E+02  0.14030895593E+04  0.50400001928E-02 0.  1.
       -1    1    3    3    0  502  0.21353530286E+03  0.13860226161E+04  0.81690380383E+03  0.16229565128E+04  0.50400001928E-02 0. -1.
</event>
<event>
 5   0  0.2608591E-07  0.2900946E+04  0.7818609E-02  0.8272596E-01
        2   -1    0    0  501    0  0.00000000000E+00  0.00000000000E+00  0.14876642032E+04  0.14876642032E+04  0.25500000920E-02 0. -1.
       -2   -1    0    0    0  501  0.00000000000E+00  0.00000000000E+00 -0.14142111947E+04  0.14142111947E+04  0.25500000920E-02 0.  1.
    10030    2    1    2    0    0  0.00000000000E+00  0.00000000000E+00  0.73453008508E+02  0.29018753979E+04  0.29009456183E+04 0.  0.
        2    1    3    3  502    0 -0.87798156756E+03 -0.35584417105E+03  0.11354385266E+04  0.14787485773E+04  0.25500000920E-02 0. -1.
       -2    1    3    3    0  502  0.87798156756E+03  0.35584417105E+03 -0.10619855181E+04  0.14231268207E+04  0.25500000920E-02 0.  1.
</event>
<event>
 5   0  0.2492232E-07  0.2901881E+04  0.7818609E-02  0.8272318E-01
        2   -1    0    0  501    0  0.00000000000E+00  0.00000000000E+00  0.13344617282E+04  0.13344617282E+04  0.25500000920E-02 0. -1.
       -2   -1    0    0    0  501  0.00000000000E+00  0.00000000000E+00 -0.15775865240E+04  0.15775865240E+04  0.25500000920E-02 0.  1.
    10030    2    1    2    0    0  0.00000000000E+00  0.00000000000E+00 -0.24312479574E+03  0.29120482522E+04  0.29018813478E+04 0.  0.
        4    1    3    3  502    0 -0.21941666845E+03 -0.12456300470E+04  0.59190628636E+03  0.13964571433E+04  0.12699999809E+01 0. -1.
       -4    1    3    3    0  502  0.21941666845E+03  0.12456300470E+04 -0.83503108210E+03  0.15155911089E+04  0.12699999809E+01 0.  1.
</event>
<event>
 5   0  0.9388076E-08  0.2900501E+04  0.7818609E-02  0.8272729E-01
       -1   -1    0    0    0  501  0.00000000000E+00  0.00000000000E+00  0.15422238315E+04  0.15422238315E+04  0.50400001928E-02 0. -1.
        1   -1    0    0  501    0  0.00000000000E+00  0.00000000000E+00 -0.13637618103E+04  0.13637618103E+04  0.50400001928E-02 0.  1.
    10030    2    1    2    0    0  0.00000000000E+00  0.00000000000E+00  0.17846202121E+03  0.29059856418E+04  0.29005006218E+04 0.  0.
        5    1    3    3  502    0 -0.87587055731E+03  0.11492572976E+04 -0.34543313793E+02  0.14453916078E+04  0.46999998093E+01 0. -1.
       -5    1    3    3    0  502  0.87587055731E+03 -0.11492572976E+04  0.21300533500E+03  0.14605940340E+04  0.46999998093E+01 0.  1.
</event>
<event>
 5   0  0.2546841E-07  0.2899430E+04  0.7818609E-02  0.8273047E-01
       -2   -1    0    0    0  501  0.00000000000E+00  0.00000000000E+00  0.11336503196E+04  0.11336503196E+04  0.25500000920E-02 0. -1.
        2   -1    0    0  501    0  0.00000000000E+00  0.00000000000E+00 -0.18538995508E+04  0.18538995508E+04  0.25500000920E-02 0.  1.
    10030    2    1    2    0    0  0.00000000000E+00  0.00000000000E+00 -0.72024923113E+03  0.29875498704E+04  0.28994301635E+04 0.  0.
        1    1    3    3  502    0 -0.25924335428E+03 -0.33943968852E+03  0.10673486763E+04  0.11496345575E+04  0.50400001928E-02 0. -1.
       -1    1    3    3    0  502  0.25924335428E+03  0.33943968852E+03 -0.17875979074E+04  0.18379153129E+04  0.50400001928E-02 0.  1.
</event>
<event>
 5   0  0.9388076E-08  0.2904217E+04  0.7818609E-02  0.8271624E-01
        1   -1    0    0  501    0  0.00000000000E+00  0.00000000000E+00  0.23555400198E+04  0.23555400198E+04  0.50400001928E-02 0. -1.
       -1   -1    0    0    0  501  0.00000000000E+00  0.00000000000E+00 -0.89517447867E+03  0.89517447869E+03  0.50400001928E-02 0.  1.
    10030    2    1    2    0    0  0.00000000000E+00  0.00000000000E+00  0.14603655411E+04  0.32507144985E+04  0.29042171470E+04 0.  0.
        5    1    3    3  502    0  0.16672803966E+03 -0.31437328481E+03 -0.84560638699E+03  0.91744267021E+03  0.46999998093E+01 0.  1.
       -5    1    3    3    0  502 -0.16672803966E+03  0.31437328481E+03  0.23059719281E+04  0.23332718282E+04  0.46999998093E+01 0. -1.
</event>
<event>
 5   0  0.9443352E-08  0.2900511E+04  0.7818609E-02  0.8272725E-01
       -1   -1    0    0    0  501  0.00000000000E+00  0.00000000000E+00  0.98524092958E+03  0.98524092959E+03  0.50400001928E-02 0. -1.
        1   -1    0    0  501    0  0.00000000000E+00  0.00000000000E+00 -0.21347484023E+04  0.21347484023E+04  0.50400001928E-02 0.  1.
    10030    2    1    2    0    0  0.00000000000E+00  0.00000000000E+00 -0.11495074727E+04  0.31199893319E+04  0.29005113345E+04 0.  0.
        4    1    3    3  502    0 -0.91789684340E+03  0.63363192435E+03 -0.15718329989E+04  0.19273517115E+04  0.12699999809E+01 0.  1.
       -4    1    3    3    0  502  0.91789684340E+03 -0.63363192435E+03  0.42232552611E+03  0.11926376204E+04  0.12699999809E+01 0. -1.
</event>
<event>
 5   0  0.9421924E-08  0.2899879E+04  0.7818609E-02  0.8272913E-01
        1   -1    0    0  501    0  0.00000000000E+00  0.00000000000E+00  0.16494442537E+04  0.16494442537E+04  0.50400001928E-02 0.  1.
       -1   -1    0    0    0  501  0.00000000000E+00  0.00000000000E+00 -0.12745653397E+04  0.12745653397E+04  0.50400001928E-02 0. -1.
    10030    2    1    2    0    0  0.00000000000E+00  0.00000000000E+00  0.37487891400E+03  0.29240095933E+04  0.28998789460E+04 0.  0.
        1    1    3    3  502    0 -0.11301001884E+04  0.77211567756E+03  0.66999826777E+03  0.15238722828E+04  0.50400001928E-02 0.  1.
       -1    1    3    3    0  502  0.11301001884E+04 -0.77211567756E+03 -0.29511935377E+03  0.14001373105E+04  0.50400001928E-02 0. -1.
</event>
<event>
 5   0  0.9421924E-08  0.2902822E+04  0.7818609E-02  0.8272038E-01
       -1   -1    0    0    0  501  0.00000000000E+00  0.00000000000E+00  0.11036453250E+04  0.11036453251E+04  0.50400001928E-02 0. -1.
        1   -1    0    0  501    0  0.00000000000E+00  0.00000000000E+00 -0.19087593264E+04  0.19087593264E+04  0.50400001928E-02 0.  1.
    10030    2    1    2    0    0  0.00000000000E+00  0.00000000000E+00 -0.80511400136E+03  0.30124046515E+04  0.29028215979E+04 0.  0.
        1    1    3    3  502    0 -0.13674908076E+04 -0.48447632207E+03 -0.44713067080E+03  0.15181153620E+04  0.50400001928E-02 0.  1.
       -1    1    3    3    0  502  0.13674908076E+04  0.48447632207E+03 -0.35798333056E+03  0.14942892895E+04  0.50400001928E-02 0. -1.
</event>
<event>
 5   0  0.9421924E-08  0.2901851E+04  0.7818609E-02  0.8272327E-01
        1   -1    0    0  501    0  0.00000000000E+00  0.00000000000E+00  0.16034403068E+04  0.16034403068E+04  0.50400001928E-02 0.  1.
       -1   -1    0    0    0  501  0.00000000000E+00  0.00000000000E+00 -0.13129178247E+04  0.13129178247E+04  0.50400001928E-02 0. -1.
    10030    2    1    2    0    0  0.00000000000E+00  0.00000000000E+00  0.29052248212E+03  0.29163581315E+04  0.29018513812E+04 0.  0.
        1    1    3    3  502    0  0.37563150799E+03 -0.43241059129E+03 -0.11944849389E+04  0.13247159010E+04  0.50400001928E-02 0. -1.
       -1    1    3    3    0  502 -0.37563150799E+03  0.43241059129E+03  0.14850074210E+04  0.15916422304E+04  0.50400001928E-02 0.  1.
</event>
<event>
 5   0  0.9395744E-08  0.2893938E+04  0.7818609E-02  0.8274683E-01
       -1   -1    0    0    0  501  0.00000000000E+00  0.00000000000E+00  0.12304806281E+04  0.12304806281E+04  0.50400001928E-02 0. -1.
        1   -1    0    0  501    0  0.00000000000E+00  0.00000000000E+00 -0.17015457871E+04  0.17015457872E+04  0.50400001928E-02 0.  1.
    10030    2    1    2    0    0  0.00000000000E+00  0.00000000000E+00 -0.47106515907E+03  0.29320264152E+04  0.28939378908E+04 0.  0.
        2    1    3    3  502    0 -0.13699008574E+04  0.34853953314E+03  0.77747312219E+02  0.14156810410E+04  0.25500000920E-02 0.  1.
       -2    1    3    3    0  502  0.13699008574E+04 -0.34853953314E+03 -0.54881247128E+03  0.15163453742E+04  0.25500000920E-02 0. -1.
</event>
<event>
 5   0  0.9388076E-08  0.2899785E+04  0.7818609E-02  0.8272941E-01
       -1   -1    0    0    0  501  0.00000000000E+00  0.00000000000E+00  0.18489658436E+04  0.18489658436E+04  0.50400001928E-02 0.  1.
        1   -1    0    0  501    0  0.00000000000E+00  0.00000000000E+00 -0.11369534664E+04  0.11369534664E+04  0.50400001928E-02 0. -1.
    10030    2    1    2    0    0  0.00000000000E+00  0.00000000000E+00  0.71201237723E+03  0.29859193100E+04  0.28997849059E+04 0.  0.
        5    1    3    3  502    0 -0.11178707408E+04 -0.56537264106E+02 -0.59296206852E+03  0.12666718439E+04  0.46999998093E+01 0. -1.
       -5    1    3    3    0  502  0.11178707408E+04  0.56537264106E+02  0.13049744457E+04  0.17192474660E+04  0.46999998093E+01 0.  1.
</event>
<event>
 5   0  0.2534588E-07  0.2900638E+04  0.7818609E-02  0.8272688E-01
       -2   -1    0    0    0  501  0.00000000000E+00  0.00000000000E+00  0.94804878003E+03  0.94804878004E+03  0.25500000920E-02 0.  1.
        2   -1    0    0  501    0  0.00000000000E+00  0.00000000000E+00 -0.22186886675E+04  0.22186886675E+04  0.25500000920E-02 0. -1.
    10030    2    1    2    0    0  0.00000000000E+00  0.00000000000E+00 -0.12706398874E+04  0.31667374475E+04  0.29006379191E+04 0.  0.
        3    1    3    3  502    0 -0.36202447476E+03 -0.24528807188E+03 -0.21449998236E+04  0.21891213333E+04  0.10100000352E+00 0. -1.
       -3    1    3    3    0  502  0.36202447476E+03  0.24528807188E+03  0.87435993617E+03  0.97761611418E+03  0.10100000352E+00 0.  1.
</event>
<event>
 5   0  0.9763851E-08  0.2900184E+04  0.7818609E-02  0.8272823E-01
        1   -1    0    0  501    0  0.00000000000E+00  0.00000000000E+00  0.23467972315E+04  0.23467972315E+04  0.50400001928E-02 0.  1.
       -1   -1    0    0    0  501  0.00000000000E+00  0.00000000000E+00 -0.89601585022E+03  0.89601585024E+03  0.50400001928E-02 0. -1.
    10030    2    1    2    0    0  0.00000000000E+00  0.00000000000E+00  0.14507813813E+04  0.32428130817E+04  0.29001844884E+04 0.  0.
        3    1    3    3  502    0  0.29950861000E+03  0.47309643646E+03  0.22210435861E+04  0.22905371133E+04  0.10100000352E+00 0.  1.
       -3    1    3    3    0  502 -0.29950861000E+03 -0.47309643646E+03 -0.77026220486E+03  0.95227596845E+03  0.10100000352E+00 0. -1.
</event>
<event>
 5   0  0.9395744E-08  0.2901060E+04  0.7818609E-02  0.8272562E-01
       -1   -1    0    0    0  501  0.00000000000E+00  0.00000000000E+00  0.20742793313E+04  0.20742793313E+04  0.50400001928E-02 0. -1.
        1   -1    0    0  501    0  0.00000000000E+00  0.00000000000E+00 -0.10143460252E+04  0.10143460252E+04  0.50400001928E-02 0.  1.
    10030    2    1    2    0    0  0.00000000000E+00  0.00000000000E+00  0.10599333061E+04  0.30886253565E+04  0.29010598028E+04 0.  0.
        2    1    3    3  502    0 -0.43352258356E+03 -0.56972229168E+03  0.18730824759E+04  0.20052339718E+04  0.25500000920E-02 0. -1.
       -2    1    3    3    0  502  0.43352258356E+03  0.56972229168E+03 -0.81314916984E+03  0.10833913847E+04  0.25500000920E-02 0.  1.
</event>
<event>
 5   0  0.2678723E-07  0.2900429E+04  0.7818609E-02  0.8272750E-01
       -2   -1    0    0    0  501  0.00000000000E+00  0.00000000000E+00  0.10526078757E+04  0.10526078757E+04  0.25500000920E-02 0. -1.
        2   -1    0    0  501    0  0.00000000000E+00  0.00000000000E+00 -0.19980109494E+04  0.19980109494E+04  0.25500000920E-02 0.  1.
    10030    2    1    2    0    0  0.00000000000E+00  0.00000000000E+00 -0.94540307368E+03  0.30506188251E+04  0.29004289759E+04 0.  0.
        5    1    3    3  502    0 -0.49317051361E+03  0.37871547731E+03  0.90527627862E+03  0.10982667248E+04  0.46999998093E+01 0. -1.
       -5    1    3    3    0  502  0.49317051361E+03 -0.37871547731E+03 -0.18506793523E+04  0.19523521002E+04  0.46999998093E+01 0.  1.
</event>
<event>
 5   0  0.2534588E-07  0.2900040E+04  0.7818609E-02  0.8272866E-01
       -2   -1    0    0    0  501  0.00000000000E+00  0.00000000000E+00  0.14793626445E+04  0.14793626445E+04  0.25500000920E-02 0.  1.
        2   -1    0    0  501    0  0.00000000000E+00  0.00000000000E+00 -0.14212592325E+04  0.14212592325E+04  0.25500000920E-02 0. -1.
    10030    2    1    2    0    0  0.00000000000E+00  0.00000000000E+00  0.58103411961E+02  0.29006218770E+04  0.29000398733E+04 0.  0.
        3    1    3    3  502    0 -0.15768552071E+03  0.12924820905E+04  0.66728879268E+03  0.14630956977E+04  0.10100000352E+00 0. -1.
       -3    1    3    3    0  502  0.15768552071E+03 -0.12924820905E+04 -0.60918538072E+03  0.14375261792E+04  0.10100000352E+00 0.  1.
</event>
<event>
 5   0  0.9421924E-08  0.2907452E+04  0.7818609E-02  0.8270664E-01
        1   -1    0    0  501    0  0.00000000000E+00  0.00000000000E+00  0.79639844303E+03  0.79639844305E+03  0.50400001928E-02 0.  1.
       -1   -1    0    0    0  501  0.00000000000E+00  0.00000000000E+00 -0.26535946526E+04  0.26535946526E+04  0.50400001928E-02 0. -1.
    10030    2    1    2    0    0  0.00000000000E+00  0.00000000000E+00 -0.18571962096E+04  0.34499930957E+04  0.29074515644E+04 0.  0.
        1    1    3    3  502    0  0.57692590636E+03 -0.87951511425E+03  0.26210918796E+03  0.10840164040E+04  0.50400001928E-02 0.  1.
       -1    1    3    3    0  502 -0.57692590636E+03  0.87951511425E+03 -0.21193053975E+04  0.23659766917E+04  0.50400001928E-02 0. -1.
</event>
<event>
 5   0  0.2492232E-07  0.2900483E+04  0.7818609E-02  0.8272734E-01
        2   -1    0    0  501    0  0.00000000000E+00  0.00000000000E+00  0.10619477061E+04  0.10619477061E+04  0.25500000920E-02 0. -1.
       -2   -1    0    0    0  501  0.00000000000E+00  0.00000000000E+00 -0.19805121203E+04  0.19805121203E+04  0.25500000920E-02 0.  1.
    10030    2    1    2    0    0  0.00000000000E+00  0.00000000000E+00 -0.91856441421E+03  0.30424598264E+04  0.29004829274E+04 0.  0.
        4    1    3    3  502    0  0.80440178913E+03  0.52598537604E+03  0.67991539674E+03  0.11772890103E+04  0.12699999809E+01 0. -1.
       -4    1    3    3    0  502 -0.80440178913E+03 -0.52598537604E+03 -0.15984798110E+04  0.18651708161E+04  0.12699999809E+01 0.  1.
</event>
<event>
 5   0  0.2546841E-07  0.2900122E+04  0.7818609E-02  0.8272841E-01
        2   -1    0    0  501    0  0.00000000000E+00  0.00000000000E+00  0.19268472663E+04  0.19268472663E+04  0.25500000920E-02 0.  1.
       -2   -1    0    0    0  501  0.00000000000E+00  0.00000000000E+00 -0.10912528730E+04  0.10912528730E+04  0.25500000920E-02 0. -1.
    10030    2    1    2    0    0  0.00000000000E+00  0.00000000000E+00  0.83559439333E+03  0.30181001394E+04  0.29001224907E+04 0.  0.
        1    1    3    3  502    0 -0.98953999780E+03  0.10560698577E+04  0.32353279899E+03  0.14829519289E+04  0.50400001928E-02 0.  1.
       -1    1    3    3    0  502  0.98953999780E+03 -0.10560698577E+04  0.51206159433E+03  0.15351482104E+04  0.50400001928E-02 0. -1.
</event>
<event>
 5   0  0.2534588E-07  0.2903351E+04  0.7818609E-02  0.8271881E-01
        2   -1    0    0  501    0  0.00000000000E+00  0.00000000000E+00  0.17536456630E+04  0.17536456630E+04  0.25500000920E-02 0. -1.
       -2   -1    0    0    0  501  0.00000000000E+00  0.00000000000E+00 -0.12017034462E+04  0.12017034462E+04  0.25500000920E-02 0.  1.
    10030    2    1    2    0    0  0.00000000000E+00  0.00000000000E+00  0.55194221671E+03  0.29553491092E+04  0.29033511925E+04 0.  0.
        3    1    3    3  502    0  0.86776320562E+03 -0.11184483392E+04  0.60332419221E+03  0.15388111514E+04  0.10100000352E+00 0. -1.
       -3    1    3    3    0  502 -0.86776320562E+03  0.11184483392E+04 -0.51381975498E+02  0.14165379579E+04  0.10100000352E+00 0.  1.
</event>
<event>
 5   0  0.9388076E-08  0.2898644E+04  0.7818609E-02  0.8273281E-01
        1   -1    0    0  501    0  0.00000000000E+00  0.00000000000E+00  0.15080621379E+04  0.15080621379E+04  0.50400001928E-02 0. -1.
       -1   -1    0    0    0  501  0.00000000000E+00  0.00000000000E+00 -0.13928698397E+04  0.13928698397E+04  0.50400001928E-02 0.  1.
    10030    2    1    2    0    0  0.00000000000E+00  0.00000000000E+00  0.11519229825E+03  0.29009319776E+04  0.28986440059E+04 0.  0.
        5    1    3    3  502    0 -0.64406371058E+03 -0.62322219924E+03 -0.10822884842E+04  0.14052026280E+04  0.46999998093E+01 0.  1.
       -5    1    3    3    0  502  0.64406371058E+03  0.62322219924E+03  0.11974807824E+04  0.14957293496E+04  0.46999998093E+01 0. -1.
</event>
<event>
 5   0  0.9395744E-08  0.2899830E+04  0.7818609E-02  0.8272928E-01
       -1   -1    0    0    0  501  0.00000000000E+00  0.00000000000E+00  0.16922419205E+04  0.16922419205E+04  0.50400001928E-02 0. -1.
        1   -1    0    0  501    0  0.00000000000E+00  0.00000000000E+00 -0.12422893451E+04  0.12422893451E+04  0.50400001928E-02 0.  1.
    10030    2    1    2    0    0  0.00000000000E+00  0.00000000000E+00  0.44995257542E+03  0.29345312656E+04  0.28998304138E+04 0.  0.
        2    1    3    3  502    0  0.99185734527E+03 -0.98771957313E+03 -0.15754592724E+03  0.14086133848E+04  0.25500000920E-02 0.  1.
       -2    1    3    3    0  502 -0.99185734527E+03  0.98771957313E+03  0.60749850266E+03  0.15259178809E+04  0.25500000920E-02 0. -1.
</event>
<event>
 5   0  0.9763851E-08  0.2899885E+04  0.7818609E-02  0.8272912E-01
       -1   -1    0    0    0  501  0.00000000000E+00  0.00000000000E+00  0.83280615120E+03  0.83280615121E+03  0.50400001928E-02 0.  1.
        1   -1    0    0  501    0  0.00000000000E+00  0.00000000000E+00 -0.25243973620E+04  0.25243973620E+04  0.50400001928E-02 0. -1.
    10030    2    1    2    0    0  0.00000000000E+00  0.00000000000E+00 -0.16915912108E+04  0.33572035132E+04  0.28998852744E+04 0.  0.
        3    1    3    3  502    0 -0.89174113756E+03  0.67754188552E+03 -0.19119308172E+04  0.22157943774E+04  0.10100000352E+00 0. -1.
       -3    1    3    3    0  502  0.89174113756E+03 -0.67754188552E+03  0.22033960636E+03  0.11414091358E+04  0.10100000352E+00 0.  1.
</event>
<event>
 5   0  0.2608591E-07  0.2912280E+04  0.7818609E-02  0.8269233E-01
        2   -1    0    0  501    0  0.00000000000E+00  0.00000000000E+00  0.21427040959E+04  0.21427040959E+04  0.25500000920E-02 0.  1.
       -2   -1    0    0    0  501  0.00000000000E+00  0.00000000000E+00 -0.98956464612E+03  0.98956464612E+03  0.25500000920E-02 0. -1.
    10030    2    1    2    0    0  0.00000000000E+00  0.00000000000E+00  0.11531394498E+04  0.31322687420E+04  0.29122803577E+04 0.  0.
        2    1    3    3  502    0 -0.42982673589E+03 -0.53216880197E+03  0.19591235788E+04  0.20751192384E+04  0.25500000920E-02 0.  1.
       -2    1    3    3    0  502  0.42982673589E+03  0.53216880197E+03 -0.80598412903E+03  0.10571495036E+04  0.25500000920E-02 0. -1.
</event>
<event>
 5   0  0.2492232E-07  0.2905526E+04  0.7818609E-02  0.8271235E-01
        2   -1    0    0  501    0  0.00000000000E+00  0.00000000000E+00  0.20452287794E+04  0.20452287794E+04  0.25500000920E-02 0.  1.
       -2   -1    0    0    0  501  0.00000000000E+00  0.00000000000E+00 -0.10319241867E+04  0.10319241868E+04  0.25500000920E-02 0. -1.
    10030    2    1    2    0    0  0.00000000000E+00  0.00000000000E+00  0.10133045926E+04  0.30771529661E+04  0.29055264892E+04 0.  0.
        4    1    3    3  502    0  0.10152437077E+04  0.71634110625E+03  0.13038822985E+04  0.18011038360E+04  0.12699999809E+01 0. -1.
       -4    1    3    3    0  502 -0.10152437077E+04 -0.71634110625E+03 -0.29057770588E+03  0.12760491302E+04  0.12699999809E+01 0.  1.
</event>
<event>
 5   0  0.9395744E-08  0.2900452E+04  0.7818609E-02  0.8272743E-01
       -1   -1    0    0    0  501  0.00000000000E+00  0.00000000000E+00  0.14164292540E+04  0.14164292540E+04  0.50400001928E-02 0. -1.
        1   -1    0    0  501    0  0.00000000000E+00  0.00000000000E+00 -0.14848289255E+04  0.14848289255E+04  0.50400001928E-02 0.  1.
    10030    2    1    2    0    0  0.00000000000E+00  0.00000000000E+00 -0.68399671503E+02  0.29012581796E+04  0.29004517768E+04 0.  0.
        2    1    3    3  502    0 -0.96477484247E+03  0.23381145857E+03 -0.10917055889E+04  0.14755607028E+04  0.25500000920E-02 0.  1.
       -2    1    3    3    0  502  0.96477484247E+03 -0.23381145857E+03  0.10233059174E+04  0.14256974768E+04  0.25500000920E-02 0. -1.
</event>
<event>
 5   0  0.9388076E-08  0.2900179E+04  0.7818609E-02  0.8272824E-01
        1   -1    0    0  501    0  0.00000000000E+00  0.00000000000E+00  0.11791699496E+04  0.11791699496E+04  0.50400001928E-02 0.  1.
       -1   -1    0    0    0  501  0.00000000000E+00  0.00000000000E+00 -0.17832536593E+04  0.17832536593E+04  0.50400001928E-02 0. -1.
    10030    2    1    2    0    0  0.00000000000E+00  0.00000000000E+00 -0.60408370974E+03  0.29624236089E+04  0.29001787031E+04 0.  0.
        5    1    3    3  502    0 -0.10614518141E+04  0.49464991541E+03  0.57151969297E+03  0.13030791772E+04  0.46999998093E+01 0.  1.
       -5    1    3    3    0  502  0.10614518141E+04 -0.49464991541E+03 -0.11756034027E+04  0.16593444317E+04  0.46999998093E+01 0. -1.
</event>
<event>
 5   0  0.9395744E-08  0.2903639E+04  0.7818609E-02  0.8271796E-01
       -1   -1    0    0    0  501  0.00000000000E+00  0.00000000000E+00  0.10255939359E+04  0.10255939359E+04  0.50400001928E-02 0.  1.
        1   -1    0    0  501    0  0.00000000000E+00  0.00000000000E+00 -0.20551795682E+04  0.20551795682E+04  0.50400001928E-02 0. -1.
    10030    2    1    2    0    0  0.00000000000E+00  0.00000000000E+00 -0.10295856324E+04  0.30807735041E+04  0.29036388910E+04 0.  0.
        2    1    3    3  502    0  0.10550354332E+04  0.51360585293E+03 -0.14218671287E+04  0.18435283749E+04  0.25500000920E-02 0. -1.
       -2    1    3    3    0  502 -0.10550354332E+04 -0.51360585293E+03  0.39228149633E+03  0.12372451292E+04  0.25500000920E-02 0.  1.
</event>
<event>
 5   0  0.2608591E-07  0.2900973E+04  0.7818609E-02  0.8272588E-01
       -2   -1    0    0    0  501  0.00000000000E+00  0.00000000000E+00  0.11422025900E+04  0.11422025900E+04  0.25500000920E-02 0. -1.
        2   -1    0    0  501    0  0.00000000000E+00  0.00000000000E+00 -0.18419767797E+04  0.18419767797E+04  0.25500000920E-02 0.  1.
    10030    2    1    2    0    0  0.00000000000E+00  0.00000000000E+00 -0.69977418974E+03  0.29841793697E+04  0.29009726978E+04 0.  0.
        2    1    3    3  502    0  0.89049567448E+03 -0.37180759402E+03  0.76408003803E+03  0.12308703172E+04  0.25500000920E-02 0. -1.
       -2    1    3    3    0  502 -0.89049567448E+03  0.37180759402E+03 -0.14638542278E+04  0.17533090525E+04  0.25500000920E-02 0.  1.
</event>
<event>
 5   0  0.2534588E-07  0.2899789E+04  0.7818609E-02  0.8272940E-01
        2   -1    0    0  501    0  0.00000000000E+00  0.00000000000E+00  0.68917073818E+03  0.68917073818E+03  0.25500000920E-02 0. -1.
       -2   -1    0    0    0  501  0.00000000000E+00  0.00000000000E+00 -0.30503238126E+04  0.30503238126E+04  0.25500000920E-02 0.  1.
    10030    2    1    2    0    0  0.00000000000E+00  0.00000000000E+00 -0.23611530744E+04  0.37394945508E+04  0.28997888983E+04 0.  0.
        3    1    3    3  502    0  0.13333708171E+04  0.48646376706E+03 -0.15624064707E+04  0.21108383932E+04  0.10100000352E+00 0. -1.
       -3    1    3    3    0  502 -0.13333708171E+04 -0.48646376706E+03 -0.79874660379E+03  0.16286561576E+04  0.10100000352E+00 0.  1.
</event>
<event>
 5   0  0.2608591E-07  0.2900420E+04  0.7818609E-02  0.8272752E-01
       -2   -1    0    0    0  501  0.00000000000E+00  0.00000000000E+00  0.13239714851E+04  0.13239714851E+04  0.25500000920E-02 0.  1.
        2   -1    0    0  501    0  0.00000000000E+00  0.00000000000E+00 -0.15884854737E+04  0.15884854737E+04  0.25500000920E-02 0. -1.
    10030    2    1    2    0    0  0.00000000000E+00  0.00000000000E+00 -0.26451398856E+03  0.29124569588E+04  0.29004202948E+04 0.  0.
        2    1    3    3  502    0 -0.29359267501E+03  0.11101635965E+04  0.75711019649E+03  0.13754547319E+04  0.25500000920E-02 0.  1.
       -2    1    3    3    0  502  0.29359267501E+03 -0.11101635965E+04 -0.10216241851E+04  0.15370022269E+04  0.25500000920E-02 0. -1.
</event>
<event>
 5   0  0.9763851E-08  0.2900883E+04  0.7818609E-02  0.8272615E-01
        1   -1    0    0  501    0  0.00000000000E+00  0.00000000000E+00  0.17354738993E+04  0.17354738993E+04  0.50400001928E-02 0.  1.
       -1   -1    0    0    0  501  0.00000000000E+00  0.00000000000E+00 -0.12122229136E+04  0.12122229136E+04  0.50400001928E-02 0. -1.
    10030    2    1    2    0    0  0.00000000000E+00  0.00000000000E+00  0.52325098566E+03  0.29476968129E+04  0.29008834701E+04 0.  0.
        3    1    3    3  502    0 -0.11943642476E+04  0.70263507648E+02 -0.57156912221E+03  0.13259465253E+04  0.10100000352E+00 0. -1.
       -3    1    3    3    0  502  0.11943642476E+04 -0.70263507648E+02  0.10948201079E+04  0.16217502876E+04  0.10100000352E+00 0.  1.
</event>
<event>
 5   0  0.9388076E-08  0.2900324E+04  0.7818609E-02  0.8272781E-01
       -1   -1    0    0    0  501  0.00000000000E+00  0.00000000000E+00  0.16551299217E+04  0.16551299217E+04  0.50400001928E-02 0.  1.
        1   -1    0    0  501    0  0.00000000000E+00  0.00000000000E+00 -0.12705771298E+04  0.12705771298E+04  0.50400001928E-02 0. -1.
    10030    2    1    2    0    0  0.00000000000E+00  0.00000000000E+00  0.38455279184E+03  0.29257070515E+04  0.29003242752E+04 0.  0.
        5    1    3    3  502    0 -0.12581688597E+04  0.61253455935E+03 -0.19152767097E+03  0.14124066003E+04  0.46999998093E+01 0. -1.
       -5    1    3    3    0  502  0.12581688597E+04 -0.61253455935E+03  0.57608046281E+03  0.15133004512E+04  0.46999998093E+01 0.  1.
</event>
<event>
 5   0  0.2678723E-07  0.2899578E+04  0.7818609E-02  0.8273003E-01
       -2   -1    0    0    0  501  0.00000000000E+00  0.00000000000E+00  0.14141062114E+04  0.14141062114E+04  0.25500000920E-02 0.  1.
        2   -1    0    0  501    0  0.00000000000E+00  0.00000000000E+00 -0.14863724553E+04  0.14863724553E+04  0.25500000920E-02 0. -1.
    10030    2    1    2    0    0  0.00000000000E+00  0.00000000000E+00 -0.72266243865E+02  0.29004786667E+04  0.28995782600E+04 0.  0.
        5    1    3    3  502    0  0.32873423657E+03  0.26205383164E+03 -0.14240538074E+04  0.14848197686E+04  0.46999998093E+01 0. -1.
       -5    1    3    3    0  502 -0.32873423657E+03 -0.26205383164E+03  0.13517875635E+04  0.14156588981E+04  0.46999998093E+01 0.  1.
</event>
<event>
 5   0  0.9388076E-08  0.2900461E+04  0.7818609E-02  0.8272740E-01
        1   -1    0    0  501    0  0.00000000000E+00  0.00000000000E+00  0.24232733191E+04  0.24232733191E+04  0.50400001928E-02 0.  1.
       -1   -1    0    0    0  501  0.00000000000E+00  0.00000000000E+00 -0.86790383108E+03  0.86790383109E+03  0.50400001928E-02 0. -1.
    10030    2    1    2    0    0  0.00000000000E+00  0.00000000000E+00  0.15553694880E+04  0.32911771502E+04  0.29004607892E+04 0.  0.
        5    1    3    3  502    0  0.13614440563E+04 -0.49957465217E+03  0.78498188044E+03  0.16490371112E+04  0.46999998093E+01 0. -1.
       -5    1    3    3    0  502 -0.13614440563E+04  0.49957465217E+03  0.77038760757E+03  0.16421400389E+04  0.46999998093E+01 0.  1.
</event>
<event>
 5   0  0.9395744E-08  0.2880924E+04  0.7818609E-02  0.8278576E-01
       -1   -1    0    0    0  501  0.00000000000E+00  0.00000000000E+00  0.84501965376E+03  0.84501965378E+03  0.50400001928E-02 0.  1.
        1   -1    0    0  501    0  0.00000000000E+00  0.00000000000E+00 -0.24554819645E+04  0.24554819645E+04  0.50400001928E-02 0. -1.
    10030    2    1    2    0    0  0.00000000000E+00  0.00000000000E+00 -0.16104623108E+04  0.33005016183E+04  0.28809238237E+04 0.  0.
        2    1    3    3  502    0  0.47913587720E+03 -0.12013971474E+04 -0.78851814715E+02  0.12958178512E+04  0.25500000920E-02 0.  1.
       -2    1    3    3    0  502 -0.47913587720E+03  0.12013971474E+04 -0.15316104960E+04  0.20046837671E+04  0.25500000920E-02 0. -1.
</event>
<event>
 5   0  0.2678723E-07  0.2900633E+04  0.7818609E-02  0.8272689E-01
       -2   -1    0    0    0  501  0.00000000000E+00  0.00000000000E+00  0.11142170215E+04  0.11142170215E+04  0.25500000920E-02 0.  1.
        2   -1    0    0  501    0  0.00000000000E+00  0.00000000000E+00 -0.18877994585E+04  0.18877994585E+04  0.25500000920E-02 0. -1.
    10030    2    1    2    0    0  0.00000000000E+00  0.00000000000E+00 -0.77358243707E+03  0.30020164800E+04  0.29006332342E+04 0.  0.
        5    1    3    3  502    0 -0.27381238413E+03 -0.41265012742E+03 -0.17975728704E+04  0.18645491851E+04  0.46999998093E+01 0. -1.
       -5    1    3    3    0  502  0.27381238413E+03  0.41265012742E+03  0.10239904333E+04  0.11374672949E+04  0.46999998093E+01 0.  1.
</event>
<event>
 5   0  0.9421924E-08  0.2900072E+04  0.7818609E-02  0.8272856E-01
       -1   -1    0    0    0  501  0.00000000000E+00  0.00000000000E+00  0.11000767578E+04  0.11000767578E+04  0.50400001928E-02 0.  1.
        1   -1    0    0  501    0  0.00000000000E+00  0.00000000000E+00 -0.19113256487E+04  0.19113256487E+04  0.50400001928E-02 0. -1.
    10030    2    1    2    0    0  0.00000000000E+00  0.00000000000E+00 -0.81124889088E+03  0.30114024066E+04  0.29000723597E+04 0.  0.
        1    1    3    3  502    0  0.45791641508E+03 -0.14101482526E+03  0.10155015780E+04  0.11228606677E+04  0.50400001928E-02 0.  1.
       -1    1    3    3    0  502 -0.45791641508E+03  0.14101482526E+03 -0.18267504688E+04  0.18885417389E+04  0.50400001928E-02 0. -1.
</event>
<event>
 5   0  0.2534588E-07  0.2898076E+04  0.7818609E-02  0.8273450E-01
       -2   -1    0    0    0  501  0.00000000000E+00  0.00000000000E+00  0.10963453129E+04  0.10963453129E+04  0.25500000920E-02 0. -1.
        2   -1    0    0  501    0  0.00000000000E+00  0.00000000000E+00 -0.19151916429E+04  0.19151916429E+04  0.25500000920E-02 0.  1.
    10030    2    1    2    0    0  0.00000000000E+00  0.00000000000E+00 -0.81884632993E+03  0.30115369558E+04  0.28980761764E+04 0.  0.
        3    1    3    3  502    0 -0.10253408509E+04  0.10095242737E+04 -0.58713991031E+03  0.15540902175E+04  0.10100000352E+00 0. -1.
       -3    1    3    3    0  502  0.10253408509E+04 -0.10095242737E+04 -0.23170641963E+03  0.14574467383E+04  0.10100000352E+00 0.  1.
</event>
<event>
 5   0  0.2546841E-07  0.2899671E+04  0.7818609E-02  0.8272975E-01
        2   -1    0    0  501    0  0.00000000000E+00  0.00000000000E+00  0.12530142339E+04  0.12530142339E+04  0.25500000920E-02 0. -1.
       -2   -1    0    0    0  501  0.00000000000E+00  0.00000000000E+00 -0.16775725965E+04  0.16775725965E+04  0.25500000920E-02 0.  1.
    10030    2    1    2    0    0  0.00000000000E+00  0.00000000000E+00 -0.42455836260E+03  0.29305868303E+04  0.28996705618E+04 0.  0.
        1    1    3    3  502    0  0.78081881563E+03 -0.11897148447E+04  0.68027712401E+02  0.14246849491E+04  0.50400001928E-02 0. -1.
       -1    1    3    3    0  502 -0.78081881563E+03  0.11897148447E+04 -0.49258607500E+03  0.15059018812E+04  0.50400001928E-02 0.  1.
</event>
<event>
 5   0  0.2534588E-07  0.2900581E+04  0.7818609E-02  0.8272705E-01
       -2   -1    0    0    0  501  0.00000000000E+00  0.00000000000E+00  0.11918992534E+04  0.11918992534E+04  0.25500000920E-02 0.  1.
        2   -1    0    0  501    0  0.00000000000E+00  0.00000000000E+00 -0.17646985091E+04  0.17646985091E+04  0.25500000920E-02 0. -1.
    10030    2    1    2    0    0  0.00000000000E+00  0.00000000000E+00 -0.57279925573E+03  0.29565977625E+04  0.29005812076E+04 0.  0.
        3    1    3    3  502    0 -0.26357005981E+03 -0.12357600637E+04  0.43922659600E+03  0.13377190005E+04  0.10100000352E+00 0.  1.
       -3    1    3    3    0  502  0.26357005981E+03  0.12357600637E+04 -0.10120258517E+04  0.16188787620E+04  0.10100000352E+00 0. -1.
</event>
<event>
 5   0  0.9395744E-08  0.2897845E+04  0.7818609E-02  0.8273519E-01
       -1   -1    0    0    0  501  0.00000000000E+00  0.00000000000E+00  0.10355141983E+04  0.10355141983E+04  0.50400001928E-02 0.  1.
        1   -1    0    0  501    0  0.00000000000E+00  0.00000000000E+00 -0.20273764318E+04  0.20273764318E+04  0.50400001928E-02 0. -1.
    10030    2    1    2    0    0  0.00000000000E+00  0.00000000000E+00 -0.99186223349E+03  0.30628906301E+04  0.28978454620E+04 0.  0.
        2    1    3    3  502    0 -0.88657067195E+03 -0.11308580853E+04 -0.29952658348E+03  0.14678432272E+04  0.25500000920E-02 0.  1.
       -2    1    3    3    0  502  0.88657067195E+03  0.11308580853E+04 -0.69233565001E+03  0.15950474029E+04  0.25500000920E-02 0. -1.
</event>
<event>
 5   0  0.2492232E-07  0.2900253E+04  0.7818609E-02  0.8272802E-01
       -2   -1    0    0    0  501  0.00000000000E+00  0.00000000000E+00  0.10270290096E+04  0.10270290096E+04  0.25500000920E-02 0. -1.
        2   -1    0    0  501    0  0.00000000000E+00  0.00000000000E+00 -0.20475245789E+04  0.20475245789E+04  0.25500000920E-02 0.  1.
    10030    2    1    2    0    0  0.00000000000E+00  0.00000000000E+00 -0.10204955692E+04  0.30745535885E+04  0.29002531893E+04 0.  0.
        4    1    3    3  502    0 -0.28555929911E+03  0.10384113173E+04  0.51920723906E+03  0.11955835175E+04  0.12699999809E+01 0. -1.
       -4    1    3    3    0  502  0.28555929911E+03 -0.10384113173E+04 -0.15397028083E+04  0.18789700711E+04  0.12699999809E+01 0.  1.
</event>
<event>
 5   0  0.9388076E-08  0.2900179E+04  0.7818609E-02  0.8272824E-01
       -1   -1    0    0    0  501  0.00000000000E+00  0.00000000000E+00  0.75276864123E+03  0.75276864124E+03  0.50400001928E-02 0.  1.
        1   -1    0    0  501    0  0.00000000000E+00  0.00000000000E+00 -0.27933674178E+04  0.27933674178E+04  0.50400001928E-02 0. -1.
    10030    2    1    2    0    0  0.00000000000E+00  0.00000000000E+00 -0.20405987765E+04  0.35461360590E+04  0.29001788880E+04 0.  0.
        5    1    3    3  502    0  0.27486807253E+03  0.60675012247E+03 -0.25952209310E+04  0.26793454311E+04  0.46999998093E+01 0. -1.
       -5    1    3    3    0  502 -0.27486807253E+03 -0.60675012247E+03  0.55462215447E+03  0.86679062791E+03  0.46999998093E+01 0.  1.
</event>
<event>
 5   0  0.9395744E-08  0.2914760E+04  0.7818609E-02  0.8268499E-01
       -1   -1    0    0    0  501  0.00000000000E+00  0.00000000000E+00  0.11736326052E+04  0.11736326052E+04  0.50400001928E-02 0.  1.
        1   -1    0    0  501    0  0.00000000000E+00  0.00000000000E+00 -0.18097291169E+04  0.18097291169E+04  0.50400001928E-02 0. -1.
    10030    2    1    2    0    0  0.00000000000E+00  0.00000000000E+00 -0.63609651172E+03  0.29833617221E+04  0.29147604349E+04 0.  0.
        2    1    3    3  502    0  0.12959949129E+04 -0.42636953079E+03  0.20642103543E+03  0.13798563095E+04  0.25500000920E-02 0.  1.
       -2    1    3    3    0  502 -0.12959949129E+04  0.42636953079E+03 -0.84251754715E+03  0.16035054126E+04  0.25500000920E-02 0. -1.
</event>
<event>
 5   0  0.9395744E-08  0.2902800E+04  0.7818609E-02  0.8272045E-01
        1   -1    0    0  501    0  0.00000000000E+00  0.00000000000E+00  0.87835958320E+03  0.87835958321E+03  0.50400001928E-02 0. -1.
       -1   -1    0    0    0  501  0.00000000000E+00  0.00000000000E+00 -0.23982918089E+04  0.23982918089E+04  0.50400001928E-02 0.  1.
    10030    2    1    2    0    0  0.00000000000E+00  0.00000000000E+00 -0.15199322257E+04  0.32766513921E+04  0.29028004366E+04 0.  0.
        2    1    3    3  502    0  0.69363699093E+03 -0.11775862260E+04 -0.13114824355E+04  0.18941562168E+04  0.25500000920E-02 0.  1.
       -2    1    3    3    0  502 -0.69363699093E+03  0.11775862260E+04 -0.20844979018E+03  0.13824951753E+04  0.25500000920E-02 0. -1.
</event>
<event>
 5   0  0.9763851E-08  0.2900671E+04  0.7818609E-02  0.8272678E-01
       -1   -1    0    0    0  501  0.00000000000E+00  0.00000000000E+00  0.90000207979E+03  0.90000207981E+03  0.50400001928E-02 0.  1.
        1   -1    0    0  501    0  0.00000000000E+00  0.00000000000E+00 -0.23371876632E+04  0.23371876632E+04  0.50400001928E-02 0. -1.
    10030    2    1    2    0    0  0.00000000000E+00  0.00000000000E+00 -0.14371855834E+04  0.32371897430E+04  0.29006714793E+04 0.  0.
        3    1    3    3  502    0 -0.32579114207E+03 -0.49943864887E+03  0.75686663133E+03  0.96354861842E+03  0.10100000352E+00 0.  1.
       -3    1    3    3    0  502  0.32579114207E+03  0.49943864887E+03 -0.21940522147E+04  0.22736411246E+04  0.10100000352E+00 0. -1.
</event>
<event>
 5   0  0.9388076E-08  0.2900257E+04  0.7818609E-02  0.8272801E-01
        1   -1    0    0  501    0  0.00000000000E+00  0.00000000000E+00  0.16181951144E+04  0.16181951144E+04  0.50400001928E-02 0.  1.
       -1   -1    0    0    0  501  0.00000000000E+00  0.00000000000E+00 -0.12995171372E+04  0.12995171372E+04  0.50400001928E-02 0. -1.
    10030    2    1    2    0    0  0.00000000000E+00  0.00000000000E+00  0.31867797716E+03  0.29177122516E+04  0.29002567352E+04 0.  0.
        5    1    3    3  502    0 -0.13280933132E+04  0.42460862684E+03 -0.24146298989E+03  0.14150797857E+04  0.46999998093E+01 0. -1.
       -5    1    3    3    0  502  0.13280933132E+04 -0.42460862684E+03  0.56014096705E+03  0.15026324659E+04  0.46999998093E+01 0.  1.
</event>
<event>
 5   0  0.2678723E-07  0.2900334E+04  0.7818609E-02  0.8272778E-01
       -2   -1    0    0    0  501  0.00000000000E+00  0.00000000000E+00  0.65604123161E+03  0.65604123162E+03  0.25500000920E-02 0. -1.
        2   -1    0    0  501    0  0.00000000000E+00  0.00000000000E+00 -0.32055680445E+04  0.32055680445E+04  0.25500000920E-02 0.  1.
    10030    2    1    2    0    0  0.00000000000E+00  0.00000000000E+00 -0.25495268129E+04  0.38616092762E+04  0.29003343310E+04 0.  0.
        5    1    3    3  502    0  0.31733766846E+03 -0.14021566955E+04 -0.15281427736E+04  0.20980917570E+04  0.46999998093E+01 0. -1.
       -5    1    3    3    0  502 -0.31733766846E+03  0.14021566955E+04 -0.10213840393E+04  0.17635175191E+04  0.46999998093E+01 0.  1.
</event>
<event>
 5   0  0.9763851E-08  0.2899491E+04  0.7818609E-02  0.8273029E-01
       -1   -1    0    0    0  501  0.00000000000E+00  0.00000000000E+00  0.83166410353E+03  0.83166410355E+03  0.50400001928E-02 0. -1.
        1   -1    0    0  501    0  0.00000000000E+00  0.00000000000E+00 -0.25271766586E+04  0.25271766586E+04  0.50400001928E-02 0.  1.
    10030    2    1    2    0    0  0.00000000000E+00  0.00000000000E+00 -0.16955125550E+04  0.33588407621E+04  0.28994910659E+04 0.  0.
        3    1    3    3  502    0  0.43955733079E+03 -0.58213385848E+03 -0.22991058982E+04  0.24120485936E+04  0.10100000352E+00 0.  1.
       -3    1    3    3    0  502 -0.43955733079E+03  0.58213385848E+03  0.60359334321E+03  0.94679216854E+03  0.10100000352E+00 0. -1.
</event>
<event>
 5   0  0.9388076E-08  0.2901835E+04  0.7818609E-02  0.8272332E-01
       -1   -1    0    0    0  501  0.00000000000E+00  0.00000000000E+00  0.12983545710E+04  0.12983545710E+04  0.50400001928E-02 0. -1.
        1   -1    0    0  501    0  0.00000000000E+00  0.00000000000E+00 -0.16214073446E+04  0.16214073446E+04  0.50400001928E-02 0.  1.
    10030    2    1    2    0    0  0.00000000000E+00  0.00000000000E+00 -0.32305277366E+03  0.29197619156E+04  0.29018350314E+04 0.  0.
        5    1    3    3  502    0 -0.13642667130E+04  0.42535389838E+03  0.91002074428E+02  0.14319403167E+04  0.46999998093E+01 0. -1.
       -5    1    3    3    0  502  0.13642667130E+04 -0.42535389838E+03 -0.41405484809E+03  0.14878215989E+04  0.46999998093E+01 0.  1.
</event>
<event>
 5   0  0.9443352E-08  0.2905714E+04  0.7818609E-02  0.8271179E-01
        1   -1    0    0  501    0  0.00000000000E+00  0.00000000000E+00  0.14632702187E+04  0.14632702187E+04  0.50400001928E-02 0.  1.
       -1   -1    0    0    0  501  0.00000000000E+00  0.00000000000E+00 -0.14425180045E+04  0.14425180045E+04  0.50400001928E-02 0. -1.
    10030    2    1    2    0    0  0.00000000000E+00  0.00000000000E+00  0.20752214194E+02  0.29057882232E+04  0.29057141194E+04 0.  0.
        4    1    3    3  502    0  0.76945250623E+03 -0.11112765547E+04 -0.52236562972E+03  0.14490894398E+04  0.12699999809E+01 0. -1.
       -4    1    3    3    0  502 -0.76945250623E+03  0.11112765547E+04  0.54311784391E+03  0.14566987834E+04  0.12699999809E+01 0.  1.
</event>
<event>
 5   0  0.9395744E-08  0.2901404E+04  0.7818609E-02  0.8272460E-01
        1   -1    0    0  501    0  0.00000000000E+00  0.00000000000E+00  0.21418137243E+04  0.21418137243E+04  0.50400001928E-02 0.  1.
       -1   -1    0    0    0  501  0.00000000000E+00  0.00000000000E+00 -0.98259521834E+03  0.98259521835E+03  0.50400001928E-02 0. -1.
    10030    2    1    2    0    0  0.00000000000E+00  0.00000000000E+00  0.11592185060E+04  0.31244089427E+04  0.29014037459E+04 0.  0.
        2    1    3    3  502    0 -0.45492333289E+03 -0.32975509621E+03 -0.86066676090E+03  0.10278331263E+04  0.25500000920E-02 0. -1.
       -2    1    3    3    0  502  0.45492333289E+03  0.32975509621E+03  0.20198852669E+04  0.20965758163E+04  0.25500000920E-02 0.  1.
</event>
<event>
 5   0  0.2608591E-07  0.2900327E+04  0.7818609E-02  0.8272780E-01
        2   -1    0    0  501    0  0.00000000000E+00  0.00000000000E+00  0.15567500213E+04  0.15567500213E+04  0.25500000920E-02 0.  1.
       -2   -1    0    0    0  501  0.00000000000E+00  0.00000000000E+00 -0.13508746777E+04  0.13508746777E+04  0.25500000920E-02 0. -1.
    10030    2    1    2    0    0  0.00000000000E+00  0.00000000000E+00  0.20587534362E+03  0.29076246990E+04  0.29003270045E+04 0.  0.
        2    1    3    3  502    0  0.41957167631E+03  0.10418635272E+04 -0.81667854204E+03  0.13886986145E+04  0.25500000920E-02 0. -1.
       -2    1    3    3    0  502 -0.41957167631E+03 -0.10418635272E+04  0.10225538857E+04  0.15189260845E+04  0.25500000920E-02 0.  1.
</event>
<event>
 5   0  0.2534588E-07  0.2879879E+04  0.7818609E-02  0.8278889E-01
        2   -1    0    0  501    0  0.00000000000E+00  0.00000000000E+00  0.28327432582E+04  0.28327432582E+04  0.25500000920E-02 0.  1.
       -2   -1    0    0    0  501  0.00000000000E+00  0.00000000000E+00 -0.73195001548E+03  0.73195001548E+03  0.25500000920E-02 0. -1.
    10030    2    1    2    0    0  0.00000000000E+00  0.00000000000E+00  0.21007932427E+04  0.35646932736E+04  0.28798794917E+04 0.  0.
        3    1    3    3  502    0  0.10957600591E+03  0.45255525924E+03 -0.63618972372E+03  0.78838476552E+03  0.10100000352E+00 0. -1.
       -3    1    3    3    0  502 -0.10957600591E+03 -0.45255525924E+03  0.27369829664E+04  0.27763085081E+04  0.10100000352E+00 0.  1.
</event>
<event>
 5   0  0.2492232E-07  0.2900966E+04  0.7818609E-02  0.8272590E-01
        2   -1    0    0  501    0  0.00000000000E+00  0.00000000000E+00  0.11599626431E+04  0.11599626431E+04  0.25500000920E-02 0.  1.
       -2   -1    0    0    0  501  0.00000000000E+00  0.00000000000E+00 -0.18137661410E+04  0.18137661410E+04  0.25500000920E-02 0. -1.
    10030    2    1    2    0    0  0.00000000000E+00  0.00000000000E+00 -0.65380349795E+03  0.29737287841E+04  0.29009660231E+04 0.  0.
        4    1    3    3  502    0 -0.42448578922E+03 -0.95461716110E+03 -0.13583287143E+04  0.17136337469E+04  0.12699999809E+01 0.  1.
       -4    1    3    3    0  502  0.42448578922E+03  0.95461716110E+03  0.70452521631E+03  0.12600950372E+04  0.12699999809E+01 0. -1.
</event>
<event>
 5   0  0.9388076E-08  0.2900283E+04  0.7818609E-02  0.8272793E-01
       -1   -1    0    0    0  501  0.00000000000E+00  0.00000000000E+00  0.10840463501E+04  0.10840463502E+04  0.50400001928E-02 0.  1.
        1   -1    0    0  501    0  0.00000000000E+00  0.00000000000E+00 -0.19398715881E+04  0.19398715881E+04  0.50400001928E-02 0. -1.
    10030    2    1    2    0    0  0.00000000000E+00  0.00000000000E+00 -0.85582523796E+03  0.30239179383E+04  0.29002832378E+04 0.  0.
        5    1    3    3  502    0  0.61387734958E+03 -0.12826880393E+04 -0.13162515722E+03  0.14281040853E+04  0.46999998093E+01 0.  1.
       -5    1    3    3    0  502 -0.61387734958E+03  0.12826880393E+04 -0.72420008073E+03  0.15958138530E+04  0.46999998093E+01 0. -1.
</event>
<event>
 5   0  0.2546841E-07  0.2902791E+04  0.7818609E-02  0.8272047E-01
       -2   -1    0    0    0  501  0.00000000000E+00  0.00000000000E+00  0.12901930118E+04  0.12901930118E+04  0.25500000920E-02 0.  1.
        2   -1    0    0  501    0  0.00000000000E+00  0.00000000000E+00 -0.16327396679E+04  0.16327396679E+04  0.25500000920E-02 0. -1.
    10030    2    1    2    0    0  0.00000000000E+00  0.00000000000E+00 -0.34254665611E+03  0.29229326798E+04  0.29027912841E+04 0.  0.
        1    1    3    3  502    0  0.19698244950E+02 -0.41991284902E+03  0.12275505406E+04  0.12975342583E+04  0.50400001928E-02 0.  1.
       -1    1    3    3    0  502 -0.19698244950E+02  0.41991284902E+03 -0.15700971967E+04  0.16253984215E+04  0.50400001928E-02 0. -1.
</event>
<event>
 5   0  0.2678723E-07  0.2896261E+04  0.7818609E-02  0.8273991E-01
        2   -1    0    0  501    0  0.00000000000E+00  0.00000000000E+00  0.14285200098E+04  0.14285200098E+04  0.25500000920E-02 0. -1.
       -2   -1    0    0    0  501  0.00000000000E+00  0.00000000000E+00 -0.14680098184E+04  0.14680098184E+04  0.25500000920E-02 0.  1.
    10030    2    1    2    0    0  0.00000000000E+00  0.00000000000E+00 -0.39489808614E+02  0.28965298282E+04  0.28962606237E+04 0.  0.
        5    1    3    3  502    0  0.53723217946E+03  0.12864794007E+04 -0.41145929942E+03  0.14536053481E+04  0.46999998093E+01 0.  1.
       -5    1    3    3    0  502 -0.53723217946E+03 -0.12864794007E+04  0.37196949080E+03  0.14429244801E+04  0.46999998093E+01 0. -1.
</event>
<event>
 5   0  0.9443352E-08  0.2900829E+04  0.7818609E-02  0.8272631E-01
       -1   -1    0    0    0  501  0.00000000000E+00  0.00000000000E+00  0.10072953926E+04  0.10072953926E+04  0.50400001928E-02 0. -1.
        1   -1    0    0  501    0  0.00000000000E+00  0.00000000000E+00 -0.20884660554E+04  0.20884660554E+04  0.50400001928E-02 0.  1.
    10030    2    1    2    0    0  0.00000000000E+00  0.00000000000E+00 -0.10811706627E+04  0.30957614480E+04  0.29008290093E+04 0.  0.
        4    1    3    3  502    0 -0.35744145126E+02  0.81602018015E+03 -0.18196818564E+04  0.19945952597E+04  0.12699999809E+01 0.  1.
       -4    1    3    3    0  502  0.35744145126E+02 -0.81602018015E+03  0.73851119368E+03  0.11011661884E+04  0.12699999809E+01 0. -1.
</event>
<event>
 5   0  0.9395744E-08  0.2899568E+04  0.7818609E-02  0.8273006E-01
       -1   -1    0    0    0  501  0.00000000000E+00  0.00000000000E+00  0.14312505312E+04  0.14312505312E+04  0.50400001928E-02 0. -1.
        1   -1    0    0  501    0  0.00000000000E+00  0.00000000000E+00 -0.14685575935E+04  0.14685575935E+04  0.50400001928E-02 0.  1.
    10030    2    1    2    0    0  0.00000000000E+00  0.00000000000E+00 -0.37307062322E+02  0.28998081247E+04  0.28995681305E+04 0.  0.
        2    1    3    3  502    0  0.12803118132E+04 -0.32734558769E+03  0.57765110367E+03  0.14422323913E+04  0.25500000920E-02 0. -1.
       -2    1    3    3    0  502 -0.12803118132E+04  0.32734558769E+03 -0.61495816599E+03  0.14575757335E+04  0.25500000920E-02 0.  1.
</event>
<event>
 5   0  0.9395744E-08  0.2900356E+04  0.7818609E-02  0.8272772E-01
        1   -1    0    0  501    0  0.00000000000E+00  0.00000000000E+00  0.22681079515E+04  0.22681079515E+04  0.50400001928E-02 0. -1.
       -1   -1    0    0    0  501  0.00000000000E+00  0.00000000000E+00 -0.92721170245E+03  0.92721170246E+03  0.50400001928E-02 0.  1.
    10030    2    1    2    0    0  0.00000000000E+00  0.00000000000E+00  0.13408962490E+04  0.31953196539E+04  0.29003560023E+04 0.  0.
        2    1    3    3  502    0 -0.11056321296E+04  0.84483142465E+03  0.22042905840E+03  0.14088120924E+04  0.25500000920E-02 0.  1.
       -2    1    3    3    0  502  0.11056321296E+04 -0.84483142465E+03  0.11204671906E+04  0.17865075615E+04  0.25500000920E-02 0. -1.
</event>
<event>
 5   0  0.9388076E-08  0.2899730E+04  0.7818609E-02  0.8272958E-01
       -1   -1    0    0    0  501  0.00000000000E+00  0.00000000000E+00  0.79908121351E+03  0.79908121352E+03  0.50400001928E-02 0.  1.
        1   -1    0    0  501    0  0.00000000000E+00  0.00000000000E+00 -0.26306561366E+04  0.26306561366E+04  0.50400001928E-02 0. -1.
    10030    2    1    2    0    0  0.00000000000E+00  0.00000000000E+00 -0.18315749231E+04  0.34297373501E+04  0.28997295722E+04 0.  0.
        5    1    3    3  502    0  0.66924261365E+03 -0.75989837759E+03 -0.21431185378E+04  0.23702975293E+04  0.46999998093E+01 0. -1.
       -5    1    3    3    0  502 -0.66924261365E+03  0.75989837759E+03  0.31154361470E+03  0.10594398209E+04  0.46999998093E+01 0.  1.
</event>
<event>
 5   0  0.9395744E-08  0.2897100E+04  0.7818609E-02  0.8273741E-01
       -1   -1    0    0    0  501  0.00000000000E+00  0.00000000000E+00  0.21968633290E+04  0.21968633290E+04  0.50400001928E-02 0. -1.
        1   -1    0    0  501    0  0.00000000000E+00  0.00000000000E+00 -0.95513296563E+03  0.95513296564E+03  0.50400001928E-02 0.  1.
    10030    2    1    2    0    0  0.00000000000E+00  0.00000000000E+00  0.12417303633E+04  0.31519962946E+04  0.28970996438E+04 0.  0.
        2    1    3    3  502    0 -0.86652499558E+03 -0.83045544761E+03  0.15032557769E+04  0.19236163207E+04  0.25500000920E-02 0. -1.
       -2    1    3    3    0  502  0.86652499558E+03  0.83045544761E+03 -0.26152541355E+03  0.12283799739E+04  0.25500000920E-02 0.  1.
</event>
<event>
 5   0  0.2608591E-07  0.2900401E+04  0.7818609E-02  0.8272758E-01
        2   -1    0    0  501    0  0.00000000000E+00  0.00000000000E+00  0.27067819084E+04  0.27067819084E+04  0.25500000920E-02 0. -1.
       -2   -1    0    0    0  501  0.00000000000E+00  0.00000000000E+00 -0.77696733273E+03  0.77696733273E+03  0.25500000920E-02 0.  1.
    10030    2    1    2    0    0  0.00000000000E+00  0.00000000000E+00  0.19298145757E+04  0.34837492412E+04  0.29004007445E+04 0.  0.
        2    1    3    3  502    0  0.66572166573E+03  0.12588295860E+04  0.12943837570E+04  0.19243873242E+04  0.25500000920E-02 0. -1.
       -2    1    3    3    0  502 -0.66572166573E+03 -0.12588295860E+04  0.63543081869E+03  0.15593619170E+04  0.25500000920E-02 0.  1.
</event>
<event>
 5   0  0.2608591E-07  0.2900523E+04  0.7818609E-02  0.8272722E-01
       -2   -1    0    0    0  501  0.00000000000E+00  0.00000000000E+00  0.12763522620E+04  0.12763522620E+04  0.25500000920E-02 0. -1.
        2   -1    0    0  501    0  0.00000000000E+00  0.00000000000E+00 -0.16478662459E+04  0.16478662459E+04  0.25500000920E-02 0.  1.
    10030    2    1    2    0    0  0.00000000000E+00  0.00000000000E+00 -0.37151398388E+03  0.29242185079E+04  0.29005225808E+04 0.  0.
        2    1    3    3  502    0  0.13609072670E+04  0.32564445816E+03  0.19833431046E+03  0.14133115018E+04  0.25500000920E-02 0.  1.
       -2    1    3    3    0  502 -0.13609072670E+04 -0.32564445816E+03 -0.56984829433E+03  0.15109070061E+04  0.25500000920E-02 0. -1.
</event>
<event>
 5   0  0.2534588E-07  0.2899541E+04  0.7818609E-02  0.8273014E-01
       -2   -1    0    0    0  501  0.00000000000E+00  0.00000000000E+00  0.10472027492E+04  0.10472027492E+04  0.25500000920E-02 0. -1.
        2   -1    0    0  501    0  0.00000000000E+00  0.00000000000E+00 -0.20070944673E+04  0.20070944673E+04  0.25500000920E-02 0.  1.
    10030    2    1    2    0    0  0.00000000000E+00  0.00000000000E+00 -0.95989171816E+03  0.30542972165E+04  0.28995412355E+04 0.  0.
        3    1    3    3  502    0  0.88462022410E+03 -0.10940470197E+03  0.72445682461E+03  0.11486339846E+04  0.10100000352E+00 0. -1.
       -3    1    3    3    0  502 -0.88462022410E+03  0.10940470197E+03 -0.16843485428E+04  0.19056632319E+04  0.10100000352E+00 0.  1.
</event>
<event>
 5   0  0.9421924E-08  0.2898633E+04  0.7818609E-02  0.8273284E-01
       -1   -1    0    0    0  501  0.00000000000E+00  0.00000000000E+00  0.73272805660E+03  0.73272805662E+03  0.50400001928E-02 0.  1.
        1   -1    0    0  501    0  0.00000000000E+00  0.00000000000E+00 -0.28667089965E+04  0.28667089965E+04  0.50400001928E-02 0. -1.
    10030    2    1    2    0    0  0.00000000000E+00  0.00000000000E+00 -0.21339809399E+04  0.35994370532E+04  0.28986328584E+04 0.  0.
        1    1    3    3  502    0  0.96984408897E+03 -0.97729141475E+03 -0.50499900273E+03  0.14665333474E+04  0.50400001928E-02 0. -1.
       -1    1    3    3    0  502 -0.96984408897E+03  0.97729141475E+03 -0.16289819372E+04  0.21329037058E+04  0.50400001928E-02 0.  1.
</event>
<event>
 5   0  0.9395744E-08  0.2899585E+04  0.7818609E-02  0.8273001E-01
       -1   -1    0    0    0  501  0.00000000000E+00  0.00000000000E+00  0.16377493779E+04  0.16377493779E+04  0.50400001928E-02 0.  1.
        1   -1    0    0  501    0  0.00000000000E+00  0.00000000000E+00 -0.12834067800E+04  0.12834067800E+04  0.50400001928E-02 0. -1.
    10030    2    1    2    0    0  0.00000000000E+00  0.00000000000E+00  0.35434259790E+03  0.29211561580E+04  0.28995852501E+04 0.  0.
        2    1    3    3  502    0 -0.32995227272E+03 -0.74312276154E+03  0.13864336957E+04  0.16072642389E+04  0.25500000920E-02 0.  1.
       -2    1    3    3    0  502  0.32995227272E+03  0.74312276154E+03 -0.10320910978E+04  0.13138919191E+04  0.25500000920E-02 0. -1.
</event>
<event>
 5   0  0.9395744E-08  0.2899233E+04  0.7818609E-02  0.8273106E-01
        1   -1    0    0  501    0  0.00000000000E+00  0.00000000000E+00  0.81744813974E+03  0.81744813976E+03  0.50400001928E-02 0. -1.
       -1   -1    0    0    0  501  0.00000000000E+00  0.00000000000E+00 -0.25706680328E+04  0.25706680328E+04  0.50400001928E-02 0.  1.
    10030    2    1    2    0    0  0.00000000000E+00  0.00000000000E+00 -0.17532198930E+04  0.33881161725E+04  0.28992328650E+04 0.  0.
        2    1    3    3  502    0  0.13867983067E+03  0.11040099164E+04  0.20921682282E+03  0.11321844682E+04  0.25500000920E-02 0. -1.
       -2    1    3    3    0  502 -0.13867983067E+03 -0.11040099164E+04 -0.19624367159E+04  0.22559317044E+04  0.25500000920E-02 0.  1.
</event>
<event>
 5   0  0.2534588E-07  0.2900785E+04  0.7818609E-02  0.8272644E-01
       -2   -1    0    0    0  501  0.00000000000E+00  0.00000000000E+00  0.12743978285E+04  0.12743978285E+04  0.25500000920E-02 0. -1.
        2   -1    0    0  501    0  0.00000000000E+00  0.00000000000E+00 -0.16506924459E+04  0.16506924459E+04  0.25500000920E-02 0.  1.
    10030    2    1    2    0    0  0.00000000000E+00  0.00000000000E+00 -0.37629461742E+03  0.29250902744E+04  0.29007853202E+04 0.  0.
        3    1    3    3  502    0 -0.25462953809E+03 -0.41225981857E+03 -0.15666584108E+04  0.16398819915E+04  0.10100000352E+00 0.  1.
       -3    1    3    3    0  502  0.25462953809E+03  0.41225981857E+03  0.11903637934E+04  0.12852082829E+04  0.10100000352E+00 0. -1.
</event>
<event>
 5   0  0.2608591E-07  0.2900285E+04  0.7818609E-02  0.8272793E-01
       -2   -1    0    0    0  501  0.00000000000E+00  0.00000000000E+00  0.11655192795E+04  0.11655192795E+04  0.25500000920E-02 0.  1.
        2   -1    0    0  501    0  0.00000000000E+00  0.00000000000E+00 -0.18042715136E+04  0.18042715136E+04  0.25500000920E-02 0. -1.
    10030    2    1    2    0    0  0.00000000000E+00  0.00000000000E+00 -0.63875223405E+03  0.29697907931E+04  0.29002849754E+04 0.  0.
        2    1    3    3  502    0  0.11558410874E+04 -0.85355188759E+03 -0.11873696695E+03  0.14417412775E+04  0.25500000920E-02 0.  1.
       -2    1    3    3    0  502 -0.11558410874E+04  0.85355188759E+03 -0.52001526710E+03  0.15280495156E+04  0.25500000920E-02 0. -1.
</event>
<event>
 5   0  0.2608591E-07  0.2890521E+04  0.7818609E-02  0.8275703E-01
       -2   -1    0    0    0  501  0.00000000000E+00  0.00000000000E+00  0.10251955892E+04  0.10251955892E+04  0.25500000920E-02 0. -1.
        2   -1    0    0  501    0  0.00000000000E+00  0.00000000000E+00 -0.20374434857E+04  0.20374434857E+04  0.25500000920E-02 0.  1.
    10030    2    1    2    0    0  0.00000000000E+00  0.00000000000E+00 -0.10122478964E+04  0.30626390749E+04  0.28905211121E+04 0.  0.
        2    1    3    3  502    0  0.51177793429E+03  0.12328161438E+04  0.80969309006E+02  0.13372764589E+04  0.25500000920E-02 0. -1.
       -2    1    3    3    0  502 -0.51177793429E+03 -0.12328161438E+04 -0.10932172054E+04  0.17253626160E+04  0.25500000920E-02 0.  1.
</event>
<event>
 5   0  0.9443352E-08  0.2901154E+04  0.7818609E-02  0.8272534E-01
        1   -1    0    0  501    0  0.00000000000E+00  0.00000000000E+00  0.10964357249E+04  0.10964357249E+04  0.50400001928E-02 0. -1.
       -1   -1    0    0    0  501  0.00000000000E+00  0.00000000000E+00 -0.19191031401E+04  0.19191031401E+04  0.50400001928E-02 0.  1.
    10030    2    1    2    0    0  0.00000000000E+00  0.00000000000E+00 -0.82266741513E+03  0.30155388650E+04  0.29011537309E+04 0.  0.
        4    1    3    3  502    0 -0.35970835206E+03 -0.11648127379E+04 -0.12284538217E+04  0.17306874987E+04  0.12699999809E+01 0.  1.
       -4    1    3    3    0  502  0.35970835206E+03  0.11648127379E+04  0.40578640660E+03  0.12848513664E+04  0.12699999809E+01 0. -1.
</event>
<event>
 5   0  0.8407500E-08  0.2900211E+04  0.7818609E-02  0.8272815E-01
       -3   -1    0    0    0  501  0.00000000000E+00  0.00000000000E+00  0.13415063449E+04  0.13415063487E+04  0.10100000352E+00 0.  1.
        3   -1    0    0  501    0  0.00000000000E+00  0.00000000000E+00 -0.15674964759E+04  0.15674964791E+04  0.10100000352E+00 0. -1.
    10030    2    1    2    0    0  0.00000000000E+00  0.00000000000E+00 -0.22599013099E+03  0.29090028279E+04  0.29002113566E+04 0.  0.
        5    1    3    3  502    0  0.11318864512E+04  0.90108038936E+03 -0.14352751776E+02  0.14468382418E+04  0.46999998093E+01 0.  1.
       -5    1    3    3    0  502 -0.11318864512E+04 -0.90108038936E+03 -0.21163737922E+03  0.14621645861E+04  0.46999998093E+01 0. -1.
</event>
<event>
 5   0  0.2546841E-07  0.2900056E+04  0.7818609E-02  0.8272861E-01
       -2   -1    0    0    0  501  0.00000000000E+00  0.00000000000E+00  0.12548767931E+04  0.12548767931E+04  0.25500000920E-02 0.  1.
        2   -1    0    0  501    0  0.00000000000E+00  0.00000000000E+00 -0.16755279959E+04  0.16755279959E+04  0.25500000920E-02 0. -1.
    10030    2    1    2    0    0  0.00000000000E+00  0.00000000000E+00 -0.42065120285E+03  0.29304047890E+04  0.29000559983E+04 0.  0.
        1    1    3    3  502    0  0.64535661679E+03 -0.77856381316E+03 -0.12603996464E+04  0.16159375120E+04  0.50400001928E-02 0. -1.
       -1    1    3    3    0  502 -0.64535661679E+03  0.77856381316E+03  0.83974844354E+03  0.13144672771E+04  0.50400001928E-02 0.  1.
</event>
<event>
 5   0  0.2534588E-07  0.2900428E+04  0.7818609E-02  0.8272750E-01
       -2   -1    0    0    0  501  0.00000000000E+00  0.00000000000E+00  0.15466097165E+04  0.15466097165E+04  0.25500000920E-02 0.  1.
        2   -1    0    0  501    0  0.00000000000E+00  0.00000000000E+00 -0.13598265152E+04  0.13598265152E+04  0.25500000920E-02 0. -1.
    10030    2    1    2    0    0  0.00000000000E+00  0.00000000000E+00  0.18678320130E+03  0.29064362317E+04  0.29004281761E+04 0.  0.
        3    1    3    3  502    0 -0.11042561605E+04 -0.16268111833E+03  0.10212004897E+04  0.15128440979E+04  0.10100000352E+00 0.  1.
       -3    1    3    3    0  502  0.11042561605E+04  0.16268111833E+03 -0.83441728837E+03  0.13935921339E+04  0.10100000352E+00 0. -1.
</event>
<event>
 5   0  0.9395744E-08  0.2899551E+04  0.7818609E-02  0.8273011E-01
       -1   -1    0    0    0  501  0.00000000000E+00  0.00000000000E+00  0.11066647947E+04  0.11066647947E+04  0.50400001928E-02 0. -1.
        1   -1    0    0  501    0  0.00000000000E+00  0.00000000000E+00 -0.18992649455E+04  0.18992649455E+04  0.50400001928E-02 0.  1.
    10030    2    1    2    0    0  0.00000000000E+00  0.00000000000E+00 -0.79260015080E+03  0.30059297401E+04  0.28995514487E+04 0.  0.
        2    1    3    3  502    0  0.14280213285E+04 -0.16190467161E+03 -0.19853542661E+03  0.14508185114E+04  0.25500000920E-02 0. -1.
       -2    1    3    3    0  502 -0.14280213285E+04  0.16190467161E+03 -0.59406472420E+03  0.15551112288E+04  0.25500000920E-02 0.  1.
</event>
<event>
 5   0  0.2534588E-07  0.2899654E+04  0.7818609E-02  0.8272980E-01
        2   -1    0    0  501    0  0.00000000000E+00  0.00000000000E+00  0.86320059453E+03  0.86320059453E+03  0.25500000920E-02 0. -1.
       -2   -1    0    0    0  501  0.00000000000E+00  0.00000000000E+00 -0.24351213020E+04  0.24351213020E+04  0.25500000920E-02 0.  1.
    10030    2    1    2    0    0  0.00000000000E+00  0.00000000000E+00 -0.15719207075E+04  0.32983218965E+04  0.28996538798E+04 0.  0.
        3    1    3    3  502    0 -0.44722949942E+03 -0.83657136191E+03 -0.20331227446E+04  0.22435360424E+04  0.10100000352E+00 0.  1.
       -3    1    3    3    0  502  0.44722949942E+03  0.83657136191E+03  0.46120203717E+03  0.10547858541E+04  0.10100000352E+00 0. -1.
</event>
<event>
 5   0  0.2608591E-07  0.2899913E+04  0.7818609E-02  0.8272903E-01
        2   -1    0    0  501    0  0.00000000000E+00  0.00000000000E+00  0.23139113706E+04  0.23139113706E+04  0.25500000920E-02 0.  1.
       -2   -1    0    0    0  501  0.00000000000E+00  0.00000000000E+00 -0.90857998037E+03  0.90857998038E+03  0.25500000920E-02 0. -1.
    10030    2    1    2    0    0  0.00000000000E+00  0.00000000000E+00  0.14053313902E+04  0.32224913510E+04  0.28999127902E+04 0.  0.
        2    1    3    3  502    0  0.65894204475E+03  0.88889378968E+03  0.17439352542E+04  0.20653442712E+04  0.25500000920E-02 0.  1.
       -2    1    3    3    0  502 -0.65894204475E+03 -0.88889378968E+03 -0.33860386394E+03  0.11571470798E+04  0.25500000920E-02 0. -1.
</event>
<event>
 5   0  0.2678723E-07  0.2899617E+04  0.7818609E-02  0.8272992E-01
        2   -1    0    0  501    0  0.00000000000E+00  0.00000000000E+00  0.21983775617E+04  0.21983775617E+04  0.25500000920E-02 0. -1.
       -2   -1    0    0    0  501  0.00000000000E+00  0.00000000000E+00 -0.95613422484E+03  0.95613422484E+03  0.25500000920E-02 0.  1.
    10030    2    1    2    0    0  0.00000000000E+00  0.00000000000E+00  0.12422433369E+04  0.31545117866E+04  0.28996165442E+04 0.  0.
        5    1    3    3  502    0  0.98219056197E+03  0.10532852580E+04  0.43968638045E+03  0.15058068727E+04  0.46999998093E+01 0.  1.
       -5    1    3    3    0  502 -0.98219056197E+03 -0.10532852580E+04  0.80255695643E+03  0.16487049139E+04  0.46999998093E+01 0. -1.
</event>
<event>
 5   0  0.9388076E-08  0.2904809E+04  0.7818609E-02  0.8271448E-01
        1   -1    0    0  501    0  0.00000000000E+00  0.00000000000E+00  0.19738352802E+04  0.19738352802E+04  0.50400001928E-02 0.  1.
       -1   -1    0    0    0  501  0.00000000000E+00  0.00000000000E+00 -0.10687209713E+04  0.10687209713E+04  0.50400001928E-02 0. -1.
    10030    2    1    2    0    0  0.00000000000E+00  0.00000000000E+00  0.90511430891E+03  0.30425562516E+04  0.29048092247E+04 0.  0.
        5    1    3    3  502    0 -0.14203578121E+04  0.29622081243E+03  0.52119303396E+03  0.15416962583E+04  0.46999998093E+01 0.  1.
       -5    1    3    3    0  502  0.14203578121E+04 -0.29622081243E+03  0.38392127495E+03  0.15008599933E+04  0.46999998093E+01 0. -1.
</event>
<event>
 5   0  0.9388076E-08  0.2899882E+04  0.7818609E-02  0.8272913E-01
       -1   -1    0    0    0  501  0.00000000000E+00  0.00000000000E+00  0.97996333739E+03  0.97996333740E+03  0.50400001928E-02 0. -1.
        1   -1    0    0  501    0  0.00000000000E+00  0.00000000000E+00 -0.21453138531E+04  0.21453138531E+04  0.50400001928E-02 0.  1.
    10030    2    1    2    0    0  0.00000000000E+00  0.00000000000E+00 -0.11653505157E+04  0.31252771905E+04  0.28998820137E+04 0.  0.
        5    1    3    3  502    0  0.94264695348E+02  0.51050785083E+03  0.87636097188E+03  0.10185944932E+04  0.46999998093E+01 0. -1.
       -5    1    3    3    0  502 -0.94264695348E+02 -0.51050785083E+03 -0.20417114876E+04  0.21066826973E+04  0.46999998093E+01 0.  1.
</event>
<event>
 5   0  0.2546841E-07  0.2900189E+04  0.7818609E-02  0.8272821E-01
        2   -1    0    0  501    0  0.00000000000E+00  0.00000000000E+00  0.29353177355E+04  0.29353177355E+04  0.25500000920E-02 0. -1.
       -2   -1    0    0    0  501  0.00000000000E+00  0.00000000000E+00 -0.71637004760E+03  0.71637004760E+03  0.25500000920E-02 0.  1.
    10030    2    1    2    0    0  0.00000000000E+00  0.00000000000E+00  0.22189476879E+04  0.36516877831E+04  0.29001887566E+04 0.  0.
        1    1    3    3  502    0 -0.91610786054E+03  0.11227909484E+04  0.11768171482E+04  0.18667650431E+04  0.50400001928E-02 0. -1.
       -1    1    3    3    0  502  0.91610786054E+03 -0.11227909484E+04  0.10421305397E+04  0.17849227400E+04  0.50400001928E-02 0.  1.
</event>
<event>
 5   0  0.9443352E-08  0.2899705E+04  0.7818609E-02  0.8272965E-01
       -1   -1    0    0    0  501  0.00000000000E+00  0.00000000000E+00  0.18407858635E+04  0.18407858635E+04  0.50400001928E-02 0. -1.
        1   -1    0    0  501    0  0.00000000000E+00  0.00000000000E+00 -0.11419431470E+04  0.11419431470E+04  0.50400001928E-02 0.  1.
    10030    2    1    2    0    0  0.00000000000E+00  0.00000000000E+00  0.69884271654E+03  0.29827290105E+04  0.28997053657E+04 0.  0.
        4    1    3    3  502    0  0.49281901879E+03 -0.13598222880E+04  0.24612732318E+03  0.14671630831E+04  0.12699999809E+01 0. -1.
       -4    1    3    3    0  502 -0.49281901879E+03  0.13598222880E+04  0.45271539337E+03  0.15155659275E+04  0.12699999809E+01 0.  1.
</event>
<event>
 5   0  0.2608591E-07  0.2900345E+04  0.7818609E-02  0.8272775E-01
       -2   -1    0    0    0  501  0.00000000000E+00  0.00000000000E+00  0.57601610471E+03  0.57601610471E+03  0.25500000920E-02 0.  1.
        2   -1    0    0  501    0  0.00000000000E+00  0.00000000000E+00 -0.36509412453E+04  0.36509412453E+04  0.25500000920E-02 0. -1.
    10030    2    1    2    0    0  0.00000000000E+00  0.00000000000E+00 -0.30749251406E+04  0.42269573500E+04  0.29003454654E+04 0.  0.
        2    1    3    3  502    0  0.34450776991E+03 -0.61781890336E+03  0.30752208173E+03  0.77133367075E+03  0.25500000920E-02 0.  1.
       -2    1    3    3    0  502 -0.34450776991E+03  0.61781890336E+03 -0.33824472223E+04  0.34556236792E+04  0.25500000920E-02 0. -1.
</event>
<event>
 5   0  0.9421924E-08  0.2908688E+04  0.7818609E-02  0.8270297E-01
        1   -1    0    0  501    0  0.00000000000E+00  0.00000000000E+00  0.15141345163E+04  0.15141345164E+04  0.50400001928E-02 0.  1.
       -1   -1    0    0    0  501  0.00000000000E+00  0.00000000000E+00 -0.13969144836E+04  0.13969144836E+04  0.50400001928E-02 0. -1.
    10030    2    1    2    0    0  0.00000000000E+00  0.00000000000E+00  0.11722003275E+03  0.29110490000E+04  0.29086879764E+04 0.  0.
        1    1    3    3  502    0  0.51571131487E+03  0.13591942187E+04  0.10046921760E+03  0.14572100563E+04  0.50400001928E-02 0.  1.
       -1    1    3    3    0  502 -0.51571131487E+03 -0.13591942187E+04  0.16750815150E+02  0.14538389437E+04  0.50400001928E-02 0. -1.
</event>
<event>
 5   0  0.2492232E-07  0.2898391E+04  0.7818609E-02  0.8273356E-01
       -2   -1    0    0    0  501  0.00000000000E+00  0.00000000000E+00  0.95285426449E+03  0.95285426449E+03  0.25500000920E-02 0. -1.
        2   -1    0    0  501    0  0.00000000000E+00  0.00000000000E+00 -0.22040807217E+04  0.22040807217E+04  0.25500000920E-02 0.  1.
    10030    2    1    2    0    0  0.00000000000E+00  0.00000000000E+00 -0.12512264572E+04  0.31569349862E+04  0.28983910812E+04 0.  0.
        4    1    3    3  502    0  0.13962278261E+04  0.25665882465E+03 -0.94286898731E+03  0.17042093284E+04  0.12699999809E+01 0.  1.
       -4    1    3    3    0  502 -0.13962278261E+04 -0.25665882465E+03 -0.30835746986E+03  0.14527256578E+04  0.12699999809E+01 0. -1.
</event>
<event>
 5   0  0.9443352E-08  0.2901915E+04  0.7818609E-02  0.8272308E-01
        1   -1    0    0  501    0  0.00000000000E+00  0.00000000000E+00  0.13217983440E+04  0.13217983440E+04  0.50400001928E-02 0. -1.
       -1   -1    0    0    0  501  0.00000000000E+00  0.00000000000E+00 -0.15927368662E+04  0.15927368662E+04  0.50400001928E-02 0.  1.
    10030    2    1    2    0    0  0.00000000000E+00  0.00000000000E+00 -0.27093852226E+03  0.29145352102E+04  0.29019145075E+04 0.  0.
        4    1    3    3  502    0 -0.63591276681E+03 -0.12853075503E+04 -0.35750718619E+03  0.14779085042E+04  0.12699999809E+01 0.  1.
       -4    1    3    3    0  502  0.63591276681E+03  0.12853075503E+04  0.86568663932E+02  0.14366267060E+04  0.12699999809E+01 0. -1.
</event>
<event>
 5   0  0.8407500E-08  0.2901502E+04  0.7818609E-02  0.8272431E-01
       -4   -1    0    0    0  501  0.00000000000E+00  0.00000000000E+00  0.14980745284E+04  0.14980750667E+04  0.12699999809E+01 0.  1.
        4   -1    0    0  501    0  0.00000000000E+00  0.00000000000E+00 -0.14049208650E+04  0.14049214390E+04  0.12699999809E+01 0. -1.
    10030    2    1    2    0    0  0.00000000000E+00  0.00000000000E+00  0.93153663394E+02  0.29029965057E+04  0.29015015263E+04 0.  0.
        2    1    3    3  502    0  0.10440773127E+04  0.73350398146E+03  0.73726015884E+03  0.14736614494E+04  0.25500000920E-02 0. -1.
       -2    1    3    3    0  502 -0.10440773127E+04 -0.73350398146E+03 -0.64410649545E+03  0.14293350563E+04  0.25500000920E-02 0.  1.
</event>
<event>
 5   0  0.9443352E-08  0.2900176E+04  0.7818609E-02  0.8272825E-01
        1   -1    0    0  501    0  0.00000000000E+00  0.00000000000E+00  0.16134700770E+04  0.16134700770E+04  0.50400001928E-02 0.  1.
       -1   -1    0    0    0  501  0.00000000000E+00  0.00000000000E+00 -0.13032500477E+04  0.13032500478E+04  0.50400001928E-02 0. -1.
    10030    2    1    2    0    0  0.00000000000E+00  0.00000000000E+00  0.31022002923E+03  0.29167201247E+04  0.29001758256E+04 0.  0.
        4    1    3    3  502    0 -0.81638092978E+02 -0.66450664366E+03 -0.11385089477E+04  0.13207717799E+04  0.12699999809E+01 0. -1.
       -4    1    3    3    0  502  0.81638092978E+02  0.66450664366E+03  0.14487289770E+04  0.15959483448E+04  0.12699999809E+01 0.  1.
</event>
<event>
 5   0  0.9388076E-08  0.2901268E+04  0.7818609E-02  0.8272500E-01
        1   -1    0    0  501    0  0.00000000000E+00  0.00000000000E+00  0.23809100247E+04  0.23809100248E+04  0.50400001928E-02 0. -1.
       -1   -1    0    0    0  501  0.00000000000E+00  0.00000000000E+00 -0.88383812766E+03  0.88383812767E+03  0.50400001928E-02 0.  1.
    10030    2    1    2    0    0  0.00000000000E+00  0.00000000000E+00  0.14970718971E+04  0.32647481524E+04  0.29012680389E+04 0.  0.
        5    1    3    3  502    0 -0.56221284663E+03 -0.13370970089E+04  0.77118944737E+03  0.16427619882E+04  0.46999998093E+01 0. -1.
       -5    1    3    3    0  502  0.56221284663E+03  0.13370970089E+04  0.72588244972E+03  0.16219861642E+04  0.46999998093E+01 0.  1.
</event>
<event>
 5   0  0.2546841E-07  0.2901378E+04  0.7818609E-02  0.8272468E-01
       -2   -1    0    0    0  501  0.00000000000E+00  0.00000000000E+00  0.19980652681E+04  0.19980652681E+04  0.25500000920E-02 0. -1.
        2   -1    0    0  501    0  0.00000000000E+00  0.00000000000E+00 -0.10532681076E+04  0.10532681076E+04  0.25500000920E-02 0.  1.
    10030    2    1    2    0    0  0.00000000000E+00  0.00000000000E+00  0.94479716055E+03  0.30513333757E+04  0.29013778959E+04 0.  0.
        1    1    3    3  502    0 -0.38450138258E+03  0.36182408885E+03 -0.94863676057E+03  0.10856655507E+04  0.50400001928E-02 0.  1.
       -1    1    3    3    0  502  0.38450138258E+03 -0.36182408885E+03  0.18934339211E+04  0.19656678250E+04  0.50400001928E-02 0. -1.
</event>
<event>
 5   0  0.9388076E-08  0.2899867E+04  0.7818609E-02  0.8272917E-01
        1   -1    0    0  501    0  0.00000000000E+00  0.00000000000E+00  0.20966862596E+04  0.20966862596E+04  0.50400001928E-02 0.  1.
       -1   -1    0    0    0  501  0.00000000000E+00  0.00000000000E+00 -0.10026805857E+04  0.10026805857E+04  0.50400001928E-02 0. -1.
    10030    2    1    2    0    0  0.00000000000E+00  0.00000000000E+00  0.10940056740E+04  0.30993668453E+04  0.28998666223E+04 0.  0.
        5    1    3    3  502    0  0.86712011660E+03  0.11492654408E+04  0.73081146929E+03  0.16145636697E+04  0.46999998093E+01 0.  1.
       -5    1    3    3    0  502 -0.86712011660E+03 -0.11492654408E+04  0.36319420467E+03  0.14848031756E+04  0.46999998093E+01 0. -1.
</event>
<event>
 5   0  0.2546841E-07  0.2900482E+04  0.7818609E-02  0.8272734E-01
       -2   -1    0    0    0  501  0.00000000000E+00  0.00000000000E+00  0.12142422536E+04  0.12142422536E+04  0.25500000920E-02 0. -1.
        2   -1    0    0  501    0  0.00000000000E+00  0.00000000000E+00 -0.17321076030E+04  0.17321076030E+04  0.25500000920E-02 0.  1.
    10030    2    1    2    0    0  0.00000000000E+00  0.00000000000E+00 -0.51786534940E+03  0.29463498566E+04  0.29004815045E+04 0.  0.
        1    1    3    3  502    0  0.85224425584E+03 -0.11711986301E+04 -0.33198472572E+03  0.14860149262E+04  0.50400001928E-02 0. -1.
       -1    1    3    3    0  502 -0.85224425584E+03  0.11711986301E+04 -0.18588062368E+03  0.14603349304E+04  0.50400001928E-02 0.  1.
</event>
<event>
 5   0  0.9763851E-08  0.2900758E+04  0.7818609E-02  0.8272652E-01
        1   -1    0    0  501    0  0.00000000000E+00  0.00000000000E+00  0.14726716097E+04  0.14726716097E+04  0.50400001928E-02 0.  1.
       -1   -1    0    0    0  501  0.00000000000E+00  0.00000000000E+00 -0.14284233642E+04  0.14284233642E+04  0.50400001928E-02 0. -1.
    10030    2    1    2    0    0  0.00000000000E+00  0.00000000000E+00  0.44248245496E+02  0.29010949738E+04  0.29007575114E+04 0.  0.
        3    1    3    3  502    0 -0.78655039349E+03 -0.30670234245E+03 -0.11573648818E+04  0.14325576177E+04  0.10100000352E+00 0. -1.
       -3    1    3    3    0  502  0.78655039349E+03  0.30670234245E+03  0.12016131273E+04  0.14685373561E+04  0.10100000352E+00 0.  1.
</event>
<event>
 5   0  0.9388076E-08  0.2899175E+04  0.7818609E-02  0.8273123E-01
       -1   -1    0    0    0  501  0.00000000000E+00  0.00000000000E+00  0.99146535522E+03  0.99146535523E+03  0.50400001928E-02 0. -1.
        1   -1    0    0  501    0  0.00000000000E+00  0.00000000000E+00 -0.21193922283E+04  0.21193922283E+04  0.50400001928E-02 0.  1.
    10030    2    1    2    0    0  0.00000000000E+00  0.00000000000E+00 -0.11279268731E+04  0.31108575835E+04  0.28991750333E+04 0.  0.
        5    1    3    3  502    0 -0.12018840182E+04 -0.67322316371E+03 -0.79883611047E+02  0.13799123532E+04  0.46999998093E+01 0. -1.
       -5    1    3    3    0  502  0.12018840182E+04  0.67322316371E+03 -0.10480432620E+04  0.17309452303E+04  0.46999998093E+01 0.  1.
</event>
<event>
 5   0  0.2492232E-07  0.2887834E+04  0.7818609E-02  0.8276506E-01
       -2   -1    0    0    0  501  0.00000000000E+00  0.00000000000E+00  0.12782659235E+04  0.12782659235E+04  0.25500000920E-02 0.  1.
        2   -1    0    0  501    0  0.00000000000E+00  0.00000000000E+00 -0.16310351595E+04  0.16310351595E+04  0.25500000920E-02 0. -1.
    10030    2    1    2    0    0  0.00000000000E+00  0.00000000000E+00 -0.35276923604E+03  0.29093010830E+04  0.28878342504E+04 0.  0.
        4    1    3    3  502    0  0.84744608259E+01  0.88950961788E+03  0.96943358315E+03  0.13157135941E+04  0.12699999809E+01 0.  1.
       -4    1    3    3    0  502 -0.84744608259E+01 -0.88950961788E+03 -0.13222028192E+04  0.15935874889E+04  0.12699999809E+01 0. -1.
</event>
<event>
 5   0  0.2608591E-07  0.2895686E+04  0.7818609E-02  0.8274162E-01
        2   -1    0    0  501    0  0.00000000000E+00  0.00000000000E+00  0.19860141867E+04  0.19860141867E+04  0.25500000920E-02 0.  1.
       -2   -1    0    0    0  501  0.00000000000E+00  0.00000000000E+00 -0.10555054606E+04  0.10555054606E+04  0.25500000920E-02 0. -1.
    10030    2    1    2    0    0  0.00000000000E+00  0.00000000000E+00  0.93050872612E+03  0.30415196474E+04  0.28956856314E+04 0.  0.
        2    1    3    3  502    0  0.69625425377E+03 -0.23958269176E+03  0.17746646740E+04  0.19213548754E+04  0.25500000920E-02 0.  1.
       -2    1    3    3    0  502 -0.69625425377E+03  0.23958269176E+03 -0.84415594786E+03  0.11201647720E+04  0.25500000920E-02 0. -1.
</event>
<event>
 5   0  0.9443352E-08  0.2900449E+04  0.7818609E-02  0.8272744E-01
       -1   -1    0    0    0  501  0.00000000000E+00  0.00000000000E+00  0.25830841452E+04  0.25830841452E+04  0.50400001928E-02 0. -1.
        1   -1    0    0  501    0  0.00000000000E+00  0.00000000000E+00 -0.81420166091E+03  0.81420166093E+03  0.50400001928E-02 0.  1.
    10030    2    1    2    0    0  0.00000000000E+00  0.00000000000E+00  0.17688824843E+04  0.33972858062E+04  0.29004492075E+04 0.  0.
        4    1    3    3  502    0 -0.32578494512E+03  0.26503292487E+03 -0.74141419521E+03  0.85210028957E+03  0.12699999809E+01 0.  1.
       -4    1    3    3    0  502  0.32578494512E+03 -0.26503292487E+03  0.25102966795E+04  0.25451855166E+04  0.12699999809E+01 0. -1.
</event>
<event>
 5   0  0.2678723E-07  0.2900060E+04  0.7818609E-02  0.8272859E-01
        2   -1    0    0  501    0  0.00000000000E+00  0.00000000000E+00  0.15110241908E+04  0.15110241908E+04  0.25500000920E-02 0.  1.
       -2   -1    0    0    0  501  0.00000000000E+00  0.00000000000E+00 -0.13914983821E+04  0.13914983821E+04  0.25500000920E-02 0. -1.
    10030    2    1    2    0    0  0.00000000000E+00  0.00000000000E+00  0.11952580872E+03  0.29025225729E+04  0.29000604937E+04 0.  0.
        5    1    3    3  502    0 -0.72534256772E+03 -0.54710532234E+03  0.11908194717E+04  0.14978381683E+04  0.46999998093E+01 0.  1.
       -5    1    3    3    0  502  0.72534256772E+03  0.54710532234E+03 -0.10712936629E+04  0.14046844046E+04  0.46999998093E+01 0. -1.
</event>
<event>
 5   0  0.9421924E-08  0.2899773E+04  0.7818609E-02  0.8272945E-01
        1   -1    0    0  501    0  0.00000000000E+00  0.00000000000E+00  0.14948698803E+04  0.14948698804E+04  0.50400001928E-02 0.  1.
       -1   -1    0    0    0  501  0.00000000000E+00  0.00000000000E+00 -0.14062567303E+04  0.14062567303E+04  0.50400001928E-02 0. -1.
    10030    2    1    2    0    0  0.00000000000E+00  0.00000000000E+00  0.88613150034E+02  0.29011266107E+04  0.28997729775E+04 0.  0.
        1    1    3    3  502    0 -0.14457660001E+04  0.22254321217E+01  0.15356630212E+03  0.14539005773E+04  0.50400001928E-02 0.  1.
       -1    1    3    3    0  502  0.14457660001E+04 -0.22254321217E+01 -0.64953152089E+02  0.14472260333E+04  0.50400001928E-02 0. -1.
</event>
<event>
 5   0  0.2492232E-07  0.2901239E+04  0.7818609E-02  0.8272509E-01
        2   -1    0    0  501    0  0.00000000000E+00  0.00000000000E+00  0.20535960763E+04  0.20535960763E+04  0.25500000920E-02 0. -1.
       -2   -1    0    0    0  501  0.00000000000E+00  0.00000000000E+00 -0.10246890702E+04  0.10246890702E+04  0.25500000920E-02 0.  1.
    10030    2    1    2    0    0  0.00000000000E+00  0.00000000000E+00  0.10289070062E+04  0.30782851465E+04  0.29012393586E+04 0.  0.
        4    1    3    3  502    0 -0.74281614442E+03  0.48810771727E+03  0.17308291815E+04  0.19457122697E+04  0.12699999809E+01 0. -1.
       -4    1    3    3    0  502  0.74281614442E+03 -0.48810771727E+03 -0.70192217533E+03  0.11325728768E+04  0.12699999809E+01 0.  1.
</event>
<event>
 5   0  0.9395744E-08  0.2886891E+04  0.7818609E-02  0.8276788E-01
        1   -1    0    0  501    0  0.00000000000E+00  0.00000000000E+00  0.10721292057E+04  0.10721292057E+04  0.50400001928E-02 0. -1.
       -1   -1    0    0    0  501  0.00000000000E+00  0.00000000000E+00 -0.19433618112E+04  0.19433618112E+04  0.50400001928E-02 0.  1.
    10030    2    1    2    0    0  0.00000000000E+00  0.00000000000E+00 -0.87123260558E+03  0.30154910169E+04  0.28868910302E+04 0.  0.
        2    1    3    3  502    0  0.88990718478E+03 -0.67362077490E+03  0.52049169599E+03  0.12315077554E+04  0.25500000920E-02 0. -1.
       -2    1    3    3    0  502 -0.88990718478E+03  0.67362077490E+03 -0.13917243016E+04  0.17839832616E+04  0.25500000920E-02 0.  1.
</event>
<event>
 5   0  0.9395744E-08  0.2901036E+04  0.7818609E-02  0.8272569E-01
        1   -1    0    0  501    0  0.00000000000E+00  0.00000000000E+00  0.11036351442E+04  0.11036351442E+04  0.50400001928E-02 0. -1.
       -1   -1    0    0    0  501  0.00000000000E+00  0.00000000000E+00 -0.19064295170E+04  0.19064295170E+04  0.50400001928E-02 0.  1.
    10030    2    1    2    0    0  0.00000000000E+00  0.00000000000E+00 -0.80279437276E+03  0.30100646612E+04  0.29010361010E+04 0.  0.
        2    1    3    3  502    0 -0.14044245352E+04 -0.36206857949E+03 -0.37818027836E+03  0.14988403031E+04  0.25500000920E-02 0.  1.
       -2    1    3    3    0  502  0.14044245352E+04  0.36206857949E+03 -0.42461409440E+03  0.15112243581E+04  0.25500000920E-02 0. -1.
</event>
<event>
 5   0  0.2608591E-07  0.2899635E+04  0.7818609E-02  0.8272986E-01
        2   -1    0    0  501    0  0.00000000000E+00  0.00000000000E+00  0.19137928659E+04  0.19137928659E+04  0.25500000920E-02 0. -1.
       -2   -1    0    0    0  501  0.00000000000E+00  0.00000000000E+00 -0.10983270603E+04  0.10983270603E+04  0.25500000920E-02 0.  1.
    10030    2    1    2    0    0  0.00000000000E+00  0.00000000000E+00  0.81546580563E+03  0.30121199263E+04  0.28996347994E+04 0.  0.
        2    1    3    3  502    0  0.87471635039E+01 -0.13973678180E+04  0.80905820758E+03  0.16147100405E+04  0.25500000920E-02 0. -1.
       -2    1    3    3    0  502 -0.87471635039E+01  0.13973678180E+04  0.64075980524E+01  0.13974098858E+04  0.25500000920E-02 0.  1.
</event>
<event>
 5   0  0.9388076E-08  0.2899099E+04  0.7818609E-02  0.8273145E-01
        1   -1    0    0  501    0  0.00000000000E+00  0.00000000000E+00  0.85445145224E+03  0.85445145226E+03  0.50400001928E-02 0. -1.
       -1   -1    0    0    0  501  0.00000000000E+00  0.00000000000E+00 -0.24591150623E+04  0.24591150623E+04  0.50400001928E-02 0.  1.
    10030    2    1    2    0    0  0.00000000000E+00  0.00000000000E+00 -0.16046636101E+04  0.33135665146E+04  0.28990994714E+04 0.  0.
        5    1    3    3  502    0 -0.72822792027E+03  0.12514429487E+04 -0.88108019232E+03  0.16949188042E+04  0.46999998093E+01 0.  1.
       -5    1    3    3    0  502  0.72822792027E+03 -0.12514429487E+04 -0.72358341773E+03  0.16186477103E+04  0.46999998093E+01 0. -1.
</event>
<event>
 5   0  0.9421924E-08  0.2900731E+04  0.7818609E-02  0.8272660E-01
       -1   -1    0    0    0  501  0.00000000000E+00  0.00000000000E+00  0.17311101836E+04  0.17311101836E+04  0.50400001928E-02 0.  1.
        1   -1    0    0  501    0  0.00000000000E+00  0.00000000000E+00 -0.12151512438E+04  0.12151512438E+04  0.50400001928E-02 0. -1.
    10030    2    1    2    0    0  0.00000000000E+00  0.00000000000E+00  0.51595893983E+03  0.29462614274E+04  0.29007314200E+04 0.  0.
        1    1    3    3  502    0 -0.39089626379E+03  0.55591188392E+03 -0.10434291326E+04  0.12452237817E+04  0.50400001928E-02 0. -1.
       -1    1    3    3    0  502  0.39089626379E+03 -0.55591188392E+03  0.15593880724E+04  0.17010376457E+04  0.50400001928E-02 0.  1.
</event>
<event>
 5   0  0.9388076E-08  0.2899017E+04  0.7818609E-02  0.8273170E-01
        1   -1    0    0  501    0  0.00000000000E+00  0.00000000000E+00  0.10294426222E+04  0.10294426222E+04  0.50400001928E-02 0. -1.
       -1   -1    0    0    0  501  0.00000000000E+00  0.00000000000E+00 -0.20409824061E+04  0.20409824061E+04  0.50400001928E-02 0.  1.
    10030    2    1    2    0    0  0.00000000000E+00  0.00000000000E+00 -0.10115397839E+04  0.30704250283E+04  0.28990165781E+04 0.  0.
        5    1    3    3  502    0  0.79512973622E+03 -0.85209899135E+03 -0.14185551199E+04  0.18359261169E+04  0.46999998093E+01 0.  1.
       -5    1    3    3    0  502 -0.79512973622E+03  0.85209899135E+03  0.40701533600E+03  0.12344989114E+04  0.46999998093E+01 0. -1.
</event>
<event>
 5   0  0.2608591E-07  0.2899914E+04  0.7818609E-02  0.8272903E-01
        2   -1    0    0  501    0  0.00000000000E+00  0.00000000000E+00  0.12509068092E+04  0.12509068092E+04  0.25500000920E-02 0. -1.
       -2   -1    0    0    0  501  0.00000000000E+00  0.00000000000E+00 -0.16806809130E+04  0.16806809130E+04  0.25500000920E-02 0.  1.
    10030    2    1    2    0    0  0.00000000000E+00  0.00000000000E+00 -0.42977410375E+03  0.29315877222E+04  0.28999139285E+04 0.  0.
        2    1    3    3  502    0  0.40444985035E+03 -0.14436935430E+03  0.11851410954E+04  0.12605481379E+04  0.25500000920E-02 0. -1.
       -2    1    3    3    0  502 -0.40444985035E+03  0.14436935430E+03 -0.16149151991E+04  0.16710395843E+04  0.25500000920E-02 0.  1.
</event>
<event>
 5   0  0.2608591E-07  0.2897998E+04  0.7818609E-02  0.8273473E-01
        2   -1    0    0  501    0  0.00000000000E+00  0.00000000000E+00  0.13501939379E+04  0.13501939380E+04  0.25500000920E-02 0. -1.
       -2   -1    0    0    0  501  0.00000000000E+00  0.00000000000E+00 -0.15550340229E+04  0.15550340229E+04  0.25500000920E-02 0.  1.
    10030    2    1    2    0    0  0.00000000000E+00  0.00000000000E+00 -0.20484008498E+03  0.29052279609E+04  0.28979975922E+04 0.  0.
        2    1    3    3  502    0 -0.23472313467E+03 -0.10777230042E+04  0.83961358202E+03  0.13861936340E+04  0.25500000920E-02 0. -1.
       -2    1    3    3    0  502  0.23472313467E+03  0.10777230042E+04 -0.10444536670E+04  0.15190343269E+04  0.25500000920E-02 0.  1.
</event>
<event>
 5   0  0.9421924E-08  0.2902885E+04  0.7818609E-02  0.8272020E-01
        1   -1    0    0  501    0  0.00000000000E+00  0.00000000000E+00  0.14866349316E+04  0.14866349316E+04  0.50400001928E-02 0.  1.
       -1   -1    0    0    0  501  0.00000000000E+00  0.00000000000E+00 -0.14170832240E+04  0.14170832240E+04  0.50400001928E-02 0. -1.
    10030    2    1    2    0    0  0.00000000000E+00  0.00000000000E+00  0.69551707537E+02  0.29037181556E+04  0.29028850627E+04 0.  0.
        1    1    3    3  502    0 -0.10558775724E+04 -0.47568080385E+03  0.90997595024E+03  0.14728224282E+04  0.50400001928E-02 0.  1.
       -1    1    3    3    0  502  0.10558775724E+04  0.47568080385E+03 -0.84042424270E+03  0.14308957274E+04  0.50400001928E-02 0. -1.
</event>
<event>
 5   0  0.2534588E-07  0.2900628E+04  0.7818609E-02  0.8272691E-01
        2   -1    0    0  501    0  0.00000000000E+00  0.00000000000E+00  0.18742102017E+04  0.18742102017E+04  0.25500000920E-02 0.  1.
       -2   -1    0    0    0  501  0.00000000000E+00  0.00000000000E+00 -0.11222914448E+04  0.11222914449E+04  0.25500000920E-02 0. -1.
    10030    2    1    2    0    0  0.00000000000E+00  0.00000000000E+00  0.75191875681E+03  0.29965016465E+04  0.29006275702E+04 0.  0.
        3    1    3    3  502    0 -0.69262020820E+03  0.43819261627E+03  0.16120340332E+04  0.18084217584E+04  0.10100000352E+00 0.  1.
       -3    1    3    3    0  502  0.69262020820E+03 -0.43819261627E+03 -0.86011527638E+03  0.11880798881E+04  0.10100000352E+00 0. -1.
</event>
<event>
 5   0  0.2534588E-07  0.2906051E+04  0.7818609E-02  0.8271079E-01
        2   -1    0    0  501    0  0.00000000000E+00  0.00000000000E+00  0.10719126768E+04  0.10719126768E+04  0.25500000920E-02 0. -1.
       -2   -1    0    0    0  501  0.00000000000E+00  0.00000000000E+00 -0.19696413172E+04  0.19696413172E+04  0.25500000920E-02 0.  1.
    10030    2    1    2    0    0  0.00000000000E+00  0.00000000000E+00 -0.89772864041E+03  0.30415539940E+04  0.29060512705E+04 0.  0.
        3    1    3    3  502    0 -0.12322714950E+04  0.71140265069E+03 -0.75703661064E+03  0.16117354649E+04  0.10100000352E+00 0. -1.
       -3    1    3    3    0  502  0.12322714950E+04 -0.71140265069E+03 -0.14069202977E+03  0.14298185291E+04  0.10100000352E+00 0.  1.
</event>
<event>
 5   0  0.2492232E-07  0.2900463E+04  0.7818609E-02  0.8272740E-01
       -2   -1    0    0    0  501  0.00000000000E+00  0.00000000000E+00  0.91221122111E+03  0.91221122111E+03  0.25500000920E-02 0. -1.
        2   -1    0    0  501    0  0.00000000000E+00  0.00000000000E+00 -0.23055755951E+04  0.23055755951E+04  0.25500000920E-02 0.  1.
    10030    2    1    2    0    0  0.00000000000E+00  0.00000000000E+00 -0.13933643740E+04  0.32177868162E+04  0.29004633623E+04 0.  0.
        4    1    3    3  502    0  0.10667838092E+04  0.98170494799E+03 -0.73816286955E+03  0.16268553517E+04  0.12699999809E+01 0.  1.
       -4    1    3    3    0  502 -0.10667838092E+04 -0.98170494799E+03 -0.65520150446E+03  0.15909314645E+04  0.12699999809E+01 0. -1.
</event>
<event>
 5   0  0.9443352E-08  0.2900112E+04  0.7818609E-02  0.8272844E-01
        1   -1    0    0  501    0  0.00000000000E+00  0.00000000000E+00  0.19587578656E+04  0.19587578656E+04  0.50400001928E-02 0.  1.
       -1   -1    0    0    0  501  0.00000000000E+00  0.00000000000E+00 -0.10734672385E+04  0.10734672385E+04  0.50400001928E-02 0. -1.
    10030    2    1    2    0    0  0.00000000000E+00  0.00000000000E+00  0.88529062710E+03  0.30322251041E+04  0.29001119957E+04 0.  0.
        4    1    3    3  502    0 -0.12122915993E+04 -0.21130606097E+03  0.12446337296E+04  0.17502616681E+04  0.12699999809E+01 0.  1.
       -4    1    3    3    0  502  0.12122915993E+04  0.21130606097E+03 -0.35934310250E+03  0.12819634360E+04  0.12699999809E+01 0. -1.
</event>
<event>
 5   0  0.9443352E-08  0.2901096E+04  0.7818609E-02  0.8272552E-01
        1   -1    0    0  501    0  0.00000000000E+00  0.00000000000E+00  0.13300640138E+04  0.13300640138E+04  0.50400001928E-02 0.  1.
       -1   -1    0    0    0  501  0.00000000000E+00  0.00000000000E+00 -0.15819456227E+04  0.15819456227E+04  0.50400001928E-02 0. -1.
    10030    2    1    2    0    0  0.00000000000E+00  0.00000000000E+00 -0.25188160893E+03  0.29120096365E+04  0.29010956168E+04 0.  0.
        4    1    3    3  502    0  0.95004960226E+03 -0.34114434382E+03 -0.11715475409E+04  0.15464472068E+04  0.12699999809E+01 0. -1.
       -4    1    3    3    0  502 -0.95004960226E+03  0.34114434382E+03  0.91966593193E+03  0.13655624297E+04  0.12699999809E+01 0.  1.
</event>
<event>
 5   0  0.2678723E-07  0.2902860E+04  0.7818609E-02  0.8272027E-01
        2   -1    0    0  501    0  0.00000000000E+00  0.00000000000E+00  0.18122147854E+04  0.18122147854E+04  0.25500000920E-02 0.  1.
       -2   -1    0    0    0  501  0.00000000000E+00  0.00000000000E+00 -0.11624722380E+04  0.11624722380E+04  0.25500000920E-02 0. -1.
    10030    2    1    2    0    0  0.00000000000E+00  0.00000000000E+00  0.64974254732E+03  0.29746870234E+04  0.29028602291E+04 0.  0.
        5    1    3    3  502    0 -0.97506690887E+02 -0.25874004863E+03  0.17849682837E+04  0.18062635000E+04  0.46999998093E+01 0.  1.
       -5    1    3    3    0  502  0.97506690887E+02  0.25874004863E+03 -0.11352257364E+04  0.11684235234E+04  0.46999998093E+01 0. -1.
</event>
<event>
 5   0  0.9443352E-08  0.2904099E+04  0.7818609E-02  0.8271659E-01
        1   -1    0    0  501    0  0.00000000000E+00  0.00000000000E+00  0.25839630137E+04  0.25839630137E+04  0.50400001928E-02 0.  1.
       -1   -1    0    0    0  501  0.00000000000E+00  0.00000000000E+00 -0.81597415043E+03  0.81597415045E+03  0.50400001928E-02 0. -1.
    10030    2    1    2    0    0  0.00000000000E+00  0.00000000000E+00  0.17679888633E+04  0.33999371642E+04  0.29040985003E+04 0.  0.
        4    1    3    3  502    0 -0.65149725614E+03  0.77702272672E+03  0.21007914915E+04  0.23327107614E+04  0.12699999809E+01 0.  1.
       -4    1    3    3    0  502  0.65149725614E+03 -0.77702272672E+03 -0.33280262821E+03  0.10672264028E+04  0.12699999809E+01 0. -1.
</event>
<event>
 5   0  0.2534588E-07  0.2899165E+04  0.7818609E-02  0.8273126E-01
       -2   -1    0    0    0  501  0.00000000000E+00  0.00000000000E+00  0.10167462439E+04  0.10167462439E+04  0.25500000920E-02 0. -1.
        2   -1    0    0  501    0  0.00000000000E+00  0.00000000000E+00 -0.20666806778E+04  0.20666806778E+04  0.25500000920E-02 0.  1.
    10030    2    1    2    0    0  0.00000000000E+00  0.00000000000E+00 -0.10499344339E+04  0.30834269216E+04  0.28991652705E+04 0.  0.
        3    1    3    3  502    0 -0.66673581157E+02  0.48155893377E+03  0.92745790128E+03  0.10471497228E+04  0.10100000352E+00 0. -1.
       -3    1    3    3    0  502  0.66673581157E+02 -0.48155893377E+03 -0.19773923352E+04  0.20362771989E+04  0.10100000352E+00 0.  1.
</event>
<event>
 5   0  0.2534588E-07  0.2901287E+04  0.7818609E-02  0.8272495E-01
       -2   -1    0    0    0  501  0.00000000000E+00  0.00000000000E+00  0.89293204094E+03  0.89293204094E+03  0.25500000920E-02 0. -1.
        2   -1    0    0  501    0  0.00000000000E+00  0.00000000000E+00 -0.23566931933E+04  0.23566931933E+04  0.25500000920E-02 0.  1.
    10030    2    1    2    0    0  0.00000000000E+00  0.00000000000E+00 -0.14637611524E+04  0.32496252342E+04  0.29012872060E+04 0.  0.
        3    1    3    3  502    0  0.15776955818E+03  0.14257005156E+04 -0.48943497283E+03  0.15156054224E+04  0.10100000352E+00 0. -1.
       -3    1    3    3    0  502 -0.15776955818E+03 -0.14257005156E+04 -0.97432617953E+03  0.17340198118E+04  0.10100000352E+00 0.  1.
</event>
<event>
 5   0  0.9443352E-08  0.2900804E+04  0.7818609E-02  0.8272638E-01
        1   -1    0    0  501    0  0.00000000000E+00  0.00000000000E+00  0.26957076235E+04  0.26957076235E+04  0.50400001928E-02 0. -1.
       -1   -1    0    0    0  501  0.00000000000E+00  0.00000000000E+00 -0.78037615418E+03  0.78037615420E+03  0.50400001928E-02 0.  1.
    10030    2    1    2    0    0  0.00000000000E+00  0.00000000000E+00  0.19153314693E+04  0.34760837777E+04  0.29008039906E+04 0.  0.
        4    1    3    3  502    0 -0.21415265241E+03 -0.90461392834E+02 -0.75790447168E+03  0.79275811142E+03  0.12699999809E+01 0.  1.
       -4    1    3    3    0  502  0.21415265241E+03  0.90461392834E+02  0.26732359410E+04  0.26833256662E+04  0.12699999809E+01 0. -1.
</event>
<event>
 5   0  0.9763851E-08  0.2898843E+04  0.7818609E-02  0.8273222E-01
       -1   -1    0    0    0  501  0.00000000000E+00  0.00000000000E+00  0.19333675267E+04  0.19333675267E+04  0.50400001928E-02 0.  1.
        1   -1    0    0  501    0  0.00000000000E+00  0.00000000000E+00 -0.10866129109E+04  0.10866129109E+04  0.50400001928E-02 0. -1.
    10030    2    1    2    0    0  0.00000000000E+00  0.00000000000E+00  0.84675461578E+03  0.30199804376E+04  0.28988426077E+04 0.  0.
        3    1    3    3  502    0 -0.41902679127E+03  0.20247481997E+02  0.18687356579E+04  0.19152457758E+04  0.10100000352E+00 0.  1.
       -3    1    3    3    0  502  0.41902679127E+03 -0.20247481997E+02 -0.10219810421E+04  0.11047346618E+04  0.10100000352E+00 0. -1.
</event>
<event>
 5   0  0.9443352E-08  0.2899240E+04  0.7818609E-02  0.8273104E-01
        1   -1    0    0  501    0  0.00000000000E+00  0.00000000000E+00  0.12077729869E+04  0.12077729869E+04  0.50400001928E-02 0.  1.
       -1   -1    0    0    0  501  0.00000000000E+00  0.00000000000E+00 -0.17398952022E+04  0.17398952022E+04  0.50400001928E-02 0. -1.
    10030    2    1    2    0    0  0.00000000000E+00  0.00000000000E+00 -0.53212221534E+03  0.29476681891E+04  0.28992401937E+04 0.  0.
        4    1    3    3  502    0  0.72855535944E+03  0.32521004037E+03 -0.14965843990E+04  0.16959719804E+04  0.12699999809E+01 0. -1.
       -4    1    3    3    0  502 -0.72855535944E+03 -0.32521004037E+03  0.96446218368E+03  0.12516962087E+04  0.12699999809E+01 0.  1.
</event>
<event>
 5   0  0.2678723E-07  0.2899293E+04  0.7818609E-02  0.8273088E-01
       -2   -1    0    0    0  501  0.00000000000E+00  0.00000000000E+00  0.13748631968E+04  0.13748631968E+04  0.25500000920E-02 0.  1.
        2   -1    0    0  501    0  0.00000000000E+00  0.00000000000E+00 -0.15284974856E+04  0.15284974856E+04  0.25500000920E-02 0. -1.
    10030    2    1    2    0    0  0.00000000000E+00  0.00000000000E+00 -0.15363428885E+03  0.29033606824E+04  0.28992929754E+04 0.  0.
        5    1    3    3  502    0  0.11871908244E+03  0.12009749061E+04 -0.88107400219E+03  0.14942384123E+04  0.46999998093E+01 0.  1.
       -5    1    3    3    0  502 -0.11871908244E+03 -0.12009749061E+04  0.72743971334E+03  0.14091222701E+04  0.46999998093E+01 0. -1.
</event>
<event>
 5   0  0.9443352E-08  0.2900068E+04  0.7818609E-02  0.8272857E-01
        1   -1    0    0  501    0  0.00000000000E+00  0.00000000000E+00  0.21342315245E+04  0.21342315245E+04  0.50400001928E-02 0. -1.
       -1   -1    0    0    0  501  0.00000000000E+00  0.00000000000E+00 -0.98517857358E+03  0.98517857359E+03  0.50400001928E-02 0.  1.
    10030    2    1    2    0    0  0.00000000000E+00  0.00000000000E+00  0.11490529509E+04  0.31194100981E+04  0.29000683916E+04 0.  0.
        4    1    3    3  502    0 -0.12280344336E+04 -0.13317800174E+03  0.13914362188E+04  0.18606185300E+04  0.12699999809E+01 0. -1.
       -4    1    3    3    0  502  0.12280344336E+04  0.13317800174E+03 -0.24238326792E+03  0.12587915680E+04  0.12699999809E+01 0.  1.
</event>
<event>
 5   0  0.9395744E-08  0.2900447E+04  0.7818609E-02  0.8272745E-01
       -1   -1    0    0    0  501  0.00000000000E+00  0.00000000000E+00  0.83731495890E+03  0.83731495891E+03  0.50400001928E-02 0. -1.
        1   -1    0    0  501    0  0.00000000000E+00  0.00000000000E+00 -0.25117763461E+04  0.25117763461E+04  0.50400001928E-02 0.  1.
    10030    2    1    2    0    0  0.00000000000E+00  0.00000000000E+00 -0.16744613872E+04  0.33490913051E+04  0.29004467987E+04 0.  0.
        2    1    3    3  502    0  0.11843423399E+04  0.81660164123E+03 -0.10490222923E+04  0.17804361230E+04  0.25500000920E-02 0. -1.
       -2    1    3    3    0  502 -0.11843423399E+04 -0.81660164123E+03 -0.62543909498E+03  0.15686551820E+04  0.25500000920E-02 0.  1.
</event>
<event>
 5   0  0.9388076E-08  0.2900132E+04  0.7818609E-02  0.8272838E-01
        1   -1    0    0  501    0  0.00000000000E+00  0.00000000000E+00  0.14761240648E+04  0.14761240648E+04  0.50400001928E-02 0. -1.
       -1   -1    0    0    0  501  0.00000000000E+00  0.00000000000E+00 -0.14244675159E+04  0.14244675159E+04  0.50400001928E-02 0.  1.
    10030    2    1    2    0    0  0.00000000000E+00  0.00000000000E+00  0.51656548848E+02  0.29005915807E+04  0.29001315692E+04 0.  0.
        5    1    3    3  502    0  0.51990722978E+03 -0.46996839393E+03 -0.12438197610E+04  0.14276846664E+04  0.46999998093E+01 0.  1.
       -5    1    3    3    0  502 -0.51990722978E+03  0.46996839393E+03  0.12954763098E+04  0.14729069143E+04  0.46999998093E+01 0. -1.
</event>
<event>
 5   0  0.2608591E-07  0.2900009E+04  0.7818609E-02  0.8272875E-01
        2   -1    0    0  501    0  0.00000000000E+00  0.00000000000E+00  0.17755740934E+04  0.17755740934E+04  0.25500000920E-02 0. -1.
       -2   -1    0    0    0  501  0.00000000000E+00  0.00000000000E+00 -0.11841311126E+04  0.11841311126E+04  0.25500000920E-02 0.  1.
    10030    2    1    2    0    0  0.00000000000E+00  0.00000000000E+00  0.59144298076E+03  0.29597052060E+04  0.29000086391E+04 0.  0.
        2    1    3    3  502    0 -0.36683588594E+03 -0.83368764601E+01  0.17274077567E+04  0.17659489315E+04  0.25500000920E-02 0. -1.
       -2    1    3    3    0  502  0.36683588594E+03  0.83368764601E+01 -0.11359647760E+04  0.11937562745E+04  0.25500000920E-02 0.  1.
</event>
<event>
 5   0  0.2492232E-07  0.2911988E+04  0.7818609E-02  0.8269320E-01
       -2   -1    0    0    0  501  0.00000000000E+00  0.00000000000E+00  0.11207017557E+04  0.11207017557E+04  0.25500000920E-02 0. -1.
        2   -1    0    0  501    0  0.00000000000E+00  0.00000000000E+00 -0.18915993659E+04  0.18915993659E+04  0.25500000920E-02 0.  1.
    10030    2    1    2    0    0  0.00000000000E+00  0.00000000000E+00 -0.77089761018E+03  0.30123011215E+04  0.29119881390E+04 0.  0.
        4    1    3    3  502    0 -0.77856194748E+03 -0.95557799379E+03 -0.11871489644E+04  0.17113188730E+04  0.12699999809E+01 0.  1.
       -4    1    3    3    0  502  0.77856194748E+03  0.95557799379E+03  0.41625135426E+03  0.13009822486E+04  0.12699999809E+01 0. -1.
</event>
<event>
 5   0  0.2534588E-07  0.2897738E+04  0.7818609E-02  0.8273551E-01
       -2   -1    0    0    0  501  0.00000000000E+00  0.00000000000E+00  0.11227833035E+04  0.11227833035E+04  0.25500000920E-02 0.  1.
        2   -1    0    0  501    0  0.00000000000E+00  0.00000000000E+00 -0.18696580353E+04  0.18696580353E+04  0.25500000920E-02 0. -1.
    10030    2    1    2    0    0  0.00000000000E+00  0.00000000000E+00 -0.74687473177E+03  0.29924413388E+04  0.28977376177E+04 0.  0.
        3    1    3    3  502    0  0.66858111392E+03 -0.11836176837E+04 -0.89108745303E+03  0.16254194493E+04  0.10100000352E+00 0. -1.
       -3    1    3    3    0  502 -0.66858111392E+03  0.11836176837E+04  0.14421272126E+03  0.13670218895E+04  0.10100000352E+00 0.  1.
</event>
<event>
 5   0  0.9421924E-08  0.2900902E+04  0.7818609E-02  0.8272609E-01
        1   -1    0    0  501    0  0.00000000000E+00  0.00000000000E+00  0.20896947448E+04  0.20896947448E+04  0.50400001928E-02 0. -1.
       -1   -1    0    0    0  501  0.00000000000E+00  0.00000000000E+00 -0.10067541064E+04  0.10067541064E+04  0.50400001928E-02 0.  1.
    10030    2    1    2    0    0  0.00000000000E+00  0.00000000000E+00  0.10829406385E+04  0.30964488512E+04  0.29009024564E+04 0.  0.
        1    1    3    3  502    0 -0.26866260796E+03 -0.32354828617E+03  0.20231881947E+04  0.20664349885E+04  0.50400001928E-02 0. -1.
       -1    1    3    3    0  502  0.26866260796E+03  0.32354828617E+03 -0.94024755622E+03  0.10300138627E+04  0.50400001928E-02 0.  1.
</event>
<event>
 5   0  0.9763851E-08  0.2899711E+04  0.7818609E-02  0.8272963E-01
        1   -1    0    0  501    0  0.00000000000E+00  0.00000000000E+00  0.19720016583E+04  0.19720016583E+04  0.50400001928E-02 0. -1.
       -1   -1    0    0    0  501  0.00000000000E+00  0.00000000000E+00 -0.10659630014E+04  0.10659630014E+04  0.50400001928E-02 0.  1.
    10030    2    1    2    0    0  0.00000000000E+00  0.00000000000E+00  0.90603865691E+03  0.30379646596E+04  0.28997108865E+04 0.  0.
        3    1    3    3  502    0  0.46545573939E+03  0.13728728413E+04  0.47976926057E+03  0.15269601950E+04  0.10100000352E+00 0.  1.
       -3    1    3    3    0  502 -0.46545573939E+03 -0.13728728413E+04  0.42626939634E+03  0.15110044646E+04  0.10100000352E+00 0. -1.
</event>
<event>
 5   0  0.9388076E-08  0.2901199E+04  0.7818609E-02  0.8272521E-01
       -1   -1    0    0    0  501  0.00000000000E+00  0.00000000000E+00  0.68550979626E+03  0.68550979628E+03  0.50400001928E-02 0.  1.
        1   -1    0    0  501    0  0.00000000000E+00  0.00000000000E+00 -0.30695976481E+04  0.30695976482E+04  0.50400001928E-02 0. -1.
    10030    2    1    2    0    0  0.00000000000E+00  0.00000000000E+00 -0.23840878519E+04  0.37551074444E+04  0.29011992406E+04 0.  0.
        5    1    3    3  502    0 -0.42495459674E+03 -0.28193893705E+03 -0.29497323701E+04  0.29934961364E+04  0.46999998093E+01 0. -1.
       -5    1    3    3    0  502  0.42495459674E+03  0.28193893705E+03  0.56564451821E+03  0.76161130801E+03  0.46999998093E+01 0.  1.
</event>
<event>
 5   0  0.9388076E-08  0.2900397E+04  0.7818609E-02  0.8272759E-01
       -1   -1    0    0    0  501  0.00000000000E+00  0.00000000000E+00  0.13652066324E+04  0.13652066324E+04  0.50400001928E-02 0.  1.
        1   -1    0    0  501    0  0.00000000000E+00  0.00000000000E+00 -0.15404815853E+04  0.15404815853E+04  0.50400001928E-02 0. -1.
    10030    2    1    2    0    0  0.00000000000E+00  0.00000000000E+00 -0.17527495291E+03  0.29056882177E+04  0.29003969917E+04 0.  0.
        5    1    3    3  502    0  0.16643208806E+03  0.10821255850E+04 -0.10403498342E+04  0.15103129772E+04  0.46999998093E+01 0. -1.
       -5    1    3    3    0  502 -0.16643208806E+03 -0.10821255850E+04  0.86507488126E+03  0.13953752405E+04  0.46999998093E+01 0.  1.
</event>
<event>
 5   0  0.2608591E-07  0.2899269E+04  0.7818609E-02  0.8273095E-01
       -2   -1    0    0    0  501  0.00000000000E+00  0.00000000000E+00  0.10273582147E+04  0.10273582147E+04  0.25500000920E-02 0. -1.
        2   -1    0    0  501    0  0.00000000000E+00  0.00000000000E+00 -0.20454800461E+04  0.20454800461E+04  0.25500000920E-02 0.  1.
    10030    2    1    2    0    0  0.00000000000E+00  0.00000000000E+00 -0.10181218313E+04  0.30728382608E+04  0.28992693758E+04 0.  0.
        2    1    3    3  502    0 -0.11995430903E+03  0.74908525390E+03 -0.18182954109E+04  0.19702070843E+04  0.25500000920E-02 0.  1.
       -2    1    3    3    0  502  0.11995430903E+03 -0.74908525390E+03  0.80017357957E+03  0.11026311765E+04  0.25500000920E-02 0. -1.
</event>
<event>
 5   0  0.2608591E-07  0.2900136E+04  0.7818609E-02  0.8272837E-01
       -2   -1    0    0    0  501  0.00000000000E+00  0.00000000000E+00  0.97768903165E+03  0.97768903165E+03  0.25500000920E-02 0.  1.
        2   -1    0    0  501    0  0.00000000000E+00  0.00000000000E+00 -0.21506805943E+04  0.21506805943E+04  0.25500000920E-02 0. -1.
    10030    2    1    2    0    0  0.00000000000E+00  0.00000000000E+00 -0.11729915627E+04  0.31283696260E+04  0.29001357400E+04 0.  0.
        2    1    3    3  502    0  0.13679465674E+03  0.51316382611E+03  0.86900553517E+03  0.10184402342E+04  0.25500000920E-02 0.  1.
       -2    1    3    3    0  502 -0.13679465674E+03 -0.51316382611E+03 -0.20419970978E+04  0.21099293917E+04  0.25500000920E-02 0. -1.
</event>
<event>
 5   0  0.9763851E-08  0.2899349E+04  0.7818609E-02  0.8273071E-01
       -1   -1    0    0    0  501  0.00000000000E+00  0.00000000000E+00  0.12636391670E+04  0.12636391670E+04  0.50400001928E-02 0.  1.
        1   -1    0    0  501    0  0.00000000000E+00  0.00000000000E+00 -0.16630979961E+04  0.16630979961E+04  0.50400001928E-02 0. -1.
    10030    2    1    2    0    0  0.00000000000E+00  0.00000000000E+00 -0.39945882908E+03  0.29267371631E+04  0.28993487313E+04 0.  0.
        3    1    3    3  502    0 -0.84596441270E+02  0.12491643494E+04  0.53791806704E+03  0.13626899819E+04  0.10100000352E+00 0.  1.
       -3    1    3    3    0  502  0.84596441270E+02 -0.12491643494E+04 -0.93737689612E+03  0.15640471813E+04  0.10100000352E+00 0. -1.
</event>
<event>
 5   0  0.9421924E-08  0.2899381E+04  0.7818609E-02  0.8273062E-01
       -1   -1    0    0    0  501  0.00000000000E+00  0.00000000000E+00  0.11230178144E+04  0.11230178144E+04  0.50400001928E-02 0.  1.
        1   -1    0    0  501    0  0.00000000000E+00  0.00000000000E+00 -0.18713881663E+04  0.18713881664E+04  0.50400001928E-02 0. -1.
    10030    2    1    2    0    0  0.00000000000E+00  0.00000000000E+00 -0.74837035199E+03  0.29944059807E+04  0.28993807949E+04 0.  0.
        1    1    3    3  502    0  0.48047825486E+03  0.99102926105E+03  0.59936767033E+03  0.12538899289E+04  0.50400001928E-02 0.  1.
       -1    1    3    3    0  502 -0.48047825486E+03 -0.99102926105E+03 -0.13477380223E+04  0.17405160518E+04  0.50400001928E-02 0. -1.
</event>
<event>
 5   0  0.2546841E-07  0.2900848E+04  0.7818609E-02  0.8272625E-01
       -2   -1    0    0    0  501  0.00000000000E+00  0.00000000000E+00  0.17033617651E+04  0.17033617651E+04  0.25500000920E-02 0. -1.
        2   -1    0    0  501    0  0.00000000000E+00  0.00000000000E+00 -0.12350453675E+04  0.12350453675E+04  0.25500000920E-02 0.  1.
    10030    2    1    2    0    0  0.00000000000E+00  0.00000000000E+00  0.46831639755E+03  0.29384071326E+04  0.29008475018E+04 0.  0.
        1    1    3    3  502    0  0.10489851703E+04 -0.73240754877E+02  0.12460900025E+04  0.16304828702E+04  0.50400001928E-02 0. -1.
       -1    1    3    3    0  502 -0.10489851703E+04  0.73240754877E+02 -0.77777360494E+03  0.13079242624E+04  0.50400001928E-02 0.  1.
</event>
<event>
 5   0  0.2678723E-07  0.2900665E+04  0.7818609E-02  0.8272680E-01
       -2   -1    0    0    0  501  0.00000000000E+00  0.00000000000E+00  0.13011540912E+04  0.13011540912E+04  0.25500000920E-02 0. -1.
        2   -1    0    0  501    0  0.00000000000E+00  0.00000000000E+00 -0.16166143731E+04  0.16166143731E+04  0.25500000920E-02 0.  1.
    10030    2    1    2    0    0  0.00000000000E+00  0.00000000000E+00 -0.31546028194E+03  0.29177684643E+04  0.29006650310E+04 0.  0.
        5    1    3    3  502    0 -0.16728758702E+03  0.13790486275E+04 -0.57693926823E+03  0.15042078523E+04  0.46999998093E+01 0.  1.
       -5    1    3    3    0  502  0.16728758702E+03 -0.13790486275E+04  0.26147898629E+03  0.14135606120E+04  0.46999998093E+01 0. -1.
</event>
<event>
 5   0  0.9395744E-08  0.2900027E+04  0.7818609E-02  0.8272869E-01
       -1   -1    0    0    0  501  0.00000000000E+00  0.00000000000E+00  0.21507011969E+04  0.21507011969E+04  0.50400001928E-02 0. -1.
        1   -1    0    0  501    0  0.00000000000E+00  0.00000000000E+00 -0.97760629709E+03  0.97760629710E+03  0.50400001928E-02 0.  1.
    10030    2    1    2    0    0  0.00000000000E+00  0.00000000000E+00  0.11730948998E+04  0.31283074940E+04  0.29000269194E+04 0.  0.
        2    1    3    3  502    0 -0.12448728849E+04  0.10817894433E+03 -0.20697158442E+03  0.12665892864E+04  0.25500000920E-02 0.  1.
       -2    1    3    3    0  502  0.12448728849E+04 -0.10817894433E+03  0.13800664842E+04  0.18617182076E+04  0.25500000920E-02 0. -1.
</event>
<event>
 5   0  0.9395744E-08  0.2902403E+04  0.7818609E-02  0.8272163E-01
        1   -1    0    0  501    0  0.00000000000E+00  0.00000000000E+00  0.21755722377E+04  0.21755722377E+04  0.50400001928E-02 0.  1.
       -1   -1    0    0    0  501  0.00000000000E+00  0.00000000000E+00 -0.96801435977E+03  0.96801435979E+03  0.50400001928E-02 0. -1.
    10030    2    1    2    0    0  0.00000000000E+00  0.00000000000E+00  0.12075578780E+04  0.31435865975E+04  0.29024025681E+04 0.  0.
        2    1    3    3  502    0  0.60249525817E+03  0.52836146798E+03  0.19142017296E+04  0.20751709902E+04  0.25500000920E-02 0.  1.
       -2    1    3    3    0  502 -0.60249525817E+03 -0.52836146798E+03 -0.70664385162E+03  0.10684156073E+04  0.25500000920E-02 0. -1.
</event>
<event>
 5   0  0.9763851E-08  0.2897449E+04  0.7818609E-02  0.8273637E-01
       -1   -1    0    0    0  501  0.00000000000E+00  0.00000000000E+00  0.10817118307E+04  0.10817118307E+04  0.50400001928E-02 0.  1.
        1   -1    0    0  501    0  0.00000000000E+00  0.00000000000E+00 -0.19402602886E+04  0.19402602886E+04  0.50400001928E-02 0. -1.
    10030    2    1    2    0    0  0.00000000000E+00  0.00000000000E+00 -0.85854845784E+03  0.30219721193E+04  0.28974488840E+04 0.  0.
        3    1    3    3  502    0  0.13641507495E+04 -0.33706726430E+03 -0.79696002123E+03  0.16154463450E+04  0.10100000352E+00 0. -1.
       -3    1    3    3    0  502 -0.13641507495E+04  0.33706726430E+03 -0.61588436609E+02  0.14065257743E+04  0.10100000352E+00 0.  1.
</event>
<event>
 5   0  0.2534588E-07  0.2902289E+04  0.7818609E-02  0.8272197E-01
        2   -1    0    0  501    0  0.00000000000E+00  0.00000000000E+00  0.21953847160E+04  0.21953847160E+04  0.25500000920E-02 0. -1.
       -2   -1    0    0    0  501  0.00000000000E+00  0.00000000000E+00 -0.95920351471E+03  0.95920351471E+03  0.25500000920E-02 0.  1.
    10030    2    1    2    0    0  0.00000000000E+00  0.00000000000E+00  0.12361812013E+04  0.31545882307E+04  0.29022892590E+04 0.  0.
        3    1    3    3  502    0 -0.14353445928E+04  0.15049990182E+03  0.45340564680E+03  0.15127594030E+04  0.10100000352E+00 0.  1.
       -3    1    3    3    0  502  0.14353445928E+04 -0.15049990182E+03  0.78277555451E+03  0.16418288277E+04  0.10100000352E+00 0. -1.
</event>
<event>
 5   0  0.9388076E-08  0.2900765E+04  0.7818609E-02  0.8272650E-01
       -1   -1    0    0    0  501  0.00000000000E+00  0.00000000000E+00  0.73895574456E+03  0.73895574458E+03  0.50400001928E-02 0. -1.
        1   -1    0    0  501    0  0.00000000000E+00  0.00000000000E+00 -0.28467316069E+04  0.28467316069E+04  0.50400001928E-02 0.  1.
    10030    2    1    2    0    0  0.00000000000E+00  0.00000000000E+00 -0.21077758624E+04  0.35856873515E+04  0.29007645021E+04 0.  0.
        5    1    3    3  502    0 -0.44264172571E+02 -0.27112697214E+03  0.70649235357E+03  0.75803871118E+03  0.46999998093E+01 0. -1.
       -5    1    3    3    0  502  0.44264172571E+02  0.27112697214E+03 -0.28142682159E+04  0.28276486403E+04  0.46999998093E+01 0.  1.
</event>
<event>
 5   0  0.9443352E-08  0.2904555E+04  0.7818609E-02  0.8271523E-01
        1   -1    0    0  501    0  0.00000000000E+00  0.00000000000E+00  0.26489578376E+04  0.26489578376E+04  0.50400001928E-02 0.  1.
       -1   -1    0    0    0  501  0.00000000000E+00  0.00000000000E+00 -0.79620383001E+03  0.79620383003E+03  0.50400001928E-02 0. -1.
    10030    2    1    2    0    0  0.00000000000E+00  0.00000000000E+00  0.18527540076E+04  0.34451616677E+04  0.29045553022E+04 0.  0.
        4    1    3    3  502    0 -0.96115487993E+03 -0.10310596789E+04  0.51173220848E+03  0.14995913546E+04  0.12699999809E+01 0. -1.
       -4    1    3    3    0  502  0.96115487993E+03  0.10310596789E+04  0.13410217991E+04  0.19455703131E+04  0.12699999809E+01 0.  1.
</event>
<event>
 5   0  0.2534588E-07  0.2898432E+04  0.7818609E-02  0.8273344E-01
        2   -1    0    0  501    0  0.00000000000E+00  0.00000000000E+00  0.21330247726E+04  0.21330247726E+04  0.25500000920E-02 0. -1.
       -2   -1    0    0    0  501  0.00000000000E+00  0.00000000000E+00 -0.98462411942E+03  0.98462411943E+03  0.25500000920E-02 0.  1.
    10030    2    1    2    0    0  0.00000000000E+00  0.00000000000E+00  0.11484006531E+04  0.31176488920E+04  0.28984324304E+04 0.  0.
        3    1    3    3  502    0  0.73630934720E+03 -0.10015674390E+04  0.13754845348E+04  0.18539812580E+04  0.10100000352E+00 0. -1.
       -3    1    3    3    0  502 -0.73630934720E+03  0.10015674390E+04 -0.22708388162E+03  0.12636676339E+04  0.10100000352E+00 0.  1.
</event>
<event>
 5   0  0.2678723E-07  0.2900162E+04  0.7818609E-02  0.8272829E-01
        2   -1    0    0  501    0  0.00000000000E+00  0.00000000000E+00  0.25988317648E+04  0.25988317648E+04  0.25500000920E-02 0.  1.
       -2   -1    0    0    0  501  0.00000000000E+00  0.00000000000E+00 -0.80910780993E+03  0.80910780994E+03  0.25500000920E-02 0. -1.
    10030    2    1    2    0    0  0.00000000000E+00  0.00000000000E+00  0.17897239548E+04  0.34079395747E+04  0.29001621179E+04 0.  0.
        5    1    3    3  502    0  0.20514055465E+03  0.13171521256E+04  0.22419709131E+03  0.13517613676E+04  0.46999998093E+01 0. -1.
       -5    1    3    3    0  502 -0.20514055465E+03 -0.13171521256E+04  0.15655268635E+04  0.20561782071E+04  0.46999998093E+01 0.  1.
</event>
<event>
 5   0  0.2678723E-07  0.2900284E+04  0.7818609E-02  0.8272793E-01
       -2   -1    0    0    0  501  0.00000000000E+00  0.00000000000E+00  0.12177827511E+04  0.12177827511E+04  0.25500000920E-02 0.  1.
        2   -1    0    0  501    0  0.00000000000E+00  0.00000000000E+00 -0.17268368677E+04  0.17268368677E+04  0.25500000920E-02 0. -1.
    10030    2    1    2    0    0  0.00000000000E+00  0.00000000000E+00 -0.50905411656E+03  0.29446196189E+04  0.29002842285E+04 0.  0.
        5    1    3    3  502    0 -0.71355647871E+03 -0.11394724184E+04 -0.80627699410E+03  0.15676941417E+04  0.46999998093E+01 0. -1.
       -5    1    3    3    0  502  0.71355647871E+03  0.11394724184E+04  0.29722287754E+03  0.13769254772E+04  0.46999998093E+01 0.  1.
</event>
<event>
 5   0  0.2678723E-07  0.2900457E+04  0.7818609E-02  0.8272742E-01
        2   -1    0    0  501    0  0.00000000000E+00  0.00000000000E+00  0.20095583310E+04  0.20095583310E+04  0.25500000920E-02 0. -1.
       -2   -1    0    0    0  501  0.00000000000E+00  0.00000000000E+00 -0.10465794214E+04  0.10465794214E+04  0.25500000920E-02 0.  1.
    10030    2    1    2    0    0  0.00000000000E+00  0.00000000000E+00  0.96297890958E+03  0.30561377523E+04  0.29004567883E+04 0.  0.
        5    1    3    3  502    0  0.87039958669E+03  0.11256633435E+04  0.77656896625E+03  0.16210474554E+04  0.46999998093E+01 0. -1.
       -5    1    3    3    0  502 -0.87039958669E+03 -0.11256633435E+04  0.18640994333E+03  0.14350902969E+04  0.46999998093E+01 0.  1.
</event>
<event>
 5   0  0.2608591E-07  0.2897152E+04  0.7818609E-02  0.8273725E-01
        2   -1    0    0  501    0  0.00000000000E+00  0.00000000000E+00  0.14585739458E+04  0.14585739458E+04  0.25500000920E-02 0.  1.
       -2   -1    0    0    0  501  0.00000000000E+00  0.00000000000E+00 -0.14386465743E+04  0.14386465743E+04  0.25500000920E-02 0. -1.
    10030    2    1    2    0    0  0.00000000000E+00  0.00000000000E+00  0.19927371444E+02  0.28972205201E+04  0.28971519881E+04 0.  0.
        2    1    3    3  502    0 -0.10628543199E+04 -0.16616488460E+03 -0.96016355349E+03  0.14419376282E+04  0.25500000920E-02 0. -1.
       -2    1    3    3    0  502  0.10628543199E+04  0.16616488460E+03  0.98009092494E+03  0.14552828919E+04  0.25500000920E-02 0.  1.
</event>
<event>
 5   0  0.2492232E-07  0.2900082E+04  0.7818609E-02  0.8272853E-01
       -2   -1    0    0    0  501  0.00000000000E+00  0.00000000000E+00  0.15253752875E+04  0.15253752875E+04  0.25500000920E-02 0. -1.
        2   -1    0    0  501    0  0.00000000000E+00  0.00000000000E+00 -0.13784268036E+04  0.13784268036E+04  0.25500000920E-02 0.  1.
    10030    2    1    2    0    0  0.00000000000E+00  0.00000000000E+00  0.14694848395E+03  0.29038020911E+04  0.29000815036E+04 0.  0.
        4    1    3    3  502    0 -0.59185869152E+02 -0.47058225997E+03 -0.12985632352E+04  0.13824683429E+04  0.12699999809E+01 0.  1.
       -4    1    3    3    0  502  0.59185869152E+02  0.47058225997E+03  0.14455117191E+04  0.15213337482E+04  0.12699999809E+01 0. -1.
</event>
<event>
 5   0  0.2534588E-07  0.2899023E+04  0.7818609E-02  0.8273168E-01
       -2   -1    0    0    0  501  0.00000000000E+00  0.00000000000E+00  0.10641484526E+04  0.10641484526E+04  0.25500000920E-02 0. -1.
        2   -1    0    0  501    0  0.00000000000E+00  0.00000000000E+00 -0.19744267647E+04  0.19744267647E+04  0.25500000920E-02 0.  1.
    10030    2    1    2    0    0  0.00000000000E+00  0.00000000000E+00 -0.91027831208E+03  0.30385752172E+04  0.28990227225E+04 0.  0.
        3    1    3    3  502    0  0.33022342080E+03 -0.23781154509E+03  0.10030466486E+04  0.10824529680E+04  0.10100000352E+00 0. -1.
       -3    1    3    3    0  502 -0.33022342080E+03  0.23781154509E+03 -0.19133249606E+04  0.19561222492E+04  0.10100000352E+00 0.  1.
</event>
<event>
 5   0  0.2678723E-07  0.2899174E+04  0.7818609E-02  0.8273123E-01
        2   -1    0    0  501    0  0.00000000000E+00  0.00000000000E+00  0.21512885965E+04  0.21512885965E+04  0.25500000920E-02 0.  1.
       -2   -1    0    0    0  501  0.00000000000E+00  0.00000000000E+00 -0.97676485673E+03  0.97676485674E+03  0.25500000920E-02 0. -1.
    10030    2    1    2    0    0  0.00000000000E+00  0.00000000000E+00  0.11745237397E+04  0.31280534532E+04  0.28991744327E+04 0.  0.
        5    1    3    3  502    0  0.71919645777E+02  0.71104294677E+03  0.19479865895E+04  0.20749526140E+04  0.46999998093E+01 0.  1.
       -5    1    3    3    0  502 -0.71919645777E+02 -0.71104294677E+03 -0.77346284974E+03  0.10531008392E+04  0.46999998093E+01 0. -1.
</event>
<event>
 5   0  0.2546841E-07  0.2902450E+04  0.7818609E-02  0.8272149E-01
       -2   -1    0    0    0  501  0.00000000000E+00  0.00000000000E+00  0.98603588507E+03  0.98603588508E+03  0.25500000920E-02 0.  1.
        2   -1    0    0  501    0  0.00000000000E+00  0.00000000000E+00 -0.21358790765E+04  0.21358790765E+04  0.25500000920E-02 0. -1.
    10030    2    1    2    0    0  0.00000000000E+00  0.00000000000E+00 -0.11498431915E+04  0.31219149616E+04  0.29024495969E+04 0.  0.
        1    1    3    3  502    0  0.14791315043E+03  0.13922414635E+04 -0.16415704400E+03  0.14096673820E+04  0.50400001928E-02 0.  1.
       -1    1    3    3    0  502 -0.14791315043E+03 -0.13922414635E+04 -0.98568614747E+03  0.17122475796E+04  0.50400001928E-02 0. -1.
</event>
<event>
 5   0  0.2546841E-07  0.2896541E+04  0.7818609E-02  0.8273907E-01
        2   -1    0    0  501    0  0.00000000000E+00  0.00000000000E+00  0.20458090772E+04  0.20458090772E+04  0.25500000920E-02 0. -1.
       -2   -1    0    0    0  501  0.00000000000E+00  0.00000000000E+00 -0.10252606358E+04  0.10252606358E+04  0.25500000920E-02 0.  1.
    10030    2    1    2    0    0  0.00000000000E+00  0.00000000000E+00  0.10205484414E+04  0.30710697130E+04  0.28965410512E+04 0.  0.
        1    1    3    3  502    0  0.75549134726E+02 -0.25168023970E+03 -0.99977373015E+03  0.10337302000E+04  0.50400001928E-02 0.  1.
       -1    1    3    3    0  502 -0.75549134726E+02  0.25168023970E+03  0.20203221715E+04  0.20373395131E+04  0.50400001928E-02 0. -1.
</event>
<event>
 5   0  0.9395744E-08  0.2899358E+04  0.7818609E-02  0.8273068E-01
        1   -1    0    0  501    0  0.00000000000E+00  0.00000000000E+00  0.19938437003E+04  0.19938437003E+04  0.50400001928E-02 0.  1.
       -1   -1    0    0    0  501  0.00000000000E+00  0.00000000000E+00 -0.10540293251E+04  0.10540293251E+04  0.50400001928E-02 0. -1.
    10030    2    1    2    0    0  0.00000000000E+00  0.00000000000E+00  0.93981437517E+03  0.30478730254E+04  0.28993583634E+04 0.  0.
        2    1    3    3  502    0 -0.75997743611E+03 -0.58679120264E+03  0.16116731741E+04  0.18760010765E+04  0.25500000920E-02 0.  1.
       -2    1    3    3    0  502  0.75997743611E+03  0.58679120264E+03 -0.67185879896E+03  0.11718719489E+04  0.25500000920E-02 0. -1.
</event>
<event>
 5   0  0.2534588E-07  0.2891856E+04  0.7818609E-02  0.8275305E-01
        2   -1    0    0  501    0  0.00000000000E+00  0.00000000000E+00  0.18242147250E+04  0.18242147250E+04  0.25500000920E-02 0.  1.
       -2   -1    0    0    0  501  0.00000000000E+00  0.00000000000E+00 -0.11460866807E+04  0.11460866807E+04  0.25500000920E-02 0. -1.
    10030    2    1    2    0    0  0.00000000000E+00  0.00000000000E+00  0.67812804431E+03  0.29703014057E+04  0.28918562890E+04 0.  0.
        3    1    3    3  502    0 -0.99055891026E+03  0.24181036505E+03 -0.71394273899E+03  0.12447463405E+04  0.10100000352E+00 0. -1.
       -3    1    3    3    0  502  0.99055891026E+03 -0.24181036505E+03  0.13920707833E+04  0.17255550653E+04  0.10100000352E+00 0.  1.
</event>
<event>
 5   0  0.9443352E-08  0.2899441E+04  0.7818609E-02  0.8273044E-01
       -1   -1    0    0    0  501  0.00000000000E+00  0.00000000000E+00  0.10032482629E+04  0.10032482629E+04  0.50400001928E-02 0.  1.
        1   -1    0    0  501    0  0.00000000000E+00  0.00000000000E+00 -0.20948853275E+04  0.20948853276E+04  0.50400001928E-02 0. -1.
    10030    2    1    2    0    0  0.00000000000E+00  0.00000000000E+00 -0.10916370646E+04  0.30981335905E+04  0.28994413710E+04 0.  0.
        4    1    3    3  502    0 -0.61630653998E+03  0.87845487235E+03  0.49574763291E+03  0.11820676979E+04  0.12699999809E+01 0.  1.
       -4    1    3    3    0  502  0.61630653998E+03 -0.87845487235E+03 -0.15873846975E+04  0.19160658926E+04  0.12699999809E+01 0. -1.
</event>
<event>
 5   0  0.9421924E-08  0.2898785E+04  0.7818609E-02  0.8273239E-01
        1   -1    0    0  501    0  0.00000000000E+00  0.00000000000E+00  0.19844328225E+04  0.19844328225E+04  0.50400001928E-02 0. -1.
       -1   -1    0    0    0  501  0.00000000000E+00  0.00000000000E+00 -0.10586089149E+04  0.10586089149E+04  0.50400001928E-02 0.  1.
    10030    2    1    2    0    0  0.00000000000E+00  0.00000000000E+00  0.92582390765E+03  0.30430417374E+04  0.28987847640E+04 0.  0.
        1    1    3    3  502    0  0.84559569679E+03 -0.11450542615E+04  0.74955139958E+03  0.16087288910E+04  0.50400001928E-02 0.  1.
       -1    1    3    3    0  502 -0.84559569679E+03  0.11450542615E+04  0.17627250807E+03  0.14343128464E+04  0.50400001928E-02 0. -1.
</event>
<event>
 5   0  0.9388076E-08  0.2899691E+04  0.7818609E-02  0.8272970E-01
        1   -1    0    0  501    0  0.00000000000E+00  0.00000000000E+00  0.18227305295E+04  0.18227305295E+04  0.50400001928E-02 0.  1.
       -1   -1    0    0    0  501  0.00000000000E+00  0.00000000000E+00 -0.11532430642E+04  0.11532430642E+04  0.50400001928E-02 0. -1.
    10030    2    1    2    0    0  0.00000000000E+00  0.00000000000E+00  0.66948746525E+03  0.29759735937E+04  0.28996905635E+04 0.  0.
        5    1    3    3  502    0  0.75255025983E+03 -0.95408853542E+02  0.16028021637E+04  0.17732545245E+04  0.46999998093E+01 0.  1.
       -5    1    3    3    0  502 -0.75255025983E+03  0.95408853542E+02 -0.93331469844E+03  0.12027190691E+04  0.46999998093E+01 0. -1.
</event>
<event>
 5   0  0.2492232E-07  0.2897228E+04  0.7818609E-02  0.8273703E-01
       -2   -1    0    0    0  501  0.00000000000E+00  0.00000000000E+00  0.63236917987E+03  0.63236917987E+03  0.25500000920E-02 0.  1.
        2   -1    0    0  501    0  0.00000000000E+00  0.00000000000E+00 -0.33184455428E+04  0.33184455428E+04  0.25500000920E-02 0. -1.
    10030    2    1    2    0    0  0.00000000000E+00  0.00000000000E+00 -0.26860763629E+04  0.39508147227E+04  0.28972281142E+04 0.  0.
        4    1    3    3  502    0  0.44978518633E+03 -0.23227106706E+03 -0.31939053458E+04  0.32337732656E+04  0.12699999809E+01 0. -1.
       -4    1    3    3    0  502 -0.44978518633E+03  0.23227106706E+03  0.50782898287E+03  0.71704145708E+03  0.12699999809E+01 0.  1.
</event>
<event>
 5   0  0.9395744E-08  0.2902029E+04  0.7818609E-02  0.8272274E-01
       -1   -1    0    0    0  501  0.00000000000E+00  0.00000000000E+00  0.14987359090E+04  0.14987359090E+04  0.50400001928E-02 0. -1.
        1   -1    0    0  501    0  0.00000000000E+00  0.00000000000E+00 -0.14048129251E+04  0.14048129251E+04  0.50400001928E-02 0.  1.
    10030    2    1    2    0    0  0.00000000000E+00  0.00000000000E+00  0.93922983923E+02  0.29035488342E+04  0.29020293426E+04 0.  0.
        2    1    3    3  502    0  0.12373648900E+04  0.74278134282E+02 -0.70765782943E+03  0.14273642547E+04  0.25500000920E-02 0.  1.
       -2    1    3    3    0  502 -0.12373648900E+04 -0.74278134282E+02  0.80158081336E+03  0.14761845794E+04  0.25500000920E-02 0. -1.
</event>
<event>
 5   0  0.2608591E-07  0.2898770E+04  0.7818609E-02  0.8273244E-01
       -2   -1    0    0    0  501  0.00000000000E+00  0.00000000000E+00  0.77052527592E+03  0.77052527592E+03  0.25500000920E-02 0. -1.
        2   -1    0    0  501    0  0.00000000000E+00  0.00000000000E+00 -0.27263439578E+04  0.27263439578E+04  0.25500000920E-02 0.  1.
    10030    2    1    2    0    0  0.00000000000E+00  0.00000000000E+00 -0.19558186819E+04  0.34968692337E+04  0.28987700359E+04 0.  0.
        2    1    3    3  502    0 -0.11444150860E+04  0.56999547636E+03 -0.15429852081E+03  0.12877844407E+04  0.25500000920E-02 0. -1.
       -2    1    3    3    0  502  0.11444150860E+04 -0.56999547636E+03 -0.18015201611E+04  0.22090847930E+04  0.25500000920E-02 0.  1.
</event>
<event>
 5   0  0.2546841E-07  0.2899616E+04  0.7818609E-02  0.8272992E-01
        2   -1    0    0  501    0  0.00000000000E+00  0.00000000000E+00  0.15830240556E+04  0.15830240556E+04  0.25500000920E-02 0. -1.
       -2   -1    0    0    0  501  0.00000000000E+00  0.00000000000E+00 -0.13278024263E+04  0.13278024263E+04  0.25500000920E-02 0.  1.
    10030    2    1    2    0    0  0.00000000000E+00  0.00000000000E+00  0.25522162929E+03  0.29108264818E+04  0.28996159620E+04 0.  0.
        1    1    3    3  502    0  0.12780320676E+04 -0.33580268083E+03 -0.47119666246E+03  0.14029097266E+04  0.50400001928E-02 0. -1.
       -1    1    3    3    0  502 -0.12780320676E+04  0.33580268083E+03  0.72641829175E+03  0.15079167552E+04  0.50400001928E-02 0.  1.
</event>
<event>
 5   0  0.2678723E-07  0.2898618E+04  0.7818609E-02  0.8273289E-01
       -2   -1    0    0    0  501  0.00000000000E+00  0.00000000000E+00  0.14491899179E+04  0.14491899179E+04  0.25500000920E-02 0.  1.
        2   -1    0    0  501    0  0.00000000000E+00  0.00000000000E+00 -0.14494279186E+04  0.14494279186E+04  0.25500000920E-02 0. -1.
    10030    2    1    2    0    0  0.00000000000E+00  0.00000000000E+00 -0.23800061233E+00  0.28986178365E+04  0.28986178267E+04 0.  0.
        5    1    3    3  502    0  0.78978221258E+03 -0.96311481237E+03 -0.74115081808E+03  0.14493697631E+04  0.46999998093E+01 0. -1.
       -5    1    3    3    0  502 -0.78978221258E+03  0.96311481237E+03  0.74091281747E+03  0.14492480734E+04  0.46999998093E+01 0.  1.
</event>
<event>
 5   0  0.9395744E-08  0.2900529E+04  0.7818609E-02  0.8272720E-01
       -1   -1    0    0    0  501  0.00000000000E+00  0.00000000000E+00  0.72729378129E+03  0.72729378131E+03  0.50400001928E-02 0.  1.
        1   -1    0    0  501    0  0.00000000000E+00  0.00000000000E+00 -0.28919089879E+04  0.28919089879E+04  0.50400001928E-02 0. -1.
    10030    2    1    2    0    0  0.00000000000E+00  0.00000000000E+00 -0.21646152066E+04  0.36192027692E+04  0.29005292089E+04 0.  0.
        2    1    3    3  502    0  0.42506921344E+03  0.25120460143E+03  0.61919026291E+03  0.79194960047E+03  0.25500000920E-02 0.  1.
       -2    1    3    3    0  502 -0.42506921344E+03 -0.25120460143E+03 -0.27838054695E+04  0.28272531687E+04  0.25500000920E-02 0. -1.
</event>
<event>
 5   0  0.9443352E-08  0.2889495E+04  0.7818609E-02  0.8276010E-01
       -1   -1    0    0    0  501  0.00000000000E+00  0.00000000000E+00  0.93313864108E+03  0.93313864110E+03  0.50400001928E-02 0. -1.
        1   -1    0    0  501    0  0.00000000000E+00  0.00000000000E+00 -0.22368537053E+04  0.22368537053E+04  0.50400001928E-02 0.  1.
    10030    2    1    2    0    0  0.00000000000E+00  0.00000000000E+00 -0.13037150642E+04  0.31699923464E+04  0.28894945073E+04 0.  0.
        4    1    3    3  502    0  0.47600775657E+03 -0.11335156895E+04 -0.14843718455E+04  0.19273823158E+04  0.12699999809E+01 0.  1.
       -4    1    3    3    0  502 -0.47600775657E+03  0.11335156895E+04  0.18065678127E+03  0.12426100306E+04  0.12699999809E+01 0. -1.
</event>
<event>
 5   0  0.2492232E-07  0.2898633E+04  0.7818609E-02  0.8273284E-01
       -2   -1    0    0    0  501  0.00000000000E+00  0.00000000000E+00  0.12959315102E+04  0.12959315102E+04  0.25500000920E-02 0. -1.
        2   -1    0    0  501    0  0.00000000000E+00  0.00000000000E+00 -0.16208557085E+04  0.16208557085E+04  0.25500000920E-02 0.  1.
    10030    2    1    2    0    0  0.00000000000E+00  0.00000000000E+00 -0.32492419829E+03  0.29167872186E+04  0.28986327715E+04 0.  0.
        4    1    3    3  502    0  0.45355068289E+03 -0.78548999716E+03  0.97502192556E+03  0.13316801890E+04  0.12699999809E+01 0. -1.
       -4    1    3    3    0  502 -0.45355068289E+03  0.78548999716E+03 -0.12999461238E+04  0.15851070296E+04  0.12699999809E+01 0.  1.
</event>
<event>
 5   0  0.2534588E-07  0.2900077E+04  0.7818609E-02  0.8272855E-01
        2   -1    0    0  501    0  0.00000000000E+00  0.00000000000E+00  0.12073773254E+04  0.12073773254E+04  0.25500000920E-02 0.  1.
       -2   -1    0    0    0  501  0.00000000000E+00  0.00000000000E+00 -0.17414701194E+04  0.17414701194E+04  0.25500000920E-02 0. -1.
    10030    2    1    2    0    0  0.00000000000E+00  0.00000000000E+00 -0.53409279398E+03  0.29488474447E+04  0.29000769196E+04 0.  0.
        3    1    3    3  502    0 -0.15851913367E+03 -0.44128221989E+03  0.11281633029E+04  0.12217245032E+04  0.10100000352E+00 0.  1.
       -3    1    3    3    0  502  0.15851913367E+03  0.44128221989E+03 -0.16622560969E+04  0.17271229416E+04  0.10100000352E+00 0. -1.
</event>
<event>
 5   0  0.9421924E-08  0.2900463E+04  0.7818609E-02  0.8272740E-01
       -1   -1    0    0    0  501  0.00000000000E+00  0.00000000000E+00  0.12790511412E+04  0.12790511412E+04  0.50400001928E-02 0.  1.
        1   -1    0    0  501    0  0.00000000000E+00  0.00000000000E+00 -0.16443216279E+04  0.16443216279E+04  0.50400001928E-02 0. -1.
    10030    2    1    2    0    0  0.00000000000E+00  0.00000000000E+00 -0.36527048671E+03  0.29233727691E+04  0.29004630352E+04 0.  0.
        1    1    3    3  502    0 -0.96702170371E+03 -0.79675933543E+03  0.55334822246E+03  0.13697264944E+04  0.50400001928E-02 0. -1.
       -1    1    3    3    0  502  0.96702170371E+03  0.79675933543E+03 -0.91861870917E+03  0.15536462747E+04  0.50400001928E-02 0.  1.
</event>
<event>
 5   0  0.9763851E-08  0.2901513E+04  0.7818609E-02  0.8272427E-01
        1   -1    0    0  501    0  0.00000000000E+00  0.00000000000E+00  0.16674021088E+04  0.16674021088E+04  0.50400001928E-02 0. -1.
       -1   -1    0    0    0  501  0.00000000000E+00  0.00000000000E+00 -0.12622597207E+04  0.12622597208E+04  0.50400001928E-02 0.  1.
    10030    2    1    2    0    0  0.00000000000E+00  0.00000000000E+00  0.40514238809E+03  0.29296618296E+04  0.29015130675E+04 0.  0.
        3    1    3    3  502    0 -0.78811684877E+03 -0.10333396662E+04  0.85363326778E+03  0.15548661676E+04  0.10100000352E+00 0. -1.
       -3    1    3    3    0  502  0.78811684877E+03  0.10333396662E+04 -0.44849087970E+03  0.13747956620E+04  0.10100000352E+00 0.  1.
</event>
<event>
 5   0  0.9395744E-08  0.2899663E+04  0.7818609E-02  0.8272978E-01
        1   -1    0    0  501    0  0.00000000000E+00  0.00000000000E+00  0.12556347755E+04  0.12556347755E+04  0.50400001928E-02 0.  1.
       -1   -1    0    0    0  501  0.00000000000E+00  0.00000000000E+00 -0.16740628300E+04  0.16740628300E+04  0.50400001928E-02 0. -1.
    10030    2    1    2    0    0  0.00000000000E+00  0.00000000000E+00 -0.41842805446E+03  0.29296976055E+04  0.28996630879E+04 0.  0.
        2    1    3    3  502    0  0.12426809354E+04  0.40330159587E+03  0.42586921199E+03  0.13741443411E+04  0.25500000920E-02 0. -1.
       -2    1    3    3    0  502 -0.12426809354E+04 -0.40330159587E+03 -0.84429726645E+03  0.15555532645E+04  0.25500000920E-02 0.  1.
</event>
<event>
 5   0  0.9395744E-08  0.2898123E+04  0.7818609E-02  0.8273436E-01
       -1   -1    0    0    0  501  0.00000000000E+00  0.00000000000E+00  0.12228789161E+04  0.12228789161E+04  0.50400001928E-02 0. -1.
        1   -1    0    0  501    0  0.00000000000E+00  0.00000000000E+00 -0.17170783434E+04  0.17170783434E+04  0.50400001928E-02 0.  1.
    10030    2    1    2    0    0  0.00000000000E+00  0.00000000000E+00 -0.49419942725E+03  0.29399572595E+04  0.28981227741E+04 0.  0.
        2    1    3    3  502    0 -0.88608945096E+03  0.39839692094E+03 -0.13377491351E+04  0.16533140567E+04  0.25500000920E-02 0.  1.
       -2    1    3    3    0  502  0.88608945096E+03 -0.39839692094E+03  0.84354970784E+03  0.12866432028E+04  0.25500000920E-02 0. -1.
</event>
<event>
 5   0  0.2678723E-07  0.2900759E+04  0.7818609E-02  0.8272652E-01
        2   -1    0    0  501    0  0.00000000000E+00  0.00000000000E+00  0.10085918470E+04  0.10085918470E+04  0.25500000920E-02 0.  1.
       -2   -1    0    0    0  501  0.00000000000E+00  0.00000000000E+00 -0.20856802598E+04  0.20856802598E+04  0.25500000920E-02 0. -1.
    10030    2    1    2    0    0  0.00000000000E+00  0.00000000000E+00 -0.10770884128E+04  0.30942721067E+04  0.29007585942E+04 0.  0.
        5    1    3    3  502    0 -0.14332401814E+03  0.44625501035E+03  0.92557014354E+03  0.10374909585E+04  0.46999998093E+01 0.  1.
       -5    1    3    3    0  502  0.14332401814E+03 -0.44625501035E+03 -0.20026585563E+04  0.20567811482E+04  0.46999998093E+01 0. -1.
</event>
<event>
 5   0  0.9388076E-08  0.2900351E+04  0.7818609E-02  0.8272773E-01
        1   -1    0    0  501    0  0.00000000000E+00  0.00000000000E+00  0.24950802686E+04  0.24950802686E+04  0.50400001928E-02 0.  1.
       -1   -1    0    0    0  501  0.00000000000E+00  0.00000000000E+00 -0.84286241267E+03  0.84286241269E+03  0.50400001928E-02 0. -1.
    10030    2    1    2    0    0  0.00000000000E+00  0.00000000000E+00  0.16522178559E+04  0.33379426812E+04  0.29003512718E+04 0.  0.
        5    1    3    3  502    0  0.11735216699E+04 -0.51058252755E+03  0.41198752423E+02  0.12804557994E+04  0.46999998093E+01 0. -1.
       -5    1    3    3    0  502 -0.11735216699E+04  0.51058252755E+03  0.16110191035E+04  0.20574868818E+04  0.46999998093E+01 0.  1.
</event>
<event>
 5   0  0.9763851E-08  0.2903097E+04  0.7818609E-02  0.8271957E-01
        1   -1    0    0  501    0  0.00000000000E+00  0.00000000000E+00  0.17638740123E+04  0.17638740124E+04  0.50400001928E-02 0.  1.
       -1   -1    0    0    0  501  0.00000000000E+00  0.00000000000E+00 -0.11945257425E+04  0.11945257425E+04  0.50400001928E-02 0. -1.
    10030    2    1    2    0    0  0.00000000000E+00  0.00000000000E+00  0.56934826985E+03  0.29583997549E+04  0.29030969080E+04 0.  0.
        3    1    3    3  502    0  0.10705604251E+04  0.37736363349E+03 -0.63726447907E+03  0.13017714708E+04  0.10100000352E+00 0. -1.
       -3    1    3    3    0  502 -0.10705604251E+04 -0.37736363349E+03  0.12066127489E+04  0.16566282841E+04  0.10100000352E+00 0.  1.
</event>
<event>
 5   0  0.9388076E-08  0.2898558E+04  0.7818609E-02  0.8273307E-01
        1   -1    0    0  501    0  0.00000000000E+00  0.00000000000E+00  0.23529548386E+04  0.23529548386E+04  0.50400001928E-02 0. -1.
       -1   -1    0    0    0  501  0.00000000000E+00  0.00000000000E+00 -0.89266890695E+03  0.89266890696E+03  0.50400001928E-02 0.  1.
    10030    2    1    2    0    0  0.00000000000E+00  0.00000000000E+00  0.14602859317E+04  0.32456237456E+04  0.28985580028E+04 0.  0.
        5    1    3    3  502    0 -0.76472041093E+03 -0.86568308318E+03 -0.24998423039E+03  0.11818285463E+04  0.46999998093E+01 0.  1.
       -5    1    3    3    0  502  0.76472041093E+03  0.86568308318E+03  0.17102701621E+04  0.20637951993E+04  0.46999998093E+01 0. -1.
</event>
<event>
 5   0  0.9421924E-08  0.2920599E+04  0.7818609E-02  0.8266775E-01
        1   -1    0    0  501    0  0.00000000000E+00  0.00000000000E+00  0.14353676923E+04  0.14353676924E+04  0.50400001928E-02 0. -1.
       -1   -1    0    0    0  501  0.00000000000E+00  0.00000000000E+00 -0.14856645297E+04  0.14856645298E+04  0.50400001928E-02 0.  1.
    10030    2    1    2    0    0  0.00000000000E+00  0.00000000000E+00 -0.50296837399E+02  0.29210322221E+04  0.29205991630E+04 0.  0.
        1    1    3    3  502    0 -0.13752420850E+04  0.32409863934E+03  0.34388345588E+03  0.14541618038E+04  0.50400001928E-02 0. -1.
       -1    1    3    3    0  502  0.13752420850E+04 -0.32409863934E+03 -0.39418029328E+03  0.14668704183E+04  0.50400001928E-02 0.  1.
</event>
<event>
 5   0  0.2608591E-07  0.2898285E+04  0.7818609E-02  0.8273388E-01
       -2   -1    0    0    0  501  0.00000000000E+00  0.00000000000E+00  0.80774631045E+03  0.80774631045E+03  0.25500000920E-02 0.  1.
        2   -1    0    0  501    0  0.00000000000E+00  0.00000000000E+00 -0.25998435963E+04  0.25998435963E+04  0.25500000920E-02 0. -1.
    10030    2    1    2    0    0  0.00000000000E+00  0.00000000000E+00 -0.17920972859E+04  0.34075899068E+04  0.28982850603E+04 0.  0.
        2    1    3    3  502    0  0.20408059747E+03 -0.19205401542E+03 -0.25676818755E+04  0.25829293155E+04  0.25500000920E-02 0. -1.
       -2    1    3    3    0  502 -0.20408059747E+03  0.19205401542E+03  0.77558458963E+03  0.82466059127E+03  0.25500000920E-02 0.  1.
</event>
<event>
 5   0  0.2546841E-07  0.2900972E+04  0.7818609E-02  0.8272588E-01
       -2   -1    0    0    0  501  0.00000000000E+00  0.00000000000E+00  0.16637750728E+04  0.16637750728E+04  0.25500000920E-02 0. -1.
        2   -1    0    0  501    0  0.00000000000E+00  0.00000000000E+00 -0.12645396252E+04  0.12645396252E+04  0.25500000920E-02 0.  1.
    10030    2    1    2    0    0  0.00000000000E+00  0.00000000000E+00  0.39923544762E+03  0.29283146980E+04  0.29009719109E+04 0.  0.
        1    1    3    3  502    0  0.29619611976E+03  0.83071780693E+03  0.13620293701E+04  0.16226361949E+04  0.50400001928E-02 0. -1.
       -1    1    3    3    0  502 -0.29619611976E+03 -0.83071780693E+03 -0.96279392247E+03  0.13056785030E+04  0.50400001928E-02 0.  1.
</event>
<event>
 5   0  0.8407500E-08  0.2902129E+04  0.7818609E-02  0.8272244E-01
       -3   -1    0    0    0  501  0.00000000000E+00  0.00000000000E+00  0.11403277447E+04  0.11403277492E+04  0.10100000352E+00 0. -1.
        3   -1    0    0  501    0  0.00000000000E+00  0.00000000000E+00 -0.18464758065E+04  0.18464758092E+04  0.10100000352E+00 0.  1.
    10030    2    1    2    0    0  0.00000000000E+00  0.00000000000E+00 -0.70614806173E+03  0.29868035585E+04  0.29021286001E+04 0.  0.
        4    1    3    3  502    0 -0.11327521064E+04 -0.72193484723E+03  0.21182006637E+03  0.13598480104E+04  0.12699999809E+01 0. -1.
       -4    1    3    3    0  502  0.11327521064E+04  0.72193484723E+03 -0.91796812810E+03  0.16269555480E+04  0.12699999809E+01 0.  1.
</event>
<event>
 5   0  0.9395744E-08  0.2899247E+04  0.7818609E-02  0.8273102E-01
       -1   -1    0    0    0  501  0.00000000000E+00  0.00000000000E+00  0.13502679151E+04  0.13502679151E+04  0.50400001928E-02 0.  1.
        1   -1    0    0  501    0  0.00000000000E+00  0.00000000000E+00 -0.15562894317E+04  0.15562894317E+04  0.50400001928E-02 0. -1.
    10030    2    1    2    0    0  0.00000000000E+00  0.00000000000E+00 -0.20602151665E+03  0.29065573468E+04  0.28992465823E+04 0.  0.
        2    1    3    3  502    0  0.71537392427E+03 -0.40123406830E+03 -0.13012900157E+04  0.15382146580E+04  0.25500000920E-02 0. -1.
       -2    1    3    3    0  502 -0.71537392427E+03  0.40123406830E+03  0.10952684991E+04  0.13683426888E+04  0.25500000920E-02 0.  1.
</event>
<event>
 5   0  0.9763851E-08  0.2900020E+04  0.7818609E-02  0.8272872E-01
        1   -1    0    0  501    0  0.00000000000E+00  0.00000000000E+00  0.13342425198E+04  0.13342425198E+04  0.50400001928E-02 0. -1.
       -1   -1    0    0    0  501  0.00000000000E+00  0.00000000000E+00 -0.15758217405E+04  0.15758217405E+04  0.50400001928E-02 0.  1.
    10030    2    1    2    0    0  0.00000000000E+00  0.00000000000E+00 -0.24157922075E+03  0.29100642603E+04  0.29000195653E+04 0.  0.
        3    1    3    3  502    0  0.12252252133E+04  0.98838175884E+01 -0.89888095643E+03  0.15196254464E+04  0.10100000352E+00 0.  1.
       -3    1    3    3    0  502 -0.12252252133E+04 -0.98838175884E+01  0.65730173568E+03  0.13904388139E+04  0.10100000352E+00 0. -1.
</event>
<event>
 5   0  0.2608591E-07  0.2902263E+04  0.7818609E-02  0.8272205E-01
        2   -1    0    0  501    0  0.00000000000E+00  0.00000000000E+00  0.11754989402E+04  0.11754989402E+04  0.25500000920E-02 0.  1.
       -2   -1    0    0    0  501  0.00000000000E+00  0.00000000000E+00 -0.17913941554E+04  0.17913941554E+04  0.25500000920E-02 0. -1.
    10030    2    1    2    0    0  0.00000000000E+00  0.00000000000E+00 -0.61589521523E+03  0.29668930956E+04  0.29022625182E+04 0.  0.
        2    1    3    3  502    0 -0.55198504411E+03  0.27134123566E+03 -0.16515484197E+04  0.17623636792E+04  0.25500000920E-02 0. -1.
       -2    1    3    3    0  502  0.55198504411E+03 -0.27134123566E+03  0.10356532044E+04  0.12045294164E+04  0.25500000920E-02 0.  1.
</event>
<event>
 5   0  0.2546841E-07  0.2909478E+04  0.7818609E-02  0.8270063E-01
       -2   -1    0    0    0  501  0.00000000000E+00  0.00000000000E+00  0.78074951205E+03  0.78074951206E+03  0.25500000920E-02 0.  1.
        2   -1    0    0  501    0  0.00000000000E+00  0.00000000000E+00 -0.27105558754E+04  0.27105558754E+04  0.25500000920E-02 0. -1.
    10030    2    1    2    0    0  0.00000000000E+00  0.00000000000E+00 -0.19298063634E+04  0.34913053875E+04  0.29094777381E+04 0.  0.
        1    1    3    3  502    0  0.24892165955E+03 -0.10805971028E+04 -0.20948028172E+04  0.23702006105E+04  0.50400001928E-02 0. -1.
       -1    1    3    3    0  502 -0.24892165955E+03  0.10805971028E+04  0.16499645382E+03  0.11211047770E+04  0.50400001928E-02 0.  1.
</event>
<event>
 5   0  0.9421924E-08  0.2890937E+04  0.7818609E-02  0.8275579E-01
        1   -1    0    0  501    0  0.00000000000E+00  0.00000000000E+00  0.11828392440E+04  0.11828392440E+04  0.50400001928E-02 0. -1.
       -1   -1    0    0    0  501  0.00000000000E+00  0.00000000000E+00 -0.17664102718E+04  0.17664102718E+04  0.50400001928E-02 0.  1.
    10030    2    1    2    0    0  0.00000000000E+00  0.00000000000E+00 -0.58357102775E+03  0.29492495158E+04  0.28909371425E+04 0.  0.
        1    1    3    3  502    0  0.92527600646E+03  0.39721041958E+03  0.76618004633E+03  0.12652840270E+04  0.50400001928E-02 0. -1.
       -1    1    3    3    0  502 -0.92527600646E+03 -0.39721041958E+03 -0.13497510741E+04  0.16839654888E+04  0.50400001928E-02 0.  1.
</event>
<event>
 5   0  0.2608591E-07  0.2898141E+04  0.7818609E-02  0.8273431E-01
       -2   -1    0    0    0  501  0.00000000000E+00  0.00000000000E+00  0.75153579578E+03  0.75153579578E+03  0.25500000920E-02 0. -1.
        2   -1    0    0  501    0  0.00000000000E+00  0.00000000000E+00 -0.27940195555E+04  0.27940195555E+04  0.25500000920E-02 0.  1.
    10030    2    1    2    0    0  0.00000000000E+00  0.00000000000E+00 -0.20424837597E+04  0.35455553513E+04  0.28981412733E+04 0.  0.
        2    1    3    3  502    0 -0.51215989012E+03 -0.10598539976E+04 -0.20551380086E+04  0.23683729613E+04  0.25500000920E-02 0.  1.
       -2    1    3    3    0  502  0.51215989012E+03  0.10598539976E+04  0.12654248936E+02  0.11771823900E+04  0.25500000920E-02 0. -1.
</event>
<event>
 5   0  0.9443352E-08  0.2901889E+04  0.7818609E-02  0.8272316E-01
       -1   -1    0    0    0  501  0.00000000000E+00  0.00000000000E+00  0.11015990781E+04  0.11015990781E+04  0.50400001928E-02 0.  1.
        1   -1    0    0  501    0  0.00000000000E+00  0.00000000000E+00 -0.19110759976E+04  0.19110759977E+04  0.50400001928E-02 0. -1.
    10030    2    1    2    0    0  0.00000000000E+00  0.00000000000E+00 -0.80947691957E+03  0.30126750757E+04  0.29018887347E+04 0.  0.
        4    1    3    3  502    0 -0.52771187308E+03 -0.67163573752E+03  0.81292606775E+03  0.11791627493E+04  0.12699999809E+01 0.  1.
       -4    1    3    3    0  502  0.52771187308E+03  0.67163573752E+03 -0.16224029873E+04  0.18335123264E+04  0.12699999809E+01 0. -1.
</event>
<event>
 5   0  0.9763851E-08  0.2891247E+04  0.7818609E-02  0.8275486E-01
       -1   -1    0    0    0  501  0.00000000000E+00  0.00000000000E+00  0.93073073823E+03  0.93073073824E+03  0.50400001928E-02 0. -1.
        1   -1    0    0  501    0  0.00000000000E+00  0.00000000000E+00 -0.22453624949E+04  0.22453624949E+04  0.50400001928E-02 0.  1.
    10030    2    1    2    0    0  0.00000000000E+00  0.00000000000E+00 -0.13146317567E+04  0.31760932332E+04  0.28912474073E+04 0.  0.
        3    1    3    3  502    0 -0.97852300207E+03 -0.18981827016E+03 -0.18075086697E+04  0.20641283493E+04  0.10100000352E+00 0.  1.
       -3    1    3    3    0  502  0.97852300207E+03  0.18981827016E+03  0.49287691303E+03  0.11119648838E+04  0.10100000352E+00 0. -1.
</event>
<event>
 5   0  0.2678723E-07  0.2895704E+04  0.7818609E-02  0.8274157E-01
        2   -1    0    0  501    0  0.00000000000E+00  0.00000000000E+00  0.14519460995E+04  0.14519460995E+04  0.25500000920E-02 0.  1.
       -2   -1    0    0    0  501  0.00000000000E+00  0.00000000000E+00 -0.14437698844E+04  0.14437698844E+04  0.25500000920E-02 0. -1.
    10030    2    1    2    0    0  0.00000000000E+00  0.00000000000E+00  0.81762150687E+01  0.28957159839E+04  0.28957044409E+04 0.  0.
        5    1    3    3  502    0  0.20208808267E+02 -0.14118427302E+04 -0.31614070004E+03  0.14469538081E+04  0.46999998093E+01 0. -1.
       -5    1    3    3    0  502 -0.20208808267E+02  0.14118427302E+04  0.32431691511E+03  0.14487621758E+04  0.46999998093E+01 0.  1.
</event>
<event>
 5   0  0.2608591E-07  0.2899456E+04  0.7818609E-02  0.8273039E-01
       -2   -1    0    0    0  501  0.00000000000E+00  0.00000000000E+00  0.11417916704E+04  0.11417916705E+04  0.25500000920E-02 0.  1.
        2   -1    0    0  501    0  0.00000000000E+00  0.00000000000E+00 -0.18407133370E+04  0.18407133370E+04  0.25500000920E-02 0. -1.
    10030    2    1    2    0    0  0.00000000000E+00  0.00000000000E+00 -0.69892166659E+03  0.29825050075E+04  0.28994559186E+04 0.  0.
        2    1    3    3  502    0  0.90853265741E+03  0.79124625298E+03 -0.11789126012E+04  0.16856266324E+04  0.25500000920E-02 0. -1.
       -2    1    3    3    0  502 -0.90853265741E+03 -0.79124625298E+03  0.47999093466E+03  0.12968783751E+04  0.25500000920E-02 0.  1.
</event>
<event>
 5   0  0.8407500E-08  0.2898080E+04  0.7818609E-02  0.8273449E-01
        3   -1    0    0  501    0  0.00000000000E+00  0.00000000000E+00  0.14252633933E+04  0.14252633969E+04  0.10100000352E+00 0.  1.
       -3   -1    0    0    0  501  0.00000000000E+00  0.00000000000E+00 -0.14732133741E+04  0.14732133776E+04  0.10100000352E+00 0. -1.
    10030    2    1    2    0    0  0.00000000000E+00  0.00000000000E+00 -0.47949980840E+02  0.28984767744E+04  0.28980801251E+04 0.  0.
        2    1    3    3  502    0  0.11873733438E+04  0.78489261487E+03 -0.29568335016E+03  0.14537333036E+04  0.25500000920E-02 0. -1.
       -2    1    3    3    0  502 -0.11873733438E+04 -0.78489261487E+03  0.24773336931E+03  0.14447434709E+04  0.25500000920E-02 0.  1.
</event>
<event>
 5   0  0.9395744E-08  0.2909526E+04  0.7818609E-02  0.8270049E-01
       -1   -1    0    0    0  501  0.00000000000E+00  0.00000000000E+00  0.69465791896E+03  0.69465791898E+03  0.50400001928E-02 0. -1.
        1   -1    0    0  501    0  0.00000000000E+00  0.00000000000E+00 -0.30465874434E+04  0.30465874434E+04  0.50400001928E-02 0.  1.
    10030    2    1    2    0    0  0.00000000000E+00  0.00000000000E+00 -0.23519295244E+04  0.37412453624E+04  0.29095264862E+04 0.  0.
        2    1    3    3  502    0  0.16995387690E+03 -0.89496507170E+03 -0.26344329631E+04  0.27874870111E+04  0.25500000920E-02 0.  1.
       -2    1    3    3    0  502 -0.16995387690E+03  0.89496507170E+03  0.28250343866E+03  0.95375835131E+03  0.25500000920E-02 0. -1.
</event>
<event>
 5   0  0.9421924E-08  0.2899608E+04  0.7818609E-02  0.8272994E-01
        1   -1    0    0  501    0  0.00000000000E+00  0.00000000000E+00  0.18433846913E+04  0.18433846913E+04  0.50400001928E-02 0. -1.
       -1   -1    0    0    0  501  0.00000000000E+00  0.00000000000E+00 -0.11402566934E+04  0.11402566934E+04  0.50400001928E-02 0.  1.
    10030    2    1    2    0    0  0.00000000000E+00  0.00000000000E+00  0.70312799789E+03  0.29836413847E+04  0.28996080651E+04 0.  0.
        1    1    3    3  502    0 -0.15304335696E+03  0.11492852023E+04 -0.54409458676E+03  0.12807488687E+04  0.50400001928E-02 0. -1.
       -1    1    3    3    0  502  0.15304335696E+03 -0.11492852023E+04  0.12472225847E+04  0.17028925160E+04  0.50400001928E-02 0.  1.
</event>
<event>
 5   0  0.2608591E-07  0.2889289E+04  0.7818609E-02  0.8276072E-01
        2   -1    0    0  501    0  0.00000000000E+00  0.00000000000E+00  0.19664108014E+04  0.19664108014E+04  0.25500000920E-02 0. -1.
       -2   -1    0    0    0  501  0.00000000000E+00  0.00000000000E+00 -0.10613230299E+04  0.10613230299E+04  0.25500000920E-02 0.  1.
    10030    2    1    2    0    0  0.00000000000E+00  0.00000000000E+00  0.90508777151E+03  0.30277338313E+04  0.28892885420E+04 0.  0.
        2    1    3    3  502    0 -0.64019474468E+03 -0.25496199890E+03  0.17830854415E+04  0.19116089097E+04  0.25500000920E-02 0. -1.
       -2    1    3    3    0  502  0.64019474468E+03  0.25496199890E+03 -0.87799767001E+03  0.11161249216E+04  0.25500000920E-02 0.  1.
</event>
<event>
 5   0  0.9421924E-08  0.2906783E+04  0.7818609E-02  0.8270862E-01
        1   -1    0    0  501    0  0.00000000000E+00  0.00000000000E+00  0.14315034223E+04  0.14315034223E+04  0.50400001928E-02 0.  1.
       -1   -1    0    0    0  501  0.00000000000E+00  0.00000000000E+00 -0.14756144915E+04  0.14756144915E+04  0.50400001928E-02 0. -1.
    10030    2    1    2    0    0  0.00000000000E+00  0.00000000000E+00 -0.44111069248E+02  0.29071179138E+04  0.29067832355E+04 0.  0.
        1    1    3    3  502    0  0.13300817481E+04 -0.93861399990E+02 -0.60041250751E+03  0.14623346396E+04  0.50400001928E-02 0. -1.
       -1    1    3    3    0  502 -0.13300817481E+04  0.93861399990E+02  0.55630143827E+03  0.14447832742E+04  0.50400001928E-02 0.  1.
</event>
<event>
 5   0  0.2678723E-07  0.2899829E+04  0.7818609E-02  0.8272928E-01
        2   -1    0    0  501    0  0.00000000000E+00  0.00000000000E+00  0.15980110238E+04  0.15980110238E+04  0.25500000920E-02 0.  1.
       -2   -1    0    0    0  501  0.00000000000E+00  0.00000000000E+00 -0.13155427584E+04  0.13155427584E+04  0.25500000920E-02 0. -1.
    10030    2    1    2    0    0  0.00000000000E+00  0.00000000000E+00  0.28246826533E+03  0.29135537822E+04  0.28998288434E+04 0.  0.
        5    1    3    3  502    0  0.13547444930E+04  0.49962407814E+03  0.27328250281E+03  0.14695789455E+04  0.46999998093E+01 0. -1.
       -5    1    3    3    0  502 -0.13547444930E+04 -0.49962407814E+03  0.91857625215E+01  0.14439748367E+04  0.46999998093E+01 0.  1.
</event>
<event>
 5   0  0.9763851E-08  0.2900745E+04  0.7818609E-02  0.8272656E-01
        1   -1    0    0  501    0  0.00000000000E+00  0.00000000000E+00  0.10961762250E+04  0.10961762250E+04  0.50400001928E-02 0. -1.
       -1   -1    0    0    0  501  0.00000000000E+00  0.00000000000E+00 -0.19190171053E+04  0.19190171053E+04  0.50400001928E-02 0.  1.
    10030    2    1    2    0    0  0.00000000000E+00  0.00000000000E+00 -0.82284088034E+03  0.30151933303E+04  0.29007453706E+04 0.  0.
        3    1    3    3  502    0  0.39201774113E+03 -0.41952872679E+03 -0.17958471133E+04  0.18854042343E+04  0.10100000352E+00 0.  1.
       -3    1    3    3    0  502 -0.39201774113E+03  0.41952872679E+03  0.97300623298E+03  0.11297890961E+04  0.10100000352E+00 0. -1.
</event>
<event>
 5   0  0.8407500E-08  0.2897145E+04  0.7818609E-02  0.8273727E-01
        3   -1    0    0  501    0  0.00000000000E+00  0.00000000000E+00  0.22025649292E+04  0.22025649315E+04  0.10100000352E+00 0. -1.
       -3   -1    0    0    0  501  0.00000000000E+00  0.00000000000E+00 -0.95269048364E+03  0.95269048900E+03  0.10100000352E+00 0.  1.
    10030    2    1    2    0    0  0.00000000000E+00  0.00000000000E+00  0.12498744456E+04  0.31552554205E+04  0.28971452568E+04 0.  0.
        5    1    3    3  502    0  0.19733086959E+03  0.62725661002E+03 -0.78077125546E+03  0.10207919329E+04  0.46999998093E+01 0.  1.
       -5    1    3    3    0  502 -0.19733086959E+03 -0.62725661002E+03  0.20306457011E+04  0.21344634876E+04  0.46999998093E+01 0. -1.
</event>
<event>
 5   0  0.9388076E-08  0.2889660E+04  0.7818609E-02  0.8275960E-01
        1   -1    0    0  501    0  0.00000000000E+00  0.00000000000E+00  0.21433568710E+04  0.21433568710E+04  0.50400001928E-02 0. -1.
       -1   -1    0    0    0  501  0.00000000000E+00  0.00000000000E+00 -0.97395560297E+03  0.97395560298E+03  0.50400001928E-02 0.  1.
    10030    2    1    2    0    0  0.00000000000E+00  0.00000000000E+00  0.11694012680E+04  0.31173124740E+04  0.28896604878E+04 0.  0.
        5    1    3    3  502    0 -0.18250376688E+03 -0.13934583076E+04  0.22290060946E+03  0.14229337481E+04  0.46999998093E+01 0.  1.
       -5    1    3    3    0  502  0.18250376688E+03  0.13934583076E+04  0.94650065859E+03  0.16943787259E+04  0.46999998093E+01 0. -1.
</event>
<event>
 5   0  0.2608591E-07  0.2900219E+04  0.7818609E-02  0.8272812E-01
       -2   -1    0    0    0  501  0.00000000000E+00  0.00000000000E+00  0.12628044400E+04  0.12628044400E+04  0.25500000920E-02 0.  1.
        2   -1    0    0  501    0  0.00000000000E+00  0.00000000000E+00 -0.16651965650E+04  0.16651965650E+04  0.25500000920E-02 0. -1.
    10030    2    1    2    0    0  0.00000000000E+00  0.00000000000E+00 -0.40239212501E+03  0.29280010050E+04  0.29002190371E+04 0.  0.
        2    1    3    3  502    0 -0.81127253739E+02 -0.13486396699E+04 -0.73293584090E+03  0.15370769458E+04  0.25500000920E-02 0. -1.
       -2    1    3    3    0  502  0.81127253739E+02  0.13486396699E+04  0.33054371589E+03  0.13909240592E+04  0.25500000920E-02 0.  1.
</event>
<event>
 5   0  0.9421924E-08  0.2897163E+04  0.7818609E-02  0.8273722E-01
       -1   -1    0    0    0  501  0.00000000000E+00  0.00000000000E+00  0.11140239286E+04  0.11140239286E+04  0.50400001928E-02 0. -1.
        1   -1    0    0  501    0  0.00000000000E+00  0.00000000000E+00 -0.18836121261E+04  0.18836121261E+04  0.50400001928E-02 0.  1.
    10030    2    1    2    0    0  0.00000000000E+00  0.00000000000E+00 -0.76958819744E+03  0.29976360547E+04  0.28971634270E+04 0.  0.
        1    1    3    3  502    0  0.59295598062E+03  0.42487254475E+03  0.91011710293E+03  0.11663732744E+04  0.50400001928E-02 0. -1.
       -1    1    3    3    0  502 -0.59295598062E+03 -0.42487254475E+03 -0.16797053004E+04  0.18312627803E+04  0.50400001928E-02 0.  1.
</event>
<event>
 5   0  0.2608591E-07  0.2900255E+04  0.7818609E-02  0.8272802E-01
       -2   -1    0    0    0  501  0.00000000000E+00  0.00000000000E+00  0.11574522618E+04  0.11574522618E+04  0.25500000920E-02 0. -1.
        2   -1    0    0  501    0  0.00000000000E+00  0.00000000000E+00 -0.18168090679E+04  0.18168090679E+04  0.25500000920E-02 0.  1.
    10030    2    1    2    0    0  0.00000000000E+00  0.00000000000E+00 -0.65935680607E+03  0.29742613298E+04  0.29002549991E+04 0.  0.
        2    1    3    3  502    0 -0.59735695523E+02 -0.60640263566E+03 -0.16791503998E+04  0.17862918505E+04  0.25500000920E-02 0.  1.
       -2    1    3    3    0  502  0.59735695523E+02  0.60640263566E+03  0.10197935938E+04  0.11879694793E+04  0.25500000920E-02 0. -1.
</event>
<event>
 5   0  0.9395744E-08  0.2899695E+04  0.7818609E-02  0.8272968E-01
       -1   -1    0    0    0  501  0.00000000000E+00  0.00000000000E+00  0.12826479662E+04  0.12826479662E+04  0.50400001928E-02 0.  1.
        1   -1    0    0  501    0  0.00000000000E+00  0.00000000000E+00 -0.16388417784E+04  0.16388417784E+04  0.50400001928E-02 0. -1.
    10030    2    1    2    0    0  0.00000000000E+00  0.00000000000E+00 -0.35619381222E+03  0.29214897446E+04  0.28996945177E+04 0.  0.
        2    1    3    3  502    0 -0.13098731229E+04 -0.29364234714E+03 -0.72999489439E+03  0.15280333674E+04  0.25500000920E-02 0. -1.
       -2    1    3    3    0  502  0.13098731229E+04  0.29364234714E+03  0.37380108217E+03  0.13934563772E+04  0.25500000920E-02 0.  1.
</event>
<event>
 5   0  0.9395744E-08  0.2900861E+04  0.7818609E-02  0.8272621E-01
        1   -1    0    0  501    0  0.00000000000E+00  0.00000000000E+00  0.22990003266E+04  0.22990003266E+04  0.50400001928E-02 0. -1.
       -1   -1    0    0    0  501  0.00000000000E+00  0.00000000000E+00 -0.91507101464E+03  0.91507101466E+03  0.50400001928E-02 0.  1.
    10030    2    1    2    0    0  0.00000000000E+00  0.00000000000E+00  0.13839293120E+04  0.32140713413E+04  0.29008609492E+04 0.  0.
        2    1    3    3  502    0  0.64615199072E+03 -0.19143520233E+01  0.21307212553E+04  0.22265419663E+04  0.25500000920E-02 0. -1.
       -2    1    3    3    0  502 -0.64615199072E+03  0.19143520233E+01 -0.74679194332E+03  0.98752937499E+03  0.25500000920E-02 0.  1.
</event>
<event>
 5   0  0.9443352E-08  0.2900083E+04  0.7818609E-02  0.8272853E-01
       -1   -1    0    0    0  501  0.00000000000E+00  0.00000000000E+00  0.22109803966E+04  0.22109803966E+04  0.50400001928E-02 0.  1.
        1   -1    0    0  501    0  0.00000000000E+00  0.00000000000E+00 -0.95099017883E+03  0.95099017884E+03  0.50400001928E-02 0. -1.
    10030    2    1    2    0    0  0.00000000000E+00  0.00000000000E+00  0.12599902178E+04  0.31619705755E+04  0.29000832007E+04 0.  0.
        4    1    3    3  502    0 -0.37004722222E+03  0.30775146810E+03  0.21213504719E+04  0.21752644323E+04  0.12699999809E+01 0.  1.
       -4    1    3    3    0  502  0.37004722222E+03 -0.30775146810E+03 -0.86136025410E+03  0.98670614320E+03  0.12699999809E+01 0. -1.
</event>
<event>
 5   0  0.9443352E-08  0.2904542E+04  0.7818609E-02  0.8271527E-01
        1   -1    0    0  501    0  0.00000000000E+00  0.00000000000E+00  0.14106816103E+04  0.14106816103E+04  0.50400001928E-02 0.  1.
       -1   -1    0    0    0  501  0.00000000000E+00  0.00000000000E+00 -0.14950863125E+04  0.14950863125E+04  0.50400001928E-02 0. -1.
    10030    2    1    2    0    0  0.00000000000E+00  0.00000000000E+00 -0.84404702187E+02  0.29057679228E+04  0.29045417999E+04 0.  0.
        4    1    3    3  502    0  0.81581814876E+03  0.93420430259E+03 -0.79802920507E+03  0.14748386881E+04  0.12699999809E+01 0. -1.
       -4    1    3    3    0  502 -0.81581814876E+03 -0.93420430259E+03  0.71362450289E+03  0.14309292347E+04  0.12699999809E+01 0.  1.
</event>
<event>
 5   0  0.9388076E-08  0.2899391E+04  0.7818609E-02  0.8273059E-01
        1   -1    0    0  501    0  0.00000000000E+00  0.00000000000E+00  0.13890567754E+04  0.13890567754E+04  0.50400001928E-02 0.  1.
       -1   -1    0    0    0  501  0.00000000000E+00  0.00000000000E+00 -0.15129813334E+04  0.15129813334E+04  0.50400001928E-02 0. -1.
    10030    2    1    2    0    0  0.00000000000E+00  0.00000000000E+00 -0.12392455798E+03  0.29020381088E+04  0.28993909514E+04 0.  0.
        5    1    3    3  502    0  0.81471896972E+03  0.59303363472E+03  0.98116915858E+03  0.14064746351E+04  0.46999998093E+01 0.  1.
       -5    1    3    3    0  502 -0.81471896972E+03 -0.59303363472E+03 -0.11050937166E+04  0.14955634737E+04  0.46999998093E+01 0. -1.
</event>
<event>
 5   0  0.9763851E-08  0.2899789E+04  0.7818609E-02  0.8272940E-01
        1   -1    0    0  501    0  0.00000000000E+00  0.00000000000E+00  0.17104417601E+04  0.17104417601E+04  0.50400001928E-02 0.  1.
       -1   -1    0    0    0  501  0.00000000000E+00  0.00000000000E+00 -0.12290359868E+04  0.12290359868E+04  0.50400001928E-02 0. -1.
    10030    2    1    2    0    0  0.00000000000E+00  0.00000000000E+00  0.48140577332E+03  0.29394777469E+04  0.28997892865E+04 0.  0.
        3    1    3    3  502    0 -0.23458305871E+03  0.53869706043E+03  0.15843524002E+04  0.16897917838E+04  0.10100000352E+00 0.  1.
       -3    1    3    3    0  502  0.23458305871E+03 -0.53869706043E+03 -0.11029466269E+04  0.12496859631E+04  0.10100000352E+00 0. -1.
</event>
<event>
 5   0  0.2678723E-07  0.2901015E+04  0.7818609E-02  0.8272576E-01
        2   -1    0    0  501    0  0.00000000000E+00  0.00000000000E+00  0.19736654572E+04  0.19736654572E+04  0.25500000920E-02 0. -1.
       -2   -1    0    0    0  501  0.00000000000E+00  0.00000000000E+00 -0.10660227252E+04  0.10660227252E+04  0.25500000920E-02 0.  1.
    10030    2    1    2    0    0  0.00000000000E+00  0.00000000000E+00  0.90764273201E+03  0.30396881825E+04  0.29010151529E+04 0.  0.
        5    1    3    3  502    0 -0.14069749774E+04  0.23939071556E+03  0.18247588653E+03  0.14388210594E+04  0.46999998093E+01 0.  1.
       -5    1    3    3    0  502  0.14069749774E+04 -0.23939071556E+03  0.72516684548E+03  0.16008671230E+04  0.46999998093E+01 0. -1.
</event>
<event>
 5   0  0.9388076E-08  0.2896368E+04  0.7818609E-02  0.8273959E-01
        1   -1    0    0  501    0  0.00000000000E+00  0.00000000000E+00  0.20437952432E+04  0.20437952432E+04  0.50400001928E-02 0.  1.
       -1   -1    0    0    0  501  0.00000000000E+00  0.00000000000E+00 -0.10261480757E+04  0.10261480757E+04  0.50400001928E-02 0. -1.
    10030    2    1    2    0    0  0.00000000000E+00  0.00000000000E+00  0.10176471675E+04  0.30699433190E+04  0.28963677640E+04 0.  0.
        5    1    3    3  502    0 -0.45596787291E+02 -0.18027845577E+03  0.20310801338E+04  0.20395803462E+04  0.46999998093E+01 0.  1.
       -5    1    3    3    0  502  0.45596787291E+02  0.18027845577E+03 -0.10134329663E+04  0.10303629728E+04  0.46999998093E+01 0. -1.
</event>
<event>
 5   0  0.2546841E-07  0.2900835E+04  0.7818609E-02  0.8272629E-01
        2   -1    0    0  501    0  0.00000000000E+00  0.00000000000E+00  0.26047456149E+04  0.26047456149E+04  0.25500000920E-02 0.  1.
       -2   -1    0    0    0  501  0.00000000000E+00  0.00000000000E+00 -0.80764522390E+03  0.80764522390E+03  0.25500000920E-02 0. -1.
    10030    2    1    2    0    0  0.00000000000E+00  0.00000000000E+00  0.17971003910E+04  0.34123908388E+04  0.29008346078E+04 0.  0.
        1    1    3    3  502    0  0.24454122705E+03  0.95184986074E+03 -0.35628381339E+03  0.10453500489E+04  0.50400001928E-02 0. -1.
       -1    1    3    3    0  502 -0.24454122705E+03 -0.95184986074E+03  0.21533842044E+04  0.23670407899E+04  0.50400001928E-02 0.  1.
</event>
<event>
 5   0  0.9763851E-08  0.2898569E+04  0.7818609E-02  0.8273303E-01
        1   -1    0    0  501    0  0.00000000000E+00  0.00000000000E+00  0.17966074881E+04  0.17966074882E+04  0.50400001928E-02 0.  1.
       -1   -1    0    0    0  501  0.00000000000E+00  0.00000000000E+00 -0.11691069000E+04  0.11691069000E+04  0.50400001928E-02 0. -1.
    10030    2    1    2    0    0  0.00000000000E+00  0.00000000000E+00  0.62750058811E+03  0.29657143882E+04  0.28985694479E+04 0.  0.
        3    1    3    3  502    0 -0.50887931647E+03  0.61087897690E+03  0.15535520916E+04  0.17451806195E+04  0.10100000352E+00 0.  1.
       -3    1    3    3    0  502  0.50887931647E+03 -0.61087897690E+03 -0.92605150351E+03  0.12205337687E+04  0.10100000352E+00 0. -1.
</event>
<event>
 5   0  0.9443352E-08  0.2899388E+04  0.7818609E-02  0.8273060E-01
        1   -1    0    0  501    0  0.00000000000E+00  0.00000000000E+00  0.20232294335E+04  0.20232294335E+04  0.50400001928E-02 0.  1.
       -1   -1    0    0    0  501  0.00000000000E+00  0.00000000000E+00 -0.10387413388E+04  0.10387413388E+04  0.50400001928E-02 0. -1.
    10030    2    1    2    0    0  0.00000000000E+00  0.00000000000E+00  0.98448809468E+03  0.30619707722E+04  0.28993875563E+04 0.  0.
        4    1    3    3  502    0 -0.57328545670E+03 -0.10442788398E+04 -0.38017615021E+03  0.12504839176E+04  0.12699999809E+01 0. -1.
       -4    1    3    3    0  502  0.57328545670E+03  0.10442788398E+04  0.13646642449E+04  0.18114868546E+04  0.12699999809E+01 0.  1.
</event>
<event>
 5   0  0.2546841E-07  0.2899891E+04  0.7818609E-02  0.8272910E-01
       -2   -1    0    0    0  501  0.00000000000E+00  0.00000000000E+00  0.30895449339E+04  0.30895449339E+04  0.25500000920E-02 0.  1.
        2   -1    0    0  501    0  0.00000000000E+00  0.00000000000E+00 -0.68046985014E+03  0.68046985015E+03  0.25500000920E-02 0. -1.
    10030    2    1    2    0    0  0.00000000000E+00  0.00000000000E+00  0.24090750838E+04  0.37700147840E+04  0.28998911553E+04 0.  0.
        1    1    3    3  502    0 -0.91579654560E+03  0.31211918728E+03  0.26084997299E+04  0.27821525014E+04  0.50400001928E-02 0.  1.
       -1    1    3    3    0  502  0.91579654560E+03 -0.31211918728E+03 -0.19942464615E+03  0.98786228267E+03  0.50400001928E-02 0. -1.
</event>
<event>
 5   0  0.2534588E-07  0.2896735E+04  0.7818609E-02  0.8273849E-01
        2   -1    0    0  501    0  0.00000000000E+00  0.00000000000E+00  0.30454518510E+04  0.30454518510E+04  0.25500000920E-02 0. -1.
       -2   -1    0    0    0  501  0.00000000000E+00  0.00000000000E+00 -0.68882020464E+03  0.68882020464E+03  0.25500000920E-02 0.  1.
    10030    2    1    2    0    0  0.00000000000E+00  0.00000000000E+00  0.23566316464E+04  0.37342720557E+04  0.28967352432E+04 0.  0.
        3    1    3    3  502    0  0.71453784096E+03 -0.10292789510E+04  0.21148581947E+04  0.24581710028E+04  0.10100000352E+00 0. -1.
       -3    1    3    3    0  502 -0.71453784096E+03  0.10292789510E+04  0.24177345169E+03  0.12761010529E+04  0.10100000352E+00 0.  1.
</event>
<event>
 5   0  0.2546841E-07  0.2899007E+04  0.7818609E-02  0.8273173E-01
        2   -1    0    0  501    0  0.00000000000E+00  0.00000000000E+00  0.16422921715E+04  0.16422921715E+04  0.25500000920E-02 0. -1.
       -2   -1    0    0    0  501  0.00000000000E+00  0.00000000000E+00 -0.12793464081E+04  0.12793464081E+04  0.25500000920E-02 0.  1.
    10030    2    1    2    0    0  0.00000000000E+00  0.00000000000E+00  0.36294576336E+03  0.29216385796E+04  0.28990071340E+04 0.  0.
        1    1    3    3  502    0 -0.14467180457E+04  0.55798910084E+02  0.25240678098E+03  0.14696311800E+04  0.50400001928E-02 0. -1.
       -1    1    3    3    0  502  0.14467180457E+04 -0.55798910084E+02  0.11053898238E+03  0.14520073997E+04  0.50400001928E-02 0.  1.
</event>
<event>
 5   0  0.2534588E-07  0.2898574E+04  0.7818609E-02  0.8273302E-01
        2   -1    0    0  501    0  0.00000000000E+00  0.00000000000E+00  0.12138469297E+04  0.12138469297E+04  0.25500000920E-02 0.  1.
       -2   -1    0    0    0  501  0.00000000000E+00  0.00000000000E+00 -0.17303932785E+04  0.17303932785E+04  0.25500000920E-02 0. -1.
    10030    2    1    2    0    0  0.00000000000E+00  0.00000000000E+00 -0.51654634882E+03  0.29442402083E+04  0.28985738344E+04 0.  0.
        3    1    3    3  502    0 -0.86774404246E+03 -0.11596819770E+04 -0.30997246961E+03  0.14811903838E+04  0.10100000352E+00 0.  1.
       -3    1    3    3    0  502  0.86774404246E+03  0.11596819770E+04 -0.20657387921E+03  0.14630498244E+04  0.10100000352E+00 0. -1.
</event>
<event>
 5   0  0.2608591E-07  0.2899764E+04  0.7818609E-02  0.8272948E-01
        2   -1    0    0  501    0  0.00000000000E+00  0.00000000000E+00  0.18249760105E+04  0.18249760105E+04  0.25500000920E-02 0.  1.
       -2   -1    0    0    0  501  0.00000000000E+00  0.00000000000E+00 -0.11518826989E+04  0.11518826989E+04  0.25500000920E-02 0. -1.
    10030    2    1    2    0    0  0.00000000000E+00  0.00000000000E+00  0.67309331166E+03  0.29768587094E+04  0.28997643300E+04 0.  0.
        2    1    3    3  502    0 -0.11976917156E+04 -0.16394472818E+03  0.11583385330E+04  0.16742435535E+04  0.25500000920E-02 0. -1.
       -2    1    3    3    0  502  0.11976917156E+04  0.16394472818E+03 -0.48524522129E+03  0.13026151559E+04  0.25500000920E-02 0.  1.
</event>
<event>
 5   0  0.2546841E-07  0.2899727E+04  0.7818609E-02  0.8272959E-01
       -2   -1    0    0    0  501  0.00000000000E+00  0.00000000000E+00  0.96698318189E+03  0.96698318189E+03  0.25500000920E-02 0.  1.
        2   -1    0    0  501    0  0.00000000000E+00  0.00000000000E+00 -0.21738793908E+04  0.21738793908E+04  0.25500000920E-02 0. -1.
    10030    2    1    2    0    0  0.00000000000E+00  0.00000000000E+00 -0.12068962089E+04  0.31408625727E+04  0.28997274426E+04 0.  0.
        1    1    3    3  502    0  0.24020431860E+03 -0.54586583629E+03 -0.20348719265E+04  0.21204648979E+04  0.50400001928E-02 0. -1.
       -1    1    3    3    0  502 -0.24020431860E+03  0.54586583629E+03  0.82797571756E+03  0.10203976748E+04  0.50400001928E-02 0.  1.
</event>
<event>
 5   0  0.9388076E-08  0.2897874E+04  0.7818609E-02  0.8273510E-01
       -1   -1    0    0    0  501  0.00000000000E+00  0.00000000000E+00  0.17501723446E+04  0.17501723446E+04  0.50400001928E-02 0. -1.
        1   -1    0    0  501    0  0.00000000000E+00  0.00000000000E+00 -0.11995498474E+04  0.11995498474E+04  0.50400001928E-02 0.  1.
    10030    2    1    2    0    0  0.00000000000E+00  0.00000000000E+00  0.55062249721E+03  0.29497221920E+04  0.28978743720E+04 0.  0.
        5    1    3    3  502    0  0.11278885452E+04 -0.47396438615E+03  0.10654876906E+04  0.16223627580E+04  0.46999998093E+01 0. -1.
       -5    1    3    3    0  502 -0.11278885452E+04  0.47396438615E+03 -0.51486519337E+03  0.13273594340E+04  0.46999998093E+01 0.  1.
</event>
<event>
 5   0  0.9388076E-08  0.2900206E+04  0.7818609E-02  0.8272816E-01
       -1   -1    0    0    0  501  0.00000000000E+00  0.00000000000E+00  0.19920366597E+04  0.19920366597E+04  0.50400001928E-02 0. -1.
        1   -1    0    0  501    0  0.00000000000E+00  0.00000000000E+00 -0.10556026239E+04  0.10556026239E+04  0.50400001928E-02 0.  1.
    10030    2    1    2    0    0  0.00000000000E+00  0.00000000000E+00  0.93643403580E+03  0.30476392836E+04  0.29002062857E+04 0.  0.
        5    1    3    3  502    0  0.10575340907E+04 -0.49270707866E+03 -0.43674589728E+03  0.12457558698E+04  0.46999998093E+01 0.  1.
       -5    1    3    3    0  502 -0.10575340907E+04  0.49270707866E+03  0.13731799331E+04  0.18018834138E+04  0.46999998093E+01 0. -1.
</event>
<event>
 5   0  0.2608591E-07  0.2905192E+04  0.7818609E-02  0.8271334E-01
        2   -1    0    0  501    0  0.00000000000E+00  0.00000000000E+00  0.12176436472E+04  0.12176436473E+04  0.25500000920E-02 0.  1.
       -2   -1    0    0    0  501  0.00000000000E+00  0.00000000000E+00 -0.17328837194E+04  0.17328837194E+04  0.25500000920E-02 0. -1.
    10030    2    1    2    0    0  0.00000000000E+00  0.00000000000E+00 -0.51524007219E+03  0.29505273667E+04  0.29051918025E+04 0.  0.
        2    1    3    3  502    0  0.12558709988E+04 -0.12029359948E+03 -0.98882203067E+03  0.16029508801E+04  0.25500000920E-02 0. -1.
       -2    1    3    3    0  502 -0.12558709988E+04  0.12029359948E+03  0.47358195848E+03  0.13475764866E+04  0.25500000920E-02 0.  1.
</event>
<event>
 5   0  0.9763851E-08  0.2895272E+04  0.7818609E-02  0.8274286E-01
       -1   -1    0    0    0  501  0.00000000000E+00  0.00000000000E+00  0.10302810711E+04  0.10302810711E+04  0.50400001928E-02 0. -1.
        1   -1    0    0  501    0  0.00000000000E+00  0.00000000000E+00 -0.20340559352E+04  0.20340559352E+04  0.50400001928E-02 0.  1.
    10030    2    1    2    0    0  0.00000000000E+00  0.00000000000E+00 -0.10037748642E+04  0.30643370063E+04  0.28952715435E+04 0.  0.
        3    1    3    3  502    0 -0.76718889128E+03  0.16010168759E+03 -0.17901042369E+04  0.19541454742E+04  0.10100000352E+00 0.  1.
       -3    1    3    3    0  502  0.76718889128E+03 -0.16010168759E+03  0.78632937275E+03  0.11101915321E+04  0.10100000352E+00 0. -1.
</event>
<event>
 5   0  0.9388076E-08  0.2899897E+04  0.7818609E-02  0.8272908E-01
        1   -1    0    0  501    0  0.00000000000E+00  0.00000000000E+00  0.26151470373E+04  0.26151470373E+04  0.50400001928E-02 0. -1.
       -1   -1    0    0    0  501  0.00000000000E+00  0.00000000000E+00 -0.80391287888E+03  0.80391287889E+03  0.50400001928E-02 0.  1.
    10030    2    1    2    0    0  0.00000000000E+00  0.00000000000E+00  0.18112341584E+04  0.34190599162E+04  0.28998968143E+04 0.  0.
        5    1    3    3  502    0 -0.91876214728E+03 -0.81557793836E+03 -0.23394899333E+01  0.12285433733E+04  0.46999998093E+01 0. -1.
       -5    1    3    3    0  502  0.91876214728E+03  0.81557793836E+03  0.18135736483E+04  0.21905165429E+04  0.46999998093E+01 0.  1.
</event>
<event>
 5   0  0.8407500E-08  0.2902439E+04  0.7818609E-02  0.8272152E-01
       -4   -1    0    0    0  501  0.00000000000E+00  0.00000000000E+00  0.18713997807E+04  0.18714002116E+04  0.12699999809E+01 0. -1.
        4   -1    0    0  501    0  0.00000000000E+00  0.00000000000E+00 -0.11253803927E+04  0.11253811093E+04  0.12699999809E+01 0.  1.
    10030    2    1    2    0    0  0.00000000000E+00  0.00000000000E+00  0.74601938797E+03  0.29967813210E+04  0.29024392084E+04 0.  0.
        3    1    3    3  502    0  0.21803505229E+03 -0.13712420233E+04 -0.62842158953E+02  0.13898896063E+04  0.10100000352E+00 0.  1.
       -3    1    3    3    0  502 -0.21803505229E+03  0.13712420233E+04  0.80886154692E+03  0.16068917147E+04  0.10100000352E+00 0. -1.
</event>
<event>
 5   0  0.2534588E-07  0.2900488E+04  0.7818609E-02  0.8272732E-01
        2   -1    0    0  501    0  0.00000000000E+00  0.00000000000E+00  0.24342459322E+04  0.24342459322E+04  0.25500000920E-02 0. -1.
       -2   -1    0    0    0  501  0.00000000000E+00  0.00000000000E+00 -0.86400760998E+03  0.86400760998E+03  0.25500000920E-02 0.  1.
    10030    2    1    2    0    0  0.00000000000E+00  0.00000000000E+00  0.15702383223E+04  0.32982535422E+04  0.29004875521E+04 0.  0.
        3    1    3    3  502    0  0.10241532122E+04 -0.31188761348E+03 -0.32732655616E+03  0.11195116659E+04  0.10100000352E+00 0.  1.
       -3    1    3    3    0  502 -0.10241532122E+04  0.31188761348E+03  0.18975648784E+04  0.21787418763E+04  0.10100000352E+00 0. -1.
</event>
<event>
 5   0  0.8407500E-08  0.2902281E+04  0.7818609E-02  0.8272199E-01
        3   -1    0    0  501    0  0.00000000000E+00  0.00000000000E+00  0.12914318774E+04  0.12914318813E+04  0.10100000352E+00 0. -1.
       -3   -1    0    0    0  501  0.00000000000E+00  0.00000000000E+00 -0.16305997580E+04  0.16305997612E+04  0.10100000352E+00 0.  1.
    10030    2    1    2    0    0  0.00000000000E+00  0.00000000000E+00 -0.33916788064E+03  0.29220316425E+04  0.29022808390E+04 0.  0.
        4    1    3    3  502    0  0.93219726497E+03 -0.89339064195E+03 -0.83641161835E+03  0.15384162597E+04  0.12699999809E+01 0.  1.
       -4    1    3    3    0  502 -0.93219726497E+03  0.89339064195E+03  0.49724373771E+03  0.13836153828E+04  0.12699999809E+01 0. -1.
</event>
<event>
 5   0  0.2608591E-07  0.2904898E+04  0.7818609E-02  0.8271422E-01
       -2   -1    0    0    0  501  0.00000000000E+00  0.00000000000E+00  0.89436633997E+03  0.89436633998E+03  0.25500000920E-02 0. -1.
        2   -1    0    0  501    0  0.00000000000E+00  0.00000000000E+00 -0.23587735366E+04  0.23587735366E+04  0.25500000920E-02 0.  1.
    10030    2    1    2    0    0  0.00000000000E+00  0.00000000000E+00 -0.14644071967E+04  0.32531398766E+04  0.29048976951E+04 0.  0.
        2    1    3    3  502    0 -0.14124262589E+04  0.31793835126E+03 -0.86268258660E+03  0.16853053068E+04  0.25500000920E-02 0. -1.
       -2    1    3    3    0  502  0.14124262589E+04 -0.31793835126E+03 -0.60172461006E+03  0.15678345698E+04  0.25500000920E-02 0.  1.
</event>
<event>
 5   0  0.9421924E-08  0.2899652E+04  0.7818609E-02  0.8272981E-01
       -1   -1    0    0    0  501  0.00000000000E+00  0.00000000000E+00  0.14205482229E+04  0.14205482229E+04  0.50400001928E-02 0. -1.
        1   -1    0    0  501    0  0.00000000000E+00  0.00000000000E+00 -0.14797071231E+04  0.14797071231E+04  0.50400001928E-02 0.  1.
    10030    2    1    2    0    0  0.00000000000E+00  0.00000000000E+00 -0.59158900215E+02  0.29002553460E+04  0.28996519268E+04 0.  0.
        1    1    3    3  502    0  0.10419984354E+04 -0.17413871191E+02  0.97856449674E+03  0.14295637295E+04  0.50400001928E-02 0. -1.
       -1    1    3    3    0  502 -0.10419984354E+04  0.17413871191E+02 -0.10377233970E+04  0.14706916165E+04  0.50400001928E-02 0.  1.
</event>
<event>
 5   0  0.2534588E-07  0.2897531E+04  0.7818609E-02  0.8273612E-01
       -2   -1    0    0    0  501  0.00000000000E+00  0.00000000000E+00  0.79841146238E+03  0.79841146239E+03  0.25500000920E-02 0.  1.
        2   -1    0    0  501    0  0.00000000000E+00  0.00000000000E+00 -0.26288728189E+04  0.26288728189E+04  0.25500000920E-02 0. -1.
    10030    2    1    2    0    0  0.00000000000E+00  0.00000000000E+00 -0.18304613565E+04  0.34272842813E+04  0.28975314955E+04 0.  0.
        3    1    3    3  502    0 -0.67938415041E+03  0.12421181585E+04 -0.55161542631E+03  0.15194406643E+04  0.10100000352E+00 0.  1.
       -3    1    3    3    0  502  0.67938415041E+03 -0.12421181585E+04 -0.12788459302E+04  0.19078436170E+04  0.10100000352E+00 0. -1.
</event>
<event>
 5   0  0.9395744E-08  0.2901833E+04  0.7818609E-02  0.8272332E-01
       -1   -1    0    0    0  501  0.00000000000E+00  0.00000000000E+00  0.14924304936E+04  0.14924304936E+04  0.50400001928E-02 0. -1.
        1   -1    0    0  501    0  0.00000000000E+00  0.00000000000E+00 -0.14105570355E+04  0.14105570355E+04  0.50400001928E-02 0.  1.
    10030    2    1    2    0    0  0.00000000000E+00  0.00000000000E+00  0.81873458056E+02  0.29029875291E+04  0.29018327538E+04 0.  0.
        2    1    3    3  502    0  0.13900658852E+04  0.13571617475E+03 -0.35222893932E+03  0.14404052454E+04  0.25500000920E-02 0.  1.
       -2    1    3    3    0  502 -0.13900658852E+04 -0.13571617475E+03  0.43410239738E+03  0.14625822837E+04  0.25500000920E-02 0. -1.
</event>
<event>
 5   0  0.9763851E-08  0.2899762E+04  0.7818609E-02  0.8272948E-01
       -1   -1    0    0    0  501  0.00000000000E+00  0.00000000000E+00  0.93789550502E+03  0.93789550504E+03  0.50400001928E-02 0.  1.
        1   -1    0    0  501    0  0.00000000000E+00  0.00000000000E+00 -0.22413524386E+04  0.22413524386E+04  0.50400001928E-02 0. -1.
    10030    2    1    2    0    0  0.00000000000E+00  0.00000000000E+00 -0.13034569335E+04  0.31792479436E+04  0.28997616297E+04 0.  0.
        3    1    3    3  502    0  0.19370628463E+03  0.13327827706E+04 -0.12404382306E+04  0.18309885451E+04  0.10100000352E+00 0.  1.
       -3    1    3    3    0  502 -0.19370628463E+03 -0.13327827706E+04 -0.63018702971E+02  0.13482593985E+04  0.10100000352E+00 0. -1.
</event>
<event>
 5   0  0.9388076E-08  0.2901459E+04  0.7818609E-02  0.8272444E-01
       -1   -1    0    0    0  501  0.00000000000E+00  0.00000000000E+00  0.12121219643E+04  0.12121219644E+04  0.50400001928E-02 0.  1.
        1   -1    0    0  501    0  0.00000000000E+00  0.00000000000E+00 -0.17363066211E+04  0.17363066211E+04  0.50400001928E-02 0. -1.
    10030    2    1    2    0    0  0.00000000000E+00  0.00000000000E+00 -0.52418465678E+03  0.29484285855E+04  0.29014585245E+04 0.  0.
        5    1    3    3  502    0 -0.10782523042E+03 -0.41068371683E+03  0.11475576946E+04  0.12236004854E+04  0.46999998093E+01 0.  1.
       -5    1    3    3    0  502  0.10782523042E+03  0.41068371683E+03 -0.16717423513E+04  0.17248281001E+04  0.46999998093E+01 0. -1.
</event>
<event>
 5   0  0.9395744E-08  0.2900967E+04  0.7818609E-02  0.8272590E-01
       -1   -1    0    0    0  501  0.00000000000E+00  0.00000000000E+00  0.11909749867E+04  0.11909749867E+04  0.50400001928E-02 0.  1.
        1   -1    0    0  501    0  0.00000000000E+00  0.00000000000E+00 -0.17665378035E+04  0.17665378035E+04  0.50400001928E-02 0. -1.
    10030    2    1    2    0    0  0.00000000000E+00  0.00000000000E+00 -0.57556281684E+03  0.29575127903E+04  0.29009669678E+04 0.  0.
        2    1    3    3  502    0  0.74865229866E+02 -0.94479739408E+03  0.83164474436E+03  0.12609043974E+04  0.25500000920E-02 0.  1.
       -2    1    3    3    0  502 -0.74865229866E+02  0.94479739408E+03 -0.14072075612E+04  0.16966083929E+04  0.25500000920E-02 0. -1.
</event>
<event>
 5   0  0.2492232E-07  0.2899799E+04  0.7818609E-02  0.8272937E-01
        2   -1    0    0  501    0  0.00000000000E+00  0.00000000000E+00  0.12141607561E+04  0.12141607561E+04  0.25500000920E-02 0. -1.
       -2   -1    0    0    0  501  0.00000000000E+00  0.00000000000E+00 -0.17314083661E+04  0.17314083661E+04  0.25500000920E-02 0.  1.
    10030    2    1    2    0    0  0.00000000000E+00  0.00000000000E+00 -0.51724760999E+03  0.29455691222E+04  0.28997986764E+04 0.  0.
        4    1    3    3  502    0  0.14039248181E+04  0.17820303935E+03 -0.57895070814E+03  0.15290345821E+04  0.12699999809E+01 0.  1.
       -4    1    3    3    0  502 -0.14039248181E+04 -0.17820303935E+03  0.61703098152E+02  0.14165345401E+04  0.12699999809E+01 0. -1.
</event>
<event>
 5   0  0.9443352E-08  0.2899068E+04  0.7818609E-02  0.8273155E-01
        1   -1    0    0  501    0  0.00000000000E+00  0.00000000000E+00  0.19677384601E+04  0.19677384601E+04  0.50400001928E-02 0.  1.
       -1   -1    0    0    0  501  0.00000000000E+00  0.00000000000E+00 -0.10677989795E+04  0.10677989795E+04  0.50400001928E-02 0. -1.
    10030    2    1    2    0    0  0.00000000000E+00  0.00000000000E+00  0.89993948059E+03  0.30355374396E+04  0.28990682087E+04 0.  0.
        4    1    3    3  502    0  0.11623985026E+04  0.46314607630E+03  0.12161764038E+04  0.17449244181E+04  0.12699999809E+01 0.  1.
       -4    1    3    3    0  502 -0.11623985026E+04 -0.46314607630E+03 -0.31623692317E+03  0.12906130215E+04  0.12699999809E+01 0. -1.
</event>
<event>
 5   0  0.9388076E-08  0.2900829E+04  0.7818609E-02  0.8272631E-01
        1   -1    0    0  501    0  0.00000000000E+00  0.00000000000E+00  0.13806846050E+04  0.13806846050E+04  0.50400001928E-02 0.  1.
       -1   -1    0    0    0  501  0.00000000000E+00  0.00000000000E+00 -0.15236662433E+04  0.15236662433E+04  0.50400001928E-02 0. -1.
    10030    2    1    2    0    0  0.00000000000E+00  0.00000000000E+00 -0.14298163836E+03  0.29043508483E+04  0.29008292093E+04 0.  0.
        5    1    3    3  502    0 -0.35281251753E+03 -0.12999449238E+04 -0.61005365238E+03  0.14786889552E+04  0.46999998093E+01 0. -1.
       -5    1    3    3    0  502  0.35281251753E+03  0.12999449238E+04  0.46707201402E+03  0.14256618932E+04  0.46999998093E+01 0.  1.
</event>
<event>
 5   0  0.9395744E-08  0.2900937E+04  0.7818609E-02  0.8272599E-01
       -1   -1    0    0    0  501  0.00000000000E+00  0.00000000000E+00  0.11614900062E+04  0.11614900062E+04  0.50400001928E-02 0. -1.
        1   -1    0    0  501    0  0.00000000000E+00  0.00000000000E+00 -0.18113450548E+04  0.18113450548E+04  0.50400001928E-02 0.  1.
    10030    2    1    2    0    0  0.00000000000E+00  0.00000000000E+00 -0.64985504864E+03  0.29728350610E+04  0.29009372133E+04 0.  0.
        2    1    3    3  502    0 -0.14900664483E+03  0.10990548062E+04 -0.12828321819E+04  0.16958133311E+04  0.25500000920E-02 0.  1.
       -2    1    3    3    0  502  0.14900664483E+03 -0.10990548062E+04  0.63297713322E+03  0.12770217298E+04  0.25500000920E-02 0. -1.
</event>
<event>
 5   0  0.2546841E-07  0.2911200E+04  0.7818609E-02  0.8269553E-01
        2   -1    0    0  501    0  0.00000000000E+00  0.00000000000E+00  0.13856358237E+04  0.13856358237E+04  0.25500000920E-02 0.  1.
       -2   -1    0    0    0  501  0.00000000000E+00  0.00000000000E+00 -0.15290973107E+04  0.15290973107E+04  0.25500000920E-02 0. -1.
    10030    2    1    2    0    0  0.00000000000E+00  0.00000000000E+00 -0.14346148700E+03  0.29147331344E+04  0.29112004477E+04 0.  0.
        1    1    3    3  502    0  0.12926486079E+04 -0.78716737784E+02  0.59363212422E+03  0.14246177899E+04  0.50400001928E-02 0.  1.
       -1    1    3    3    0  502 -0.12926486079E+04  0.78716737784E+02 -0.73709361122E+03  0.14901153445E+04  0.50400001928E-02 0. -1.
</event>
<event>
 5   0  0.2534588E-07  0.2899406E+04  0.7818609E-02  0.8273054E-01
        2   -1    0    0  501    0  0.00000000000E+00  0.00000000000E+00  0.16232676312E+04  0.16232676312E+04  0.25500000920E-02 0. -1.
       -2   -1    0    0    0  501  0.00000000000E+00  0.00000000000E+00 -0.12946962740E+04  0.12946962740E+04  0.25500000920E-02 0.  1.
    10030    2    1    2    0    0  0.00000000000E+00  0.00000000000E+00  0.32857135718E+03  0.29179639052E+04  0.28994058383E+04 0.  0.
        3    1    3    3  502    0  0.72488587881E+03  0.57831407834E+03  0.12857483278E+04  0.15852619604E+04  0.10100000352E+00 0. -1.
       -3    1    3    3    0  502 -0.72488587881E+03 -0.57831407834E+03 -0.95717697058E+03  0.13327019448E+04  0.10100000352E+00 0.  1.
</event>
<event>
 5   0  0.2534588E-07  0.2900392E+04  0.7818609E-02  0.8272761E-01
       -2   -1    0    0    0  501  0.00000000000E+00  0.00000000000E+00  0.13837460919E+04  0.13837460919E+04  0.25500000920E-02 0.  1.
        2   -1    0    0  501    0  0.00000000000E+00  0.00000000000E+00 -0.15198374613E+04  0.15198374613E+04  0.25500000920E-02 0. -1.
    10030    2    1    2    0    0  0.00000000000E+00  0.00000000000E+00 -0.13609136937E+03  0.29035835533E+04  0.29003924889E+04 0.  0.
        3    1    3    3  502    0 -0.12244145310E+04  0.39590009874E+03  0.60137626927E+03  0.14204158755E+04  0.10100000352E+00 0.  1.
       -3    1    3    3    0  502  0.12244145310E+04 -0.39590009874E+03 -0.73746763864E+03  0.14831676777E+04  0.10100000352E+00 0. -1.
</event>
<event>
 5   0  0.9443352E-08  0.2894644E+04  0.7818609E-02  0.8274473E-01
        1   -1    0    0  501    0  0.00000000000E+00  0.00000000000E+00  0.17705617396E+04  0.17705617396E+04  0.50400001928E-02 0.  1.
       -1   -1    0    0    0  501  0.00000000000E+00  0.00000000000E+00 -0.11830936427E+04  0.11830936427E+04  0.50400001928E-02 0. -1.
    10030    2    1    2    0    0  0.00000000000E+00  0.00000000000E+00  0.58746809695E+03  0.29536553823E+04  0.28946435623E+04 0.  0.
        4    1    3    3  502    0  0.49842955288E+03 -0.13382114583E+04  0.53411425053E+03  0.15246381774E+04  0.12699999809E+01 0.  1.
       -4    1    3    3    0  502 -0.49842955288E+03  0.13382114583E+04  0.53353846424E+02  0.14290172050E+04  0.12699999809E+01 0. -1.
</event>
<event>
 5   0  0.2546841E-07  0.2900484E+04  0.7818609E-02  0.8272734E-01
       -2   -1    0    0    0  501  0.00000000000E+00  0.00000000000E+00  0.78576261735E+03  0.78576261736E+03  0.25500000920E-02 0.  1.
        2   -1    0    0  501    0  0.00000000000E+00  0.00000000000E+00 -0.26766369233E+04  0.26766369233E+04  0.25500000920E-02 0. -1.
    10030    2    1    2    0    0  0.00000000000E+00  0.00000000000E+00 -0.18908743060E+04  0.34623995407E+04  0.29004835697E+04 0.  0.
        1    1    3    3  502    0  0.12160930203E+04 -0.59162766545E+03 -0.15706332760E+04  0.20726298310E+04  0.50400001928E-02 0. -1.
       -1    1    3    3    0  502 -0.12160930203E+04  0.59162766545E+03 -0.32024102997E+03  0.13897697097E+04  0.50400001928E-02 0.  1.
</event>
<event>
 5   0  0.9395744E-08  0.2900194E+04  0.7818609E-02  0.8272820E-01
       -1   -1    0    0    0  501  0.00000000000E+00  0.00000000000E+00  0.18021656552E+04  0.18021656552E+04  0.50400001928E-02 0. -1.
        1   -1    0    0  501    0  0.00000000000E+00  0.00000000000E+00 -0.11668081607E+04  0.11668081607E+04  0.50400001928E-02 0.  1.
    10030    2    1    2    0    0  0.00000000000E+00  0.00000000000E+00  0.63535749449E+03  0.29689738160E+04  0.29001941959E+04 0.  0.
        2    1    3    3  502    0  0.57833311178E+03  0.16442201018E+02 -0.10435326742E+04  0.11931889944E+04  0.25500000920E-02 0.  1.
       -2    1    3    3    0  502 -0.57833311178E+03 -0.16442201018E+02  0.16788901687E+04  0.17757848216E+04  0.25500000920E-02 0. -1.
</event>
<event>
 5   0  0.9763851E-08  0.2899216E+04  0.7818609E-02  0.8273111E-01
        1   -1    0    0  501    0  0.00000000000E+00  0.00000000000E+00  0.80783887205E+03  0.80783887207E+03  0.50400001928E-02 0. -1.
       -1   -1    0    0    0  501  0.00000000000E+00  0.00000000000E+00 -0.26012166822E+04  0.26012166822E+04  0.50400001928E-02 0.  1.
    10030    2    1    2    0    0  0.00000000000E+00  0.00000000000E+00 -0.17933778101E+04  0.34090555542E+04  0.28992164117E+04 0.  0.
        3    1    3    3  502    0  0.57273416909E+03  0.22965603018E+02  0.66892545799E+03  0.88091607200E+03  0.10100000352E+00 0. -1.
       -3    1    3    3    0  502 -0.57273416909E+03 -0.22965603018E+02 -0.24623032681E+04  0.25281394822E+04  0.10100000352E+00 0.  1.
</event>
<event>
 5   0  0.9388076E-08  0.2901640E+04  0.7818609E-02  0.8272390E-01
        1   -1    0    0  501    0  0.00000000000E+00  0.00000000000E+00  0.13093090474E+04  0.13093090474E+04  0.50400001928E-02 0. -1.
       -1   -1    0    0    0  501  0.00000000000E+00  0.00000000000E+00 -0.16076260912E+04  0.16076260912E+04  0.50400001928E-02 0.  1.
    10030    2    1    2    0    0  0.00000000000E+00  0.00000000000E+00 -0.29831704381E+03  0.29169351387E+04  0.29016404920E+04 0.  0.
        5    1    3    3  502    0 -0.12650308653E+03 -0.63313752280E+03 -0.14552339255E+04  0.15920408354E+04  0.46999998093E+01 0.  1.
       -5    1    3    3    0  502  0.12650308653E+03  0.63313752280E+03  0.11569168817E+04  0.13248943033E+04  0.46999998093E+01 0. -1.
</event>
<event>
 5   0  0.2608591E-07  0.2898560E+04  0.7818609E-02  0.8273306E-01
        2   -1    0    0  501    0  0.00000000000E+00  0.00000000000E+00  0.15347712844E+04  0.15347712844E+04  0.25500000920E-02 0.  1.
       -2   -1    0    0    0  501  0.00000000000E+00  0.00000000000E+00 -0.13685506897E+04  0.13685506897E+04  0.25500000920E-02 0. -1.
    10030    2    1    2    0    0  0.00000000000E+00  0.00000000000E+00  0.16622059468E+03  0.29033219742E+04  0.28985598492E+04 0.  0.
        2    1    3    3  502    0 -0.32361243366E+03 -0.13921377149E+04  0.32358779567E+03  0.14654287721E+04  0.25500000920E-02 0.  1.
       -2    1    3    3    0  502  0.32361243366E+03  0.13921377149E+04 -0.15736720099E+03  0.14378932021E+04  0.25500000920E-02 0. -1.
</event>
<event>
 5   0  0.2546841E-07  0.2899880E+04  0.7818609E-02  0.8272913E-01
        2   -1    0    0  501    0  0.00000000000E+00  0.00000000000E+00  0.15350481438E+04  0.15350481438E+04  0.25500000920E-02 0. -1.
       -2   -1    0    0    0  501  0.00000000000E+00  0.00000000000E+00 -0.13695506801E+04  0.13695506801E+04  0.25500000920E-02 0.  1.
    10030    2    1    2    0    0  0.00000000000E+00  0.00000000000E+00  0.16549746376E+03  0.29045988239E+04  0.28998801557E+04 0.  0.
        1    1    3    3  502    0 -0.25475269282E+02 -0.13687678913E+04  0.56117824381E+03  0.14795592422E+04  0.50400001928E-02 0. -1.
       -1    1    3    3    0  502  0.25475269282E+02  0.13687678913E+04 -0.39568078004E+03  0.14250395817E+04  0.50400001928E-02 0.  1.
</event>
<event>
 5   0  0.2678723E-07  0.2899949E+04  0.7818609E-02  0.8272893E-01
       -2   -1    0    0    0  501  0.00000000000E+00  0.00000000000E+00  0.12896693320E+04  0.12896693320E+04  0.25500000920E-02 0. -1.
        2   -1    0    0  501    0  0.00000000000E+00  0.00000000000E+00 -0.16302052594E+04  0.16302052594E+04  0.25500000920E-02 0.  1.
    10030    2    1    2    0    0  0.00000000000E+00  0.00000000000E+00 -0.34053592743E+03  0.29198745914E+04  0.28999487774E+04 0.  0.
        5    1    3    3  502    0 -0.90408292200E+03  0.11308049912E+04 -0.25029857199E+03  0.14692710176E+04  0.46999998093E+01 0.  1.
       -5    1    3    3    0  502  0.90408292200E+03 -0.11308049912E+04 -0.90237355439E+02  0.14506035738E+04  0.46999998093E+01 0. -1.
</event>
<event>
 5   0  0.9395744E-08  0.2898868E+04  0.7818609E-02  0.8273214E-01
        1   -1    0    0  501    0  0.00000000000E+00  0.00000000000E+00  0.20131360947E+04  0.20131360947E+04  0.50400001928E-02 0. -1.
       -1   -1    0    0    0  501  0.00000000000E+00  0.00000000000E+00 -0.10435750671E+04  0.10435750671E+04  0.50400001928E-02 0.  1.
    10030    2    1    2    0    0  0.00000000000E+00  0.00000000000E+00  0.96956102760E+03  0.30567111619E+04  0.28988678033E+04 0.  0.
        2    1    3    3  502    0 -0.73925234683E+03  0.88396657030E+03 -0.44227697579E+03  0.12343013623E+04  0.25500000920E-02 0.  1.
       -2    1    3    3    0  502  0.73925234683E+03 -0.88396657030E+03  0.14118380034E+04  0.18224097996E+04  0.25500000920E-02 0. -1.
</event>
<event>
 5   0  0.2492232E-07  0.2893160E+04  0.7818609E-02  0.8274915E-01
        2   -1    0    0  501    0  0.00000000000E+00  0.00000000000E+00  0.20259095143E+04  0.20259095143E+04  0.25500000920E-02 0.  1.
       -2   -1    0    0    0  501  0.00000000000E+00  0.00000000000E+00 -0.10329156368E+04  0.10329156368E+04  0.25500000920E-02 0. -1.
    10030    2    1    2    0    0  0.00000000000E+00  0.00000000000E+00  0.99299387746E+03  0.30588251511E+04  0.28931599445E+04 0.  0.
        4    1    3    3  502    0 -0.13615746560E+03 -0.98531279591E+03 -0.61398542665E+03  0.11689139739E+04  0.12699999809E+01 0. -1.
       -4    1    3    3    0  502  0.13615746560E+03  0.98531279591E+03  0.16069793041E+04  0.18899111773E+04  0.12699999809E+01 0.  1.
</event>
<event>
 5   0  0.2546841E-07  0.2899738E+04  0.7818609E-02  0.8272956E-01
       -2   -1    0    0    0  501  0.00000000000E+00  0.00000000000E+00  0.17587106472E+04  0.17587106472E+04  0.25500000920E-02 0. -1.
        2   -1    0    0  501    0  0.00000000000E+00  0.00000000000E+00 -0.11952618580E+04  0.11952618580E+04  0.25500000920E-02 0.  1.
    10030    2    1    2    0    0  0.00000000000E+00  0.00000000000E+00  0.56344878924E+03  0.29539725052E+04  0.28997377508E+04 0.  0.
        1    1    3    3  502    0  0.75263135645E+03 -0.12362129524E+04  0.19383601282E+03  0.14602221825E+04  0.50400001928E-02 0.  1.
       -1    1    3    3    0  502 -0.75263135645E+03  0.12362129524E+04  0.36961277642E+03  0.14937503228E+04  0.50400001928E-02 0. -1.
</event>
<event>
 5   0  0.9421924E-08  0.2900197E+04  0.7818609E-02  0.8272819E-01
       -1   -1    0    0    0  501  0.00000000000E+00  0.00000000000E+00  0.28923595285E+04  0.28923595285E+04  0.50400001928E-02 0.  1.
        1   -1    0    0  501    0  0.00000000000E+00  0.00000000000E+00 -0.72701381513E+03  0.72701381515E+03  0.50400001928E-02 0. -1.
    10030    2    1    2    0    0  0.00000000000E+00  0.00000000000E+00  0.21653457134E+04  0.36193733437E+04  0.29001967765E+04 0.  0.
        1    1    3    3  502    0 -0.13140140914E+03  0.76969050036E+03 -0.44225647115E+03  0.89737427140E+03  0.50400001928E-02 0. -1.
       -1    1    3    3    0  502  0.13140140914E+03 -0.76969050036E+03  0.26076021845E+04  0.27219990723E+04  0.50400001928E-02 0.  1.
</event>
<event>
 5   0  0.9388076E-08  0.2900587E+04  0.7818609E-02  0.8272703E-01
        1   -1    0    0  501    0  0.00000000000E+00  0.00000000000E+00  0.16161120807E+04  0.16161120807E+04  0.50400001928E-02 0.  1.
       -1   -1    0    0    0  501  0.00000000000E+00  0.00000000000E+00 -0.13014883010E+04  0.13014883010E+04  0.50400001928E-02 0. -1.
    10030    2    1    2    0    0  0.00000000000E+00  0.00000000000E+00  0.31462377972E+03  0.29176003817E+04  0.29005868139E+04 0.  0.
        5    1    3    3  502    0  0.54110822902E+01 -0.37962460994E+03 -0.12506069967E+04  0.13069751622E+04  0.46999998093E+01 0. -1.
       -5    1    3    3    0  502 -0.54110822902E+01  0.37962460994E+03  0.15652307765E+04  0.16106252196E+04  0.46999998093E+01 0.  1.
</event>
<event>
 5   0  0.2678723E-07  0.2899918E+04  0.7818609E-02  0.8272902E-01
       -2   -1    0    0    0  501  0.00000000000E+00  0.00000000000E+00  0.12441197301E+04  0.12441197301E+04  0.25500000920E-02 0. -1.
        2   -1    0    0  501    0  0.00000000000E+00  0.00000000000E+00 -0.16898544036E+04  0.16898544036E+04  0.25500000920E-02 0.  1.
    10030    2    1    2    0    0  0.00000000000E+00  0.00000000000E+00 -0.44573467353E+03  0.29339741337E+04  0.28999180710E+04 0.  0.
        5    1    3    3  502    0 -0.53000949487E+03  0.11028846204E+04 -0.10098808296E+04  0.15865515846E+04  0.46999998093E+01 0.  1.
       -5    1    3    3    0  502  0.53000949487E+03 -0.11028846204E+04  0.56414615610E+03  0.13474225491E+04  0.46999998093E+01 0. -1.
</event>
<event>
 5   0  0.2678723E-07  0.2900181E+04  0.7818609E-02  0.8272824E-01
        2   -1    0    0  501    0  0.00000000000E+00  0.00000000000E+00  0.18868503604E+04  0.18868503604E+04  0.25500000920E-02 0.  1.
       -2   -1    0    0    0  501  0.00000000000E+00  0.00000000000E+00 -0.11144298072E+04  0.11144298072E+04  0.25500000920E-02 0. -1.
    10030    2    1    2    0    0  0.00000000000E+00  0.00000000000E+00  0.77242055314E+03  0.30012801676E+04  0.29001808794E+04 0.  0.
        5    1    3    3  502    0 -0.52099481588E+03  0.11249113364E+04  0.11646827722E+04  0.17009906416E+04  0.46999998093E+01 0.  1.
       -5    1    3    3    0  502  0.52099481588E+03 -0.11249113364E+04 -0.39226221907E+03  0.13002895260E+04  0.46999998093E+01 0. -1.
</event>
<event>
 5   0  0.2678723E-07  0.2907212E+04  0.7818609E-02  0.8270735E-01
        2   -1    0    0  501    0  0.00000000000E+00  0.00000000000E+00  0.12549882247E+04  0.12549882247E+04  0.25500000920E-02 0. -1.
       -2   -1    0    0    0  501  0.00000000000E+00  0.00000000000E+00 -0.16836570160E+04  0.16836570160E+04  0.25500000920E-02 0.  1.
    10030    2    1    2    0    0  0.00000000000E+00  0.00000000000E+00 -0.42866879123E+03  0.29386452407E+04  0.29072115365E+04 0.  0.
        5    1    3    3  502    0  0.71442542782E+03 -0.13349059392E+03  0.10581350801E+04  0.12837037697E+04  0.46999998093E+01 0. -1.
       -5    1    3    3    0  502 -0.71442542782E+03  0.13349059392E+03 -0.14868038714E+04  0.16549414710E+04  0.46999998093E+01 0.  1.
</event>
<event>
 5   0  0.2492232E-07  0.2900131E+04  0.7818609E-02  0.8272839E-01
       -2   -1    0    0    0  501  0.00000000000E+00  0.00000000000E+00  0.12261069805E+04  0.12261069805E+04  0.25500000920E-02 0.  1.
        2   -1    0    0  501    0  0.00000000000E+00  0.00000000000E+00 -0.17149317717E+04  0.17149317717E+04  0.25500000920E-02 0. -1.
    10030    2    1    2    0    0  0.00000000000E+00  0.00000000000E+00 -0.48882479118E+03  0.29410387523E+04  0.29001309050E+04 0.  0.
        4    1    3    3  502    0 -0.57285603569E+02 -0.13345615219E+04  0.32777331813E+03  0.13754174120E+04  0.12699999809E+01 0.  1.
       -4    1    3    3    0  502  0.57285603569E+02  0.13345615219E+04 -0.81659810931E+03  0.15656213403E+04  0.12699999809E+01 0. -1.
</event>
<event>
 5   0  0.2492232E-07  0.2898726E+04  0.7818609E-02  0.8273257E-01
        2   -1    0    0  501    0  0.00000000000E+00  0.00000000000E+00  0.27055635507E+04  0.27055635507E+04  0.25500000920E-02 0.  1.
       -2   -1    0    0    0  501  0.00000000000E+00  0.00000000000E+00 -0.77641980054E+03  0.77641980055E+03  0.25500000920E-02 0. -1.
    10030    2    1    2    0    0  0.00000000000E+00  0.00000000000E+00  0.19291437501E+04  0.34819833512E+04  0.28987260046E+04 0.  0.
        4    1    3    3  502    0 -0.64261521793E+03 -0.73158031138E+03  0.22541202014E+04  0.24554477322E+04  0.12699999809E+01 0.  1.
       -4    1    3    3    0  502  0.64261521793E+03  0.73158031138E+03 -0.32497645127E+03  0.10265356190E+04  0.12699999809E+01 0. -1.
</event>
<event>
 5   0  0.9388076E-08  0.2900761E+04  0.7818609E-02  0.8272651E-01
        1   -1    0    0  501    0  0.00000000000E+00  0.00000000000E+00  0.13038280288E+04  0.13038280288E+04  0.50400001928E-02 0.  1.
       -1   -1    0    0    0  501  0.00000000000E+00  0.00000000000E+00 -0.16134053043E+04  0.16134053043E+04  0.50400001928E-02 0. -1.
    10030    2    1    2    0    0  0.00000000000E+00  0.00000000000E+00 -0.30957727552E+03  0.29172333331E+04  0.29007606296E+04 0.  0.
        5    1    3    3  502    0 -0.11601670502E+04 -0.85949040708E+03 -0.16641817969E+02  0.14439565036E+04  0.46999998093E+01 0.  1.
       -5    1    3    3    0  502  0.11601670502E+04  0.85949040708E+03 -0.29293545755E+03  0.14732768295E+04  0.46999998093E+01 0. -1.
</event>
<event>
 5   0  0.2534588E-07  0.2900333E+04  0.7818609E-02  0.8272778E-01
       -2   -1    0    0    0  501  0.00000000000E+00  0.00000000000E+00  0.16772209868E+04  0.16772209868E+04  0.25500000920E-02 0. -1.
        2   -1    0    0  501    0  0.00000000000E+00  0.00000000000E+00 -0.12538495629E+04  0.12538495629E+04  0.25500000920E-02 0.  1.
    10030    2    1    2    0    0  0.00000000000E+00  0.00000000000E+00  0.42337142390E+03  0.29310705497E+04  0.29003329472E+04 0.  0.
        3    1    3    3  502    0 -0.70577754952E+03  0.51683627159E+03 -0.95717955182E+03  0.12967013479E+04  0.10100000352E+00 0.  1.
       -3    1    3    3    0  502  0.70577754952E+03 -0.51683627159E+03  0.13805509757E+04  0.16343692018E+04  0.10100000352E+00 0. -1.
</event>
<event>
 5   0  0.2608591E-07  0.2899851E+04  0.7818609E-02  0.8272922E-01
       -2   -1    0    0    0  501  0.00000000000E+00  0.00000000000E+00  0.10337654829E+04  0.10337654829E+04  0.25500000920E-02 0. -1.
        2   -1    0    0  501    0  0.00000000000E+00  0.00000000000E+00 -0.20336176673E+04  0.20336176673E+04  0.25500000920E-02 0.  1.
    10030    2    1    2    0    0  0.00000000000E+00  0.00000000000E+00 -0.99985218442E+03  0.30673831502E+04  0.28998508582E+04 0.  0.
        2    1    3    3  502    0  0.91293849750E+03  0.93647194003E+03  0.16221543347E+03  0.13178582024E+04  0.25500000920E-02 0. -1.
       -2    1    3    3    0  502 -0.91293849750E+03 -0.93647194003E+03 -0.11620676179E+04  0.17495249479E+04  0.25500000920E-02 0.  1.
</event>
<event>
 5   0  0.9763851E-08  0.2901190E+04  0.7818609E-02  0.8272523E-01
        1   -1    0    0  501    0  0.00000000000E+00  0.00000000000E+00  0.18716539599E+04  0.18716539599E+04  0.50400001928E-02 0. -1.
       -1   -1    0    0    0  501  0.00000000000E+00  0.00000000000E+00 -0.11242602647E+04  0.11242602647E+04  0.50400001928E-02 0.  1.
    10030    2    1    2    0    0  0.00000000000E+00  0.00000000000E+00  0.74739369515E+03  0.29959142246E+04  0.29011902222E+04 0.  0.
        3    1    3    3  502    0  0.88764432925E+03 -0.53791780465E+03  0.14201734968E+04  0.17590226806E+04  0.10100000352E+00 0. -1.
       -3    1    3    3    0  502 -0.88764432925E+03  0.53791780465E+03 -0.67277980165E+03  0.12368915440E+04  0.10100000352E+00 0.  1.
</event>
<event>
 5   0  0.2678723E-07  0.2901597E+04  0.7818609E-02  0.8272402E-01
        2   -1    0    0  501    0  0.00000000000E+00  0.00000000000E+00  0.14606083889E+04  0.14606083889E+04  0.25500000920E-02 0. -1.
       -2   -1    0    0    0  501  0.00000000000E+00  0.00000000000E+00 -0.14410547406E+04  0.14410547406E+04  0.25500000920E-02 0.  1.
    10030    2    1    2    0    0  0.00000000000E+00  0.00000000000E+00  0.19553648249E+02  0.29016631295E+04  0.29015972449E+04 0.  0.
        5    1    3    3  502    0 -0.10107836899E+04 -0.41536104314E+03 -0.94449118940E+03  0.14444009695E+04  0.46999998093E+01 0.  1.
       -5    1    3    3    0  502  0.10107836899E+04  0.41536104314E+03  0.96404483765E+03  0.14572621600E+04  0.46999998093E+01 0. -1.
</event>
<event>
 5   0  0.2608591E-07  0.2900603E+04  0.7818609E-02  0.8272698E-01
        2   -1    0    0  501    0  0.00000000000E+00  0.00000000000E+00  0.10180971283E+04  0.10180971283E+04  0.25500000920E-02 0. -1.
       -2   -1    0    0    0  501  0.00000000000E+00  0.00000000000E+00 -0.20659854020E+04  0.20659854020E+04  0.25500000920E-02 0.  1.
    10030    2    1    2    0    0  0.00000000000E+00  0.00000000000E+00 -0.10478882738E+04  0.30840825303E+04  0.29006025615E+04 0.  0.
        2    1    3    3  502    0  0.92351975756E+03  0.10903200248E+04 -0.25986404246E+03  0.14523139535E+04  0.25500000920E-02 0. -1.
       -2    1    3    3    0  502 -0.92351975756E+03 -0.10903200248E+04 -0.78802423131E+03  0.16317685768E+04  0.25500000920E-02 0.  1.
</event>
<event>
 5   0  0.9421924E-08  0.2902332E+04  0.7818609E-02  0.8272184E-01
       -1   -1    0    0    0  501  0.00000000000E+00  0.00000000000E+00  0.12956540098E+04  0.12956540099E+04  0.50400001928E-02 0.  1.
        1   -1    0    0  501    0  0.00000000000E+00  0.00000000000E+00 -0.16253435093E+04  0.16253435093E+04  0.50400001928E-02 0. -1.
    10030    2    1    2    0    0  0.00000000000E+00  0.00000000000E+00 -0.32968949946E+03  0.29209975192E+04  0.29023320521E+04 0.  0.
        1    1    3    3  502    0  0.47714623065E+03 -0.22205194313E+02 -0.15439571055E+04  0.16161575232E+04  0.50400001928E-02 0. -1.
       -1    1    3    3    0  502 -0.47714623065E+03  0.22205194313E+02  0.12142676060E+04  0.13048399960E+04  0.50400001928E-02 0.  1.
</event>
<event>
 5   0  0.2678723E-07  0.2899147E+04  0.7818609E-02  0.8273131E-01
        2   -1    0    0  501    0  0.00000000000E+00  0.00000000000E+00  0.21082650803E+04  0.21082650803E+04  0.25500000920E-02 0.  1.
       -2   -1    0    0    0  501  0.00000000000E+00  0.00000000000E+00 -0.99667874924E+03  0.99667874924E+03  0.25500000920E-02 0. -1.
    10030    2    1    2    0    0  0.00000000000E+00  0.00000000000E+00  0.11115863311E+04  0.31049438296E+04  0.28991467733E+04 0.  0.
        5    1    3    3  502    0 -0.38098638993E+03 -0.97988335556E+02 -0.93840938768E+03  0.10175394892E+04  0.46999998093E+01 0. -1.
       -5    1    3    3    0  502  0.38098638993E+03  0.97988335556E+02  0.20499957187E+04  0.20874043403E+04  0.46999998093E+01 0.  1.
</event>
<event>
 5   0  0.8407500E-08  0.2906569E+04  0.7818609E-02  0.8270926E-01
       -4   -1    0    0    0  501  0.00000000000E+00  0.00000000000E+00  0.11912164771E+04  0.11912171541E+04  0.12699999809E+01 0. -1.
        4   -1    0    0  501    0  0.00000000000E+00  0.00000000000E+00 -0.17730065943E+04  0.17730070491E+04  0.12699999809E+01 0.  1.
    10030    2    1    2    0    0  0.00000000000E+00  0.00000000000E+00 -0.58179011715E+03  0.29642242032E+04  0.29065693500E+04 0.  0.
        1    1    3    3  502    0  0.10097481706E+04  0.10388455240E+04 -0.40826465620E+03  0.15051483051E+04  0.50400001928E-02 0.  1.
       -1    1    3    3    0  502 -0.10097481706E+04 -0.10388455240E+04 -0.17352546094E+03  0.14590758981E+04  0.50400001928E-02 0. -1.
</event>
<event>
 5   0  0.2534588E-07  0.2900649E+04  0.7818609E-02  0.8272684E-01
       -2   -1    0    0    0  501  0.00000000000E+00  0.00000000000E+00  0.10676072230E+04  0.10676072230E+04  0.25500000920E-02 0.  1.
        2   -1    0    0  501    0  0.00000000000E+00  0.00000000000E+00 -0.19702389960E+04  0.19702389960E+04  0.25500000920E-02 0. -1.
    10030    2    1    2    0    0  0.00000000000E+00  0.00000000000E+00 -0.90263177292E+03  0.30378462190E+04  0.29006491571E+04 0.  0.
        3    1    3    3  502    0 -0.66118340085E+03 -0.10011360691E+04 -0.13047226473E+04  0.17724948844E+04  0.10100000352E+00 0.  1.
       -3    1    3    3    0  502  0.66118340085E+03  0.10011360691E+04  0.40209087442E+03  0.12653513346E+04  0.10100000352E+00 0. -1.
</event>
<event>
 5   0  0.9395744E-08  0.2899423E+04  0.7818609E-02  0.8273049E-01
       -1   -1    0    0    0  501  0.00000000000E+00  0.00000000000E+00  0.14310816168E+04  0.14310816168E+04  0.50400001928E-02 0. -1.
        1   -1    0    0  501    0  0.00000000000E+00  0.00000000000E+00 -0.14685841392E+04  0.14685841392E+04  0.50400001928E-02 0.  1.
    10030    2    1    2    0    0  0.00000000000E+00  0.00000000000E+00 -0.37502522425E+02  0.28996657559E+04  0.28994232283E+04 0.  0.
        2    1    3    3  502    0  0.85020493850E+03  0.54801874904E+02 -0.11917995363E+04  0.14650043746E+04  0.25500000920E-02 0.  1.
       -2    1    3    3    0  502 -0.85020493850E+03 -0.54801874904E+02  0.11542970138E+04  0.14346613813E+04  0.25500000920E-02 0. -1.
</event>
<event>
 5   0  0.9388076E-08  0.2900030E+04  0.7818609E-02  0.8272869E-01
        1   -1    0    0  501    0  0.00000000000E+00  0.00000000000E+00  0.22858692941E+04  0.22858692941E+04  0.50400001928E-02 0.  1.
       -1   -1    0    0    0  501  0.00000000000E+00  0.00000000000E+00 -0.91980022089E+03  0.91980022090E+03  0.50400001928E-02 0. -1.
    10030    2    1    2    0    0  0.00000000000E+00  0.00000000000E+00  0.13660690732E+04  0.32056695150E+04  0.29000297113E+04 0.  0.
        5    1    3    3  502    0  0.14362050947E+04 -0.19897078437E+03  0.70039111237E+03  0.16102311161E+04  0.46999998093E+01 0.  1.
       -5    1    3    3    0  502 -0.14362050947E+04  0.19897078437E+03  0.66567796085E+03  0.15954383989E+04  0.46999998093E+01 0. -1.
</event>
<event>
 5   0  0.2608591E-07  0.2901351E+04  0.7818609E-02  0.8272476E-01
        2   -1    0    0  501    0  0.00000000000E+00  0.00000000000E+00  0.12403368126E+04  0.12403368126E+04  0.25500000920E-02 0. -1.
       -2   -1    0    0    0  501  0.00000000000E+00  0.00000000000E+00 -0.16966834346E+04  0.16966834346E+04  0.25500000920E-02 0.  1.
    10030    2    1    2    0    0  0.00000000000E+00  0.00000000000E+00 -0.45634662209E+03  0.29370202472E+04  0.29013506670E+04 0.  0.
        2    1    3    3  502    0 -0.12038745135E+04 -0.26116559907E+03  0.54736398369E+03  0.13480091413E+04  0.25500000920E-02 0. -1.
       -2    1    3    3    0  502  0.12038745135E+04  0.26116559907E+03 -0.10037106058E+04  0.15890111059E+04  0.25500000920E-02 0.  1.
</event>
<event>
 5   0  0.2546841E-07  0.2900429E+04  0.7818609E-02  0.8272750E-01
       -2   -1    0    0    0  501  0.00000000000E+00  0.00000000000E+00  0.14339182451E+04  0.14339182451E+04  0.25500000920E-02 0. -1.
        2   -1    0    0  501    0  0.00000000000E+00  0.00000000000E+00 -0.14666961452E+04  0.14666961452E+04  0.25500000920E-02 0.  1.
    10030    2    1    2    0    0  0.00000000000E+00  0.00000000000E+00 -0.32777900067E+02  0.29006143903E+04  0.29004291839E+04 0.  0.
        1    1    3    3  502    0 -0.77990207614E+03  0.86693391680E+03 -0.87859288643E+03  0.14600503843E+04  0.50400001928E-02 0.  1.
       -1    1    3    3    0  502  0.77990207614E+03 -0.86693391680E+03  0.84581498636E+03  0.14405640061E+04  0.50400001928E-02 0. -1.
</event>
<event>
 5   0  0.9443352E-08  0.2900118E+04  0.7818609E-02  0.8272842E-01
        1   -1    0    0  501    0  0.00000000000E+00  0.00000000000E+00  0.98829772219E+03  0.98829772220E+03  0.50400001928E-02 0. -1.
       -1   -1    0    0    0  501  0.00000000000E+00  0.00000000000E+00 -0.21275679616E+04  0.21275679616E+04  0.50400001928E-02 0.  1.
    10030    2    1    2    0    0  0.00000000000E+00  0.00000000000E+00 -0.11392702394E+04  0.31158656838E+04  0.29001176323E+04 0.  0.
        4    1    3    3  502    0  0.53624862138E+03  0.13472586285E+04 -0.56883007862E+03  0.15576384905E+04  0.12699999809E+01 0.  1.
       -4    1    3    3    0  502 -0.53624862138E+03 -0.13472586285E+04 -0.57044016082E+03  0.15582271933E+04  0.12699999809E+01 0. -1.
</event>
<event>
 5   0  0.9763851E-08  0.2899421E+04  0.7818609E-02  0.8273050E-01
       -1   -1    0    0    0  501  0.00000000000E+00  0.00000000000E+00  0.12279896713E+04  0.12279896713E+04  0.50400001928E-02 0.  1.
        1   -1    0    0  501    0  0.00000000000E+00  0.00000000000E+00 -0.17114641710E+04  0.17114641710E+04  0.50400001928E-02 0. -1.
    10030    2    1    2    0    0  0.00000000000E+00  0.00000000000E+00 -0.48347449969E+03  0.29394538423E+04  0.28994208558E+04 0.  0.
        3    1    3    3  502    0 -0.27344525571E+03 -0.13142274113E+04  0.31326486882E+03  0.13784414695E+04  0.10100000352E+00 0.  1.
       -3    1    3    3    0  502  0.27344525571E+03  0.13142274113E+04 -0.79673936851E+03  0.15610123728E+04  0.10100000352E+00 0. -1.
</event>
<event>
 5   0  0.2608591E-07  0.2899847E+04  0.7818609E-02  0.8272923E-01
       -2   -1    0    0    0  501  0.00000000000E+00  0.00000000000E+00  0.91846172757E+03  0.91846172757E+03  0.25500000920E-02 0.  1.
        2   -1    0    0  501    0  0.00000000000E+00  0.00000000000E+00 -0.22889115523E+04  0.22889115523E+04  0.25500000920E-02 0. -1.
    10030    2    1    2    0    0  0.00000000000E+00  0.00000000000E+00 -0.13704498247E+04  0.32073732799E+04  0.28998466570E+04 0.  0.
        2    1    3    3  502    0  0.48309668085E+03  0.99155140002E+02 -0.21932952137E+04  0.22480565027E+04  0.25500000920E-02 0. -1.
       -2    1    3    3    0  502 -0.48309668085E+03 -0.99155140002E+02  0.82284538896E+03  0.95931677718E+03  0.25500000920E-02 0.  1.
</event>
<event>
 5   0  0.9763851E-08  0.2900924E+04  0.7818609E-02  0.8272603E-01
       -1   -1    0    0    0  501  0.00000000000E+00  0.00000000000E+00  0.76554179660E+03  0.76554179661E+03  0.50400001928E-02 0. -1.
        1   -1    0    0  501    0  0.00000000000E+00  0.00000000000E+00 -0.27481719969E+04  0.27481719969E+04  0.50400001928E-02 0.  1.
    10030    2    1    2    0    0  0.00000000000E+00  0.00000000000E+00 -0.19826302003E+04  0.35137137935E+04  0.29009243547E+04 0.  0.
        3    1    3    3  502    0  0.13536541580E+04 -0.48809869631E+03 -0.77054832155E+03  0.16322881617E+04  0.10100000352E+00 0. -1.
       -3    1    3    3    0  502 -0.13536541580E+04  0.48809869631E+03 -0.12120818787E+04  0.18814256318E+04  0.10100000352E+00 0.  1.
</event>
<event>
 5   0  0.9421924E-08  0.2903560E+04  0.7818609E-02  0.8271819E-01
        1   -1    0    0  501    0  0.00000000000E+00  0.00000000000E+00  0.17803427263E+04  0.17803427263E+04  0.50400001928E-02 0.  1.
       -1   -1    0    0    0  501  0.00000000000E+00  0.00000000000E+00 -0.11838536568E+04  0.11838536568E+04  0.50400001928E-02 0. -1.
    10030    2    1    2    0    0  0.00000000000E+00  0.00000000000E+00  0.59648906950E+03  0.29641963832E+04  0.29035600541E+04 0.  0.
        1    1    3    3  502    0 -0.36501355084E+03  0.13666215274E+04 -0.35345365269E+02  0.14149694648E+04  0.50400001928E-02 0. -1.
       -1    1    3    3    0  502  0.36501355084E+03 -0.13666215274E+04  0.63183443477E+03  0.15492269183E+04  0.50400001928E-02 0.  1.
</event>
<event>
 5   0  0.9395744E-08  0.2904624E+04  0.7818609E-02  0.8271503E-01
        1   -1    0    0  501    0  0.00000000000E+00  0.00000000000E+00  0.12534315644E+04  0.12534315644E+04  0.50400001928E-02 0.  1.
       -1   -1    0    0    0  501  0.00000000000E+00  0.00000000000E+00 -0.16827489490E+04  0.16827489490E+04  0.50400001928E-02 0. -1.
    10030    2    1    2    0    0  0.00000000000E+00  0.00000000000E+00 -0.42931738465E+03  0.29361805134E+04  0.29046243459E+04 0.  0.
        2    1    3    3  502    0  0.39147146349E+03 -0.47343394582E+03 -0.15449424381E+04  0.16625993940E+04  0.25500000920E-02 0. -1.
       -2    1    3    3    0  502 -0.39147146349E+03  0.47343394582E+03  0.11156250535E+04  0.12735811194E+04  0.25500000920E-02 0.  1.
</event>
<event>
 5   0  0.2492232E-07  0.2900162E+04  0.7818609E-02  0.8272829E-01
        2   -1    0    0  501    0  0.00000000000E+00  0.00000000000E+00  0.17255521325E+04  0.17255521325E+04  0.25500000920E-02 0. -1.
       -2   -1    0    0    0  501  0.00000000000E+00  0.00000000000E+00 -0.12185870207E+04  0.12185870207E+04  0.25500000920E-02 0.  1.
    10030    2    1    2    0    0  0.00000000000E+00  0.00000000000E+00  0.50696511182E+03  0.29441391532E+04  0.29001623625E+04 0.  0.
        4    1    3    3  502    0 -0.47243733219E+03 -0.14457427462E+03 -0.11305078642E+04  0.12337537832E+04  0.12699999809E+01 0.  1.
       -4    1    3    3    0  502  0.47243733219E+03  0.14457427462E+03  0.16374729760E+04  0.17103853700E+04  0.12699999809E+01 0. -1.
</event>
<event>
 5   0  0.8407500E-08  0.2901139E+04  0.7818609E-02  0.8272539E-01
       -4   -1    0    0    0  501  0.00000000000E+00  0.00000000000E+00  0.14750232062E+04  0.14750237530E+04  0.12699999809E+01 0.  1.
        4   -1    0    0  501    0  0.00000000000E+00  0.00000000000E+00 -0.14265201887E+04  0.14265207540E+04  0.12699999809E+01 0. -1.
    10030    2    1    2    0    0  0.00000000000E+00  0.00000000000E+00  0.48503017525E+02  0.29015445070E+04  0.29011390837E+04 0.  0.
        5    1    3    3  502    0 -0.24915849517E+03  0.10704214837E+04  0.97108745507E+03  0.14665998241E+04  0.46999998093E+01 0.  1.
       -5    1    3    3    0  502  0.24915849517E+03 -0.10704214837E+04 -0.92258443755E+03  0.14349446829E+04  0.46999998093E+01 0. -1.
</event>
<event>
 5   0  0.2492232E-07  0.2898951E+04  0.7818609E-02  0.8273190E-01
       -2   -1    0    0    0  501  0.00000000000E+00  0.00000000000E+00  0.99559011401E+03  0.99559011401E+03  0.25500000920E-02 0. -1.
        2   -1    0    0  501    0  0.00000000000E+00  0.00000000000E+00 -0.21102858017E+04  0.21102858017E+04  0.25500000920E-02 0.  1.
    10030    2    1    2    0    0  0.00000000000E+00  0.00000000000E+00 -0.11146956877E+04  0.31058759157E+04  0.28989513152E+04 0.  0.
        4    1    3    3  502    0  0.55127950787E+03 -0.11622034834E+04  0.15843607875E+03  0.12960438406E+04  0.12699999809E+01 0. -1.
       -4    1    3    3    0  502 -0.55127950787E+03  0.11622034834E+04 -0.12731317665E+04  0.18098320752E+04  0.12699999809E+01 0.  1.
</event>
<event>
 5   0  0.2546841E-07  0.2900041E+04  0.7818609E-02  0.8272865E-01
        2   -1    0    0  501    0  0.00000000000E+00  0.00000000000E+00  0.10335316439E+04  0.10335316439E+04  0.25500000920E-02 0. -1.
       -2   -1    0    0    0  501  0.00000000000E+00  0.00000000000E+00 -0.20343446087E+04  0.20343446087E+04  0.25500000920E-02 0.  1.
    10030    2    1    2    0    0  0.00000000000E+00  0.00000000000E+00 -0.10008129648E+04  0.30678762526E+04  0.29000410533E+04 0.  0.
        1    1    3    3  502    0 -0.11434867040E+04  0.84272109459E+02  0.43859896410E+03  0.12276125944E+04  0.50400001928E-02 0. -1.
       -1    1    3    3    0  502  0.11434867040E+04 -0.84272109459E+02 -0.14394119289E+04  0.18402636582E+04  0.50400001928E-02 0.  1.
</event>
<event>
 5   0  0.8407500E-08  0.2900044E+04  0.7818609E-02  0.8272864E-01
        4   -1    0    0  501    0  0.00000000000E+00  0.00000000000E+00  0.10908858030E+04  0.10908865422E+04  0.12699999809E+01 0. -1.
       -4   -1    0    0    0  501  0.00000000000E+00  0.00000000000E+00 -0.19273893313E+04  0.19273897497E+04  0.12699999809E+01 0.  1.
    10030    2    1    2    0    0  0.00000000000E+00  0.00000000000E+00 -0.83650352830E+03  0.30182762919E+04  0.29000437275E+04 0.  0.
        2    1    3    3  502    0  0.49480155105E+03 -0.12268669997E+04  0.19969895056E+03  0.13378755102E+04  0.25500000920E-02 0.  1.
       -2    1    3    3    0  502 -0.49480155105E+03  0.12268669997E+04 -0.10362024789E+04  0.16804007817E+04  0.25500000920E-02 0. -1.
</event>
<event>
 5   0  0.2534588E-07  0.2899627E+04  0.7818609E-02  0.8272988E-01
        2   -1    0    0  501    0  0.00000000000E+00  0.00000000000E+00  0.22221783399E+04  0.22221783399E+04  0.25500000920E-02 0. -1.
       -2   -1    0    0    0  501  0.00000000000E+00  0.00000000000E+00 -0.94590032915E+03  0.94590032915E+03  0.25500000920E-02 0.  1.
    10030    2    1    2    0    0  0.00000000000E+00  0.00000000000E+00  0.12762780107E+04  0.31680786690E+04  0.28996270264E+04 0.  0.
        3    1    3    3  502    0  0.10151267314E+04 -0.42409487203E+02  0.17681441607E+04  0.20392681601E+04  0.10100000352E+00 0. -1.
       -3    1    3    3    0  502 -0.10151267314E+04  0.42409487203E+02 -0.49186614999E+03  0.11288105090E+04  0.10100000352E+00 0.  1.
</event>
<event>
 5   0  0.2492232E-07  0.2901483E+04  0.7818609E-02  0.8272436E-01
        2   -1    0    0  501    0  0.00000000000E+00  0.00000000000E+00  0.25231395418E+04  0.25231395418E+04  0.25500000920E-02 0. -1.
       -2   -1    0    0    0  501  0.00000000000E+00  0.00000000000E+00 -0.83413986491E+03  0.83413986491E+03  0.25500000920E-02 0.  1.
    10030    2    1    2    0    0  0.00000000000E+00  0.00000000000E+00  0.16889996769E+04  0.33572794067E+04  0.29014832597E+04 0.  0.
        4    1    3    3  502    0 -0.73334026761E+03 -0.80843409943E+03  0.19502912191E+04  0.22349476713E+04  0.12699999809E+01 0. -1.
       -4    1    3    3    0  502  0.73334026761E+03  0.80843409943E+03 -0.26129154227E+03  0.11223317354E+04  0.12699999809E+01 0.  1.
</event>
<event>
 5   0  0.9763851E-08  0.2905136E+04  0.7818609E-02  0.8271351E-01
        1   -1    0    0  501    0  0.00000000000E+00  0.00000000000E+00  0.15690317528E+04  0.15690317528E+04  0.50400001928E-02 0. -1.
       -1   -1    0    0    0  501  0.00000000000E+00  0.00000000000E+00 -0.13447487921E+04  0.13447487921E+04  0.50400001928E-02 0.  1.
    10030    2    1    2    0    0  0.00000000000E+00  0.00000000000E+00  0.22428296071E+03  0.29137805449E+04  0.29051358345E+04 0.  0.
        3    1    3    3  502    0  0.29297258741E+03 -0.66693352807E+03  0.13725911286E+04  0.15539110928E+04  0.10100000352E+00 0. -1.
       -3    1    3    3    0  502 -0.29297258741E+03  0.66693352807E+03 -0.11483081679E+04  0.13598694520E+04  0.10100000352E+00 0.  1.
</event>
<event>
 5   0  0.9395744E-08  0.2901396E+04  0.7818609E-02  0.8272462E-01
       -1   -1    0    0    0  501  0.00000000000E+00  0.00000000000E+00  0.67208543432E+03  0.67208543434E+03  0.50400001928E-02 0.  1.
        1   -1    0    0  501    0  0.00000000000E+00  0.00000000000E+00 -0.31313340190E+04  0.31313340190E+04  0.50400001928E-02 0. -1.
    10030    2    1    2    0    0  0.00000000000E+00  0.00000000000E+00 -0.24592485847E+04  0.38034194533E+04  0.29013955154E+04 0.  0.
        2    1    3    3  502    0  0.55575432805E+03 -0.90388673193E+03 -0.25264480649E+04  0.27402215096E+04  0.25500000920E-02 0. -1.
       -2    1    3    3    0  502 -0.55575432805E+03  0.90388673193E+03  0.67199480230E+02  0.10631979437E+04  0.25500000920E-02 0.  1.
</event>
<event>
 5   0  0.9388076E-08  0.2901498E+04  0.7818609E-02  0.8272432E-01
        1   -1    0    0  501    0  0.00000000000E+00  0.00000000000E+00  0.15334872326E+04  0.15334872326E+04  0.50400001928E-02 0. -1.
       -1   -1    0    0    0  501  0.00000000000E+00  0.00000000000E+00 -0.13724752961E+04  0.13724752961E+04  0.50400001928E-02 0.  1.
    10030    2    1    2    0    0  0.00000000000E+00  0.00000000000E+00  0.16101193644E+03  0.29059625287E+04  0.29014984705E+04 0.  0.
        5    1    3    3  502    0  0.10317705040E+04 -0.35093909385E+02 -0.94031156284E+03  0.13964203811E+04  0.46999998093E+01 0.  1.
       -5    1    3    3    0  502 -0.10317705040E+04  0.35093909385E+02  0.11013234993E+04  0.15095421476E+04  0.46999998093E+01 0. -1.
</event>
<event>
 5   0  0.2492232E-07  0.2900955E+04  0.7818609E-02  0.8272593E-01
        2   -1    0    0  501    0  0.00000000000E+00  0.00000000000E+00  0.18070193954E+04  0.18070193954E+04  0.25500000920E-02 0. -1.
       -2   -1    0    0    0  501  0.00000000000E+00  0.00000000000E+00 -0.11642847120E+04  0.11642847120E+04  0.25500000920E-02 0.  1.
    10030    2    1    2    0    0  0.00000000000E+00  0.00000000000E+00  0.64273468339E+03  0.29713041074E+04  0.29009550540E+04 0.  0.
        4    1    3    3  502    0  0.10903651079E+04  0.41165564528E+03 -0.56301037804E+03  0.12943487697E+04  0.12699999809E+01 0.  1.
       -4    1    3    3    0  502 -0.10903651079E+04 -0.41165564528E+03  0.12057450614E+04  0.16769553378E+04  0.12699999809E+01 0. -1.
</event>
<event>
 5   0  0.9421924E-08  0.2900310E+04  0.7818609E-02  0.8272785E-01
        1   -1    0    0  501    0  0.00000000000E+00  0.00000000000E+00  0.10005323990E+04  0.10005323991E+04  0.50400001928E-02 0.  1.
       -1   -1    0    0    0  501  0.00000000000E+00  0.00000000000E+00 -0.21018310202E+04  0.21018310202E+04  0.50400001928E-02 0. -1.
    10030    2    1    2    0    0  0.00000000000E+00  0.00000000000E+00 -0.11012986211E+04  0.31023634193E+04  0.29003103510E+04 0.  0.
        1    1    3    3  502    0 -0.70063800977E+03 -0.11532889738E+04  0.17363442871E+02  0.13495445777E+04  0.50400001928E-02 0.  1.
       -1    1    3    3    0  502  0.70063800977E+03  0.11532889738E+04 -0.11186620640E+04  0.17528188416E+04  0.50400001928E-02 0. -1.
</event>
<event>
 5   0  0.9388076E-08  0.2900168E+04  0.7818609E-02  0.8272828E-01
        1   -1    0    0  501    0  0.00000000000E+00  0.00000000000E+00  0.10011415158E+04  0.10011415158E+04  0.50400001928E-02 0. -1.
       -1   -1    0    0    0  501  0.00000000000E+00  0.00000000000E+00 -0.21003458855E+04  0.21003458855E+04  0.50400001928E-02 0.  1.
    10030    2    1    2    0    0  0.00000000000E+00  0.00000000000E+00 -0.10992043697E+04  0.31014874013E+04  0.29001679010E+04 0.  0.
        5    1    3    3  502    0 -0.63618219845E+02  0.86294244937E+03  0.69478898765E+03  0.11097165296E+04  0.46999998093E+01 0. -1.
       -5    1    3    3    0  502  0.63618219845E+02 -0.86294244937E+03 -0.17939933573E+04  0.19917708716E+04  0.46999998093E+01 0.  1.
</event>
<event>
 5   0  0.9421924E-08  0.2899641E+04  0.7818609E-02  0.8272984E-01
        1   -1    0    0  501    0  0.00000000000E+00  0.00000000000E+00  0.16221864163E+04  0.16221864163E+04  0.50400001928E-02 0. -1.
       -1   -1    0    0    0  501  0.00000000000E+00  0.00000000000E+00 -0.12957697493E+04  0.12957697494E+04  0.50400001928E-02 0.  1.
    10030    2    1    2    0    0  0.00000000000E+00  0.00000000000E+00  0.32641666695E+03  0.29179561657E+04  0.28996414165E+04 0.  0.
        1    1    3    3  502    0 -0.64085904884E+03 -0.66175703977E+03 -0.96339733368E+03  0.13329505327E+04  0.50400001928E-02 0.  1.
       -1    1    3    3    0  502  0.64085904884E+03  0.66175703977E+03  0.12898140006E+04  0.15850056329E+04  0.50400001928E-02 0. -1.
</event>
<event>
 5   0  0.9395744E-08  0.2898331E+04  0.7818609E-02  0.8273374E-01
       -1   -1    0    0    0  501  0.00000000000E+00  0.00000000000E+00  0.13919559628E+04  0.13919559628E+04  0.50400001928E-02 0.  1.
        1   -1    0    0  501    0  0.00000000000E+00  0.00000000000E+00 -0.15087266650E+04  0.15087266650E+04  0.50400001928E-02 0. -1.
    10030    2    1    2    0    0  0.00000000000E+00  0.00000000000E+00 -0.11677070218E+03  0.29006826278E+04  0.28983312975E+04 0.  0.
        2    1    3    3  502    0  0.36435422885E+03  0.64390906160E+03 -0.13054733785E+04  0.15005444431E+04  0.25500000920E-02 0. -1.
       -2    1    3    3    0  502 -0.36435422885E+03 -0.64390906160E+03  0.11887026763E+04  0.14001381847E+04  0.25500000920E-02 0.  1.
</event>
<event>
 5   0  0.2678723E-07  0.2902066E+04  0.7818609E-02  0.8272263E-01
        2   -1    0    0  501    0  0.00000000000E+00  0.00000000000E+00  0.22807684258E+04  0.22807684258E+04  0.25500000920E-02 0.  1.
       -2   -1    0    0    0  501  0.00000000000E+00  0.00000000000E+00 -0.92315240773E+03  0.92315240773E+03  0.25500000920E-02 0. -1.
    10030    2    1    2    0    0  0.00000000000E+00  0.00000000000E+00  0.13576160181E+04  0.32039208335E+04  0.29020660666E+04 0.  0.
        5    1    3    3  502    0 -0.10749519020E+04 -0.31598986097E+03 -0.33910439467E+03  0.11706344708E+04  0.46999998093E+01 0. -1.
       -5    1    3    3    0  502  0.10749519020E+04  0.31598986097E+03  0.16967204128E+04  0.20332863627E+04  0.46999998093E+01 0.  1.
</event>
<event>
 5   0  0.2492232E-07  0.2901456E+04  0.7818609E-02  0.8272444E-01
       -2   -1    0    0    0  501  0.00000000000E+00  0.00000000000E+00  0.16947707268E+04  0.16947707268E+04  0.25500000920E-02 0.  1.
        2   -1    0    0  501    0  0.00000000000E+00  0.00000000000E+00 -0.12418268307E+04  0.12418268307E+04  0.25500000920E-02 0. -1.
    10030    2    1    2    0    0  0.00000000000E+00  0.00000000000E+00  0.45294389605E+03  0.29365975575E+04  0.29014560210E+04 0.  0.
        4    1    3    3  502    0 -0.99382072592E+03  0.10469387843E+04  0.80328857580E+02  0.14457575148E+04  0.12699999809E+01 0. -1.
       -4    1    3    3    0  502  0.99382072592E+03 -0.10469387843E+04  0.37261503847E+03  0.14908400427E+04  0.12699999809E+01 0.  1.
</event>
<event>
 5   0  0.9763851E-08  0.2899651E+04  0.7818609E-02  0.8272981E-01
       -1   -1    0    0    0  501  0.00000000000E+00  0.00000000000E+00  0.10327115676E+04  0.10327115676E+04  0.50400001928E-02 0. -1.
        1   -1    0    0  501    0  0.00000000000E+00  0.00000000000E+00 -0.20354125596E+04  0.20354125596E+04  0.50400001928E-02 0.  1.
    10030    2    1    2    0    0  0.00000000000E+00  0.00000000000E+00 -0.10027009919E+04  0.30681241272E+04  0.28996510791E+04 0.  0.
        3    1    3    3  502    0 -0.13580109260E+04 -0.50714138490E+03 -0.47525965252E+03  0.15255352526E+04  0.10100000352E+00 0. -1.
       -3    1    3    3    0  502  0.13580109260E+04  0.50714138490E+03 -0.52744133942E+03  0.15425888746E+04  0.10100000352E+00 0.  1.
</event>
<event>
 5   0  0.9395744E-08  0.2900286E+04  0.7818609E-02  0.8272792E-01
        1   -1    0    0  501    0  0.00000000000E+00  0.00000000000E+00  0.16999566097E+04  0.16999566097E+04  0.50400001928E-02 0.  1.
       -1   -1    0    0    0  501  0.00000000000E+00  0.00000000000E+00 -0.12370406070E+04  0.12370406070E+04  0.50400001928E-02 0. -1.
    10030    2    1    2    0    0  0.00000000000E+00  0.00000000000E+00  0.46291600270E+03  0.29369972167E+04  0.29002864385E+04 0.  0.
        2    1    3    3  502    0  0.40887605654E+03 -0.10933026208E+04 -0.63991321745E+03  0.13311570817E+04  0.25500000920E-02 0. -1.
       -2    1    3    3    0  502 -0.40887605654E+03  0.10933026208E+04  0.11028292201E+04  0.16058401350E+04  0.25500000920E-02 0.  1.
</event>
<event>
 5   0  0.2492232E-07  0.2899447E+04  0.7818609E-02  0.8273042E-01
       -2   -1    0    0    0  501  0.00000000000E+00  0.00000000000E+00  0.10215879959E+04  0.10215879959E+04  0.25500000920E-02 0.  1.
        2   -1    0    0  501    0  0.00000000000E+00  0.00000000000E+00 -0.20572857709E+04  0.20572857709E+04  0.25500000920E-02 0. -1.
    10030    2    1    2    0    0  0.00000000000E+00  0.00000000000E+00 -0.10356977750E+04  0.30788737668E+04  0.28994471526E+04 0.  0.
        4    1    3    3  502    0  0.97903184138E+03 -0.40723416930E+03  0.53194150335E+03  0.11862994525E+04  0.12699999809E+01 0.  1.
       -4    1    3    3    0  502 -0.97903184138E+03  0.40723416930E+03 -0.15676392784E+04  0.18925743143E+04  0.12699999809E+01 0. -1.
</event>
<event>
 5   0  0.9421924E-08  0.2899582E+04  0.7818609E-02  0.8273002E-01
       -1   -1    0    0    0  501  0.00000000000E+00  0.00000000000E+00  0.85921138860E+03  0.85921138862E+03  0.50400001928E-02 0. -1.
        1   -1    0    0  501    0  0.00000000000E+00  0.00000000000E+00 -0.24463058508E+04  0.24463058508E+04  0.50400001928E-02 0.  1.
    10030    2    1    2    0    0  0.00000000000E+00  0.00000000000E+00 -0.15870944622E+04  0.33055172394E+04  0.28995819334E+04 0.  0.
        1    1    3    3  502    0  0.44687373297E+03  0.13742050682E+04 -0.65983104789E+03  0.15885568024E+04  0.50400001928E-02 0. -1.
       -1    1    3    3    0  502 -0.44687373297E+03 -0.13742050682E+04 -0.92726341433E+03  0.17169604370E+04  0.50400001928E-02 0.  1.
</event>
<event>
 5   0  0.2546841E-07  0.2900139E+04  0.7818609E-02  0.8272836E-01
        2   -1    0    0  501    0  0.00000000000E+00  0.00000000000E+00  0.11592154400E+04  0.11592154400E+04  0.25500000920E-02 0.  1.
       -2   -1    0    0    0  501  0.00000000000E+00  0.00000000000E+00 -0.18139002871E+04  0.18139002871E+04  0.25500000920E-02 0. -1.
    10030    2    1    2    0    0  0.00000000000E+00  0.00000000000E+00 -0.65468484707E+03  0.29731157271E+04  0.29001387687E+04 0.  0.
        1    1    3    3  502    0  0.41486555447E+01  0.13940172618E+04  0.81953135964E+02  0.13964303255E+04  0.50400001928E-02 0.  1.
       -1    1    3    3    0  502 -0.41486555447E+01 -0.13940172618E+04 -0.73663798304E+03  0.15766854016E+04  0.50400001928E-02 0. -1.
</event>
<event>
 5   0  0.9421924E-08  0.2900465E+04  0.7818609E-02  0.8272739E-01
        1   -1    0    0  501    0  0.00000000000E+00  0.00000000000E+00  0.21355164018E+04  0.21355164018E+04  0.50400001928E-02 0.  1.
       -1   -1    0    0    0  501  0.00000000000E+00  0.00000000000E+00 -0.98485495151E+03  0.98485495152E+03  0.50400001928E-02 0. -1.
    10030    2    1    2    0    0  0.00000000000E+00  0.00000000000E+00  0.11506614503E+04  0.31203713533E+04  0.29004647230E+04 0.  0.
        1    1    3    3  502    0  0.18497242121E+03  0.10427314718E+04 -0.49058162603E+03  0.11671221233E+04  0.50400001928E-02 0. -1.
       -1    1    3    3    0  502 -0.18497242121E+03 -0.10427314718E+04  0.16412430763E+04  0.19532492300E+04  0.50400001928E-02 0.  1.
</event>
<event>
 5   0  0.9421924E-08  0.2900280E+04  0.7818609E-02  0.8272794E-01
       -1   -1    0    0    0  501  0.00000000000E+00  0.00000000000E+00  0.12334285912E+04  0.12334285912E+04  0.50400001928E-02 0. -1.
        1   -1    0    0  501    0  0.00000000000E+00  0.00000000000E+00 -0.17049267288E+04  0.17049267288E+04  0.50400001928E-02 0.  1.
    10030    2    1    2    0    0  0.00000000000E+00  0.00000000000E+00 -0.47149813760E+03  0.29383553200E+04  0.29002795542E+04 0.  0.
        1    1    3    3  502    0 -0.12506365806E+04 -0.15137999788E+03  0.49194060078E+03  0.13524101875E+04  0.50400001928E-02 0. -1.
       -1    1    3    3    0  502  0.12506365806E+04  0.15137999788E+03 -0.96343873838E+03  0.15859451325E+04  0.50400001928E-02 0.  1.
</event>
<event>
 5   0  0.2534588E-07  0.2899102E+04  0.7818609E-02  0.8273145E-01
       -2   -1    0    0    0  501  0.00000000000E+00  0.00000000000E+00  0.82633981310E+03  0.82633981311E+03  0.25500000920E-02 0.  1.
        2   -1    0    0  501    0  0.00000000000E+00  0.00000000000E+00 -0.25427777113E+04  0.25427777113E+04  0.25500000920E-02 0. -1.
    10030    2    1    2    0    0  0.00000000000E+00  0.00000000000E+00 -0.17164378982E+04  0.33691175244E+04  0.28991022464E+04 0.  0.
        3    1    3    3  502    0  0.58558411514E+02  0.11861534224E+03 -0.25357485770E+04  0.25391966333E+04  0.10100000352E+00 0. -1.
       -3    1    3    3    0  502 -0.58558411514E+02 -0.11861534224E+03  0.81931067874E+03  0.82992089110E+03  0.10100000352E+00 0.  1.
</event>
<event>
 5   0  0.8407500E-08  0.2896372E+04  0.7818609E-02  0.8273958E-01
        3   -1    0    0  501    0  0.00000000000E+00  0.00000000000E+00  0.15230588032E+04  0.15230588066E+04  0.10100000352E+00 0. -1.
       -3   -1    0    0    0  501  0.00000000000E+00  0.00000000000E+00 -0.13769938142E+04  0.13769938179E+04  0.10100000352E+00 0.  1.
    10030    2    1    2    0    0  0.00000000000E+00  0.00000000000E+00  0.14606498900E+03  0.29000526245E+04  0.28963719105E+04 0.  0.
        4    1    3    3  502    0 -0.24472852552E+03  0.13395153902E+04  0.56665739157E+03  0.14748883836E+04  0.12699999809E+01 0. -1.
       -4    1    3    3    0  502  0.24472852552E+03 -0.13395153902E+04 -0.42059240257E+03  0.14251642410E+04  0.12699999809E+01 0.  1.
</event>
<event>
 5   0  0.2534588E-07  0.2900127E+04  0.7818609E-02  0.8272840E-01
       -2   -1    0    0    0  501  0.00000000000E+00  0.00000000000E+00  0.14225406188E+04  0.14225406188E+04  0.25500000920E-02 0. -1.
        2   -1    0    0  501    0  0.00000000000E+00  0.00000000000E+00 -0.14781191447E+04  0.14781191447E+04  0.25500000920E-02 0.  1.
    10030    2    1    2    0    0  0.00000000000E+00  0.00000000000E+00 -0.55578525901E+02  0.29006597636E+04  0.29001272544E+04 0.  0.
        3    1    3    3  502    0 -0.52633023892E+03 -0.91291806511E+03 -0.10240854110E+04  0.14694195634E+04  0.10100000352E+00 0.  1.
       -3    1    3    3    0  502  0.52633023892E+03  0.91291806511E+03  0.96850688510E+03  0.14312402002E+04  0.10100000352E+00 0. -1.
</event>
<event>
 5   0  0.2492232E-07  0.2899733E+04  0.7818609E-02  0.8272957E-01
        2   -1    0    0  501    0  0.00000000000E+00  0.00000000000E+00  0.17962111444E+04  0.17962111444E+04  0.25500000920E-02 0.  1.
       -2   -1    0    0    0  501  0.00000000000E+00  0.00000000000E+00 -0.11703040684E+04  0.11703040684E+04  0.25500000920E-02 0. -1.
    10030    2    1    2    0    0  0.00000000000E+00  0.00000000000E+00  0.62590707598E+03  0.29665152129E+04  0.28997332361E+04 0.  0.
        4    1    3    3  502    0  0.31166268182E+03  0.13046885927E+04  0.87586725433E+03  0.16020271569E+04  0.12699999809E+01 0.  1.
       -4    1    3    3    0  502 -0.31166268182E+03 -0.13046885927E+04 -0.24996017835E+03  0.13644880560E+04  0.12699999809E+01 0. -1.
</event>
<event>
 5   0  0.2534588E-07  0.2903214E+04  0.7818609E-02  0.8271922E-01
        2   -1    0    0  501    0  0.00000000000E+00  0.00000000000E+00  0.21670412807E+04  0.21670412807E+04  0.25500000920E-02 0. -1.
       -2   -1    0    0    0  501  0.00000000000E+00  0.00000000000E+00 -0.97236847806E+03  0.97236847806E+03  0.25500000920E-02 0.  1.
    10030    2    1    2    0    0  0.00000000000E+00  0.00000000000E+00  0.11946728026E+04  0.31394097587E+04  0.29032138275E+04 0.  0.
        3    1    3    3  502    0 -0.84580737956E+02 -0.96277694454E+03  0.17685357180E+04  0.20153937437E+04  0.10100000352E+00 0. -1.
       -3    1    3    3    0  502  0.84580737956E+02  0.96277694454E+03 -0.57386291538E+03  0.11240160150E+04  0.10100000352E+00 0.  1.
</event>
<event>
 5   0  0.2546841E-07  0.2900056E+04  0.7818609E-02  0.8272861E-01
       -2   -1    0    0    0  501  0.00000000000E+00  0.00000000000E+00  0.95529871802E+03  0.95529871802E+03  0.25500000920E-02 0.  1.
        2   -1    0    0  501    0  0.00000000000E+00  0.00000000000E+00 -0.22009667662E+04  0.22009667662E+04  0.25500000920E-02 0. -1.
    10030    2    1    2    0    0  0.00000000000E+00  0.00000000000E+00 -0.12456680482E+04  0.31562654843E+04  0.29000556755E+04 0.  0.
        1    1    3    3  502    0 -0.12600700275E+03 -0.65345134609E+03  0.77927747323E+03  0.10247681722E+04  0.50400001928E-02 0.  1.
       -1    1    3    3    0  502  0.12600700275E+03  0.65345134609E+03 -0.20249455214E+04  0.21314973121E+04  0.50400001928E-02 0. -1.
</event>
<event>
 5   0  0.9395744E-08  0.2898792E+04  0.7818609E-02  0.8273237E-01
       -1   -1    0    0    0  501  0.00000000000E+00  0.00000000000E+00  0.28002780980E+04  0.28002780980E+04  0.50400001928E-02 0.  1.
        1   -1    0    0  501    0  0.00000000000E+00  0.00000000000E+00 -0.75019275211E+03  0.75019275213E+03  0.50400001928E-02 0. -1.
    10030    2    1    2    0    0  0.00000000000E+00  0.00000000000E+00  0.20500853459E+04  0.35504708501E+04  0.28987917021E+04 0.  0.
        2    1    3    3  502    0  0.71083062995E+03  0.87876989110E+03  0.21363392211E+04  0.24169116603E+04  0.25500000920E-02 0.  1.
       -2    1    3    3    0  502 -0.71083062995E+03 -0.87876989110E+03 -0.86253875173E+02  0.11335591899E+04  0.25500000920E-02 0. -1.
</event>
<event>
 5   0  0.9443352E-08  0.2900193E+04  0.7818609E-02  0.8272820E-01
       -1   -1    0    0    0  501  0.00000000000E+00  0.00000000000E+00  0.81125731687E+03  0.81125731689E+03  0.50400001928E-02 0.  1.
        1   -1    0    0  501    0  0.00000000000E+00  0.00000000000E+00 -0.25920010873E+04  0.25920010873E+04  0.50400001928E-02 0. -1.
    10030    2    1    2    0    0  0.00000000000E+00  0.00000000000E+00 -0.17807437705E+04  0.34032584042E+04  0.29001929918E+04 0.  0.
        4    1    3    3  502    0 -0.29229035496E+03 -0.59124894838E+03 -0.24058023366E+04  0.24945732032E+04  0.12699999809E+01 0. -1.
       -4    1    3    3    0  502  0.29229035496E+03  0.59124894838E+03  0.62505856612E+03  0.90868520102E+03  0.12699999809E+01 0.  1.
</event>
<event>
 5   0  0.2678723E-07  0.2900414E+04  0.7818609E-02  0.8272754E-01
        2   -1    0    0  501    0  0.00000000000E+00  0.00000000000E+00  0.24099046348E+04  0.24099046348E+04  0.25500000920E-02 0.  1.
       -2   -1    0    0    0  501  0.00000000000E+00  0.00000000000E+00 -0.87269027050E+03  0.87269027051E+03  0.25500000920E-02 0. -1.
    10030    2    1    2    0    0  0.00000000000E+00  0.00000000000E+00  0.15372143643E+04  0.32825949053E+04  0.29004139895E+04 0.  0.
        5    1    3    3  502    0 -0.12234087204E+02  0.87667282954E+03 -0.53875516854E+03  0.10290695528E+04  0.46999998093E+01 0. -1.
       -5    1    3    3    0  502  0.12234087204E+02 -0.87667282954E+03  0.20759695328E+04  0.22535253524E+04  0.46999998093E+01 0.  1.
</event>
<event>
 5   0  0.9421924E-08  0.2897158E+04  0.7818609E-02  0.8273724E-01
        1   -1    0    0  501    0  0.00000000000E+00  0.00000000000E+00  0.24735918163E+04  0.24735918163E+04  0.50400001928E-02 0.  1.
       -1   -1    0    0    0  501  0.00000000000E+00  0.00000000000E+00 -0.84831332636E+03  0.84831332637E+03  0.50400001928E-02 0. -1.
    10030    2    1    2    0    0  0.00000000000E+00  0.00000000000E+00  0.16252784900E+04  0.33219051427E+04  0.28971578499E+04 0.  0.
        1    1    3    3  502    0 -0.14248168407E+04  0.14877377406E+03  0.56633392063E+03  0.15404449926E+04  0.50400001928E-02 0. -1.
       -1    1    3    3    0  502  0.14248168407E+04 -0.14877377406E+03  0.10589445693E+04  0.17814601501E+04  0.50400001928E-02 0.  1.
</event>
<event>
 5   0  0.9443352E-08  0.2900290E+04  0.7818609E-02  0.8272791E-01
       -1   -1    0    0    0  501  0.00000000000E+00  0.00000000000E+00  0.14125047007E+04  0.14125047007E+04  0.50400001928E-02 0. -1.
        1   -1    0    0  501    0  0.00000000000E+00  0.00000000000E+00 -0.14887878892E+04  0.14887878892E+04  0.50400001928E-02 0.  1.
    10030    2    1    2    0    0  0.00000000000E+00  0.00000000000E+00 -0.76283188540E+02  0.29012925899E+04  0.29002895661E+04 0.  0.
        4    1    3    3  502    0  0.13102246809E+04  0.18981326194E+03  0.55384046258E+03  0.14350814122E+04  0.12699999809E+01 0.  1.
       -4    1    3    3    0  502 -0.13102246809E+04 -0.18981326194E+03 -0.63012365112E+03  0.14662111776E+04  0.12699999809E+01 0. -1.
</event>
<event>
 5   0  0.9388076E-08  0.2907714E+04  0.7818609E-02  0.8270586E-01
       -1   -1    0    0    0  501  0.00000000000E+00  0.00000000000E+00  0.11433705476E+04  0.11433705476E+04  0.50400001928E-02 0.  1.
        1   -1    0    0  501    0  0.00000000000E+00  0.00000000000E+00 -0.18486574899E+04  0.18486574899E+04  0.50400001928E-02 0. -1.
    10030    2    1    2    0    0  0.00000000000E+00  0.00000000000E+00 -0.70528694233E+03  0.29920280375E+04  0.29077142408E+04 0.  0.
        5    1    3    3  502    0  0.13849012314E+04 -0.34276343857E+03 -0.64818132232E+02  0.14281672437E+04  0.46999998093E+01 0.  1.
       -5    1    3    3    0  502 -0.13849012314E+04  0.34276343857E+03 -0.64046881009E+03  0.15638607938E+04  0.46999998093E+01 0. -1.
</event>
<event>
 5   0  0.2492232E-07  0.2899888E+04  0.7818609E-02  0.8272911E-01
       -2   -1    0    0    0  501  0.00000000000E+00  0.00000000000E+00  0.14581961925E+04  0.14581961925E+04  0.25500000920E-02 0. -1.
        2   -1    0    0  501    0  0.00000000000E+00  0.00000000000E+00 -0.14417382474E+04  0.14417382474E+04  0.25500000920E-02 0.  1.
    10030    2    1    2    0    0  0.00000000000E+00  0.00000000000E+00  0.16457945110E+02  0.28999344400E+04  0.28998877379E+04 0.  0.
        4    1    3    3  502    0 -0.13500862690E+04 -0.11055893182E+03  0.52532471918E+03  0.14529018841E+04  0.12699999809E+01 0. -1.
       -4    1    3    3    0  502  0.13500862690E+04  0.11055893182E+03 -0.50886677407E+03  0.14470325559E+04  0.12699999809E+01 0.  1.
</event>
<event>
 5   0  0.9421924E-08  0.2900287E+04  0.7818609E-02  0.8272792E-01
        1   -1    0    0  501    0  0.00000000000E+00  0.00000000000E+00  0.26797495908E+04  0.26797495908E+04  0.50400001928E-02 0. -1.
       -1   -1    0    0    0  501  0.00000000000E+00  0.00000000000E+00 -0.78474361411E+03  0.78474361413E+03  0.50400001928E-02 0.  1.
    10030    2    1    2    0    0  0.00000000000E+00  0.00000000000E+00  0.18950059767E+04  0.34644932049E+04  0.29002871436E+04 0.  0.
        1    1    3    3  502    0  0.48785454339E+02 -0.14462397318E+04  0.83464003898E+03  0.16705129084E+04  0.50400001928E-02 0.  1.
       -1    1    3    3    0  502 -0.48785454339E+02  0.14462397318E+04  0.10603659377E+04  0.17939802965E+04  0.50400001928E-02 0. -1.
</event>
<event>
 5   0  0.2608591E-07  0.2899937E+04  0.7818609E-02  0.8272896E-01
       -2   -1    0    0    0  501  0.00000000000E+00  0.00000000000E+00  0.13911975875E+04  0.13911975875E+04  0.25500000920E-02 0.  1.
        2   -1    0    0  501    0  0.00000000000E+00  0.00000000000E+00 -0.15112223319E+04  0.15112223319E+04  0.25500000920E-02 0. -1.
    10030    2    1    2    0    0  0.00000000000E+00  0.00000000000E+00 -0.12002474442E+03  0.29024199194E+04  0.28999371457E+04 0.  0.
        2    1    3    3  502    0  0.45865786944E+03  0.72654709844E+03  0.11089649577E+04  0.14028688481E+04  0.25500000920E-02 0.  1.
       -2    1    3    3    0  502 -0.45865786944E+03 -0.72654709844E+03 -0.12289897021E+04  0.14995510713E+04  0.25500000920E-02 0. -1.
</event>
<event>
 5   0  0.2678723E-07  0.2899157E+04  0.7818609E-02  0.8273128E-01
        2   -1    0    0  501    0  0.00000000000E+00  0.00000000000E+00  0.20127231686E+04  0.20127231686E+04  0.25500000920E-02 0.  1.
       -2   -1    0    0    0  501  0.00000000000E+00  0.00000000000E+00 -0.10439971781E+04  0.10439971781E+04  0.25500000920E-02 0. -1.
    10030    2    1    2    0    0  0.00000000000E+00  0.00000000000E+00  0.96872599047E+03  0.30567203467E+04  0.28991566417E+04 0.  0.
        5    1    3    3  502    0  0.90309034075E+03 -0.44298069551E+03  0.15848575786E+04  0.18771253806E+04  0.46999998093E+01 0.  1.
       -5    1    3    3    0  502 -0.90309034075E+03  0.44298069551E+03 -0.61613158810E+03  0.11795949661E+04  0.46999998093E+01 0. -1.
</event>
<event>
 5   0  0.9763851E-08  0.2900264E+04  0.7818609E-02  0.8272799E-01
       -1   -1    0    0    0  501  0.00000000000E+00  0.00000000000E+00  0.10889047218E+04  0.10889047218E+04  0.50400001928E-02 0. -1.
        1   -1    0    0  501    0  0.00000000000E+00  0.00000000000E+00 -0.19311911880E+04  0.19311911880E+04  0.50400001928E-02 0.  1.
    10030    2    1    2    0    0  0.00000000000E+00  0.00000000000E+00 -0.84228646622E+03  0.30200959098E+04  0.29002642661E+04 0.  0.
        3    1    3    3  502    0 -0.59309510112E+03  0.73383845837E+03 -0.15678236485E+04  0.18298501810E+04  0.10100000352E+00 0.  1.
       -3    1    3    3    0  502  0.59309510112E+03 -0.73383845837E+03  0.72553718223E+03  0.11902457288E+04  0.10100000352E+00 0. -1.
</event>
<event>
 5   0  0.9388076E-08  0.2899903E+04  0.7818609E-02  0.8272906E-01
        1   -1    0    0  501    0  0.00000000000E+00  0.00000000000E+00  0.13749881882E+04  0.13749881882E+04  0.50400001928E-02 0. -1.
       -1   -1    0    0    0  501  0.00000000000E+00  0.00000000000E+00 -0.15290018180E+04  0.15290018180E+04  0.50400001928E-02 0.  1.
    10030    2    1    2    0    0  0.00000000000E+00  0.00000000000E+00 -0.15401362978E+03  0.29039900062E+04  0.28999030601E+04 0.  0.
        5    1    3    3  502    0 -0.18297504922E+03  0.86257681353E+03 -0.12296366731E+04  0.15131249340E+04  0.46999998093E+01 0.  1.
       -5    1    3    3    0  502  0.18297504922E+03 -0.86257681353E+03  0.10756230433E+04  0.13908650723E+04  0.46999998093E+01 0. -1.
</event>
<event>
 5   0  0.2608591E-07  0.2900250E+04  0.7818609E-02  0.8272803E-01
       -2   -1    0    0    0  501  0.00000000000E+00  0.00000000000E+00  0.14030416408E+04  0.14030416408E+04  0.25500000920E-02 0.  1.
        2   -1    0    0  501    0  0.00000000000E+00  0.00000000000E+00 -0.14987886116E+04  0.14987886116E+04  0.25500000920E-02 0. -1.
    10030    2    1    2    0    0  0.00000000000E+00  0.00000000000E+00 -0.95746970769E+02  0.29018302524E+04  0.29002502188E+04 0.  0.
        2    1    3    3  502    0  0.14203437162E+04 -0.71070518851E+02 -0.33163959881E+03  0.14602780949E+04  0.25500000920E-02 0. -1.
       -2    1    3    3    0  502 -0.14203437162E+04  0.71070518851E+02  0.23589262804E+03  0.14415521575E+04  0.25500000920E-02 0.  1.
</event>
<event>
 5   0  0.9443352E-08  0.2900061E+04  0.7818609E-02  0.8272859E-01
       -1   -1    0    0    0  501  0.00000000000E+00  0.00000000000E+00  0.16129820736E+04  0.16129820736E+04  0.50400001928E-02 0.  1.
        1   -1    0    0  501    0  0.00000000000E+00  0.00000000000E+00 -0.13035408615E+04  0.13035408615E+04  0.50400001928E-02 0. -1.
    10030    2    1    2    0    0  0.00000000000E+00  0.00000000000E+00  0.30944121204E+03  0.29165229351E+04  0.29000607179E+04 0.  0.
        4    1    3    3  502    0  0.63738304987E+03 -0.77456257016E+03  0.12077470412E+04  0.15699868967E+04  0.12699999809E+01 0.  1.
       -4    1    3    3    0  502 -0.63738304987E+03  0.77456257016E+03 -0.89830582912E+03  0.13465360385E+04  0.12699999809E+01 0. -1.
</event>
<event>
 5   0  0.2534588E-07  0.2898762E+04  0.7818609E-02  0.8273246E-01
        2   -1    0    0  501    0  0.00000000000E+00  0.00000000000E+00  0.25090612474E+04  0.25090612474E+04  0.25500000920E-02 0.  1.
       -2   -1    0    0    0  501  0.00000000000E+00  0.00000000000E+00 -0.83724748862E+03  0.83724748863E+03  0.25500000920E-02 0. -1.
    10030    2    1    2    0    0  0.00000000000E+00  0.00000000000E+00  0.16718137588E+04  0.33463087360E+04  0.28987619621E+04 0.  0.
        3    1    3    3  502    0  0.16544739193E+03 -0.87521400851E+03  0.21558236139E+04  0.23325839458E+04  0.10100000352E+00 0.  1.
       -3    1    3    3    0  502 -0.16544739193E+03  0.87521400851E+03 -0.48400985508E+03  0.10137247902E+04  0.10100000352E+00 0. -1.
</event>
<event>
 5   0  0.2678723E-07  0.2899491E+04  0.7818609E-02  0.8273029E-01
        2   -1    0    0  501    0  0.00000000000E+00  0.00000000000E+00  0.24229299347E+04  0.24229299347E+04  0.25500000920E-02 0. -1.
       -2   -1    0    0    0  501  0.00000000000E+00  0.00000000000E+00 -0.86744674677E+03  0.86744674677E+03  0.25500000920E-02 0.  1.
    10030    2    1    2    0    0  0.00000000000E+00  0.00000000000E+00  0.15554831879E+04  0.32903766815E+04  0.28994914654E+04 0.  0.
        5    1    3    3  502    0  0.49691777490E+03 -0.73592917939E+03  0.20781889837E+04  0.22599580912E+04  0.46999998093E+01 0. -1.
       -5    1    3    3    0  502 -0.49691777490E+03  0.73592917939E+03 -0.52270579581E+03  0.10304185902E+04  0.46999998093E+01 0.  1.
</event>
<event>
 5   0  0.2546841E-07  0.2895196E+04  0.7818609E-02  0.8274308E-01
        2   -1    0    0  501    0  0.00000000000E+00  0.00000000000E+00  0.16158031378E+04  0.16158031378E+04  0.25500000920E-02 0.  1.
       -2   -1    0    0    0  501  0.00000000000E+00  0.00000000000E+00 -0.12969030224E+04  0.12969030224E+04  0.25500000920E-02 0. -1.
    10030    2    1    2    0    0  0.00000000000E+00  0.00000000000E+00  0.31890011544E+03  0.29127061602E+04  0.28951960024E+04 0.  0.
        1    1    3    3  502    0  0.79995226838E+02  0.99068120581E+03  0.12182846285E+04  0.15722804852E+04  0.50400001928E-02 0.  1.
       -1    1    3    3    0  502 -0.79995226838E+02 -0.99068120581E+03 -0.89938451310E+03  0.13404256750E+04  0.50400001928E-02 0. -1.
</event>
<event>
 5   0  0.9421924E-08  0.2903263E+04  0.7818609E-02  0.8271907E-01
       -1   -1    0    0    0  501  0.00000000000E+00  0.00000000000E+00  0.98361881396E+03  0.98361881397E+03  0.50400001928E-02 0. -1.
        1   -1    0    0  501    0  0.00000000000E+00  0.00000000000E+00 -0.21423285178E+04  0.21423285178E+04  0.50400001928E-02 0.  1.
    10030    2    1    2    0    0  0.00000000000E+00  0.00000000000E+00 -0.11587097039E+04  0.31259473318E+04  0.29032634299E+04 0.  0.
        1    1    3    3  502    0 -0.93820770475E+03  0.75553891951E+03 -0.14515239816E+04  0.18862647283E+04  0.50400001928E-02 0.  1.
       -1    1    3    3    0  502  0.93820770475E+03 -0.75553891951E+03  0.29281427772E+03  0.12396826035E+04  0.50400001928E-02 0. -1.
</event>
<event>
 5   0  0.2546841E-07  0.2900369E+04  0.7818609E-02  0.8272768E-01
        2   -1    0    0  501    0  0.00000000000E+00  0.00000000000E+00  0.21252439560E+04  0.21252439560E+04  0.25500000920E-02 0. -1.
       -2   -1    0    0    0  501  0.00000000000E+00  0.00000000000E+00 -0.98954963257E+03  0.98954963257E+03  0.25500000920E-02 0.  1.
    10030    2    1    2    0    0  0.00000000000E+00  0.00000000000E+00  0.11356943234E+04  0.31147935886E+04  0.29003685116E+04 0.  0.
        1    1    3    3  502    0  0.12953515900E+04 -0.40650755694E+03  0.11152885798E+04  0.17570010677E+04  0.50400001928E-02 0.  1.
       -1    1    3    3    0  502 -0.12953515900E+04  0.40650755694E+03  0.20405743603E+02  0.13577925209E+04  0.50400001928E-02 0. -1.
</event>
<event>
 5   0  0.9421924E-08  0.2907633E+04  0.7818609E-02  0.8270610E-01
        1   -1    0    0  501    0  0.00000000000E+00  0.00000000000E+00  0.18533953429E+04  0.18533953429E+04  0.50400001928E-02 0. -1.
       -1   -1    0    0    0  501  0.00000000000E+00  0.00000000000E+00 -0.11403838571E+04  0.11403838572E+04  0.50400001928E-02 0.  1.
    10030    2    1    2    0    0  0.00000000000E+00  0.00000000000E+00  0.71301148575E+03  0.29937792001E+04  0.29076328035E+04 0.  0.
        1    1    3    3  502    0 -0.35943134840E+03  0.86882445100E+03 -0.78519086149E+03  0.12249781671E+04  0.50400001928E-02 0.  1.
       -1    1    3    3    0  502  0.35943134840E+03 -0.86882445100E+03  0.14982023472E+04  0.17688010330E+04  0.50400001928E-02 0. -1.
</event>
<event>
 5   0  0.2492232E-07  0.2898638E+04  0.7818609E-02  0.8273283E-01
        2   -1    0    0  501    0  0.00000000000E+00  0.00000000000E+00  0.16279606607E+04  0.16279606607E+04  0.25500000920E-02 0. -1.
       -2   -1    0    0    0  501  0.00000000000E+00  0.00000000000E+00 -0.12902801409E+04  0.12902801409E+04  0.25500000920E-02 0.  1.
    10030    2    1    2    0    0  0.00000000000E+00  0.00000000000E+00  0.33768051973E+03  0.29182408016E+04  0.28986378254E+04 0.  0.
        4    1    3    3  502    0 -0.79816149677E+03 -0.12059958670E+04  0.73140097281E+02  0.14480465783E+04  0.12699999809E+01 0. -1.
       -4    1    3    3    0  502  0.79816149677E+03  0.12059958670E+04  0.26454042245E+03  0.14701942233E+04  0.12699999809E+01 0.  1.
</event>
<event>
 5   0  0.9421924E-08  0.2902709E+04  0.7818609E-02  0.8272072E-01
       -1   -1    0    0    0  501  0.00000000000E+00  0.00000000000E+00  0.96832708783E+03  0.96832708784E+03  0.50400001928E-02 0.  1.
        1   -1    0    0  501    0  0.00000000000E+00  0.00000000000E+00 -0.21753283852E+04  0.21753283852E+04  0.50400001928E-02 0. -1.
    10030    2    1    2    0    0  0.00000000000E+00  0.00000000000E+00 -0.12070012973E+04  0.31436554730E+04  0.29027086663E+04 0.  0.
        1    1    3    3  502    0  0.55627762739E+03 -0.34235290095E+03  0.80014531118E+03  0.10329002016E+04  0.50400001928E-02 0.  1.
       -1    1    3    3    0  502 -0.55627762739E+03  0.34235290095E+03 -0.20071466085E+04  0.21107552714E+04  0.50400001928E-02 0. -1.
</event>
<event>
 5   0  0.2678723E-07  0.2899566E+04  0.7818609E-02  0.8273007E-01
       -2   -1    0    0    0  501  0.00000000000E+00  0.00000000000E+00  0.81495815977E+03  0.81495815977E+03  0.25500000920E-02 0.  1.
        2   -1    0    0  501    0  0.00000000000E+00  0.00000000000E+00 -0.25791150183E+04  0.25791150183E+04  0.25500000920E-02 0. -1.
    10030    2    1    2    0    0  0.00000000000E+00  0.00000000000E+00 -0.17641568586E+04  0.33940731781E+04  0.28995660566E+04 0.  0.
        5    1    3    3  502    0 -0.92302507637E+03 -0.97571676891E+03 -0.15209111726E+04  0.20290863436E+04  0.46999998093E+01 0. -1.
       -5    1    3    3    0  502  0.92302507637E+03  0.97571676891E+03 -0.24324568597E+03  0.13649868345E+04  0.46999998093E+01 0.  1.
</event>
<event>
 5   0  0.2678723E-07  0.2899901E+04  0.7818609E-02  0.8272907E-01
        2   -1    0    0  501    0  0.00000000000E+00  0.00000000000E+00  0.28689665612E+04  0.28689665612E+04  0.25500000920E-02 0.  1.
       -2   -1    0    0    0  501  0.00000000000E+00  0.00000000000E+00 -0.73279232758E+03  0.73279232758E+03  0.25500000920E-02 0. -1.
    10030    2    1    2    0    0  0.00000000000E+00  0.00000000000E+00  0.21361742336E+04  0.36017588888E+04  0.28999011598E+04 0.  0.
        5    1    3    3  502    0 -0.75778463995E+02  0.99240382010E+03 -0.24148823827E+03  0.10241808322E+04  0.46999998093E+01 0. -1.
       -5    1    3    3    0  502  0.75778463995E+02 -0.99240382010E+03  0.23776624719E+04  0.25775780566E+04  0.46999998093E+01 0.  1.
</event>
<event>
 5   0  0.2608591E-07  0.2900438E+04  0.7818609E-02  0.8272747E-01
        2   -1    0    0  501    0  0.00000000000E+00  0.00000000000E+00  0.18644631249E+04  0.18644631249E+04  0.25500000920E-02 0.  1.
       -2   -1    0    0    0  501  0.00000000000E+00  0.00000000000E+00 -0.11280110623E+04  0.11280110623E+04  0.25500000920E-02 0. -1.
    10030    2    1    2    0    0  0.00000000000E+00  0.00000000000E+00  0.73645206254E+03  0.29924741872E+04  0.29004379188E+04 0.  0.
        2    1    3    3  502    0 -0.71866502695E+03  0.89118999232E+03 -0.55021005468E+03  0.12702086945E+04  0.25500000920E-02 0. -1.
       -2    1    3    3    0  502  0.71866502695E+03 -0.89118999232E+03  0.12866621172E+04  0.17222654927E+04  0.25500000920E-02 0.  1.
</event>
<event>
 5   0  0.2608591E-07  0.2898747E+04  0.7818609E-02  0.8273250E-01
        2   -1    0    0  501    0  0.00000000000E+00  0.00000000000E+00  0.16292368737E+04  0.16292368737E+04  0.25500000920E-02 0.  1.
       -2   -1    0    0    0  501  0.00000000000E+00  0.00000000000E+00 -0.12893663988E+04  0.12893663988E+04  0.25500000920E-02 0. -1.
    10030    2    1    2    0    0  0.00000000000E+00  0.00000000000E+00  0.33987047497E+03  0.29186032725E+04  0.28987468193E+04 0.  0.
        2    1    3    3  502    0  0.43580938940E+03 -0.33337431759E+02  0.15612992530E+04  0.16213255582E+04  0.25500000920E-02 0.  1.
       -2    1    3    3    0  502 -0.43580938940E+03  0.33337431759E+02 -0.12214287780E+04  0.12972777143E+04  0.25500000920E-02 0. -1.
</event>
<event>
 5   0  0.2546841E-07  0.2900214E+04  0.7818609E-02  0.8272814E-01
        2   -1    0    0  501    0  0.00000000000E+00  0.00000000000E+00  0.90426327834E+03  0.90426327834E+03  0.25500000920E-02 0.  1.
       -2   -1    0    0    0  501  0.00000000000E+00  0.00000000000E+00 -0.23254407556E+04  0.23254407556E+04  0.25500000920E-02 0. -1.
    10030    2    1    2    0    0  0.00000000000E+00  0.00000000000E+00 -0.14211774772E+04  0.32297040339E+04  0.29002142550E+04 0.  0.
        1    1    3    3  502    0 -0.10338603904E+04 -0.92272875354E+03 -0.23483528409E+03  0.14055046318E+04  0.50400001928E-02 0.  1.
       -1    1    3    3    0  502  0.10338603904E+04  0.92272875354E+03 -0.11863421931E+04  0.18241994021E+04  0.50400001928E-02 0. -1.
</event>
<event>
 5   0  0.9388076E-08  0.2898662E+04  0.7818609E-02  0.8273276E-01
        1   -1    0    0  501    0  0.00000000000E+00  0.00000000000E+00  0.11344084759E+04  0.11344084759E+04  0.50400001928E-02 0. -1.
       -1   -1    0    0    0  501  0.00000000000E+00  0.00000000000E+00 -0.18516791232E+04  0.18516791232E+04  0.50400001928E-02 0.  1.
    10030    2    1    2    0    0  0.00000000000E+00  0.00000000000E+00 -0.71727064722E+03  0.29860875991E+04  0.28986620997E+04 0.  0.
        5    1    3    3  502    0 -0.84746318058E+03 -0.11142052896E+04  0.28040288241E+02  0.14001627111E+04  0.46999998093E+01 0. -1.
       -5    1    3    3    0  502  0.84746318058E+03  0.11142052896E+04 -0.74531093546E+03  0.15859248880E+04  0.46999998093E+01 0.  1.
</event>
<event>
 5   0  0.9763851E-08  0.2900292E+04  0.7818609E-02  0.8272791E-01
        1   -1    0    0  501    0  0.00000000000E+00  0.00000000000E+00  0.16692109095E+04  0.16692109095E+04  0.50400001928E-02 0. -1.
       -1   -1    0    0    0  501  0.00000000000E+00  0.00000000000E+00 -0.12598309153E+04  0.12598309153E+04  0.50400001928E-02 0.  1.
    10030    2    1    2    0    0  0.00000000000E+00  0.00000000000E+00  0.40937999418E+03  0.29290418249E+04  0.29002920598E+04 0.  0.
        3    1    3    3  502    0 -0.12572918306E+04  0.66017787809E+03  0.50138083301E+03  0.15059881567E+04  0.10100000352E+00 0. -1.
       -3    1    3    3    0  502  0.12572918306E+04 -0.66017787809E+03 -0.92000838828E+02  0.14230536682E+04  0.10100000352E+00 0.  1.
</event>
<event>
 5   0  0.2534588E-07  0.2893739E+04  0.7818609E-02  0.8274743E-01
        2   -1    0    0  501    0  0.00000000000E+00  0.00000000000E+00  0.28766527299E+04  0.28766527299E+04  0.25500000920E-02 0. -1.
       -2   -1    0    0    0  501  0.00000000000E+00  0.00000000000E+00 -0.72773166805E+03  0.72773166806E+03  0.25500000920E-02 0.  1.
    10030    2    1    2    0    0  0.00000000000E+00  0.00000000000E+00  0.21489210619E+04  0.36043843980E+04  0.28937389582E+04 0.  0.
        3    1    3    3  502    0  0.53949344529E+03  0.10750030021E+04  0.72757834277E+02  0.12049806408E+04  0.10100000352E+00 0.  1.
       -3    1    3    3    0  502 -0.53949344529E+03 -0.10750030021E+04  0.20761632276E+04  0.23994037572E+04  0.10100000352E+00 0. -1.
</event>
<event>
 5   0  0.9421924E-08  0.2901064E+04  0.7818609E-02  0.8272561E-01
       -1   -1    0    0    0  501  0.00000000000E+00  0.00000000000E+00  0.10004188524E+04  0.10004188524E+04  0.50400001928E-02 0.  1.
        1   -1    0    0  501    0  0.00000000000E+00  0.00000000000E+00 -0.21031622316E+04  0.21031622316E+04  0.50400001928E-02 0. -1.
    10030    2    1    2    0    0  0.00000000000E+00  0.00000000000E+00 -0.11027433792E+04  0.31035810840E+04  0.29010640435E+04 0.  0.
        1    1    3    3  502    0  0.25723516522E+03  0.11211767119E+04 -0.14967065927E+04  0.18876805276E+04  0.50400001928E-02 0. -1.
       -1    1    3    3    0  502 -0.25723516522E+03 -0.11211767119E+04  0.39396321350E+03  0.12159005564E+04  0.50400001928E-02 0.  1.
</event>
<event>
 5   0  0.2608591E-07  0.2898887E+04  0.7818609E-02  0.8273209E-01
       -2   -1    0    0    0  501  0.00000000000E+00  0.00000000000E+00  0.10341219296E+04  0.10341219296E+04  0.25500000920E-02 0.  1.
        2   -1    0    0  501    0  0.00000000000E+00  0.00000000000E+00 -0.20315651460E+04  0.20315651460E+04  0.25500000920E-02 0. -1.
    10030    2    1    2    0    0  0.00000000000E+00  0.00000000000E+00 -0.99744321643E+03  0.30656870756E+04  0.28988867304E+04 0.  0.
        2    1    3    3  502    0  0.37407576882E+03  0.65864506238E+03  0.80815929820E+03  0.11076404878E+04  0.25500000920E-02 0.  1.
       -2    1    3    3    0  502 -0.37407576882E+03 -0.65864506238E+03 -0.18056025146E+04  0.19580465878E+04  0.25500000920E-02 0. -1.
</event>
<event>
 5   0  0.9443352E-08  0.2900515E+04  0.7818609E-02  0.8272724E-01
       -1   -1    0    0    0  501  0.00000000000E+00  0.00000000000E+00  0.17578818050E+04  0.17578818050E+04  0.50400001928E-02 0. -1.
        1   -1    0    0  501    0  0.00000000000E+00  0.00000000000E+00 -0.11964666177E+04  0.11964666177E+04  0.50400001928E-02 0.  1.
    10030    2    1    2    0    0  0.00000000000E+00  0.00000000000E+00  0.56141518728E+03  0.29543484227E+04  0.29005150560E+04 0.  0.
        4    1    3    3  502    0  0.11619589366E+04 -0.14934800139E+03  0.11514374732E+04  0.16426391154E+04  0.12699999809E+01 0. -1.
       -4    1    3    3    0  502 -0.11619589366E+04  0.14934800139E+03 -0.59002228593E+03  0.13117093073E+04  0.12699999809E+01 0.  1.
</event>
<event>
 5   0  0.9421924E-08  0.2899781E+04  0.7818609E-02  0.8272943E-01
       -1   -1    0    0    0  501  0.00000000000E+00  0.00000000000E+00  0.21172375069E+04  0.21172375069E+04  0.50400001928E-02 0.  1.
        1   -1    0    0  501    0  0.00000000000E+00  0.00000000000E+00 -0.99288907282E+03  0.99288907283E+03  0.50400001928E-02 0. -1.
    10030    2    1    2    0    0  0.00000000000E+00  0.00000000000E+00  0.11243484341E+04  0.31101265797E+04  0.28997806711E+04 0.  0.
        1    1    3    3  502    0  0.10200848467E+04 -0.65738802165E+03  0.14131035437E+04  0.18626845495E+04  0.50400001928E-02 0.  1.
       -1    1    3    3    0  502 -0.10200848467E+04  0.65738802165E+03 -0.28875510966E+03  0.12474420303E+04  0.50400001928E-02 0. -1.
</event>
<event>
 5   0  0.9395744E-08  0.2900365E+04  0.7818609E-02  0.8272769E-01
        1   -1    0    0  501    0  0.00000000000E+00  0.00000000000E+00  0.25938074455E+04  0.25938074456E+04  0.50400001928E-02 0.  1.
       -1   -1    0    0    0  501  0.00000000000E+00  0.00000000000E+00 -0.81078861524E+03  0.81078861526E+03  0.50400001928E-02 0. -1.
    10030    2    1    2    0    0  0.00000000000E+00  0.00000000000E+00  0.17830188303E+04  0.34045960608E+04  0.29003651818E+04 0.  0.
        2    1    3    3  502    0  0.59083877024E+03  0.62833929383E+03 -0.47698560473E+03  0.98560437687E+03  0.25500000920E-02 0. -1.
       -2    1    3    3    0  502 -0.59083877024E+03 -0.62833929383E+03  0.22600044350E+04  0.24189916839E+04  0.25500000920E-02 0.  1.
</event>
<event>
 5   0  0.9388076E-08  0.2899920E+04  0.7818609E-02  0.8272901E-01
        1   -1    0    0  501    0  0.00000000000E+00  0.00000000000E+00  0.16553665019E+04  0.16553665019E+04  0.50400001928E-02 0.  1.
       -1   -1    0    0    0  501  0.00000000000E+00  0.00000000000E+00 -0.12700415541E+04  0.12700415541E+04  0.50400001928E-02 0. -1.
    10030    2    1    2    0    0  0.00000000000E+00  0.00000000000E+00  0.38532494775E+03  0.29254080560E+04  0.28999201677E+04 0.  0.
        5    1    3    3  502    0  0.12234929396E+04 -0.64683821978E+03 -0.24360530987E+03  0.14052402972E+04  0.46999998093E+01 0.  1.
       -5    1    3    3    0  502 -0.12234929396E+04  0.64683821978E+03  0.62893025762E+03  0.15201677588E+04  0.46999998093E+01 0. -1.
</event>
<event>
 5   0  0.2492232E-07  0.2900234E+04  0.7818609E-02  0.8272808E-01
       -2   -1    0    0    0  501  0.00000000000E+00  0.00000000000E+00  0.18260345289E+04  0.18260345289E+04  0.25500000920E-02 0.  1.
        2   -1    0    0  501    0  0.00000000000E+00  0.00000000000E+00 -0.11515876836E+04  0.11515876836E+04  0.25500000920E-02 0. -1.
    10030    2    1    2    0    0  0.00000000000E+00  0.00000000000E+00  0.67444684530E+03  0.29776222126E+04  0.29002336964E+04 0.  0.
        4    1    3    3  502    0 -0.70596507175E+03  0.69069198915E+03 -0.75289752065E+03  0.12418930694E+04  0.12699999809E+01 0. -1.
       -4    1    3    3    0  502  0.70596507175E+03 -0.69069198915E+03  0.14273443660E+04  0.17357291431E+04  0.12699999809E+01 0.  1.
</event>
<event>
 5   0  0.2492232E-07  0.2899130E+04  0.7818609E-02  0.8273136E-01
        2   -1    0    0  501    0  0.00000000000E+00  0.00000000000E+00  0.10250591253E+04  0.10250591253E+04  0.25500000920E-02 0.  1.
       -2   -1    0    0    0  501  0.00000000000E+00  0.00000000000E+00 -0.20498702624E+04  0.20498702624E+04  0.25500000920E-02 0. -1.
    10030    2    1    2    0    0  0.00000000000E+00  0.00000000000E+00 -0.10248111370E+04  0.30749293877E+04  0.28991296751E+04 0.  0.
        4    1    3    3  502    0 -0.44713570584E+03  0.52185003020E+03  0.84130314241E+03  0.10863012399E+04  0.12699999809E+01 0.  1.
       -4    1    3    3    0  502  0.44713570584E+03 -0.52185003020E+03 -0.18661142795E+04  0.19886281478E+04  0.12699999809E+01 0. -1.
</event>
<event>
 5   0  0.9395744E-08  0.2898845E+04  0.7818609E-02  0.8273221E-01
       -1   -1    0    0    0  501  0.00000000000E+00  0.00000000000E+00  0.91521076947E+03  0.91521076949E+03  0.50400001928E-02 0.  1.
        1   -1    0    0  501    0  0.00000000000E+00  0.00000000000E+00 -0.22954549648E+04  0.22954549648E+04  0.50400001928E-02 0. -1.
    10030    2    1    2    0    0  0.00000000000E+00  0.00000000000E+00 -0.13802441953E+04  0.32106657343E+04  0.28988446696E+04 0.  0.
        2    1    3    3  502    0 -0.46384182033E+03 -0.96768847911E+03 -0.17692217854E+04  0.20692307635E+04  0.25500000920E-02 0. -1.
       -2    1    3    3    0  502  0.46384182033E+03  0.96768847911E+03  0.38897759005E+03  0.11414349708E+04  0.25500000920E-02 0.  1.
</event>
<event>
 5   0  0.2492232E-07  0.2891574E+04  0.7818609E-02  0.8275389E-01
       -2   -1    0    0    0  501  0.00000000000E+00  0.00000000000E+00  0.12244453935E+04  0.12244453935E+04  0.25500000920E-02 0.  1.
        2   -1    0    0  501    0  0.00000000000E+00  0.00000000000E+00 -0.17071397674E+04  0.17071397674E+04  0.25500000920E-02 0. -1.
    10030    2    1    2    0    0  0.00000000000E+00  0.00000000000E+00 -0.48269437390E+03  0.29315851609E+04  0.28915735676E+04 0.  0.
        4    1    3    3  502    0  0.88324449276E+02 -0.15384545869E+03 -0.16960635380E+04  0.17053160327E+04  0.12699999809E+01 0. -1.
       -4    1    3    3    0  502 -0.88324449276E+02  0.15384545869E+03  0.12133691641E+04  0.12262691282E+04  0.12699999809E+01 0.  1.
</event>
<event>
 5   0  0.2546841E-07  0.2897339E+04  0.7818609E-02  0.8273670E-01
        2   -1    0    0  501    0  0.00000000000E+00  0.00000000000E+00  0.13708485877E+04  0.13708485878E+04  0.25500000920E-02 0.  1.
       -2   -1    0    0    0  501  0.00000000000E+00  0.00000000000E+00 -0.15309083640E+04  0.15309083640E+04  0.25500000920E-02 0. -1.
    10030    2    1    2    0    0  0.00000000000E+00  0.00000000000E+00 -0.16005977627E+03  0.29017569518E+04  0.28973391716E+04 0.  0.
        1    1    3    3  502    0  0.67311301704E+03 -0.42802507331E+02 -0.13640652570E+04  0.15217053636E+04  0.50400001928E-02 0. -1.
       -1    1    3    3    0  502 -0.67311301704E+03  0.42802507331E+02  0.12040054807E+04  0.13800515882E+04  0.50400001928E-02 0.  1.
</event>
<event>
 5   0  0.2492232E-07  0.2901217E+04  0.7818609E-02  0.8272515E-01
        2   -1    0    0  501    0  0.00000000000E+00  0.00000000000E+00  0.22410030607E+04  0.22410030607E+04  0.25500000920E-02 0. -1.
       -2   -1    0    0    0  501  0.00000000000E+00  0.00000000000E+00 -0.93898358591E+03  0.93898358591E+03  0.25500000920E-02 0.  1.
    10030    2    1    2    0    0  0.00000000000E+00  0.00000000000E+00  0.13020194747E+04  0.31799866466E+04  0.29012170480E+04 0.  0.
        4    1    3    3  502    0 -0.50112627311E+03  0.73906427158E+03 -0.60204362801E+03  0.10769408907E+04  0.12699999809E+01 0.  1.
       -4    1    3    3    0  502  0.50112627311E+03 -0.73906427158E+03  0.19040631028E+04  0.21030457559E+04  0.12699999809E+01 0. -1.
</event>
<event>
 5   0  0.9388076E-08  0.2900390E+04  0.7818609E-02  0.8272761E-01
        1   -1    0    0  501    0  0.00000000000E+00  0.00000000000E+00  0.18133047427E+04  0.18133047427E+04  0.50400001928E-02 0.  1.
       -1   -1    0    0    0  501  0.00000000000E+00  0.00000000000E+00 -0.11597971395E+04  0.11597971395E+04  0.50400001928E-02 0. -1.
    10030    2    1    2    0    0  0.00000000000E+00  0.00000000000E+00  0.65350760323E+03  0.29731018823E+04  0.29003900798E+04 0.  0.
        5    1    3    3  502    0  0.27977877452E+03  0.10329152062E+04 -0.67648181901E+03  0.12660330673E+04  0.46999998093E+01 0. -1.
       -5    1    3    3    0  502 -0.27977877452E+03 -0.10329152062E+04  0.13299894222E+04  0.17070688150E+04  0.46999998093E+01 0.  1.
</event>
<event>
 5   0  0.2678723E-07  0.2900529E+04  0.7818609E-02  0.8272720E-01
        2   -1    0    0  501    0  0.00000000000E+00  0.00000000000E+00  0.20256603064E+04  0.20256603064E+04  0.25500000920E-02 0. -1.
       -2   -1    0    0    0  501  0.00000000000E+00  0.00000000000E+00 -0.10383115557E+04  0.10383115557E+04  0.25500000920E-02 0.  1.
    10030    2    1    2    0    0  0.00000000000E+00  0.00000000000E+00  0.98734875075E+03  0.30639718621E+04  0.29005285754E+04 0.  0.
        5    1    3    3  502    0  0.14435267476E+04  0.11869435518E+03  0.41614528062E+03  0.15070025897E+04  0.46999998093E+01 0. -1.
       -5    1    3    3    0  502 -0.14435267476E+04 -0.11869435518E+03  0.57120347013E+03  0.15569692724E+04  0.46999998093E+01 0.  1.
</event>
<event>
 5   0  0.9388076E-08  0.2900069E+04  0.7818609E-02  0.8272857E-01
        1   -1    0    0  501    0  0.00000000000E+00  0.00000000000E+00  0.14440015675E+04  0.14440015675E+04  0.50400001928E-02 0. -1.
       -1   -1    0    0    0  501  0.00000000000E+00  0.00000000000E+00 -0.14560930489E+04  0.14560930489E+04  0.50400001928E-02 0.  1.
    10030    2    1    2    0    0  0.00000000000E+00  0.00000000000E+00 -0.12091481359E+02  0.29000946164E+04  0.29000694095E+04 0.  0.
        5    1    3    3  502    0 -0.17368780569E+03  0.14088331268E+04 -0.30202182872E+03  0.14512813332E+04  0.46999998093E+01 0.  1.
       -5    1    3    3    0  502  0.17368780569E+03 -0.14088331268E+04  0.28993034736E+03  0.14488132832E+04  0.46999998093E+01 0. -1.
</event>
<event>
 5   0  0.9763851E-08  0.2898831E+04  0.7818609E-02  0.8273225E-01
        1   -1    0    0  501    0  0.00000000000E+00  0.00000000000E+00  0.10643900323E+04  0.10643900323E+04  0.50400001928E-02 0. -1.
       -1   -1    0    0    0  501  0.00000000000E+00  0.00000000000E+00 -0.19737172397E+04  0.19737172397E+04  0.50400001928E-02 0.  1.
    10030    2    1    2    0    0  0.00000000000E+00  0.00000000000E+00 -0.90932720737E+03  0.30381072720E+04  0.28988307687E+04 0.  0.
        3    1    3    3  502    0  0.13569214426E+04  0.72786042253E+02  0.73816869367E+02  0.13608756555E+04  0.10100000352E+00 0.  1.
       -3    1    3    3    0  502 -0.13569214426E+04 -0.72786042253E+02 -0.98314407674E+03  0.16772316164E+04  0.10100000352E+00 0. -1.
</event>
<event>
 5   0  0.2534588E-07  0.2897039E+04  0.7818609E-02  0.8273759E-01
       -2   -1    0    0    0  501  0.00000000000E+00  0.00000000000E+00  0.71584941703E+03  0.71584941704E+03  0.25500000920E-02 0.  1.
        2   -1    0    0  501    0  0.00000000000E+00  0.00000000000E+00 -0.29310765463E+04  0.29310765463E+04  0.25500000920E-02 0. -1.
    10030    2    1    2    0    0  0.00000000000E+00  0.00000000000E+00 -0.22152271293E+04  0.36469259634E+04  0.28970394799E+04 0.  0.
        3    1    3    3  502    0 -0.12461223062E+04 -0.44930702497E+03 -0.36980553541E+03  0.13753013302E+04  0.10100000352E+00 0.  1.
       -3    1    3    3    0  502  0.12461223062E+04  0.44930702497E+03 -0.18454215939E+04  0.22716246332E+04  0.10100000352E+00 0. -1.
</event>
<event>
 5   0  0.9421924E-08  0.2900107E+04  0.7818609E-02  0.8272846E-01
        1   -1    0    0  501    0  0.00000000000E+00  0.00000000000E+00  0.18158949922E+04  0.18158949922E+04  0.50400001928E-02 0.  1.
       -1   -1    0    0    0  501  0.00000000000E+00  0.00000000000E+00 -0.11579164712E+04  0.11579164712E+04  0.50400001928E-02 0. -1.
    10030    2    1    2    0    0  0.00000000000E+00  0.00000000000E+00  0.65797852099E+03  0.29738114634E+04  0.29001067025E+04 0.  0.
        1    1    3    3  502    0 -0.90020725689E+03  0.30458964436E+03 -0.79406516863E+03  0.12384213535E+04  0.50400001928E-02 0. -1.
       -1    1    3    3    0  502  0.90020725689E+03 -0.30458964436E+03  0.14520436896E+04  0.17353901099E+04  0.50400001928E-02 0.  1.
</event>
<event>
 5   0  0.9443352E-08  0.2900078E+04  0.7818609E-02  0.8272854E-01
       -1   -1    0    0    0  501  0.00000000000E+00  0.00000000000E+00  0.14793540254E+04  0.14793540254E+04  0.50400001928E-02 0.  1.
        1   -1    0    0  501    0  0.00000000000E+00  0.00000000000E+00 -0.14213046726E+04  0.14213046726E+04  0.50400001928E-02 0. -1.
    10030    2    1    2    0    0  0.00000000000E+00  0.00000000000E+00  0.58049352845E+02  0.29006586980E+04  0.29000777843E+04 0.  0.
        4    1    3    3  502    0 -0.64409479960E+03 -0.12150839813E+04 -0.43076728989E+03  0.14411277749E+04  0.12699999809E+01 0. -1.
       -4    1    3    3    0  502  0.64409479960E+03  0.12150839813E+04  0.48881664274E+03  0.14595309232E+04  0.12699999809E+01 0.  1.
</event>
<event>
 5   0  0.9388076E-08  0.2900137E+04  0.7818609E-02  0.8272837E-01
       -1   -1    0    0    0  501  0.00000000000E+00  0.00000000000E+00  0.10754640822E+04  0.10754640822E+04  0.50400001928E-02 0. -1.
        1   -1    0    0  501    0  0.00000000000E+00  0.00000000000E+00 -0.19551540610E+04  0.19551540610E+04  0.50400001928E-02 0.  1.
    10030    2    1    2    0    0  0.00000000000E+00  0.00000000000E+00 -0.87968997876E+03  0.30306181432E+04  0.29001365263E+04 0.  0.
        5    1    3    3  502    0  0.73463761890E+02 -0.26552754942E+03 -0.19275452732E+04  0.19471401269E+04  0.46999998093E+01 0.  1.
       -5    1    3    3    0  502 -0.73463761890E+02  0.26552754942E+03  0.10478552944E+04  0.10834780163E+04  0.46999998093E+01 0. -1.
</event>
<event>
 5   0  0.9421924E-08  0.2899615E+04  0.7818609E-02  0.8272992E-01
        1   -1    0    0  501    0  0.00000000000E+00  0.00000000000E+00  0.16474074130E+04  0.16474074130E+04  0.50400001928E-02 0. -1.
       -1   -1    0    0    0  501  0.00000000000E+00  0.00000000000E+00 -0.12759090698E+04  0.12759090698E+04  0.50400001928E-02 0.  1.
    10030    2    1    2    0    0  0.00000000000E+00  0.00000000000E+00  0.37149834323E+03  0.29233164828E+04  0.28996151881E+04 0.  0.
        1    1    3    3  502    0  0.58814874618E+03  0.11916997333E+04 -0.39853512905E+03  0.13874067360E+04  0.50400001928E-02 0.  1.
       -1    1    3    3    0  502 -0.58814874618E+03 -0.11916997333E+04  0.77003347228E+03  0.15359097468E+04  0.50400001928E-02 0. -1.
</event>
<event>
 5   0  0.9421924E-08  0.2892674E+04  0.7818609E-02  0.8275060E-01
       -1   -1    0    0    0  501  0.00000000000E+00  0.00000000000E+00  0.94268702357E+03  0.94268702358E+03  0.50400001928E-02 0.  1.
        1   -1    0    0  501    0  0.00000000000E+00  0.00000000000E+00 -0.22190726188E+04  0.22190726188E+04  0.50400001928E-02 0. -1.
    10030    2    1    2    0    0  0.00000000000E+00  0.00000000000E+00 -0.12763855953E+04  0.31617596424E+04  0.28926741691E+04 0.  0.
        1    1    3    3  502    0  0.13041133765E+04  0.60101115346E+03 -0.82739902950E+03  0.16572613733E+04  0.50400001928E-02 0. -1.
       -1    1    3    3    0  502 -0.13041133765E+04 -0.60101115346E+03 -0.44898656577E+03  0.15044982691E+04  0.50400001928E-02 0.  1.
</event>
<event>
 5   0  0.2492232E-07  0.2895432E+04  0.7818609E-02  0.8274238E-01
        2   -1    0    0  501    0  0.00000000000E+00  0.00000000000E+00  0.19760403549E+04  0.19760403549E+04  0.25500000920E-02 0.  1.
       -2   -1    0    0    0  501  0.00000000000E+00  0.00000000000E+00 -0.10606473619E+04  0.10606473619E+04  0.25500000920E-02 0. -1.
    10030    2    1    2    0    0  0.00000000000E+00  0.00000000000E+00  0.91539299298E+03  0.30366877169E+04  0.28954322576E+04 0.  0.
        4    1    3    3  502    0  0.76229469807E+03 -0.32538066345E+03  0.17025809922E+04  0.18936075176E+04  0.12699999809E+01 0.  1.
       -4    1    3    3    0  502 -0.76229469807E+03  0.32538066345E+03 -0.78718799924E+03  0.11430801992E+04  0.12699999809E+01 0. -1.
</event>
<event>
 5   0  0.9443352E-08  0.2904877E+04  0.7818609E-02  0.8271428E-01
       -1   -1    0    0    0  501  0.00000000000E+00  0.00000000000E+00  0.17531906738E+04  0.17531906738E+04  0.50400001928E-02 0.  1.
        1   -1    0    0  501    0  0.00000000000E+00  0.00000000000E+00 -0.12032789827E+04  0.12032789827E+04  0.50400001928E-02 0. -1.
    10030    2    1    2    0    0  0.00000000000E+00  0.00000000000E+00  0.54991169113E+03  0.29564696566E+04  0.29048769272E+04 0.  0.
        4    1    3    3  502    0  0.49972505820E+03  0.12808077827E+04 -0.20174547013E+03  0.13895670396E+04  0.12699999809E+01 0. -1.
       -4    1    3    3    0  502 -0.49972505820E+03 -0.12808077827E+04  0.75165716127E+03  0.15669026169E+04  0.12699999809E+01 0.  1.
</event>
<event>
 5   0  0.9421924E-08  0.2900456E+04  0.7818609E-02  0.8272742E-01
       -1   -1    0    0    0  501  0.00000000000E+00  0.00000000000E+00  0.94324225568E+03  0.94324225569E+03  0.50400001928E-02 0.  1.
        1   -1    0    0  501    0  0.00000000000E+00  0.00000000000E+00 -0.22297145903E+04  0.22297145903E+04  0.50400001928E-02 0. -1.
    10030    2    1    2    0    0  0.00000000000E+00  0.00000000000E+00 -0.12864723346E+04  0.31729568460E+04  0.29004558398E+04 0.  0.
        1    1    3    3  502    0  0.37874331924E+03  0.12668239236E+04 -0.12949149321E+04  0.18507009582E+04  0.50400001928E-02 0. -1.
       -1    1    3    3    0  502 -0.37874331924E+03 -0.12668239236E+04  0.84425975494E+01  0.13222558878E+04  0.50400001928E-02 0.  1.
</event>
<event>
 5   0  0.9763851E-08  0.2900089E+04  0.7818609E-02  0.8272851E-01
       -1   -1    0    0    0  501  0.00000000000E+00  0.00000000000E+00  0.13080692466E+04  0.13080692466E+04  0.50400001928E-02 0.  1.
        1   -1    0    0  501    0  0.00000000000E+00  0.00000000000E+00 -0.16074300169E+04  0.16074300169E+04  0.50400001928E-02 0. -1.
    10030    2    1    2    0    0  0.00000000000E+00  0.00000000000E+00 -0.29936077024E+03  0.29154992635E+04  0.29000894960E+04 0.  0.
        3    1    3    3  502    0 -0.50523010696E+03  0.13084628559E+04  0.22010183716E+03  0.14197807349E+04  0.10100000352E+00 0.  1.
       -3    1    3    3    0  502  0.50523010696E+03 -0.13084628559E+04 -0.51946260740E+03  0.14957185286E+04  0.10100000352E+00 0. -1.
</event>
<event>
 5   0  0.9388076E-08  0.2898639E+04  0.7818609E-02  0.8273283E-01
       -1   -1    0    0    0  501  0.00000000000E+00  0.00000000000E+00  0.14145847694E+04  0.14145847694E+04  0.50400001928E-02 0. -1.
        1   -1    0    0  501    0  0.00000000000E+00  0.00000000000E+00 -0.14849071315E+04  0.14849071315E+04  0.50400001928E-02 0.  1.
    10030    2    1    2    0    0  0.00000000000E+00  0.00000000000E+00 -0.70322362110E+02  0.28994919009E+04  0.28986389994E+04 0.  0.
        5    1    3    3  502    0 -0.11127431380E+04 -0.50487288465E+03  0.74443390974E+03  0.14308381659E+04  0.46999998093E+01 0. -1.
       -5    1    3    3    0  502  0.11127431380E+04  0.50487288465E+03 -0.81475627185E+03  0.14686537350E+04  0.46999998093E+01 0.  1.
</event>
<event>
 5   0  0.2492232E-07  0.2900201E+04  0.7818609E-02  0.8272818E-01
        2   -1    0    0  501    0  0.00000000000E+00  0.00000000000E+00  0.16666002477E+04  0.16666002477E+04  0.25500000920E-02 0.  1.
       -2   -1    0    0    0  501  0.00000000000E+00  0.00000000000E+00 -0.12617250716E+04  0.12617250716E+04  0.25500000920E-02 0. -1.
    10030    2    1    2    0    0  0.00000000000E+00  0.00000000000E+00  0.40487517608E+03  0.29283253193E+04  0.29002009012E+04 0.  0.
        4    1    3    3  502    0 -0.75460212230E+03 -0.66929082118E+02 -0.10460343020E+04  0.12915468396E+04  0.12699999809E+01 0. -1.
       -4    1    3    3    0  502  0.75460212230E+03  0.66929082118E+02  0.14509094781E+04  0.16367784797E+04  0.12699999809E+01 0.  1.
</event>
<event>
 5   0  0.9395744E-08  0.2899409E+04  0.7818609E-02  0.8273053E-01
        1   -1    0    0  501    0  0.00000000000E+00  0.00000000000E+00  0.24563526961E+04  0.24563526961E+04  0.50400001928E-02 0. -1.
       -1   -1    0    0    0  501  0.00000000000E+00  0.00000000000E+00 -0.85559524356E+03  0.85559524357E+03  0.50400001928E-02 0.  1.
    10030    2    1    2    0    0  0.00000000000E+00  0.00000000000E+00  0.16007574526E+04  0.33119479397E+04  0.28994093766E+04 0.  0.
        2    1    3    3  502    0  0.63473756833E+03 -0.48747696784E+03  0.21811337247E+04  0.23233316380E+04  0.25500000920E-02 0. -1.
       -2    1    3    3    0  502 -0.63473756833E+03  0.48747696784E+03 -0.58037627214E+03  0.98861630175E+03  0.25500000920E-02 0.  1.
</event>
<event>
 5   0  0.9443352E-08  0.2899935E+04  0.7818609E-02  0.8272897E-01
        1   -1    0    0  501    0  0.00000000000E+00  0.00000000000E+00  0.17410371498E+04  0.17410371498E+04  0.50400001928E-02 0. -1.
       -1   -1    0    0    0  501  0.00000000000E+00  0.00000000000E+00 -0.12075589730E+04  0.12075589730E+04  0.50400001928E-02 0.  1.
    10030    2    1    2    0    0  0.00000000000E+00  0.00000000000E+00  0.53347817680E+03  0.29485961228E+04  0.28999345045E+04 0.  0.
        4    1    3    3  502    0 -0.13365183441E+03  0.26103130737E+03  0.17105682080E+04  0.17355245211E+04  0.12699999809E+01 0. -1.
       -4    1    3    3    0  502  0.13365183441E+03 -0.26103130737E+03 -0.11770900312E+04  0.12130716017E+04  0.12699999809E+01 0.  1.
</event>
<event>
 5   0  0.2492232E-07  0.2901388E+04  0.7818609E-02  0.8272465E-01
        2   -1    0    0  501    0  0.00000000000E+00  0.00000000000E+00  0.22134026929E+04  0.22134026929E+04  0.25500000920E-02 0. -1.
       -2   -1    0    0    0  501  0.00000000000E+00  0.00000000000E+00 -0.95080463376E+03  0.95080463377E+03  0.25500000920E-02 0.  1.
    10030    2    1    2    0    0  0.00000000000E+00  0.00000000000E+00  0.12625980591E+04  0.31642073267E+04  0.29013883138E+04 0.  0.
        4    1    3    3  502    0 -0.90347841901E+03  0.14936189972E+03 -0.59575551334E+03  0.10924781349E+04  0.12699999809E+01 0.  1.
       -4    1    3    3    0  502  0.90347841901E+03 -0.14936189972E+03  0.18583535725E+04  0.20717291918E+04  0.12699999809E+01 0. -1.
</event>
<event>
 5   0  0.2678723E-07  0.2902432E+04  0.7818609E-02  0.8272154E-01
       -2   -1    0    0    0  501  0.00000000000E+00  0.00000000000E+00  0.93031704907E+03  0.93031704907E+03  0.25500000920E-02 0. -1.
        2   -1    0    0  501    0  0.00000000000E+00  0.00000000000E+00 -0.22637738186E+04  0.22637738186E+04  0.25500000920E-02 0.  1.
    10030    2    1    2    0    0  0.00000000000E+00  0.00000000000E+00 -0.13334567695E+04  0.31940908677E+04  0.29024316555E+04 0.  0.
        5    1    3    3  502    0 -0.81170767838E+03 -0.89770036932E+03  0.21453498745E+03  0.12291389909E+04  0.46999998093E+01 0. -1.
       -5    1    3    3    0  502  0.81170767838E+03  0.89770036932E+03 -0.15479917570E+04  0.19649518768E+04  0.46999998093E+01 0.  1.
</event>
<event>
 5   0  0.9443352E-08  0.2906395E+04  0.7818609E-02  0.8270977E-01
       -1   -1    0    0    0  501  0.00000000000E+00  0.00000000000E+00  0.95546196070E+03  0.95546196072E+03  0.50400001928E-02 0.  1.
        1   -1    0    0  501    0  0.00000000000E+00  0.00000000000E+00 -0.22102224725E+04  0.22102224725E+04  0.50400001928E-02 0. -1.
    10030    2    1    2    0    0  0.00000000000E+00  0.00000000000E+00 -0.12547605118E+04  0.31656844333E+04  0.29063953601E+04 0.  0.
        4    1    3    3  502    0 -0.20634511580E+02 -0.36179354526E+03  0.90545730792E+03  0.97528196016E+03  0.12699999809E+01 0.  1.
       -4    1    3    3    0  502  0.20634511580E+02  0.36179354526E+03 -0.21602178198E+04  0.21904024731E+04  0.12699999809E+01 0. -1.
</event>
<event>
 5   0  0.2492232E-07  0.2900686E+04  0.7818609E-02  0.8272673E-01
       -2   -1    0    0    0  501  0.00000000000E+00  0.00000000000E+00  0.13369053545E+04  0.13369053545E+04  0.25500000920E-02 0. -1.
        2   -1    0    0  501    0  0.00000000000E+00  0.00000000000E+00 -0.15734059175E+04  0.15734059175E+04  0.25500000920E-02 0.  1.
    10030    2    1    2    0    0  0.00000000000E+00  0.00000000000E+00 -0.23650056303E+03  0.29103112720E+04  0.29006859850E+04 0.  0.
        4    1    3    3  502    0 -0.66028083403E+03  0.11616870581E+04  0.44754079889E+03  0.14091777675E+04  0.12699999809E+01 0. -1.
       -4    1    3    3    0  502  0.66028083403E+03 -0.11616870581E+04 -0.68404136191E+03  0.15011335045E+04  0.12699999809E+01 0.  1.
</event>
<event>
 5   0  0.2534588E-07  0.2899260E+04  0.7818609E-02  0.8273098E-01
       -2   -1    0    0    0  501  0.00000000000E+00  0.00000000000E+00  0.15801751431E+04  0.15801751431E+04  0.25500000920E-02 0.  1.
        2   -1    0    0  501    0  0.00000000000E+00  0.00000000000E+00 -0.13298700593E+04  0.13298700593E+04  0.25500000920E-02 0. -1.
    10030    2    1    2    0    0  0.00000000000E+00  0.00000000000E+00  0.25030508384E+03  0.29100452024E+04  0.28992603272E+04 0.  0.
        3    1    3    3  502    0  0.80949226064E+03 -0.11611957507E+04  0.43900454236E+03  0.14820183163E+04  0.10100000352E+00 0.  1.
       -3    1    3    3    0  502 -0.80949226064E+03  0.11611957507E+04 -0.18869945852E+03  0.14280268861E+04  0.10100000352E+00 0. -1.
</event>
<event>
 5   0  0.9388076E-08  0.2910709E+04  0.7818609E-02  0.8269698E-01
       -1   -1    0    0    0  501  0.00000000000E+00  0.00000000000E+00  0.11114553182E+04  0.11114553182E+04  0.50400001928E-02 0. -1.
        1   -1    0    0  501    0  0.00000000000E+00  0.00000000000E+00 -0.19056608886E+04  0.19056608886E+04  0.50400001928E-02 0.  1.
    10030    2    1    2    0    0  0.00000000000E+00  0.00000000000E+00 -0.79420557047E+03  0.30171162068E+04  0.29107091434E+04 0.  0.
        5    1    3    3  502    0  0.42284630340E+03  0.25880975789E+03  0.10212214898E+04  0.11352078700E+04  0.46999998093E+01 0. -1.
       -5    1    3    3    0  502 -0.42284630340E+03 -0.25880975789E+03 -0.18154270602E+04  0.18819083368E+04  0.46999998093E+01 0.  1.
</event>
<event>
 5   0  0.2608591E-07  0.2905559E+04  0.7818609E-02  0.8271226E-01
        2   -1    0    0  501    0  0.00000000000E+00  0.00000000000E+00  0.18931295341E+04  0.18931295341E+04  0.25500000920E-02 0.  1.
       -2   -1    0    0    0  501  0.00000000000E+00  0.00000000000E+00 -0.11148565211E+04  0.11148565211E+04  0.25500000920E-02 0. -1.
    10030    2    1    2    0    0  0.00000000000E+00  0.00000000000E+00  0.77827301301E+03  0.30079860551E+04  0.29055586769E+04 0.  0.
        2    1    3    3  502    0 -0.37353612493E+03  0.12955572958E+04  0.94910160927E+03  0.16488759225E+04  0.25500000920E-02 0.  1.
       -2    1    3    3    0  502  0.37353612493E+03 -0.12955572958E+04 -0.17082859626E+03  0.13591101326E+04  0.25500000920E-02 0. -1.
</event>
<event>
 5   0  0.8407500E-08  0.2899360E+04  0.7818609E-02  0.8273068E-01
       -3   -1    0    0    0  501  0.00000000000E+00  0.00000000000E+00  0.88976406763E+03  0.88976407336E+03  0.10100000352E+00 0.  1.
        3   -1    0    0  501    0  0.00000000000E+00  0.00000000000E+00 -0.23619423309E+04  0.23619423330E+04  0.10100000352E+00 0. -1.
    10030    2    1    2    0    0  0.00000000000E+00  0.00000000000E+00 -0.14721782633E+04  0.32517064064E+04  0.28993595352E+04 0.  0.
        1    1    3    3  502    0  0.10703788336E+04 -0.14380108016E+03 -0.18206583727E+04  0.21168813165E+04  0.50400001928E-02 0. -1.
       -1    1    3    3    0  502 -0.10703788336E+04  0.14380108016E+03  0.34848010944E+03  0.11348250899E+04  0.50400001928E-02 0.  1.
</event>
<event>
 5   0  0.2608591E-07  0.2899860E+04  0.7818609E-02  0.8272919E-01
       -2   -1    0    0    0  501  0.00000000000E+00  0.00000000000E+00  0.13246127096E+04  0.13246127096E+04  0.25500000920E-02 0.  1.
        2   -1    0    0  501    0  0.00000000000E+00  0.00000000000E+00 -0.15871035595E+04  0.15871035595E+04  0.25500000920E-02 0. -1.
    10030    2    1    2    0    0  0.00000000000E+00  0.00000000000E+00 -0.26249084989E+03  0.29117162691E+04  0.28998603734E+04 0.  0.
        2    1    3    3  502    0 -0.35895610896E+03 -0.11752879649E+04 -0.90390192087E+03  0.15255130190E+04  0.25500000920E-02 0. -1.
       -2    1    3    3    0  502  0.35895610896E+03  0.11752879649E+04  0.64141107098E+03  0.13862032501E+04  0.25500000920E-02 0.  1.
</event>
<event>
 5   0  0.9763851E-08  0.2899717E+04  0.7818609E-02  0.8272962E-01
       -1   -1    0    0    0  501  0.00000000000E+00  0.00000000000E+00  0.77086643308E+03  0.77086643310E+03  0.50400001928E-02 0.  1.
        1   -1    0    0  501    0  0.00000000000E+00  0.00000000000E+00 -0.27269178556E+04  0.27269178556E+04  0.50400001928E-02 0. -1.
    10030    2    1    2    0    0  0.00000000000E+00  0.00000000000E+00 -0.19560514225E+04  0.34977842887E+04  0.28997168418E+04 0.  0.
        3    1    3    3  502    0 -0.12050521481E+04  0.56451259689E+03 -0.28376156896E+03  0.13606416832E+04  0.10100000352E+00 0.  1.
       -3    1    3    3    0  502  0.12050521481E+04 -0.56451259689E+03 -0.16722898536E+04  0.21371426055E+04  0.10100000352E+00 0. -1.
</event>
<event>
 5   0  0.2534588E-07  0.2896929E+04  0.7818609E-02  0.8273792E-01
       -2   -1    0    0    0  501  0.00000000000E+00  0.00000000000E+00  0.16982766086E+04  0.16982766086E+04  0.25500000920E-02 0.  1.
        2   -1    0    0  501    0  0.00000000000E+00  0.00000000000E+00 -0.12353993772E+04  0.12353993772E+04  0.25500000920E-02 0. -1.
    10030    2    1    2    0    0  0.00000000000E+00  0.00000000000E+00  0.46287723147E+03  0.29336759858E+04  0.28969293154E+04 0.  0.
        3    1    3    3  502    0 -0.83482835697E+03  0.11732366438E+04  0.72517291338E+02  0.14417632870E+04  0.10100000352E+00 0. -1.
       -3    1    3    3    0  502  0.83482835697E+03 -0.11732366438E+04  0.39035994013E+03  0.14919126988E+04  0.10100000352E+00 0.  1.
</event>
<event>
 5   0  0.9443352E-08  0.2898869E+04  0.7818609E-02  0.8273214E-01
       -1   -1    0    0    0  501  0.00000000000E+00  0.00000000000E+00  0.11400399839E+04  0.11400399839E+04  0.50400001928E-02 0. -1.
        1   -1    0    0  501    0  0.00000000000E+00  0.00000000000E+00 -0.18427948738E+04  0.18427948738E+04  0.50400001928E-02 0.  1.
    10030    2    1    2    0    0  0.00000000000E+00  0.00000000000E+00 -0.70275488986E+03  0.29828348577E+04  0.28988686333E+04 0.  0.
        4    1    3    3  502    0 -0.80407818228E+03 -0.14019833467E+03 -0.15838444747E+04  0.17817862468E+04  0.12699999809E+01 0.  1.
       -4    1    3    3    0  502  0.80407818228E+03  0.14019833467E+03  0.88108958489E+03  0.12010486109E+04  0.12699999809E+01 0. -1.
</event>
<event>
 5   0  0.9421924E-08  0.2899719E+04  0.7818609E-02  0.8272961E-01
       -1   -1    0    0    0  501  0.00000000000E+00  0.00000000000E+00  0.13574624700E+04  0.13574624700E+04  0.50400001928E-02 0.  1.
        1   -1    0    0  501    0  0.00000000000E+00  0.00000000000E+00 -0.15485456165E+04  0.15485456165E+04  0.50400001928E-02 0. -1.
    10030    2    1    2    0    0  0.00000000000E+00  0.00000000000E+00 -0.19108314651E+03  0.29060080865E+04  0.28997189916E+04 0.  0.
        1    1    3    3  502    0  0.79421315236E+03 -0.80317179283E+03  0.81540351711E+03  0.13931052925E+04  0.50400001928E-02 0.  1.
       -1    1    3    3    0  502 -0.79421315236E+03  0.80317179283E+03 -0.10064866636E+04  0.15129027941E+04  0.50400001928E-02 0. -1.
</event>
<event>
 5   0  0.2608591E-07  0.2899077E+04  0.7818609E-02  0.8273152E-01
        2   -1    0    0  501    0  0.00000000000E+00  0.00000000000E+00  0.18379840022E+04  0.18379840022E+04  0.25500000920E-02 0. -1.
       -2   -1    0    0    0  501  0.00000000000E+00  0.00000000000E+00 -0.11431884953E+04  0.11431884953E+04  0.25500000920E-02 0.  1.
    10030    2    1    2    0    0  0.00000000000E+00  0.00000000000E+00  0.69479550698E+03  0.29811724975E+04  0.28990772089E+04 0.  0.
        2    1    3    3  502    0  0.21541668304E+03 -0.11743810053E+04  0.11926142985E+04  0.16875733934E+04  0.25500000920E-02 0. -1.
       -2    1    3    3    0  502 -0.21541668304E+03  0.11743810053E+04 -0.49781879152E+03  0.12935991041E+04  0.25500000920E-02 0.  1.
</event>
<event>
 5   0  0.9388076E-08  0.2903002E+04  0.7818609E-02  0.8271985E-01
        1   -1    0    0  501    0  0.00000000000E+00  0.00000000000E+00  0.80098147071E+03  0.80098147073E+03  0.50400001928E-02 0. -1.
       -1   -1    0    0    0  501  0.00000000000E+00  0.00000000000E+00 -0.26303426975E+04  0.26303426976E+04  0.50400001928E-02 0.  1.
    10030    2    1    2    0    0  0.00000000000E+00  0.00000000000E+00 -0.18293612268E+04  0.34313241683E+04  0.29030024198E+04 0.  0.
        5    1    3    3  502    0 -0.44152616775E+03 -0.11166463220E+04  0.49196531019E+02  0.12017848201E+04  0.46999998093E+01 0. -1.
       -5    1    3    3    0  502  0.44152616775E+03  0.11166463220E+04 -0.18785577579E+04  0.22295393481E+04  0.46999998093E+01 0.  1.
</event>
<event>
 5   0  0.2492232E-07  0.2901081E+04  0.7818609E-02  0.8272556E-01
       -2   -1    0    0    0  501  0.00000000000E+00  0.00000000000E+00  0.12631716293E+04  0.12631716293E+04  0.25500000920E-02 0. -1.
        2   -1    0    0  501    0  0.00000000000E+00  0.00000000000E+00 -0.16657024318E+04  0.16657024318E+04  0.25500000920E-02 0.  1.
    10030    2    1    2    0    0  0.00000000000E+00  0.00000000000E+00 -0.40253080246E+03  0.29288740611E+04  0.29010812155E+04 0.  0.
        4    1    3    3  502    0  0.42662678403E+03 -0.10757764247E+04 -0.10841495287E+04  0.15857765108E+04  0.12699999809E+01 0.  1.
       -4    1    3    3    0  502 -0.42662678403E+03  0.10757764247E+04  0.68161872625E+03  0.13430975503E+04  0.12699999809E+01 0. -1.
</event>
<event>
 5   0  0.2534588E-07  0.2900608E+04  0.7818609E-02  0.8272697E-01
       -2   -1    0    0    0  501  0.00000000000E+00  0.00000000000E+00  0.13094952672E+04  0.13094952672E+04  0.25500000920E-02 0.  1.
        2   -1    0    0  501    0  0.00000000000E+00  0.00000000000E+00 -0.16062532147E+04  0.16062532147E+04  0.25500000920E-02 0. -1.
    10030    2    1    2    0    0  0.00000000000E+00  0.00000000000E+00 -0.29675794748E+03  0.29157484818E+04  0.29006075105E+04 0.  0.
        3    1    3    3  502    0 -0.82672431525E+02  0.20080192274E+03 -0.15898183795E+04  0.16045805162E+04  0.10100000352E+00 0. -1.
       -3    1    3    3    0  502  0.82672431525E+02 -0.20080192274E+03  0.12930604320E+04  0.13111679656E+04  0.10100000352E+00 0.  1.
</event>
<event>
 5   0  0.2678723E-07  0.2899492E+04  0.7818609E-02  0.8273029E-01
        2   -1    0    0  501    0  0.00000000000E+00  0.00000000000E+00  0.17299603084E+04  0.17299603084E+04  0.25500000920E-02 0.  1.
       -2   -1    0    0    0  501  0.00000000000E+00  0.00000000000E+00 -0.12149200010E+04  0.12149200010E+04  0.25500000920E-02 0. -1.
    10030    2    1    2    0    0  0.00000000000E+00  0.00000000000E+00  0.51504030739E+03  0.29448803093E+04  0.28994919414E+04 0.  0.
        5    1    3    3  502    0 -0.97795754665E+03 -0.47949101904E+03 -0.71423757092E+03  0.13024860837E+04  0.46999998093E+01 0. -1.
       -5    1    3    3    0  502  0.97795754665E+03  0.47949101904E+03  0.12292778783E+04  0.16423942257E+04  0.46999998093E+01 0.  1.
</event>
<event>
 5   0  0.9443352E-08  0.2901452E+04  0.7818609E-02  0.8272446E-01
       -1   -1    0    0    0  501  0.00000000000E+00  0.00000000000E+00  0.20252189780E+04  0.20252189780E+04  0.50400001928E-02 0.  1.
        1   -1    0    0  501    0  0.00000000000E+00  0.00000000000E+00 -0.10391988607E+04  0.10391988607E+04  0.50400001928E-02 0. -1.
    10030    2    1    2    0    0  0.00000000000E+00  0.00000000000E+00  0.98602011727E+03  0.30644178387E+04  0.29014515365E+04 0.  0.
        4    1    3    3  502    0 -0.14522915252E+03 -0.49386488620E+03  0.19255129119E+04  0.19931371301E+04  0.12699999809E+01 0.  1.
       -4    1    3    3    0  502  0.14522915252E+03  0.49386488620E+03 -0.93949279465E+03  0.10712807086E+04  0.12699999809E+01 0. -1.
</event>
<event>
 5   0  0.9763851E-08  0.2900592E+04  0.7818609E-02  0.8272701E-01
        1   -1    0    0  501    0  0.00000000000E+00  0.00000000000E+00  0.16673532099E+04  0.16673532100E+04  0.50400001928E-02 0. -1.
       -1   -1    0    0    0  501  0.00000000000E+00  0.00000000000E+00 -0.12614953907E+04  0.12614953907E+04  0.50400001928E-02 0.  1.
    10030    2    1    2    0    0  0.00000000000E+00  0.00000000000E+00  0.40585781929E+03  0.29288486006E+04  0.29005919320E+04 0.  0.
        3    1    3    3  502    0 -0.11158882983E+04  0.91741364044E+03  0.33264789301E+03  0.14823997818E+04  0.10100000352E+00 0. -1.
       -3    1    3    3    0  502  0.11158882983E+04 -0.91741364044E+03  0.73209926273E+02  0.14464488189E+04  0.10100000352E+00 0.  1.
</event>
<event>
 5   0  0.9388076E-08  0.2899108E+04  0.7818609E-02  0.8273143E-01
        1   -1    0    0  501    0  0.00000000000E+00  0.00000000000E+00  0.18665389983E+04  0.18665389984E+04  0.50400001928E-02 0.  1.
       -1   -1    0    0    0  501  0.00000000000E+00  0.00000000000E+00 -0.11257238187E+04  0.11257238187E+04  0.50400001928E-02 0. -1.
    10030    2    1    2    0    0  0.00000000000E+00  0.00000000000E+00  0.74081517964E+03  0.29922628171E+04  0.28991084209E+04 0.  0.
        5    1    3    3  502    0 -0.68042353275E+02  0.73980200313E+03  0.16550901489E+04  0.18141891458E+04  0.46999998093E+01 0.  1.
       -5    1    3    3    0  502  0.68042353275E+02 -0.73980200313E+03 -0.91427496923E+03  0.11780736713E+04  0.46999998093E+01 0. -1.
</event>
<event>
 5   0  0.2492232E-07  0.2900012E+04  0.7818609E-02  0.8272874E-01
       -2   -1    0    0    0  501  0.00000000000E+00  0.00000000000E+00  0.11317612667E+04  0.11317612667E+04  0.25500000920E-02 0.  1.
        2   -1    0    0  501    0  0.00000000000E+00  0.00000000000E+00 -0.18577388307E+04  0.18577388307E+04  0.25500000920E-02 0. -1.
    10030    2    1    2    0    0  0.00000000000E+00  0.00000000000E+00 -0.72597756395E+03  0.29895000974E+04  0.29000116222E+04 0.  0.
        4    1    3    3  502    0  0.61241008557E+03 -0.11479975676E+04  0.29673673126E+03  0.13345406808E+04  0.12699999809E+01 0.  1.
       -4    1    3    3    0  502 -0.61241008557E+03  0.11479975676E+04 -0.10227142952E+04  0.16549594166E+04  0.12699999809E+01 0. -1.
</event>
<event>
 5   0  0.2546841E-07  0.2901845E+04  0.7818609E-02  0.8272329E-01
       -2   -1    0    0    0  501  0.00000000000E+00  0.00000000000E+00  0.88748197573E+03  0.88748197573E+03  0.25500000920E-02 0. -1.
        2   -1    0    0  501    0  0.00000000000E+00  0.00000000000E+00 -0.23720770852E+04  0.23720770852E+04  0.25500000920E-02 0.  1.
    10030    2    1    2    0    0  0.00000000000E+00  0.00000000000E+00 -0.14845951095E+04  0.32595590609E+04  0.29018446948E+04 0.  0.
        1    1    3    3  502    0  0.44259489143E+03  0.32427694073E+03 -0.22510520930E+04  0.23169551782E+04  0.50400001928E-02 0.  1.
       -1    1    3    3    0  502 -0.44259489143E+03 -0.32427694073E+03  0.76645698352E+03  0.94260388277E+03  0.50400001928E-02 0. -1.
</event>
<event>
 5   0  0.2678723E-07  0.2899069E+04  0.7818609E-02  0.8273154E-01
       -2   -1    0    0    0  501  0.00000000000E+00  0.00000000000E+00  0.79577909307E+03  0.79577909307E+03  0.25500000920E-02 0.  1.
        2   -1    0    0  501    0  0.00000000000E+00  0.00000000000E+00 -0.26403694326E+04  0.26403694326E+04  0.25500000920E-02 0. -1.
    10030    2    1    2    0    0  0.00000000000E+00  0.00000000000E+00 -0.18445903396E+04  0.34361485257E+04  0.28990693627E+04 0.  0.
        5    1    3    3  502    0 -0.71279899947E+03  0.70944248489E+03  0.31500279679E+03  0.10538690170E+04  0.46999998093E+01 0.  1.
       -5    1    3    3    0  502  0.71279899947E+03 -0.70944248489E+03 -0.21595931363E+04  0.23822795087E+04  0.46999998093E+01 0. -1.
</event>
<event>
 5   0  0.2492232E-07  0.2901322E+04  0.7818609E-02  0.8272484E-01
       -2   -1    0    0    0  501  0.00000000000E+00  0.00000000000E+00  0.13596342402E+04  0.13596342402E+04  0.25500000920E-02 0. -1.
        2   -1    0    0  501    0  0.00000000000E+00  0.00000000000E+00 -0.15477816043E+04  0.15477816043E+04  0.25500000920E-02 0.  1.
    10030    2    1    2    0    0  0.00000000000E+00  0.00000000000E+00 -0.18814736409E+03  0.29074158444E+04  0.29013216750E+04 0.  0.
        4    1    3    3  502    0 -0.37339333307E+03 -0.47063444057E+03 -0.14172622344E+04  0.15393353149E+04  0.12699999809E+01 0.  1.
       -4    1    3    3    0  502  0.37339333307E+03  0.47063444057E+03  0.12291148703E+04  0.13680805295E+04  0.12699999809E+01 0. -1.
</event>
<event>
 5   0  0.2608591E-07  0.2900035E+04  0.7818609E-02  0.8272867E-01
        2   -1    0    0  501    0  0.00000000000E+00  0.00000000000E+00  0.19765989214E+04  0.19765989214E+04  0.25500000920E-02 0.  1.
       -2   -1    0    0    0  501  0.00000000000E+00  0.00000000000E+00 -0.10637211920E+04  0.10637211920E+04  0.25500000920E-02 0. -1.
    10030    2    1    2    0    0  0.00000000000E+00  0.00000000000E+00  0.91287772946E+03  0.30403201134E+04  0.29000345935E+04 0.  0.
        2    1    3    3  502    0  0.62899260623E+03  0.10310122578E+04  0.12977104121E+04  0.17727578199E+04  0.25500000920E-02 0.  1.
       -2    1    3    3    0  502 -0.62899260623E+03 -0.10310122578E+04 -0.38483268259E+03  0.12675622935E+04  0.25500000920E-02 0. -1.
</event>
<event>
 5   0  0.2678723E-07  0.2900663E+04  0.7818609E-02  0.8272680E-01
        2   -1    0    0  501    0  0.00000000000E+00  0.00000000000E+00  0.12324564672E+04  0.12324564672E+04  0.25500000920E-02 0. -1.
       -2   -1    0    0    0  501  0.00000000000E+00  0.00000000000E+00 -0.17067232577E+04  0.17067232577E+04  0.25500000920E-02 0.  1.
    10030    2    1    2    0    0  0.00000000000E+00  0.00000000000E+00 -0.47426679053E+03  0.29391797250E+04  0.29006634529E+04 0.  0.
        5    1    3    3  502    0  0.21508741106E+03  0.88079036083E+03 -0.13841474748E+04  0.16546723471E+04  0.46999998093E+01 0.  1.
       -5    1    3    3    0  502 -0.21508741106E+03 -0.88079036083E+03  0.90988068431E+03  0.12845073779E+04  0.46999998093E+01 0. -1.
</event>
<event>
 5   0  0.2678723E-07  0.2902131E+04  0.7818609E-02  0.8272244E-01
        2   -1    0    0  501    0  0.00000000000E+00  0.00000000000E+00  0.21467165327E+04  0.21467165327E+04  0.25500000920E-02 0. -1.
       -2   -1    0    0    0  501  0.00000000000E+00  0.00000000000E+00 -0.98084239551E+03  0.98084239551E+03  0.25500000920E-02 0.  1.
    10030    2    1    2    0    0  0.00000000000E+00  0.00000000000E+00  0.11658741371E+04  0.31275589282E+04  0.29021306562E+04 0.  0.
        5    1    3    3  502    0 -0.36171765259E+03  0.51781411711E+03  0.19907795869E+04  0.20885872196E+04  0.46999998093E+01 0. -1.
       -5    1    3    3    0  502  0.36171765259E+03 -0.51781411711E+03 -0.82490544980E+03  0.10389717086E+04  0.46999998093E+01 0.  1.
</event>
<event>
 5   0  0.9395744E-08  0.2896946E+04  0.7818609E-02  0.8273787E-01
        1   -1    0    0  501    0  0.00000000000E+00  0.00000000000E+00  0.14787837522E+04  0.14787837522E+04  0.50400001928E-02 0.  1.
       -1   -1    0    0    0  501  0.00000000000E+00  0.00000000000E+00 -0.14187832332E+04  0.14187832332E+04  0.50400001928E-02 0. -1.
    10030    2    1    2    0    0  0.00000000000E+00  0.00000000000E+00  0.60000518927E+02  0.28975669854E+04  0.28969456972E+04 0.  0.
        2    1    3    3  502    0  0.66598748525E+03  0.11948991682E+04 -0.44628485488E+03  0.14389209583E+04  0.25500000920E-02 0. -1.
       -2    1    3    3    0  502 -0.66598748525E+03 -0.11948991682E+04  0.50628537380E+03  0.14586460271E+04  0.25500000920E-02 0.  1.
</event>
<event>
 5   0  0.9395744E-08  0.2900594E+04  0.7818609E-02  0.8272701E-01
        1   -1    0    0  501    0  0.00000000000E+00  0.00000000000E+00  0.14905720376E+04  0.14905720376E+04  0.50400001928E-02 0. -1.
       -1   -1    0    0    0  501  0.00000000000E+00  0.00000000000E+00 -0.14111102260E+04  0.14111102260E+04  0.50400001928E-02 0.  1.
    10030    2    1    2    0    0  0.00000000000E+00  0.00000000000E+00  0.79461811647E+02  0.29016822636E+04  0.29005940391E+04 0.  0.
        2    1    3    3  502    0 -0.11426309831E+04  0.58559414345E+03 -0.63493695945E+03  0.14323655284E+04  0.25500000920E-02 0.  1.
       -2    1    3    3    0  502  0.11426309831E+04 -0.58559414345E+03  0.71439877110E+03  0.14693167353E+04  0.25500000920E-02 0. -1.
</event>
<event>
 5   0  0.9395744E-08  0.2892238E+04  0.7818609E-02  0.8275191E-01
       -1   -1    0    0    0  501  0.00000000000E+00  0.00000000000E+00  0.12593682726E+04  0.12593682726E+04  0.50400001928E-02 0.  1.
        1   -1    0    0  501    0  0.00000000000E+00  0.00000000000E+00 -0.16605626578E+04  0.16605626578E+04  0.50400001928E-02 0. -1.
    10030    2    1    2    0    0  0.00000000000E+00  0.00000000000E+00 -0.40119438525E+03  0.29199309304E+04  0.28922378366E+04 0.  0.
        2    1    3    3  502    0 -0.66990499904E+03  0.28755124658E+03  0.10602813146E+04  0.12867225394E+04  0.25500000920E-02 0.  1.
       -2    1    3    3    0  502  0.66990499904E+03 -0.28755124658E+03 -0.14614756999E+04  0.16332083910E+04  0.25500000920E-02 0. -1.
</event>
<event>
 5   0  0.9388076E-08  0.2898048E+04  0.7818609E-02  0.8273458E-01
       -1   -1    0    0    0  501  0.00000000000E+00  0.00000000000E+00  0.10913494646E+04  0.10913494646E+04  0.50400001928E-02 0. -1.
        1   -1    0    0  501    0  0.00000000000E+00  0.00000000000E+00 -0.19239219515E+04  0.19239219515E+04  0.50400001928E-02 0.  1.
    10030    2    1    2    0    0  0.00000000000E+00  0.00000000000E+00 -0.83257248683E+03  0.30152714161E+04  0.28980484411E+04 0.  0.
        5    1    3    3  502    0 -0.14156844426E+04 -0.29974847271E+03 -0.49440666481E+03  0.15292062085E+04  0.46999998093E+01 0.  1.
       -5    1    3    3    0  502  0.14156844426E+04  0.29974847271E+03 -0.33816582202E+03  0.14860652076E+04  0.46999998093E+01 0. -1.
</event>
<event>
 5   0  0.2534588E-07  0.2901106E+04  0.7818609E-02  0.8272549E-01
       -2   -1    0    0    0  501  0.00000000000E+00  0.00000000000E+00  0.11121441730E+04  0.11121441730E+04  0.25500000920E-02 0. -1.
        2   -1    0    0  501    0  0.00000000000E+00  0.00000000000E+00 -0.18919340344E+04  0.18919340344E+04  0.25500000920E-02 0.  1.
    10030    2    1    2    0    0  0.00000000000E+00  0.00000000000E+00 -0.77978986147E+03  0.30040782074E+04  0.29011055907E+04 0.  0.
        3    1    3    3  502    0  0.22065533805E+03 -0.14327599354E+04 -0.33695705423E+03  0.14882976441E+04  0.10100000352E+00 0.  1.
       -3    1    3    3    0  502 -0.22065533805E+03  0.14327599354E+04 -0.44283280724E+03  0.15157805633E+04  0.10100000352E+00 0. -1.
</event>
<event>
 5   0  0.9763851E-08  0.2899859E+04  0.7818609E-02  0.8272920E-01
        1   -1    0    0  501    0  0.00000000000E+00  0.00000000000E+00  0.23175507299E+04  0.23175507299E+04  0.50400001928E-02 0. -1.
       -1   -1    0    0    0  501  0.00000000000E+00  0.00000000000E+00 -0.90711931124E+03  0.90711931125E+03  0.50400001928E-02 0.  1.
    10030    2    1    2    0    0  0.00000000000E+00  0.00000000000E+00  0.14104314187E+04  0.32246700412E+04  0.28998586324E+04 0.  0.
        3    1    3    3  502    0  0.87280801568E+02 -0.13251761741E+03  0.23078662998E+04  0.23133148781E+04  0.10100000352E+00 0. -1.
       -3    1    3    3    0  502 -0.87280801568E+02  0.13251761741E+03 -0.89743488112E+03  0.91135516309E+03  0.10100000352E+00 0.  1.
</event>
<event>
 5   0  0.9395744E-08  0.2899287E+04  0.7818609E-02  0.8273090E-01
        1   -1    0    0  501    0  0.00000000000E+00  0.00000000000E+00  0.13704937907E+04  0.13704937907E+04  0.50400001928E-02 0.  1.
       -1   -1    0    0    0  501  0.00000000000E+00  0.00000000000E+00 -0.15333644836E+04  0.15333644836E+04  0.50400001928E-02 0. -1.
    10030    2    1    2    0    0  0.00000000000E+00  0.00000000000E+00 -0.16287069288E+03  0.29038582743E+04  0.28992871563E+04 0.  0.
        2    1    3    3  502    0  0.79861134026E+03  0.56526843743E+03  0.98990433271E+03  0.13918401730E+04  0.25500000920E-02 0.  1.
       -2    1    3    3    0  502 -0.79861134026E+03 -0.56526843743E+03 -0.11527750256E+04  0.15120181013E+04  0.25500000920E-02 0. -1.
</event>
<event>
 5   0  0.9388076E-08  0.2890925E+04  0.7818609E-02  0.8275583E-01
       -1   -1    0    0    0  501  0.00000000000E+00  0.00000000000E+00  0.14328021883E+04  0.14328021883E+04  0.50400001928E-02 0. -1.
        1   -1    0    0  501    0  0.00000000000E+00  0.00000000000E+00 -0.14582343039E+04  0.14582343039E+04  0.50400001928E-02 0.  1.
    10030    2    1    2    0    0  0.00000000000E+00  0.00000000000E+00 -0.25432115654E+02  0.28910364922E+04  0.28909246284E+04 0.  0.
        5    1    3    3  502    0 -0.79721842930E+03  0.82806266205E+03 -0.88915981481E+03  0.14532282211E+04  0.46999998093E+01 0.  1.
       -5    1    3    3    0  502  0.79721842930E+03 -0.82806266205E+03  0.86372769915E+03  0.14378082712E+04  0.46999998093E+01 0. -1.
</event>
<event>
 5   0  0.2608591E-07  0.2900040E+04  0.7818609E-02  0.8272865E-01
        2   -1    0    0  501    0  0.00000000000E+00  0.00000000000E+00  0.25007946539E+04  0.25007946539E+04  0.25500000920E-02 0.  1.
       -2   -1    0    0    0  501  0.00000000000E+00  0.00000000000E+00 -0.84075615977E+03  0.84075615977E+03  0.25500000920E-02 0. -1.
    10030    2    1    2    0    0  0.00000000000E+00  0.00000000000E+00  0.16600384942E+04  0.33415508137E+04  0.29000403512E+04 0.  0.
        2    1    3    3  502    0  0.34548621405E+03  0.58523596905E+02  0.24512756441E+04  0.24761942612E+04  0.25500000920E-02 0.  1.
       -2    1    3    3    0  502 -0.34548621405E+03 -0.58523596905E+02 -0.79123714998E+03  0.86535655253E+03  0.25500000920E-02 0. -1.
</event>
<event>
 5   0  0.2492232E-07  0.2899899E+04  0.7818609E-02  0.8272908E-01
       -2   -1    0    0    0  501  0.00000000000E+00  0.00000000000E+00  0.11612577768E+04  0.11612577768E+04  0.25500000920E-02 0. -1.
        2   -1    0    0  501    0  0.00000000000E+00  0.00000000000E+00 -0.18104107027E+04  0.18104107027E+04  0.25500000920E-02 0.  1.
    10030    2    1    2    0    0  0.00000000000E+00  0.00000000000E+00 -0.64915292588E+03  0.29716684795E+04  0.28998989690E+04 0.  0.
        4    1    3    3  502    0 -0.33158322514E+03  0.11374372725E+04 -0.11811102458E+04  0.16729417233E+04  0.12699999809E+01 0.  1.
       -4    1    3    3    0  502  0.33158322514E+03 -0.11374372725E+04  0.53195731995E+03  0.12987267561E+04  0.12699999809E+01 0. -1.
</event>
<event>
 5   0  0.9763851E-08  0.2900096E+04  0.7818609E-02  0.8272849E-01
       -1   -1    0    0    0  501  0.00000000000E+00  0.00000000000E+00  0.92404213245E+03  0.92404213246E+03  0.50400001928E-02 0. -1.
        1   -1    0    0  501    0  0.00000000000E+00  0.00000000000E+00 -0.22754797037E+04  0.22754797037E+04  0.50400001928E-02 0.  1.
    10030    2    1    2    0    0  0.00000000000E+00  0.00000000000E+00 -0.13514375712E+04  0.31995218361E+04  0.29000959417E+04 0.  0.
        3    1    3    3  502    0  0.12047955021E+04 -0.46999284105E+03 -0.13993458445E+04  0.19054118387E+04  0.10100000352E+00 0.  1.
       -3    1    3    3    0  502 -0.12047955021E+04  0.46999284105E+03  0.47908273242E+02  0.12941099974E+04  0.10100000352E+00 0. -1.
</event>
<event>
 5   0  0.2608591E-07  0.2900870E+04  0.7818609E-02  0.8272619E-01
       -2   -1    0    0    0  501  0.00000000000E+00  0.00000000000E+00  0.10127979852E+04  0.10127979852E+04  0.25500000920E-02 0. -1.
        2   -1    0    0  501    0  0.00000000000E+00  0.00000000000E+00 -0.20771773674E+04  0.20771773674E+04  0.25500000920E-02 0.  1.
    10030    2    1    2    0    0  0.00000000000E+00  0.00000000000E+00 -0.10643793822E+04  0.30899753526E+04  0.29008695611E+04 0.  0.
        2    1    3    3  502    0  0.20196841940E+03  0.41295409632E+03 -0.19975274053E+04  0.20497409747E+04  0.25500000920E-02 0.  1.
       -2    1    3    3    0  502 -0.20196841940E+03 -0.41295409632E+03  0.93314802312E+03  0.10402343780E+04  0.25500000920E-02 0. -1.
</event>
<event>
 5   0  0.9388076E-08  0.2901917E+04  0.7818609E-02  0.8272307E-01
       -1   -1    0    0    0  501  0.00000000000E+00  0.00000000000E+00  0.11043934706E+04  0.11043934706E+04  0.50400001928E-02 0.  1.
        1   -1    0    0  501    0  0.00000000000E+00  0.00000000000E+00 -0.19062778317E+04  0.19062778317E+04  0.50400001928E-02 0. -1.
    10030    2    1    2    0    0  0.00000000000E+00  0.00000000000E+00 -0.80188436105E+03  0.30106713023E+04  0.29019171528E+04 0.  0.
        5    1    3    3  502    0 -0.64816535087E+02  0.12402350412E+04  0.37742433278E+03  0.12980197832E+04  0.46999998093E+01 0.  1.
       -5    1    3    3    0  502  0.64816535087E+02 -0.12402350412E+04 -0.11793086938E+04  0.17126515191E+04  0.46999998093E+01 0. -1.
</event>
<event>
 5   0  0.9443352E-08  0.2900842E+04  0.7818609E-02  0.8272627E-01
        1   -1    0    0  501    0  0.00000000000E+00  0.00000000000E+00  0.14480623171E+04  0.14480623171E+04  0.50400001928E-02 0. -1.
       -1   -1    0    0    0  501  0.00000000000E+00  0.00000000000E+00 -0.14527834698E+04  0.14527834698E+04  0.50400001928E-02 0.  1.
    10030    2    1    2    0    0  0.00000000000E+00  0.00000000000E+00 -0.47211526838E+01  0.29008457869E+04  0.29008419451E+04 0.  0.
        4    1    3    3  502    0  0.97622958677E+03 -0.10713021956E+04  0.52473648995E+02  0.14503336503E+04  0.12699999809E+01 0.  1.
       -4    1    3    3    0  502 -0.97622958677E+03  0.10713021956E+04 -0.57194801679E+02  0.14505121367E+04  0.12699999809E+01 0. -1.
</event>
<event>
 5   0  0.9395744E-08  0.2906147E+04  0.7818609E-02  0.8271051E-01
       -1   -1    0    0    0  501  0.00000000000E+00  0.00000000000E+00  0.10530863656E+04  0.10530863656E+04  0.50400001928E-02 0.  1.
        1   -1    0    0  501    0  0.00000000000E+00  0.00000000000E+00 -0.20049856649E+04  0.20049856649E+04  0.50400001928E-02 0. -1.
    10030    2    1    2    0    0  0.00000000000E+00  0.00000000000E+00 -0.95189929929E+03  0.30580720305E+04  0.29061473238E+04 0.  0.
        2    1    3    3  502    0 -0.11856461489E+04 -0.83998052035E+03 -0.46547952351E+03  0.15257769338E+04  0.25500000920E-02 0.  1.
       -2    1    3    3    0  502  0.11856461489E+04  0.83998052035E+03 -0.48641977578E+03  0.15322950967E+04  0.25500000920E-02 0. -1.
</event>
<event>
 5   0  0.9388076E-08  0.2900975E+04  0.7818609E-02  0.8272588E-01
        1   -1    0    0  501    0  0.00000000000E+00  0.00000000000E+00  0.24722245665E+04  0.24722245665E+04  0.50400001928E-02 0. -1.
       -1   -1    0    0    0  501  0.00000000000E+00  0.00000000000E+00 -0.85102034697E+03  0.85102034699E+03  0.50400001928E-02 0.  1.
    10030    2    1    2    0    0  0.00000000000E+00  0.00000000000E+00  0.16212042195E+04  0.33232449135E+04  0.29009746006E+04 0.  0.
        5    1    3    3  502    0  0.34218183382E+02  0.14265089083E+04  0.11088724765E+04  0.18071299922E+04  0.46999998093E+01 0.  1.
       -5    1    3    3    0  502 -0.34218183382E+02 -0.14265089083E+04  0.51233174298E+03  0.15161149213E+04  0.46999998093E+01 0. -1.
</event>
<event>
 5   0  0.9421924E-08  0.2896982E+04  0.7818609E-02  0.8273776E-01
       -1   -1    0    0    0  501  0.00000000000E+00  0.00000000000E+00  0.16112614006E+04  0.16112614006E+04  0.50400001928E-02 0.  1.
        1   -1    0    0  501    0  0.00000000000E+00  0.00000000000E+00 -0.13021638604E+04  0.13021638605E+04  0.50400001928E-02 0. -1.
    10030    2    1    2    0    0  0.00000000000E+00  0.00000000000E+00  0.30909754019E+03  0.29134252611E+04  0.28969821302E+04 0.  0.
        1    1    3    3  502    0 -0.13142475746E+04 -0.52321937752E+03 -0.15886278091E+03  0.14234614808E+04  0.50400001928E-02 0.  1.
       -1    1    3    3    0  502  0.13142475746E+04  0.52321937752E+03  0.46796032110E+03  0.14899637802E+04  0.50400001928E-02 0. -1.
</event>
<event>
 5   0  0.2534588E-07  0.2900535E+04  0.7818609E-02  0.8272718E-01
        2   -1    0    0  501    0  0.00000000000E+00  0.00000000000E+00  0.18182021809E+04  0.18182021809E+04  0.25500000920E-02 0.  1.
       -2   -1    0    0    0  501  0.00000000000E+00  0.00000000000E+00 -0.11567884084E+04  0.11567884084E+04  0.25500000920E-02 0. -1.
    10030    2    1    2    0    0  0.00000000000E+00  0.00000000000E+00  0.66141377253E+03  0.29749905893E+04  0.29005345762E+04 0.  0.
        3    1    3    3  502    0 -0.90449856694E+03 -0.78261564009E+03  0.11719251160E+04  0.16745188519E+04  0.10100000352E+00 0.  1.
       -3    1    3    3    0  502  0.90449856694E+03  0.78261564009E+03 -0.51051134344E+03  0.13004717374E+04  0.10100000352E+00 0. -1.
</event>
<event>
 5   0  0.2534588E-07  0.2900417E+04  0.7818609E-02  0.8272753E-01
        2   -1    0    0  501    0  0.00000000000E+00  0.00000000000E+00  0.18842338710E+04  0.18842338710E+04  0.25500000920E-02 0. -1.
       -2   -1    0    0    0  501  0.00000000000E+00  0.00000000000E+00 -0.11161592937E+04  0.11161592937E+04  0.25500000920E-02 0.  1.
    10030    2    1    2    0    0  0.00000000000E+00  0.00000000000E+00  0.76807457727E+03  0.30003931647E+04  0.29004173125E+04 0.  0.
        3    1    3    3  502    0 -0.13448762375E+04 -0.36440193121E+03 -0.31845524749E+02  0.13937341961E+04  0.10100000352E+00 0.  1.
       -3    1    3    3    0  502  0.13448762375E+04  0.36440193121E+03  0.79992010202E+03  0.16066589686E+04  0.10100000352E+00 0. -1.
</event>
<event>
 5   0  0.9388076E-08  0.2900042E+04  0.7818609E-02  0.8272865E-01
        1   -1    0    0  501    0  0.00000000000E+00  0.00000000000E+00  0.15065786280E+04  0.15065786280E+04  0.50400001928E-02 0. -1.
       -1   -1    0    0    0  501  0.00000000000E+00  0.00000000000E+00 -0.13955865744E+04  0.13955865744E+04  0.50400001928E-02 0.  1.
    10030    2    1    2    0    0  0.00000000000E+00  0.00000000000E+00  0.11099205360E+03  0.29021652025E+04  0.29000420042E+04 0.  0.
        5    1    3    3  502    0  0.11476059495E+03 -0.11949415706E+04 -0.75841576153E+03  0.14199548967E+04  0.46999998093E+01 0.  1.
       -5    1    3    3    0  502 -0.11476059495E+03  0.11949415706E+04  0.86940781513E+03  0.14822103057E+04  0.46999998093E+01 0. -1.
</event>
<event>
 5   0  0.9763851E-08  0.2899343E+04  0.7818609E-02  0.8273073E-01
        1   -1    0    0  501    0  0.00000000000E+00  0.00000000000E+00  0.17832523032E+04  0.17832523032E+04  0.50400001928E-02 0. -1.
       -1   -1    0    0    0  501  0.00000000000E+00  0.00000000000E+00 -0.11784912886E+04  0.11784912886E+04  0.50400001928E-02 0.  1.
    10030    2    1    2    0    0  0.00000000000E+00  0.00000000000E+00  0.60476101465E+03  0.29617435918E+04  0.28993428943E+04 0.  0.
        3    1    3    3  502    0  0.14419479310E+04  0.12993453238E+03  0.22696422979E+03  0.14654724802E+04  0.10100000352E+00 0.  1.
       -3    1    3    3    0  502 -0.14419479310E+04 -0.12993453238E+03  0.37779678486E+03  0.14962711116E+04  0.10100000352E+00 0. -1.
</event>
<event>
 5   0  0.9763851E-08  0.2900484E+04  0.7818609E-02  0.8272733E-01
       -1   -1    0    0    0  501  0.00000000000E+00  0.00000000000E+00  0.20152524135E+04  0.20152524135E+04  0.50400001928E-02 0.  1.
        1   -1    0    0  501    0  0.00000000000E+00  0.00000000000E+00 -0.10436421358E+04  0.10436421358E+04  0.50400001928E-02 0. -1.
    10030    2    1    2    0    0  0.00000000000E+00  0.00000000000E+00  0.97161027765E+03  0.30588945493E+04  0.29004843272E+04 0.  0.
        3    1    3    3  502    0 -0.17695273733E+03 -0.12507239255E+04  0.12371617477E+04  0.17681040154E+04  0.10100000352E+00 0.  1.
       -3    1    3    3    0  502  0.17695273733E+03  0.12507239255E+04 -0.26555147005E+03  0.12907905339E+04  0.10100000352E+00 0. -1.
</event>
<event>
 5   0  0.2608591E-07  0.2899817E+04  0.7818609E-02  0.8272932E-01
        2   -1    0    0  501    0  0.00000000000E+00  0.00000000000E+00  0.14744838535E+04  0.14744838535E+04  0.25500000920E-02 0. -1.
       -2   -1    0    0    0  501  0.00000000000E+00  0.00000000000E+00 -0.14257425501E+04  0.14257425501E+04  0.25500000920E-02 0.  1.
    10030    2    1    2    0    0  0.00000000000E+00  0.00000000000E+00  0.48741303404E+02  0.29002264036E+04  0.28998168007E+04 0.  0.
        2    1    3    3  502    0  0.96233380644E+03  0.77259093301E+03 -0.73682243557E+03  0.14373205649E+04  0.25500000920E-02 0.  1.
       -2    1    3    3    0  502 -0.96233380644E+03 -0.77259093301E+03  0.78556373897E+03  0.14629058387E+04  0.25500000920E-02 0. -1.
</event>
<event>
 5   0  0.2608591E-07  0.2898605E+04  0.7818609E-02  0.8273293E-01
       -2   -1    0    0    0  501  0.00000000000E+00  0.00000000000E+00  0.83711447783E+03  0.83711447784E+03  0.25500000920E-02 0.  1.
        2   -1    0    0  501    0  0.00000000000E+00  0.00000000000E+00 -0.25091888528E+04  0.25091888528E+04  0.25500000920E-02 0. -1.
    10030    2    1    2    0    0  0.00000000000E+00  0.00000000000E+00 -0.16720743749E+04  0.33463033306E+04  0.28986054000E+04 0.  0.
        2    1    3    3  502    0  0.14479489904E+04 -0.56390016203E+02 -0.80458595030E+03  0.16574361720E+04  0.25500000920E-02 0. -1.
       -2    1    3    3    0  502 -0.14479489904E+04  0.56390016203E+02 -0.86748842465E+03  0.16888671587E+04  0.25500000920E-02 0.  1.
</event>
<event>
 5   0  0.9443352E-08  0.2900074E+04  0.7818609E-02  0.8272855E-01
        1   -1    0    0  501    0  0.00000000000E+00  0.00000000000E+00  0.12924631852E+04  0.12924631852E+04  0.50400001928E-02 0. -1.
       -1   -1    0    0    0  501  0.00000000000E+00  0.00000000000E+00 -0.16268217421E+04  0.16268217421E+04  0.50400001928E-02 0.  1.
    10030    2    1    2    0    0  0.00000000000E+00  0.00000000000E+00 -0.33435855690E+03  0.29192849274E+04  0.29000739374E+04 0.  0.
        4    1    3    3  502    0  0.17898048857E+03  0.10558741927E+04 -0.11512549528E+04  0.15723529838E+04  0.12699999809E+01 0.  1.
       -4    1    3    3    0  502 -0.17898048857E+03 -0.10558741927E+04  0.81689639594E+03  0.13469319436E+04  0.12699999809E+01 0. -1.
</event>
<event>
 5   0  0.2546841E-07  0.2900047E+04  0.7818609E-02  0.8272864E-01
        2   -1    0    0  501    0  0.00000000000E+00  0.00000000000E+00  0.11483718153E+04  0.11483718153E+04  0.25500000920E-02 0.  1.
       -2   -1    0    0    0  501  0.00000000000E+00  0.00000000000E+00 -0.18309120781E+04  0.18309120781E+04  0.25500000920E-02 0. -1.
    10030    2    1    2    0    0  0.00000000000E+00  0.00000000000E+00 -0.68254026281E+03  0.29792838934E+04  0.29000467767E+04 0.  0.
        1    1    3    3  502    0  0.54742562682E+03  0.85617173899E+03 -0.14038729472E+04  0.17330793737E+04  0.50400001928E-02 0. -1.
       -1    1    3    3    0  502 -0.54742562682E+03 -0.85617173899E+03  0.72133268437E+03  0.12462045198E+04  0.50400001928E-02 0.  1.
</event>
<event>
 5   0  0.2678723E-07  0.2896140E+04  0.7818609E-02  0.8274027E-01
       -2   -1    0    0    0  501  0.00000000000E+00  0.00000000000E+00  0.13079804519E+04  0.13079804519E+04  0.25500000920E-02 0. -1.
        2   -1    0    0  501    0  0.00000000000E+00  0.00000000000E+00 -0.16031639377E+04  0.16031639377E+04  0.25500000920E-02 0.  1.
    10030    2    1    2    0    0  0.00000000000E+00  0.00000000000E+00 -0.29518348580E+03  0.29111443897E+04  0.28961402534E+04 0.  0.
        5    1    3    3  502    0 -0.74399889232E+03 -0.49584676273E+03 -0.12925656869E+04  0.15716699745E+04  0.46999998093E+01 0.  1.
       -5    1    3    3    0  502  0.74399889232E+03  0.49584676273E+03  0.99738220106E+03  0.13394744152E+04  0.46999998093E+01 0. -1.
</event>
<event>
 5   0  0.2678723E-07  0.2902190E+04  0.7818609E-02  0.8272226E-01
        2   -1    0    0  501    0  0.00000000000E+00  0.00000000000E+00  0.24562281798E+04  0.24562281798E+04  0.25500000920E-02 0. -1.
       -2   -1    0    0    0  501  0.00000000000E+00  0.00000000000E+00 -0.85728079664E+03  0.85728079664E+03  0.25500000920E-02 0.  1.
    10030    2    1    2    0    0  0.00000000000E+00  0.00000000000E+00  0.15989473832E+04  0.33135089764E+04  0.29021903802E+04 0.  0.
        5    1    3    3  502    0 -0.77984319270E+03  0.20097243602E+03 -0.57871409869E+03  0.99170430233E+03  0.46999998093E+01 0.  1.
       -5    1    3    3    0  502  0.77984319270E+03 -0.20097243602E+03  0.21776614818E+04  0.23218046741E+04  0.46999998093E+01 0. -1.
</event>
<event>
 5   0  0.2608591E-07  0.2906922E+04  0.7818609E-02  0.8270821E-01
        2   -1    0    0  501    0  0.00000000000E+00  0.00000000000E+00  0.17902917119E+04  0.17902917119E+04  0.25500000920E-02 0. -1.
       -2   -1    0    0    0  501  0.00000000000E+00  0.00000000000E+00 -0.11800026741E+04  0.11800026741E+04  0.25500000920E-02 0.  1.
    10030    2    1    2    0    0  0.00000000000E+00  0.00000000000E+00  0.61028903784E+03  0.29702943860E+04  0.29069220887E+04 0.  0.
        2    1    3    3  502    0  0.66677082297E+03  0.10670398851E+04  0.10485993866E+04  0.16379005221E+04  0.25500000920E-02 0. -1.
       -2    1    3    3    0  502 -0.66677082297E+03 -0.10670398851E+04 -0.43831034880E+03  0.13323938639E+04  0.25500000920E-02 0.  1.
</event>
<event>
 5   0  0.8407500E-08  0.2899539E+04  0.7818609E-02  0.8273015E-01
        3   -1    0    0  501    0  0.00000000000E+00  0.00000000000E+00  0.14774202937E+04  0.14774202971E+04  0.10100000352E+00 0. -1.
       -3   -1    0    0    0  501  0.00000000000E+00  0.00000000000E+00 -0.14226361345E+04  0.14226361381E+04  0.10100000352E+00 0.  1.
    10030    2    1    2    0    0  0.00000000000E+00  0.00000000000E+00  0.54784159220E+02  0.29000564352E+04  0.28995389329E+04 0.  0.
        2    1    3    3  502    0  0.23676639084E+03  0.79575119146E+03 -0.11613288658E+04  0.14275724210E+04  0.25500000920E-02 0.  1.
       -2    1    3    3    0  502 -0.23676639084E+03 -0.79575119146E+03  0.12161130250E+04  0.14724840142E+04  0.25500000920E-02 0. -1.
</event>
<event>
 5   0  0.2534588E-07  0.2900516E+04  0.7818609E-02  0.8272724E-01
        2   -1    0    0  501    0  0.00000000000E+00  0.00000000000E+00  0.12768872494E+04  0.12768872494E+04  0.25500000920E-02 0. -1.
       -2   -1    0    0    0  501  0.00000000000E+00  0.00000000000E+00 -0.16471686673E+04  0.16471686673E+04  0.25500000920E-02 0.  1.
    10030    2    1    2    0    0  0.00000000000E+00  0.00000000000E+00 -0.37028141788E+03  0.29240559167E+04  0.29005162774E+04 0.  0.
        3    1    3    3  502    0 -0.78300605451E+03  0.59657402923E+03 -0.12587955451E+04  0.15979878874E+04  0.10100000352E+00 0.  1.
       -3    1    3    3    0  502  0.78300605451E+03 -0.59657402923E+03  0.88851412722E+03  0.13260680293E+04  0.10100000352E+00 0. -1.
</event>
<event>
 5   0  0.9763851E-08  0.2899430E+04  0.7818609E-02  0.8273047E-01
       -1   -1    0    0    0  501  0.00000000000E+00  0.00000000000E+00  0.12551866653E+04  0.12551866653E+04  0.50400001928E-02 0.  1.
        1   -1    0    0  501    0  0.00000000000E+00  0.00000000000E+00 -0.16743913244E+04  0.16743913244E+04  0.50400001928E-02 0. -1.
    10030    2    1    2    0    0  0.00000000000E+00  0.00000000000E+00 -0.41920465906E+03  0.29295779897E+04  0.28994300563E+04 0.  0.
        3    1    3    3  502    0  0.17214691215E+03  0.48585930470E+02  0.12439941806E+04  0.12567882413E+04  0.10100000352E+00 0.  1.
       -3    1    3    3    0  502 -0.17214691215E+03 -0.48585930470E+02 -0.16631988396E+04  0.16727897484E+04  0.10100000352E+00 0. -1.
</event>
<event>
 5   0  0.2492232E-07  0.2899944E+04  0.7818609E-02  0.8272894E-01
       -2   -1    0    0    0  501  0.00000000000E+00  0.00000000000E+00  0.98118513805E+03  0.98118513805E+03  0.25500000920E-02 0.  1.
        2   -1    0    0  501    0  0.00000000000E+00  0.00000000000E+00 -0.21427333259E+04  0.21427333259E+04  0.25500000920E-02 0. -1.
    10030    2    1    2    0    0  0.00000000000E+00  0.00000000000E+00 -0.11615481878E+04  0.31239184639E+04  0.28999435127E+04 0.  0.
        4    1    3    3  502    0  0.21119774500E+03 -0.81426858794E+03  0.69144760522E+03  0.10889165370E+04  0.12699999809E+01 0.  1.
       -4    1    3    3    0  502 -0.21119774500E+03  0.81426858794E+03 -0.18529957931E+04  0.20350019270E+04  0.12699999809E+01 0. -1.
</event>
<event>
 5   0  0.9395744E-08  0.2902286E+04  0.7818609E-02  0.8272198E-01
       -1   -1    0    0    0  501  0.00000000000E+00  0.00000000000E+00  0.12984735702E+04  0.12984735702E+04  0.50400001928E-02 0.  1.
        1   -1    0    0  501    0  0.00000000000E+00  0.00000000000E+00 -0.16217630689E+04  0.16217630689E+04  0.50400001928E-02 0. -1.
    10030    2    1    2    0    0  0.00000000000E+00  0.00000000000E+00 -0.32328949875E+03  0.29202366391E+04  0.29022863278E+04 0.  0.
        2    1    3    3  502    0 -0.13816090907E+04  0.43371502579E+03 -0.25637628973E+03  0.14706057273E+04  0.25500000920E-02 0.  1.
       -2    1    3    3    0  502  0.13816090907E+04 -0.43371502579E+03 -0.66913209015E+02  0.14496309119E+04  0.25500000920E-02 0. -1.
</event>
<event>
 5   0  0.9421924E-08  0.2899418E+04  0.7818609E-02  0.8273051E-01
       -1   -1    0    0    0  501  0.00000000000E+00  0.00000000000E+00  0.14024077727E+04  0.14024077727E+04  0.50400001928E-02 0.  1.
        1   -1    0    0  501    0  0.00000000000E+00  0.00000000000E+00 -0.14986059403E+04  0.14986059403E+04  0.50400001928E-02 0. -1.
    10030    2    1    2    0    0  0.00000000000E+00  0.00000000000E+00 -0.96198167681E+02  0.29010137130E+04  0.28994182995E+04 0.  0.
        1    1    3    3  502    0 -0.14175501863E+04 -0.29191828012E+03 -0.13176211327E+03  0.14532811385E+04  0.50400001928E-02 0. -1.
       -1    1    3    3    0  502  0.14175501863E+04  0.29191828012E+03  0.35563945592E+02  0.14477325745E+04  0.50400001928E-02 0.  1.
</event>
<event>
 5   0  0.2678723E-07  0.2900073E+04  0.7818609E-02  0.8272856E-01
       -2   -1    0    0    0  501  0.00000000000E+00  0.00000000000E+00  0.11359921783E+04  0.11359921784E+04  0.25500000920E-02 0.  1.
        2   -1    0    0  501    0  0.00000000000E+00  0.00000000000E+00 -0.18508988004E+04  0.18508988004E+04  0.25500000920E-02 0. -1.
    10030    2    1    2    0    0  0.00000000000E+00  0.00000000000E+00 -0.71490662203E+03  0.29868909787E+04  0.29000734888E+04 0.  0.
        5    1    3    3  502    0  0.30559802022E+03 -0.20798359871E+03 -0.18015463747E+04  0.18390863920E+04  0.46999998093E+01 0. -1.
       -5    1    3    3    0  502 -0.30559802022E+03  0.20798359871E+03  0.10866397526E+04  0.11478045867E+04  0.46999998093E+01 0.  1.
</event>
<event>
 5   0  0.9388076E-08  0.2900725E+04  0.7818609E-02  0.8272662E-01
       -1   -1    0    0    0  501  0.00000000000E+00  0.00000000000E+00  0.15712342572E+04  0.15712342572E+04  0.50400001928E-02 0. -1.
        1   -1    0    0  501    0  0.00000000000E+00  0.00000000000E+00 -0.13387895391E+04  0.13387895391E+04  0.50400001928E-02 0.  1.
    10030    2    1    2    0    0  0.00000000000E+00  0.00000000000E+00  0.23244471806E+03  0.29100237963E+04  0.29007254176E+04 0.  0.
        5    1    3    3  502    0 -0.61417339399E+03 -0.11643811944E+04 -0.49444671850E+03  0.14062333274E+04  0.46999998093E+01 0.  1.
       -5    1    3    3    0  502  0.61417339399E+03  0.11643811944E+04  0.72689143656E+03  0.15037904689E+04  0.46999998093E+01 0. -1.
</event>
<event>
 5   0  0.2534588E-07  0.2899813E+04  0.7818609E-02  0.8272933E-01
        2   -1    0    0  501    0  0.00000000000E+00  0.00000000000E+00  0.15755974528E+04  0.15755974528E+04  0.25500000920E-02 0. -1.
       -2   -1    0    0    0  501  0.00000000000E+00  0.00000000000E+00 -0.13342422661E+04  0.13342422661E+04  0.25500000920E-02 0.  1.
    10030    2    1    2    0    0  0.00000000000E+00  0.00000000000E+00  0.24135518672E+03  0.29098397190E+04  0.28998129015E+04 0.  0.
        3    1    3    3  502    0 -0.11958744679E+04  0.70833687467E+03  0.53486604908E+03  0.14892745119E+04  0.10100000352E+00 0.  1.
       -3    1    3    3    0  502  0.11958744679E+04 -0.70833687467E+03 -0.29351086236E+03  0.14205652071E+04  0.10100000352E+00 0. -1.
</event>
<event>
 5   0  0.2546841E-07  0.2900705E+04  0.7818609E-02  0.8272668E-01
        2   -1    0    0  501    0  0.00000000000E+00  0.00000000000E+00  0.20558081954E+04  0.20558081954E+04  0.25500000920E-02 0.  1.
       -2   -1    0    0    0  501  0.00000000000E+00  0.00000000000E+00 -0.10232091327E+04  0.10232091327E+04  0.25500000920E-02 0. -1.
    10030    2    1    2    0    0  0.00000000000E+00  0.00000000000E+00  0.10325990627E+04  0.30790173281E+04  0.29007045493E+04 0.  0.
        1    1    3    3  502    0 -0.32013666545E+03  0.11944259928E+04  0.13207671876E+04  0.18093001135E+04  0.50400001928E-02 0.  1.
       -1    1    3    3    0  502  0.32013666545E+03 -0.11944259928E+04 -0.28816812490E+03  0.12697172146E+04  0.50400001928E-02 0. -1.
</event>
<event>
 5   0  0.9395744E-08  0.2896868E+04  0.7818609E-02  0.8273810E-01
        1   -1    0    0  501    0  0.00000000000E+00  0.00000000000E+00  0.11138295249E+04  0.11138295249E+04  0.50400001928E-02 0. -1.
       -1   -1    0    0    0  501  0.00000000000E+00  0.00000000000E+00 -0.18835571071E+04  0.18835571071E+04  0.50400001928E-02 0.  1.
    10030    2    1    2    0    0  0.00000000000E+00  0.00000000000E+00 -0.76972758216E+03  0.29973866320E+04  0.28968683213E+04 0.  0.
        2    1    3    3  502    0  0.87827815348E+03 -0.97145011358E+03 -0.10251022634E+04  0.16631062769E+04  0.25500000920E-02 0.  1.
       -2    1    3    3    0  502 -0.87827815348E+03  0.97145011358E+03  0.25537468120E+03  0.13342803550E+04  0.25500000920E-02 0. -1.
</event>
<event>
 5   0  0.9395744E-08  0.2900022E+04  0.7818609E-02  0.8272871E-01
       -1   -1    0    0    0  501  0.00000000000E+00  0.00000000000E+00  0.93279337978E+03  0.93279337979E+03  0.50400001928E-02 0.  1.
        1   -1    0    0  501    0  0.00000000000E+00  0.00000000000E+00 -0.22540170769E+04  0.22540170770E+04  0.50400001928E-02 0. -1.
    10030    2    1    2    0    0  0.00000000000E+00  0.00000000000E+00 -0.13212236972E+04  0.31868104567E+04  0.29000222119E+04 0.  0.
        2    1    3    3  502    0 -0.72053695029E+03 -0.82943675451E+02  0.71913373350E+03  0.10213747974E+04  0.25500000920E-02 0.  1.
       -2    1    3    3    0  502  0.72053695029E+03  0.82943675451E+02 -0.20403574307E+04  0.21654356594E+04  0.25500000920E-02 0. -1.
</event>
<event>
 5   0  0.2534588E-07  0.2899275E+04  0.7818609E-02  0.8273093E-01
        2   -1    0    0  501    0  0.00000000000E+00  0.00000000000E+00  0.27110635812E+04  0.27110635812E+04  0.25500000920E-02 0.  1.
       -2   -1    0    0    0  501  0.00000000000E+00  0.00000000000E+00 -0.77513814263E+03  0.77513814263E+03  0.25500000920E-02 0. -1.
    10030    2    1    2    0    0  0.00000000000E+00  0.00000000000E+00  0.19359254386E+04  0.34862017238E+04  0.28992749362E+04 0.  0.
        3    1    3    3  502    0 -0.38506209605E+02  0.75823575240E+01  0.27104246722E+04  0.27107087881E+04  0.10100000352E+00 0.  1.
       -3    1    3    3    0  502  0.38506209605E+02 -0.75823575240E+01 -0.77449923359E+03  0.77549293572E+03  0.10100000352E+00 0. -1.
</event>
<event>
 5   0  0.2534588E-07  0.2899635E+04  0.7818609E-02  0.8272986E-01
       -2   -1    0    0    0  501  0.00000000000E+00  0.00000000000E+00  0.13336037212E+04  0.13336037212E+04  0.25500000920E-02 0. -1.
        2   -1    0    0  501    0  0.00000000000E+00  0.00000000000E+00 -0.15761580252E+04  0.15761580252E+04  0.25500000920E-02 0.  1.
    10030    2    1    2    0    0  0.00000000000E+00  0.00000000000E+00 -0.24255430397E+03  0.29097617464E+04  0.28996346029E+04 0.  0.
        3    1    3    3  502    0  0.11678123697E+04 -0.85288647588E+03 -0.22541398905E+03  0.14635615970E+04  0.10100000352E+00 0. -1.
       -3    1    3    3    0  502 -0.11678123697E+04  0.85288647588E+03 -0.17140314915E+02  0.14462001494E+04  0.10100000352E+00 0.  1.
</event>
<event>
 5   0  0.9443352E-08  0.2899771E+04  0.7818609E-02  0.8272946E-01
        1   -1    0    0  501    0  0.00000000000E+00  0.00000000000E+00  0.15928371045E+04  0.15928371045E+04  0.50400001928E-02 0.  1.
       -1   -1    0    0    0  501  0.00000000000E+00  0.00000000000E+00 -0.13197629761E+04  0.13197629761E+04  0.50400001928E-02 0. -1.
    10030    2    1    2    0    0  0.00000000000E+00  0.00000000000E+00  0.27307412836E+03  0.29126000806E+04  0.28997706375E+04 0.  0.
        4    1    3    3  502    0 -0.65220267496E+03  0.11419074313E+04  0.74984886439E+03  0.15138017847E+04  0.12699999809E+01 0. -1.
       -4    1    3    3    0  502  0.65220267496E+03 -0.11419074313E+04 -0.47677473603E+03  0.13987982959E+04  0.12699999809E+01 0.  1.
</event>
<event>
 5   0  0.9443352E-08  0.2900234E+04  0.7818609E-02  0.8272808E-01
       -1   -1    0    0    0  501  0.00000000000E+00  0.00000000000E+00  0.13738548716E+04  0.13738548716E+04  0.50400001928E-02 0.  1.
        1   -1    0    0  501    0  0.00000000000E+00  0.00000000000E+00 -0.15306127591E+04  0.15306127591E+04  0.50400001928E-02 0. -1.
    10030    2    1    2    0    0  0.00000000000E+00  0.00000000000E+00 -0.15675788747E+03  0.29044676307E+04  0.29002343323E+04 0.  0.
        4    1    3    3  502    0 -0.70434173087E+03  0.11026724990E+04 -0.70447487454E+03  0.14860250253E+04  0.12699999809E+01 0. -1.
       -4    1    3    3    0  502  0.70434173087E+03 -0.11026724990E+04  0.54771698707E+03  0.14184426054E+04  0.12699999809E+01 0.  1.
</event>
<event>
 5   0  0.9421924E-08  0.2899866E+04  0.7818609E-02  0.8272917E-01
        1   -1    0    0  501    0  0.00000000000E+00  0.00000000000E+00  0.17750072983E+04  0.17750072983E+04  0.50400001928E-02 0.  1.
       -1   -1    0    0    0  501  0.00000000000E+00  0.00000000000E+00 -0.11843923325E+04  0.11843923325E+04  0.50400001928E-02 0. -1.
    10030    2    1    2    0    0  0.00000000000E+00  0.00000000000E+00  0.59061496579E+03  0.29593996308E+04  0.28998655377E+04 0.  0.
        1    1    3    3  502    0 -0.35573573891E+03  0.13689112727E+04 -0.30366386994E+02  0.14147042469E+04  0.50400001928E-02 0. -1.
       -1    1    3    3    0  502  0.35573573891E+03 -0.13689112727E+04  0.62098135278E+03  0.15446953839E+04  0.50400001928E-02 0.  1.
</event>
<event>
 5   0  0.9421924E-08  0.2899202E+04  0.7818609E-02  0.8273115E-01
       -1   -1    0    0    0  501  0.00000000000E+00  0.00000000000E+00  0.26520904987E+04  0.26520904987E+04  0.50400001928E-02 0.  1.
        1   -1    0    0  501    0  0.00000000000E+00  0.00000000000E+00 -0.79233444685E+03  0.79233444687E+03  0.50400001928E-02 0. -1.
    10030    2    1    2    0    0  0.00000000000E+00  0.00000000000E+00  0.18597560519E+04  0.34444249456E+04  0.28992017235E+04 0.  0.
        1    1    3    3  502    0  0.14162742361E+04 -0.59211119591E+02  0.56951384059E+03  0.15276402336E+04  0.50400001928E-02 0. -1.
       -1    1    3    3    0  502 -0.14162742361E+04  0.59211119591E+02  0.12902422113E+04  0.19167847120E+04  0.50400001928E-02 0.  1.
</event>
<event>
 5   0  0.9395744E-08  0.2899622E+04  0.7818609E-02  0.8272990E-01
       -1   -1    0    0    0  501  0.00000000000E+00  0.00000000000E+00  0.12417802286E+04  0.12417802286E+04  0.50400001928E-02 0. -1.
        1   -1    0    0  501    0  0.00000000000E+00  0.00000000000E+00 -0.16926929157E+04  0.16926929157E+04  0.50400001928E-02 0.  1.
    10030    2    1    2    0    0  0.00000000000E+00  0.00000000000E+00 -0.45091268708E+03  0.29344731444E+04  0.28996224554E+04 0.  0.
        2    1    3    3  502    0  0.11055113460E+04 -0.89400195523E+03 -0.51269466892E+03  0.15113737644E+04  0.25500000920E-02 0.  1.
       -2    1    3    3    0  502 -0.11055113460E+04  0.89400195523E+03  0.61781981846E+02  0.14230993800E+04  0.25500000920E-02 0. -1.
</event>
<event>
 5   0  0.9388076E-08  0.2901207E+04  0.7818609E-02  0.8272518E-01
       -1   -1    0    0    0  501  0.00000000000E+00  0.00000000000E+00  0.15768873887E+04  0.15768873887E+04  0.50400001928E-02 0.  1.
        1   -1    0    0  501    0  0.00000000000E+00  0.00000000000E+00 -0.13344332119E+04  0.13344332119E+04  0.50400001928E-02 0. -1.
    10030    2    1    2    0    0  0.00000000000E+00  0.00000000000E+00  0.24245417678E+03  0.29113206006E+04  0.29012072680E+04 0.  0.
        5    1    3    3  502    0 -0.32676088045E+03 -0.12094132129E+04  0.85505995364E+03  0.15167737494E+04  0.46999998093E+01 0.  1.
       -5    1    3    3    0  502  0.32676088045E+03  0.12094132129E+04 -0.61260577686E+03  0.13945468512E+04  0.46999998093E+01 0. -1.
</event>
<event>
 5   0  0.9395744E-08  0.2896748E+04  0.7818609E-02  0.8273846E-01
       -1   -1    0    0    0  501  0.00000000000E+00  0.00000000000E+00  0.98429444533E+03  0.98429444534E+03  0.50400001928E-02 0.  1.
        1   -1    0    0  501    0  0.00000000000E+00  0.00000000000E+00 -0.21312605563E+04  0.21312605563E+04  0.50400001928E-02 0. -1.
    10030    2    1    2    0    0  0.00000000000E+00  0.00000000000E+00 -0.11469661109E+04  0.31155550016E+04  0.28967484717E+04 0.  0.
        2    1    3    3  502    0  0.12252225922E+04  0.31637945071E+03  0.18438516464E+03  0.12787745095E+04  0.25500000920E-02 0.  1.
       -2    1    3    3    0  502 -0.12252225922E+04 -0.31637945071E+03 -0.13313512756E+04  0.18367804921E+04  0.25500000920E-02 0. -1.
</event>
<event>
 5   0  0.2546841E-07  0.2909299E+04  0.7818609E-02  0.8270116E-01
        2   -1    0    0  501    0  0.00000000000E+00  0.00000000000E+00  0.22584561975E+04  0.22584561975E+04  0.25500000920E-02 0.  1.
       -2   -1    0    0    0  501  0.00000000000E+00  0.00000000000E+00 -0.93692522513E+03  0.93692522514E+03  0.25500000920E-02 0. -1.
    10030    2    1    2    0    0  0.00000000000E+00  0.00000000000E+00  0.13215309724E+04  0.31953814227E+04  0.29092985968E+04 0.  0.
        1    1    3    3  502    0 -0.11633713467E+02  0.14460071296E+04  0.48733782793E+03  0.15259653078E+04  0.50400001928E-02 0.  1.
       -1    1    3    3    0  502  0.11633713467E+02 -0.14460071296E+04  0.83419314445E+03  0.16694161148E+04  0.50400001928E-02 0. -1.
</event>
<event>
 5   0  0.2546841E-07  0.2902569E+04  0.7818609E-02  0.8272114E-01
        2   -1    0    0  501    0  0.00000000000E+00  0.00000000000E+00  0.17853227700E+04  0.17853227700E+04  0.25500000920E-02 0. -1.
       -2   -1    0    0    0  501  0.00000000000E+00  0.00000000000E+00 -0.11797453184E+04  0.11797453184E+04  0.25500000920E-02 0.  1.
    10030    2    1    2    0    0  0.00000000000E+00  0.00000000000E+00  0.60557745160E+03  0.29650680885E+04  0.29025686417E+04 0.  0.
        1    1    3    3  502    0 -0.46040856098E+03 -0.40493020267E+03  0.16465142757E+04  0.17569729002E+04  0.50400001928E-02 0. -1.
       -1    1    3    3    0  502  0.46040856098E+03  0.40493020267E+03 -0.10409368241E+04  0.12080951882E+04  0.50400001928E-02 0.  1.
</event>
<event>
 5   0  0.2608591E-07  0.2902167E+04  0.7818609E-02  0.8272233E-01
        2   -1    0    0  501    0  0.00000000000E+00  0.00000000000E+00  0.12653350737E+04  0.12653350738E+04  0.25500000920E-02 0. -1.
       -2   -1    0    0    0  501  0.00000000000E+00  0.00000000000E+00 -0.16640998323E+04  0.16640998323E+04  0.25500000920E-02 0.  1.
    10030    2    1    2    0    0  0.00000000000E+00  0.00000000000E+00 -0.39876475858E+03  0.29294349061E+04  0.29021673860E+04 0.  0.
        2    1    3    3  502    0  0.16526864288E+03 -0.47871184581E+03 -0.15719989651E+04  0.16515627454E+04  0.25500000920E-02 0.  1.
       -2    1    3    3    0  502 -0.16526864288E+03  0.47871184581E+03  0.11732342065E+04  0.12778721607E+04  0.25500000920E-02 0. -1.
</event>
<event>
 5   0  0.9443352E-08  0.2901065E+04  0.7818609E-02  0.8272561E-01
        1   -1    0    0  501    0  0.00000000000E+00  0.00000000000E+00  0.15942708707E+04  0.15942708707E+04  0.50400001928E-02 0. -1.
       -1   -1    0    0    0  501  0.00000000000E+00  0.00000000000E+00 -0.13197538375E+04  0.13197538375E+04  0.50400001928E-02 0.  1.
    10030    2    1    2    0    0  0.00000000000E+00  0.00000000000E+00  0.27451703328E+03  0.29140247082E+04  0.29010653902E+04 0.  0.
        4    1    3    3  502    0  0.40233224560E+03  0.13513645640E+04  0.47934713213E+03  0.14892389689E+04  0.12699999809E+01 0. -1.
       -4    1    3    3    0  502 -0.40233224560E+03 -0.13513645640E+04 -0.20483009885E+03  0.14247857393E+04  0.12699999809E+01 0.  1.
</event>
<event>
 5   0  0.9443352E-08  0.2898717E+04  0.7818609E-02  0.8273259E-01
        1   -1    0    0  501    0  0.00000000000E+00  0.00000000000E+00  0.13779933457E+04  0.13779933457E+04  0.50400001928E-02 0.  1.
       -1   -1    0    0    0  501  0.00000000000E+00  0.00000000000E+00 -0.15244197933E+04  0.15244197933E+04  0.50400001928E-02 0. -1.
    10030    2    1    2    0    0  0.00000000000E+00  0.00000000000E+00 -0.14642644760E+03  0.29024131390E+04  0.28987171861E+04 0.  0.
        4    1    3    3  502    0 -0.13523244489E+04 -0.40807940223E+03 -0.39817055954E+03  0.14676006340E+04  0.12699999809E+01 0.  1.
       -4    1    3    3    0  502  0.13523244489E+04  0.40807940223E+03  0.25174411194E+03  0.14348125050E+04  0.12699999809E+01 0. -1.
</event>
<event>
 5   0  0.9421924E-08  0.2901269E+04  0.7818609E-02  0.8272500E-01
       -1   -1    0    0    0  501  0.00000000000E+00  0.00000000000E+00  0.69735999604E+03  0.69735999606E+03  0.50400001928E-02 0. -1.
        1   -1    0    0  501    0  0.00000000000E+00  0.00000000000E+00 -0.30175808849E+04  0.30175808849E+04  0.50400001928E-02 0.  1.
    10030    2    1    2    0    0  0.00000000000E+00  0.00000000000E+00 -0.23202208888E+04  0.37149408809E+04  0.29012688217E+04 0.  0.
        1    1    3    3  502    0 -0.67435315673E+03 -0.11506836758E+04 -0.18906596964E+04  0.23137457054E+04  0.50400001928E-02 0.  1.
       -1    1    3    3    0  502  0.67435315673E+03  0.11506836758E+04 -0.42956119247E+03  0.14011951755E+04  0.50400001928E-02 0. -1.
</event>
<event>
 5   0  0.9395744E-08  0.2899464E+04  0.7818609E-02  0.8273037E-01
       -1   -1    0    0    0  501  0.00000000000E+00  0.00000000000E+00  0.12280234794E+04  0.12280234794E+04  0.50400001928E-02 0. -1.
        1   -1    0    0  501    0  0.00000000000E+00  0.00000000000E+00 -0.17114683082E+04  0.17114683082E+04  0.50400001928E-02 0.  1.
    10030    2    1    2    0    0  0.00000000000E+00  0.00000000000E+00 -0.48344482880E+03  0.29394917876E+04  0.28994642724E+04 0.  0.
        2    1    3    3  502    0 -0.57573948801E+02  0.56315403777E+03  0.11113432803E+04  0.12472133404E+04  0.25500000920E-02 0. -1.
       -2    1    3    3    0  502  0.57573948801E+02 -0.56315403777E+03 -0.15947881091E+04  0.16922784472E+04  0.25500000920E-02 0.  1.
</event>
<event>
 5   0  0.9395744E-08  0.2900090E+04  0.7818609E-02  0.8272851E-01
        1   -1    0    0  501    0  0.00000000000E+00  0.00000000000E+00  0.20515646433E+04  0.20515646433E+04  0.50400001928E-02 0. -1.
       -1   -1    0    0    0  501  0.00000000000E+00  0.00000000000E+00 -0.10248909807E+04  0.10248909807E+04  0.50400001928E-02 0.  1.
    10030    2    1    2    0    0  0.00000000000E+00  0.00000000000E+00  0.10266736627E+04  0.30764556240E+04  0.29000897222E+04 0.  0.
        2    1    3    3  502    0  0.10887181209E+04  0.93163202740E+03  0.27759562070E+03  0.14595563401E+04  0.25500000920E-02 0.  1.
       -2    1    3    3    0  502 -0.10887181209E+04 -0.93163202740E+03  0.74907804197E+03  0.16168992839E+04  0.25500000920E-02 0. -1.
</event>
<event>
 5   0  0.2534588E-07  0.2900787E+04  0.7818609E-02  0.8272643E-01
        2   -1    0    0  501    0  0.00000000000E+00  0.00000000000E+00  0.16371488420E+04  0.16371488420E+04  0.25500000920E-02 0. -1.
       -2   -1    0    0    0  501  0.00000000000E+00  0.00000000000E+00 -0.12849420767E+04  0.12849420767E+04  0.25500000920E-02 0.  1.
    10030    2    1    2    0    0  0.00000000000E+00  0.00000000000E+00  0.35220676529E+03  0.29220909187E+04  0.29007870883E+04 0.  0.
        3    1    3    3  502    0 -0.18492441203E+03 -0.43639717020E+03  0.15569374075E+04  0.16274807616E+04  0.10100000352E+00 0. -1.
       -3    1    3    3    0  502  0.18492441203E+03  0.43639717020E+03 -0.12047306422E+04  0.12946101571E+04  0.10100000352E+00 0.  1.
</event>
<event>
 5   0  0.2546841E-07  0.2899366E+04  0.7818609E-02  0.8273066E-01
        2   -1    0    0  501    0  0.00000000000E+00  0.00000000000E+00  0.17069190849E+04  0.17069190849E+04  0.25500000920E-02 0. -1.
       -2   -1    0    0    0  501  0.00000000000E+00  0.00000000000E+00 -0.12312128470E+04  0.12312128470E+04  0.25500000920E-02 0.  1.
    10030    2    1    2    0    0  0.00000000000E+00  0.00000000000E+00  0.47570623790E+03  0.29381319320E+04  0.28993659350E+04 0.  0.
        1    1    3    3  502    0 -0.18277985179E+03  0.67720555307E+03 -0.10477961393E+04  0.12609094277E+04  0.50400001928E-02 0.  1.
       -1    1    3    3    0  502  0.18277985179E+03 -0.67720555307E+03  0.15235023772E+04  0.16772225043E+04  0.50400001928E-02 0. -1.
</event>
<event>
 5   0  0.2534588E-07  0.2900064E+04  0.7818609E-02  0.8272858E-01
        2   -1    0    0  501    0  0.00000000000E+00  0.00000000000E+00  0.16101750211E+04  0.16101750211E+04  0.25500000920E-02 0. -1.
       -2   -1    0    0    0  501  0.00000000000E+00  0.00000000000E+00 -0.13058164228E+04  0.13058164228E+04  0.25500000920E-02 0.  1.
    10030    2    1    2    0    0  0.00000000000E+00  0.00000000000E+00  0.30435859831E+03  0.29159914439E+04  0.29000641277E+04 0.  0.
        3    1    3    3  502    0 -0.59830719457E+03  0.78067118973E+03 -0.91911762030E+03  0.13461783744E+04  0.10100000352E+00 0.  1.
       -3    1    3    3    0  502  0.59830719457E+03 -0.78067118973E+03  0.12234762186E+04  0.15698130695E+04  0.10100000352E+00 0. -1.
</event>
<event>
 5   0  0.9421924E-08  0.2899045E+04  0.7818609E-02  0.8273162E-01
       -1   -1    0    0    0  501  0.00000000000E+00  0.00000000000E+00  0.18978557859E+04  0.18978557859E+04  0.50400001928E-02 0.  1.
        1   -1    0    0  501    0  0.00000000000E+00  0.00000000000E+00 -0.11070999874E+04  0.11070999874E+04  0.50400001928E-02 0. -1.
    10030    2    1    2    0    0  0.00000000000E+00  0.00000000000E+00  0.79075579850E+03  0.30049557733E+04  0.28990454406E+04 0.  0.
        1    1    3    3  502    0  0.42418671307E+03  0.99595522753E+03  0.13945734686E+04  0.17654167616E+04  0.50400001928E-02 0.  1.
       -1    1    3    3    0  502 -0.42418671307E+03 -0.99595522753E+03 -0.60381767007E+03  0.12395390117E+04  0.50400001928E-02 0. -1.
</event>
<event>
 5   0  0.2608591E-07  0.2900780E+04  0.7818609E-02  0.8272646E-01
       -2   -1    0    0    0  501  0.00000000000E+00  0.00000000000E+00  0.10411118888E+04  0.10411118888E+04  0.25500000920E-02 0. -1.
        2   -1    0    0  501    0  0.00000000000E+00  0.00000000000E+00 -0.20205613880E+04  0.20205613880E+04  0.25500000920E-02 0.  1.
    10030    2    1    2    0    0  0.00000000000E+00  0.00000000000E+00 -0.97944949921E+03  0.30616732769E+04  0.29007795388E+04 0.  0.
        2    1    3    3  502    0  0.39156447555E+03 -0.35832615289E+03  0.93492331827E+03  0.10750823138E+04  0.25500000920E-02 0. -1.
       -2    1    3    3    0  502 -0.39156447555E+03  0.35832615289E+03 -0.19143728175E+04  0.19865909631E+04  0.25500000920E-02 0.  1.
</event>
<event>
 5   0  0.2608591E-07  0.2900652E+04  0.7818609E-02  0.8272684E-01
        2   -1    0    0  501    0  0.00000000000E+00  0.00000000000E+00  0.12539977914E+04  0.12539977914E+04  0.25500000920E-02 0.  1.
       -2   -1    0    0    0  501  0.00000000000E+00  0.00000000000E+00 -0.16773916861E+04  0.16773916861E+04  0.25500000920E-02 0. -1.
    10030    2    1    2    0    0  0.00000000000E+00  0.00000000000E+00 -0.42339389474E+03  0.29313894775E+04  0.29006519747E+04 0.  0.
        2    1    3    3  502    0  0.12691013157E+04  0.69265634696E+03 -0.96229887532E+02  0.14490173069E+04  0.25500000920E-02 0.  1.
       -2    1    3    3    0  502 -0.12691013157E+04 -0.69265634696E+03 -0.32716400721E+03  0.14823721706E+04  0.25500000920E-02 0. -1.
</event>
<event>
 5   0  0.9421924E-08  0.2900330E+04  0.7818609E-02  0.8272779E-01
        1   -1    0    0  501    0  0.00000000000E+00  0.00000000000E+00  0.23630731651E+04  0.23630731651E+04  0.50400001928E-02 0.  1.
       -1   -1    0    0    0  501  0.00000000000E+00  0.00000000000E+00 -0.88993364273E+03  0.88993364275E+03  0.50400001928E-02 0. -1.
    10030    2    1    2    0    0  0.00000000000E+00  0.00000000000E+00  0.14731395223E+04  0.32530068078E+04  0.29003298501E+04 0.  0.
        1    1    3    3  502    0  0.50129341484E+03  0.13101109838E+04  0.11491176148E+04  0.18133276511E+04  0.50400001928E-02 0.  1.
       -1    1    3    3    0  502 -0.50129341484E+03 -0.13101109838E+04  0.32402190749E+03  0.14396791567E+04  0.50400001928E-02 0. -1.
</event>
<event>
 5   0  0.9443352E-08  0.2901659E+04  0.7818609E-02  0.8272384E-01
       -1   -1    0    0    0  501  0.00000000000E+00  0.00000000000E+00  0.99708003257E+03  0.99708003258E+03  0.50400001928E-02 0.  1.
        1   -1    0    0  501    0  0.00000000000E+00  0.00000000000E+00 -0.21110698440E+04  0.21110698440E+04  0.50400001928E-02 0. -1.
    10030    2    1    2    0    0  0.00000000000E+00  0.00000000000E+00 -0.11139898115E+04  0.31081498766E+04  0.29016585525E+04 0.  0.
        4    1    3    3  502    0 -0.49649602054E+03 -0.98489343588E+03  0.45261866310E+03  0.11922200491E+04  0.12699999809E+01 0.  1.
       -4    1    3    3    0  502  0.49649602054E+03  0.98489343588E+03 -0.15666084746E+04  0.19159298275E+04  0.12699999809E+01 0. -1.
</event>
<event>
 5   0  0.9388076E-08  0.2901609E+04  0.7818609E-02  0.8272399E-01
        1   -1    0    0  501    0  0.00000000000E+00  0.00000000000E+00  0.11840823177E+04  0.11840823177E+04  0.50400001928E-02 0.  1.
       -1   -1    0    0    0  501  0.00000000000E+00  0.00000000000E+00 -0.17776075557E+04  0.17776075557E+04  0.50400001928E-02 0. -1.
    10030    2    1    2    0    0  0.00000000000E+00  0.00000000000E+00 -0.59352523806E+03  0.29616898734E+04  0.29016089843E+04 0.  0.
        5    1    3    3  502    0 -0.32408284662E+03  0.14050318291E+04 -0.13323463780E+03  0.14480737864E+04  0.46999998093E+01 0.  1.
       -5    1    3    3    0  502  0.32408284662E+03 -0.14050318291E+04 -0.46029060026E+03  0.15136160870E+04  0.46999998093E+01 0. -1.
</event>
<event>
 5   0  0.2492232E-07  0.2913754E+04  0.7818609E-02  0.8268797E-01
       -2   -1    0    0    0  501  0.00000000000E+00  0.00000000000E+00  0.91575025209E+03  0.91575025210E+03  0.25500000920E-02 0. -1.
        2   -1    0    0  501    0  0.00000000000E+00  0.00000000000E+00 -0.23177611831E+04  0.23177611831E+04  0.25500000920E-02 0.  1.
    10030    2    1    2    0    0  0.00000000000E+00  0.00000000000E+00 -0.14020109310E+04  0.32335114352E+04  0.29137538590E+04 0.  0.
        4    1    3    3  502    0 -0.64703823845E+03  0.12758469895E+04 -0.39498098909E+03  0.14840672550E+04  0.12699999809E+01 0.  1.
       -4    1    3    3    0  502  0.64703823845E+03 -0.12758469895E+04 -0.10070299419E+04  0.17494441802E+04  0.12699999809E+01 0. -1.
</event>
<event>
 5   0  0.9388076E-08  0.2897551E+04  0.7818609E-02  0.8273606E-01
        1   -1    0    0  501    0  0.00000000000E+00  0.00000000000E+00  0.28287432477E+04  0.28287432477E+04  0.50400001928E-02 0.  1.
       -1   -1    0    0    0  501  0.00000000000E+00  0.00000000000E+00 -0.74200819040E+03  0.74200819042E+03  0.50400001928E-02 0. -1.
    10030    2    1    2    0    0  0.00000000000E+00  0.00000000000E+00  0.20867350573E+04  0.35707514382E+04  0.28975511443E+04 0.  0.
        5    1    3    3  502    0  0.52005723794E+03  0.12632430577E+03 -0.61571832289E+03  0.81581156164E+03  0.46999998093E+01 0. -1.
       -5    1    3    3    0  502 -0.52005723794E+03 -0.12632430577E+03  0.27024533802E+04  0.27549398765E+04  0.46999998093E+01 0.  1.
</event>
<event>
 5   0  0.2546841E-07  0.2896400E+04  0.7818609E-02  0.8273949E-01
        2   -1    0    0  501    0  0.00000000000E+00  0.00000000000E+00  0.12973696694E+04  0.12973696694E+04  0.25500000920E-02 0.  1.
       -2   -1    0    0    0  501  0.00000000000E+00  0.00000000000E+00 -0.16165661917E+04  0.16165661917E+04  0.25500000920E-02 0. -1.
    10030    2    1    2    0    0  0.00000000000E+00  0.00000000000E+00 -0.31919652224E+03  0.29139358611E+04  0.28964004873E+04 0.  0.
        1    1    3    3  502    0  0.43883161815E+03  0.12955382520E+04 -0.63817919776E+03  0.15093923413E+04  0.50400001928E-02 0. -1.
       -1    1    3    3    0  502 -0.43883161815E+03 -0.12955382520E+04  0.31898267552E+03  0.14045435198E+04  0.50400001928E-02 0.  1.
</event>
<event>
 5   0  0.9388076E-08  0.2899908E+04  0.7818609E-02  0.8272905E-01
        1   -1    0    0  501    0  0.00000000000E+00  0.00000000000E+00  0.18759184748E+04  0.18759184748E+04  0.50400001928E-02 0. -1.
       -1   -1    0    0    0  501  0.00000000000E+00  0.00000000000E+00 -0.11207132811E+04  0.11207132811E+04  0.50400001928E-02 0.  1.
    10030    2    1    2    0    0  0.00000000000E+00  0.00000000000E+00  0.75520519369E+03  0.29966317559E+04  0.28999081013E+04 0.  0.
        5    1    3    3  502    0 -0.49889505729E+03 -0.16578997938E+03 -0.10187497441E+04  0.11464099295E+04  0.46999998093E+01 0.  1.
       -5    1    3    3    0  502  0.49889505729E+03  0.16578997938E+03  0.17739549378E+04  0.18502218263E+04  0.46999998093E+01 0. -1.
</event>
<event>
 5   0  0.9763851E-08  0.2899690E+04  0.7818609E-02  0.8272970E-01
       -1   -1    0    0    0  501  0.00000000000E+00  0.00000000000E+00  0.13752182264E+04  0.13752182264E+04  0.50400001928E-02 0. -1.
        1   -1    0    0  501    0  0.00000000000E+00  0.00000000000E+00 -0.15285219132E+04  0.15285219132E+04  0.50400001928E-02 0.  1.
    10030    2    1    2    0    0  0.00000000000E+00  0.00000000000E+00 -0.15330368684E+03  0.29037401396E+04  0.28996904624E+04 0.  0.
        3    1    3    3  502    0  0.50928570450E+03 -0.90218353279E+03 -0.10923386070E+04  0.15054935065E+04  0.10100000352E+00 0.  1.
       -3    1    3    3    0  502 -0.50928570450E+03  0.90218353279E+03  0.93903492011E+03  0.13982466331E+04  0.10100000352E+00 0. -1.
</event>
<event>
 5   0  0.9763851E-08  0.2899098E+04  0.7818609E-02  0.8273146E-01
        1   -1    0    0  501    0  0.00000000000E+00  0.00000000000E+00  0.20483146784E+04  0.20483146784E+04  0.50400001928E-02 0.  1.
       -1   -1    0    0    0  501  0.00000000000E+00  0.00000000000E+00 -0.10258152210E+04  0.10258152210E+04  0.50400001928E-02 0. -1.
    10030    2    1    2    0    0  0.00000000000E+00  0.00000000000E+00  0.10224994573E+04  0.30741298994E+04  0.28990980491E+04 0.  0.
        3    1    3    3  502    0  0.94743795966E+03 -0.10721090624E+04  0.26453121927E+03  0.14550028540E+04  0.10100000352E+00 0. -1.
       -3    1    3    3    0  502 -0.94743795966E+03  0.10721090624E+04  0.75796823806E+03  0.16191270454E+04  0.10100000352E+00 0.  1.
</event>
<event>
 5   0  0.9388076E-08  0.2898571E+04  0.7818609E-02  0.8273303E-01
       -1   -1    0    0    0  501  0.00000000000E+00  0.00000000000E+00  0.20567547990E+04  0.20567547990E+04  0.50400001928E-02 0.  1.
        1   -1    0    0  501    0  0.00000000000E+00  0.00000000000E+00 -0.10212341815E+04  0.10212341816E+04  0.50400001928E-02 0. -1.
    10030    2    1    2    0    0  0.00000000000E+00  0.00000000000E+00  0.10355206175E+04  0.30779889806E+04  0.28985708919E+04 0.  0.
        5    1    3    3  502    0  0.61939872223E+02 -0.49197575498E+03  0.19638659148E+04  0.20255044095E+04  0.46999998093E+01 0.  1.
       -5    1    3    3    0  502 -0.61939872223E+02  0.49197575498E+03 -0.92834529738E+03  0.10524845711E+04  0.46999998093E+01 0. -1.
</event>
<event>
 5   0  0.2492232E-07  0.2899828E+04  0.7818609E-02  0.8272929E-01
       -2   -1    0    0    0  501  0.00000000000E+00  0.00000000000E+00  0.17715529364E+04  0.17715529364E+04  0.25500000920E-02 0. -1.
        2   -1    0    0  501    0  0.00000000000E+00  0.00000000000E+00 -0.11866708453E+04  0.11866708453E+04  0.25500000920E-02 0.  1.
    10030    2    1    2    0    0  0.00000000000E+00  0.00000000000E+00  0.58488209112E+03  0.29582237816E+04  0.28998277331E+04 0.  0.
        4    1    3    3  502    0  0.57094734283E+03 -0.14731894475E+03 -0.10588333250E+04  0.12119461056E+04  0.12699999809E+01 0.  1.
       -4    1    3    3    0  502 -0.57094734283E+03  0.14731894475E+03  0.16437154161E+04  0.17462776761E+04  0.12699999809E+01 0. -1.
</event>
<event>
 5   0  0.2534588E-07  0.2900802E+04  0.7818609E-02  0.8272639E-01
        2   -1    0    0  501    0  0.00000000000E+00  0.00000000000E+00  0.25109877042E+04  0.25109877042E+04  0.25500000920E-02 0. -1.
       -2   -1    0    0    0  501  0.00000000000E+00  0.00000000000E+00 -0.83778285194E+03  0.83778285195E+03  0.25500000920E-02 0.  1.
    10030    2    1    2    0    0  0.00000000000E+00  0.00000000000E+00  0.16732048523E+04  0.33487705562E+04  0.29008015720E+04 0.  0.
        3    1    3    3  502    0 -0.10037068323E+04  0.10309913092E+04  0.62596431350E+03  0.15691404707E+04  0.10100000352E+00 0.  1.
       -3    1    3    3    0  502  0.10037068323E+04 -0.10309913092E+04  0.10472405388E+04  0.17796300855E+04  0.10100000352E+00 0. -1.
</event>
<event>
 5   0  0.2608591E-07  0.2895529E+04  0.7818609E-02  0.8274209E-01
       -2   -1    0    0    0  501  0.00000000000E+00  0.00000000000E+00  0.76017199417E+03  0.76017199417E+03  0.25500000920E-02 0. -1.
        2   -1    0    0  501    0  0.00000000000E+00  0.00000000000E+00 -0.27572990927E+04  0.27572990927E+04  0.25500000920E-02 0.  1.
    10030    2    1    2    0    0  0.00000000000E+00  0.00000000000E+00 -0.19971270985E+04  0.35174710869E+04  0.28955286563E+04 0.  0.
        2    1    3    3  502    0 -0.54602531707E+03 -0.12046376484E+04 -0.28325091147E+03  0.13525999370E+04  0.25500000920E-02 0. -1.
       -2    1    3    3    0  502  0.54602531707E+03  0.12046376484E+04 -0.17138761871E+04  0.21648711499E+04  0.25500000920E-02 0.  1.
</event>
<event>
 5   0  0.2546841E-07  0.2906055E+04  0.7818609E-02  0.8271078E-01
       -2   -1    0    0    0  501  0.00000000000E+00  0.00000000000E+00  0.97753918732E+03  0.97753918732E+03  0.25500000920E-02 0. -1.
        2   -1    0    0  501    0  0.00000000000E+00  0.00000000000E+00 -0.21597991548E+04  0.21597991548E+04  0.25500000920E-02 0.  1.
    10030    2    1    2    0    0  0.00000000000E+00  0.00000000000E+00 -0.11822599674E+04  0.31373383421E+04  0.29060545835E+04 0.  0.
        1    1    3    3  502    0 -0.76175594165E+03  0.63583092260E+03  0.55482755898E+03  0.11368318684E+04  0.50400001928E-02 0. -1.
       -1    1    3    3    0  502  0.76175594165E+03 -0.63583092260E+03 -0.17370875264E+04  0.20005064737E+04  0.50400001928E-02 0.  1.
</event>
<event>
 5   0  0.2678723E-07  0.2897726E+04  0.7818609E-02  0.8273555E-01
        2   -1    0    0  501    0  0.00000000000E+00  0.00000000000E+00  0.18090148580E+04  0.18090148580E+04  0.25500000920E-02 0.  1.
       -2   -1    0    0    0  501  0.00000000000E+00  0.00000000000E+00 -0.11604124402E+04  0.11604124402E+04  0.25500000920E-02 0. -1.
    10030    2    1    2    0    0  0.00000000000E+00  0.00000000000E+00  0.64860241782E+03  0.29694272982E+04  0.28977255534E+04 0.  0.
        5    1    3    3  502    0 -0.10220792736E+04 -0.75548746379E+03  0.10370502899E+04  0.16403971297E+04  0.46999998093E+01 0.  1.
       -5    1    3    3    0  502  0.10220792736E+04  0.75548746379E+03 -0.38844787207E+03  0.13290301685E+04  0.46999998093E+01 0. -1.
</event>
<event>
 5   0  0.2534588E-07  0.2901928E+04  0.7818609E-02  0.8272304E-01
       -2   -1    0    0    0  501  0.00000000000E+00  0.00000000000E+00  0.19800649313E+04  0.19800649313E+04  0.25500000920E-02 0.  1.
        2   -1    0    0  501    0  0.00000000000E+00  0.00000000000E+00 -0.10632465336E+04  0.10632465336E+04  0.25500000920E-02 0. -1.
    10030    2    1    2    0    0  0.00000000000E+00  0.00000000000E+00  0.91681839763E+03  0.30433114649E+04  0.29019284447E+04 0.  0.
        3    1    3    3  502    0  0.92907006412E+03  0.24894203793E+03 -0.68086697512E+03  0.11784409914E+04  0.10100000352E+00 0. -1.
       -3    1    3    3    0  502 -0.92907006412E+03 -0.24894203793E+03  0.15976853727E+04  0.18648704735E+04  0.10100000352E+00 0.  1.
</event>
<event>
 5   0  0.9763851E-08  0.2895007E+04  0.7818609E-02  0.8274365E-01
       -1   -1    0    0    0  501  0.00000000000E+00  0.00000000000E+00  0.15007625831E+04  0.15007625831E+04  0.50400001928E-02 0. -1.
        1   -1    0    0  501    0  0.00000000000E+00  0.00000000000E+00 -0.13961342472E+04  0.13961342472E+04  0.50400001928E-02 0.  1.
    10030    2    1    2    0    0  0.00000000000E+00  0.00000000000E+00  0.10462833591E+03  0.28968968302E+04  0.28950067627E+04 0.  0.
        3    1    3    3  502    0 -0.13732053910E+04 -0.45277034497E+03 -0.15346526848E+02  0.14460046878E+04  0.10100000352E+00 0.  1.
       -3    1    3    3    0  502  0.13732053910E+04  0.45277034497E+03  0.11997486275E+03  0.14508921424E+04  0.10100000352E+00 0. -1.
</event>
<event>
 5   0  0.9763851E-08  0.2900049E+04  0.7818609E-02  0.8272863E-01
       -1   -1    0    0    0  501  0.00000000000E+00  0.00000000000E+00  0.94202526293E+03  0.94202526294E+03  0.50400001928E-02 0. -1.
        1   -1    0    0  501    0  0.00000000000E+00  0.00000000000E+00 -0.22319693778E+04  0.22319693778E+04  0.50400001928E-02 0.  1.
    10030    2    1    2    0    0  0.00000000000E+00  0.00000000000E+00 -0.12899441149E+04  0.31739946408E+04  0.29000493375E+04 0.  0.
        3    1    3    3  502    0 -0.54036560444E+03  0.13296245941E+04 -0.41887886965E+03  0.14951107201E+04  0.10100000352E+00 0. -1.
       -3    1    3    3    0  502  0.54036560444E+03 -0.13296245941E+04 -0.87106524525E+03  0.16788839207E+04  0.10100000352E+00 0.  1.
</event>
<event>
 5   0  0.9388076E-08  0.2894338E+04  0.7818609E-02  0.8274564E-01
       -1   -1    0    0    0  501  0.00000000000E+00  0.00000000000E+00  0.88806051066E+03  0.88806051067E+03  0.50400001928E-02 0.  1.
        1   -1    0    0  501    0  0.00000000000E+00  0.00000000000E+00 -0.23582839201E+04  0.23582839201E+04  0.50400001928E-02 0. -1.
    10030    2    1    2    0    0  0.00000000000E+00  0.00000000000E+00 -0.14702234095E+04  0.32463444308E+04  0.28943384891E+04 0.  0.
        5    1    3    3  502    0  0.54981827891E+03  0.13341347591E+04 -0.61193244170E+03  0.15673860720E+04  0.46999998093E+01 0.  1.
       -5    1    3    3    0  502 -0.54981827891E+03 -0.13341347591E+04 -0.85829096779E+03  0.16789583589E+04  0.46999998093E+01 0. -1.
</event>
<event>
 5   0  0.9763851E-08  0.2899886E+04  0.7818609E-02  0.8272912E-01
        1   -1    0    0  501    0  0.00000000000E+00  0.00000000000E+00  0.25190338439E+04  0.25190338439E+04  0.50400001928E-02 0.  1.
       -1   -1    0    0    0  501  0.00000000000E+00  0.00000000000E+00 -0.83457953513E+03  0.83457953514E+03  0.50400001928E-02 0. -1.
    10030    2    1    2    0    0  0.00000000000E+00  0.00000000000E+00  0.16844543088E+04  0.33536133790E+04  0.28998855801E+04 0.  0.
        3    1    3    3  502    0  0.81211918154E+03  0.11371459667E+04  0.12896690074E+04  0.19015479677E+04  0.10100000352E+00 0.  1.
       -3    1    3    3    0  502 -0.81211918154E+03 -0.11371459667E+04  0.39478530136E+03  0.14520654114E+04  0.10100000352E+00 0. -1.
</event>
<event>
 5   0  0.2608591E-07  0.2899846E+04  0.7818609E-02  0.8272923E-01
        2   -1    0    0  501    0  0.00000000000E+00  0.00000000000E+00  0.28050489903E+04  0.28050489903E+04  0.25500000920E-02 0. -1.
       -2   -1    0    0    0  501  0.00000000000E+00  0.00000000000E+00 -0.74946178899E+03  0.74946178900E+03  0.25500000920E-02 0.  1.
    10030    2    1    2    0    0  0.00000000000E+00  0.00000000000E+00  0.20555872013E+04  0.35545107793E+04  0.28998462266E+04 0.  0.
        2    1    3    3  502    0  0.57100926983E+03  0.24048750183E+02  0.26611584149E+04  0.27218365193E+04  0.25500000920E-02 0. -1.
       -2    1    3    3    0  502 -0.57100926983E+03 -0.24048750183E+02 -0.60557121356E+03  0.83267426003E+03  0.25500000920E-02 0.  1.
</event>
<event>
 5   0  0.2534588E-07  0.2895463E+04  0.7818609E-02  0.8274229E-01
       -2   -1    0    0    0  501  0.00000000000E+00  0.00000000000E+00  0.92627183649E+03  0.92627183650E+03  0.25500000920E-02 0.  1.
        2   -1    0    0  501    0  0.00000000000E+00  0.00000000000E+00 -0.22627550842E+04  0.22627550842E+04  0.25500000920E-02 0. -1.
    10030    2    1    2    0    0  0.00000000000E+00  0.00000000000E+00 -0.13364832477E+04  0.31890269207E+04  0.28954628696E+04 0.  0.
        3    1    3    3  502    0 -0.59373278403E+03 -0.40852735515E+03 -0.20511358848E+04  0.21740679950E+04  0.10100000352E+00 0. -1.
       -3    1    3    3    0  502  0.59373278403E+03  0.40852735515E+03  0.71465263716E+03  0.10149589256E+04  0.10100000352E+00 0.  1.
</event>
<event>
 5   0  0.9763851E-08  0.2900166E+04  0.7818609E-02  0.8272828E-01
       -1   -1    0    0    0  501  0.00000000000E+00  0.00000000000E+00  0.15774737434E+04  0.15774737434E+04  0.50400001928E-02 0.  1.
        1   -1    0    0  501    0  0.00000000000E+00  0.00000000000E+00 -0.13329802998E+04  0.13329802998E+04  0.50400001928E-02 0. -1.
    10030    2    1    2    0    0  0.00000000000E+00  0.00000000000E+00  0.24449344359E+03  0.29104540432E+04  0.29001664941E+04 0.  0.
        3    1    3    3  502    0  0.10347053899E+04 -0.10157670089E+04  0.10364579218E+03  0.14536644457E+04  0.10100000352E+00 0. -1.
       -3    1    3    3    0  502 -0.10347053899E+04  0.10157670089E+04  0.14084765141E+03  0.14567895975E+04  0.10100000352E+00 0.  1.
</event>
<event>
 5   0  0.9395744E-08  0.2898798E+04  0.7818609E-02  0.8273235E-01
        1   -1    0    0  501    0  0.00000000000E+00  0.00000000000E+00  0.14660826857E+04  0.14660826857E+04  0.50400001928E-02 0.  1.
       -1   -1    0    0    0  501  0.00000000000E+00  0.00000000000E+00 -0.14329055727E+04  0.14329055727E+04  0.50400001928E-02 0. -1.
    10030    2    1    2    0    0  0.00000000000E+00  0.00000000000E+00  0.33177112979E+02  0.28989882585E+04  0.28987984066E+04 0.  0.
        2    1    3    3  502    0  0.85215310907E+03  0.74961660436E+03 -0.88495153012E+03  0.14391765651E+04  0.25500000920E-02 0. -1.
       -2    1    3    3    0  502 -0.85215310907E+03 -0.74961660436E+03  0.91812864310E+03  0.14598116934E+04  0.25500000920E-02 0.  1.
</event>
<event>
 5   0  0.2608591E-07  0.2899328E+04  0.7818609E-02  0.8273077E-01
       -2   -1    0    0    0  501  0.00000000000E+00  0.00000000000E+00  0.10986852168E+04  0.10986852168E+04  0.25500000920E-02 0. -1.
        2   -1    0    0  501    0  0.00000000000E+00  0.00000000000E+00 -0.19127642947E+04  0.19127642947E+04  0.25500000920E-02 0.  1.
    10030    2    1    2    0    0  0.00000000000E+00  0.00000000000E+00 -0.81407907794E+03  0.30114495115E+04  0.28993280972E+04 0.  0.
        2    1    3    3  502    0  0.10815604620E+04 -0.16013441203E+03  0.58166979395E+03  0.12384489542E+04  0.25500000920E-02 0. -1.
       -2    1    3    3    0  502 -0.10815604620E+04  0.16013441203E+03 -0.13957488719E+04  0.17730005573E+04  0.25500000920E-02 0.  1.
</event>
<event>
 5   0  0.9443352E-08  0.2892738E+04  0.7818609E-02  0.8275041E-01
       -1   -1    0    0    0  501  0.00000000000E+00  0.00000000000E+00  0.11082161443E+04  0.11082161443E+04  0.50400001928E-02 0.  1.
        1   -1    0    0  501    0  0.00000000000E+00  0.00000000000E+00 -0.18877036482E+04  0.18877036482E+04  0.50400001928E-02 0. -1.
    10030    2    1    2    0    0  0.00000000000E+00  0.00000000000E+00 -0.77948750391E+03  0.29959197925E+04  0.28927382589E+04 0.  0.
        4    1    3    3  502    0 -0.88225415139E+03 -0.13693793564E+03  0.78876295298E+03  0.11913324451E+04  0.12699999809E+01 0.  1.
       -4    1    3    3    0  502  0.88225415139E+03  0.13693793564E+03 -0.15682504569E+04  0.18045873474E+04  0.12699999809E+01 0. -1.
</event>
<event>
 5   0  0.2546841E-07  0.2899731E+04  0.7818609E-02  0.8272958E-01
        2   -1    0    0  501    0  0.00000000000E+00  0.00000000000E+00  0.22818431309E+04  0.22818431309E+04  0.25500000920E-02 0.  1.
       -2   -1    0    0    0  501  0.00000000000E+00  0.00000000000E+00 -0.92123305367E+03  0.92123305367E+03  0.25500000920E-02 0. -1.
    10030    2    1    2    0    0  0.00000000000E+00  0.00000000000E+00  0.13606100772E+04  0.32030761846E+04  0.28997305499E+04 0.  0.
        1    1    3    3  502    0  0.20513998264E+03  0.10278791201E+04  0.17868433514E+04  0.20715759848E+04  0.50400001928E-02 0.  1.
       -1    1    3    3    0  502 -0.20513998264E+03 -0.10278791201E+04 -0.42623327420E+03  0.11315001998E+04  0.50400001928E-02 0. -1.
</event>
<event>
 5   0  0.9443352E-08  0.2898943E+04  0.7818609E-02  0.8273192E-01
        1   -1    0    0  501    0  0.00000000000E+00  0.00000000000E+00  0.14444165098E+04  0.14444165098E+04  0.50400001928E-02 0.  1.
       -1   -1    0    0    0  501  0.00000000000E+00  0.00000000000E+00 -0.14545445569E+04  0.14545445569E+04  0.50400001928E-02 0. -1.
    10030    2    1    2    0    0  0.00000000000E+00  0.00000000000E+00 -0.10128047130E+02  0.28989610668E+04  0.28989433746E+04 0.  0.
        4    1    3    3  502    0  0.84031044986E+03  0.41189575195E+03  0.11018242957E+04  0.14456134180E+04  0.12699999809E+01 0.  1.
       -4    1    3    3    0  502 -0.84031044986E+03 -0.41189575195E+03 -0.11119523429E+04  0.14533476488E+04  0.12699999809E+01 0. -1.
</event>
<event>
 5   0  0.9763851E-08  0.2900771E+04  0.7818609E-02  0.8272648E-01
       -1   -1    0    0    0  501  0.00000000000E+00  0.00000000000E+00  0.17111162436E+04  0.17111162436E+04  0.50400001928E-02 0. -1.
        1   -1    0    0  501    0  0.00000000000E+00  0.00000000000E+00 -0.12293832120E+04  0.12293832120E+04  0.50400001928E-02 0.  1.
    10030    2    1    2    0    0  0.00000000000E+00  0.00000000000E+00  0.48173303162E+03  0.29404994556E+04  0.29007706450E+04 0.  0.
        3    1    3    3  502    0 -0.18634511168E+03  0.10948058109E+04  0.11865385234E+04  0.16251762803E+04  0.10100000352E+00 0. -1.
       -3    1    3    3    0  502  0.18634511168E+03 -0.10948058109E+04 -0.70480549182E+03  0.13153231754E+04  0.10100000352E+00 0.  1.
</event>
<event>
 5   0  0.9395744E-08  0.2899821E+04  0.7818609E-02  0.8272931E-01
        1   -1    0    0  501    0  0.00000000000E+00  0.00000000000E+00  0.19047340644E+04  0.19047340644E+04  0.50400001928E-02 0.  1.
       -1   -1    0    0    0  501  0.00000000000E+00  0.00000000000E+00 -0.11036926054E+04  0.11036926054E+04  0.50400001928E-02 0. -1.
    10030    2    1    2    0    0  0.00000000000E+00  0.00000000000E+00  0.80104145893E+03  0.30084266698E+04  0.28998213063E+04 0.  0.
        2    1    3    3  502    0 -0.93221836294E+03  0.21115164126E+03 -0.73055214997E+03  0.12030471876E+04  0.25500000920E-02 0. -1.
       -2    1    3    3    0  502  0.93221836294E+03 -0.21115164126E+03  0.15315936089E+04  0.18053794822E+04  0.25500000920E-02 0.  1.
</event>
<event>
 5   0  0.2546841E-07  0.2900186E+04  0.7818609E-02  0.8272822E-01
        2   -1    0    0  501    0  0.00000000000E+00  0.00000000000E+00  0.25251731792E+04  0.25251731792E+04  0.25500000920E-02 0.  1.
       -2   -1    0    0    0  501  0.00000000000E+00  0.00000000000E+00 -0.83272288888E+03  0.83272288889E+03  0.25500000920E-02 0. -1.
    10030    2    1    2    0    0  0.00000000000E+00  0.00000000000E+00  0.16924502904E+04  0.33578960681E+04  0.29001858594E+04 0.  0.
        1    1    3    3  502    0 -0.47985885297E+03  0.48323729628E+03  0.23285013406E+04  0.24260464333E+04  0.50400001928E-02 0.  1.
       -1    1    3    3    0  502  0.47985885297E+03 -0.48323729628E+03 -0.63605105028E+03  0.93184963480E+03  0.50400001928E-02 0. -1.
</event>
<event>
 5   0  0.2678723E-07  0.2899431E+04  0.7818609E-02  0.8273047E-01
       -2   -1    0    0    0  501  0.00000000000E+00  0.00000000000E+00  0.17324054447E+04  0.17324054447E+04  0.25500000920E-02 0.  1.
        2   -1    0    0  501    0  0.00000000000E+00  0.00000000000E+00 -0.12131538978E+04  0.12131538978E+04  0.25500000920E-02 0. -1.
    10030    2    1    2    0    0  0.00000000000E+00  0.00000000000E+00  0.51925154685E+03  0.29455593425E+04  0.28994305771E+04 0.  0.
        5    1    3    3  502    0 -0.90518881075E+03  0.11279035961E+04  0.15743202162E+03  0.14547646671E+04  0.46999998093E+01 0.  1.
       -5    1    3    3    0  502  0.90518881075E+03 -0.11279035961E+04  0.36181952523E+03  0.14907946754E+04  0.46999998093E+01 0. -1.
</event>
<event>
 5   0  0.9388076E-08  0.2902071E+04  0.7818609E-02  0.8272262E-01
       -1   -1    0    0    0  501  0.00000000000E+00  0.00000000000E+00  0.15282885703E+04  0.15282885704E+04  0.50400001928E-02 0.  1.
        1   -1    0    0  501    0  0.00000000000E+00  0.00000000000E+00 -0.13776874353E+04  0.13776874353E+04  0.50400001928E-02 0. -1.
    10030    2    1    2    0    0  0.00000000000E+00  0.00000000000E+00  0.15060113505E+03  0.29059760057E+04  0.29020709577E+04 0.  0.
        5    1    3    3  502    0  0.55100017294E+03  0.13135843058E+04 -0.20143511331E+03  0.14386462782E+04  0.46999998093E+01 0. -1.
       -5    1    3    3    0  502 -0.55100017294E+03 -0.13135843058E+04  0.35203624836E+03  0.14673297275E+04  0.46999998093E+01 0.  1.
</event>
<event>
 5   0  0.2492232E-07  0.2900264E+04  0.7818609E-02  0.8272799E-01
        2   -1    0    0  501    0  0.00000000000E+00  0.00000000000E+00  0.13632542863E+04  0.13632542863E+04  0.25500000920E-02 0.  1.
       -2   -1    0    0    0  501  0.00000000000E+00  0.00000000000E+00 -0.15425459778E+04  0.15425459778E+04  0.25500000920E-02 0. -1.
    10030    2    1    2    0    0  0.00000000000E+00  0.00000000000E+00 -0.17929169151E+03  0.29058002641E+04  0.29002637233E+04 0.  0.
        4    1    3    3  502    0 -0.31080231630E+03  0.11965432696E+04 -0.84909478610E+03  0.14997591288E+04  0.12699999809E+01 0. -1.
       -4    1    3    3    0  502  0.31080231630E+03 -0.11965432696E+04  0.66980309458E+03  0.14060411353E+04  0.12699999809E+01 0.  1.
</event>
<event>
 5   0  0.9421924E-08  0.2900082E+04  0.7818609E-02  0.8272853E-01
        1   -1    0    0  501    0  0.00000000000E+00  0.00000000000E+00  0.13799165783E+04  0.13799165784E+04  0.50400001928E-02 0.  1.
       -1   -1    0    0    0  501  0.00000000000E+00  0.00000000000E+00 -0.15237294863E+04  0.15237294863E+04  0.50400001928E-02 0. -1.
    10030    2    1    2    0    0  0.00000000000E+00  0.00000000000E+00 -0.14381290795E+03  0.29036460647E+04  0.29000824672E+04 0.  0.
        1    1    3    3  502    0  0.10678722925E+04 -0.53857896814E+03 -0.89279258873E+03  0.14924801990E+04  0.50400001928E-02 0. -1.
       -1    1    3    3    0  502 -0.10678722925E+04  0.53857896814E+03  0.74897968077E+03  0.14111658656E+04  0.50400001928E-02 0.  1.
</event>
<event>
 5   0  0.9388076E-08  0.2898867E+04  0.7818609E-02  0.8273215E-01
       -1   -1    0    0    0  501  0.00000000000E+00  0.00000000000E+00  0.85750900745E+03  0.85750900747E+03  0.50400001928E-02 0. -1.
        1   -1    0    0  501    0  0.00000000000E+00  0.00000000000E+00 -0.24499539238E+04  0.24499539238E+04  0.50400001928E-02 0.  1.
    10030    2    1    2    0    0  0.00000000000E+00  0.00000000000E+00 -0.15924449164E+04  0.33074629313E+04  0.28988670598E+04 0.  0.
        5    1    3    3  502    0 -0.37720775230E+03  0.80748371755E+03  0.50791896094E+03  0.10258262053E+04  0.46999998093E+01 0. -1.
       -5    1    3    3    0  502  0.37720775230E+03 -0.80748371755E+03 -0.21003638773E+04  0.22816367260E+04  0.46999998093E+01 0.  1.
</event>
<event>
 5   0  0.9395744E-08  0.2900611E+04  0.7818609E-02  0.8272696E-01
        1   -1    0    0  501    0  0.00000000000E+00  0.00000000000E+00  0.19559048394E+04  0.19559048394E+04  0.50400001928E-02 0.  1.
       -1   -1    0    0    0  501  0.00000000000E+00  0.00000000000E+00 -0.10754030229E+04  0.10754030229E+04  0.50400001928E-02 0. -1.
    10030    2    1    2    0    0  0.00000000000E+00  0.00000000000E+00  0.88050181650E+03  0.30313078622E+04  0.29006109541E+04 0.  0.
        2    1    3    3  502    0 -0.30279666020E+03 -0.96251600641E+03 -0.64844873582E+03  0.11994201278E+04  0.25500000920E-02 0. -1.
       -2    1    3    3    0  502  0.30279666020E+03  0.96251600641E+03  0.15289505523E+04  0.18318877344E+04  0.25500000920E-02 0.  1.
</event>
<event>
 5   0  0.9395744E-08  0.2900380E+04  0.7818609E-02  0.8272764E-01
        1   -1    0    0  501    0  0.00000000000E+00  0.00000000000E+00  0.22488232056E+04  0.22488232056E+04  0.50400001928E-02 0. -1.
       -1   -1    0    0    0  501  0.00000000000E+00  0.00000000000E+00 -0.93517872901E+03  0.93517872902E+03  0.50400001928E-02 0.  1.
    10030    2    1    2    0    0  0.00000000000E+00  0.00000000000E+00  0.13136444766E+04  0.31840019346E+04  0.29003804076E+04 0.  0.
        2    1    3    3  502    0  0.13857963089E+03 -0.43162461303E+03 -0.85539675687E+03  0.96809489842E+03  0.25500000920E-02 0.  1.
       -2    1    3    3    0  502 -0.13857963089E+03  0.43162461303E+03  0.21690412334E+04  0.22159070362E+04  0.25500000920E-02 0. -1.
</event>
<event>
 5   0  0.8407500E-08  0.2899985E+04  0.7818609E-02  0.8272882E-01
       -3   -1    0    0    0  501  0.00000000000E+00  0.00000000000E+00  0.16830150852E+04  0.16830150882E+04  0.10100000352E+00 0.  1.
        3   -1    0    0  501    0  0.00000000000E+00  0.00000000000E+00 -0.12492332782E+04  0.12492332822E+04  0.10100000352E+00 0. -1.
    10030    2    1    2    0    0  0.00000000000E+00  0.00000000000E+00  0.43378180702E+03  0.29322483704E+04  0.28999851465E+04 0.  0.
        2    1    3    3  502    0 -0.32349268043E+03 -0.13404637756E+04  0.67019520907E+03  0.15331837027E+04  0.25500000920E-02 0.  1.
       -2    1    3    3    0  502  0.32349268043E+03  0.13404637756E+04 -0.23641340205E+03  0.13990646678E+04  0.25500000920E-02 0. -1.
</event>
<event>
 5   0  0.9388076E-08  0.2897881E+04  0.7818609E-02  0.8273508E-01
        1   -1    0    0  501    0  0.00000000000E+00  0.00000000000E+00  0.17375992661E+04  0.17375992661E+04  0.50400001928E-02 0. -1.
       -1   -1    0    0    0  501  0.00000000000E+00  0.00000000000E+00 -0.12082355880E+04  0.12082355880E+04  0.50400001928E-02 0.  1.
    10030    2    1    2    0    0  0.00000000000E+00  0.00000000000E+00  0.52936367807E+03  0.29458348541E+04  0.28978814821E+04 0.  0.
        5    1    3    3  502    0 -0.53447246007E+03  0.25271781115E+02 -0.11041168440E+04  0.12269456258E+04  0.46999998093E+01 0.  1.
       -5    1    3    3    0  502  0.53447246007E+03 -0.25271781115E+02  0.16334805220E+04  0.17188892284E+04  0.46999998093E+01 0. -1.
</event>
<event>
 5   0  0.9395744E-08  0.2907268E+04  0.7818609E-02  0.8270718E-01
        1   -1    0    0  501    0  0.00000000000E+00  0.00000000000E+00  0.29055173271E+04  0.29055173271E+04  0.50400001928E-02 0. -1.
       -1   -1    0    0    0  501  0.00000000000E+00  0.00000000000E+00 -0.72725505922E+03  0.72725505923E+03  0.50400001928E-02 0.  1.
    10030    2    1    2    0    0  0.00000000000E+00  0.00000000000E+00  0.21782622679E+04  0.36327723863E+04  0.29072682544E+04 0.  0.
        2    1    3    3  502    0 -0.97650540592E+03  0.90931587519E+03  0.18098010705E+04  0.22485101920E+04  0.25500000920E-02 0.  1.
       -2    1    3    3    0  502  0.97650540592E+03 -0.90931587519E+03  0.36846119734E+03  0.13842621943E+04  0.25500000920E-02 0. -1.
</event>
<event>
 5   0  0.9395744E-08  0.2899326E+04  0.7818609E-02  0.8273078E-01
       -1   -1    0    0    0  501  0.00000000000E+00  0.00000000000E+00  0.12499606407E+04  0.12499606407E+04  0.50400001928E-02 0. -1.
        1   -1    0    0  501    0  0.00000000000E+00  0.00000000000E+00 -0.16812711133E+04  0.16812711133E+04  0.50400001928E-02 0.  1.
    10030    2    1    2    0    0  0.00000000000E+00  0.00000000000E+00 -0.43131047254E+03  0.29312317540E+04  0.28993259341E+04 0.  0.
        2    1    3    3  502    0  0.77453079201E+03  0.84416506867E+03 -0.11136925863E+04  0.15977558599E+04  0.25500000920E-02 0.  1.
       -2    1    3    3    0  502 -0.77453079201E+03 -0.84416506867E+03  0.68238211379E+03  0.13334758941E+04  0.25500000920E-02 0. -1.
</event>
<event>
 5   0  0.9395744E-08  0.2896374E+04  0.7818609E-02  0.8273957E-01
        1   -1    0    0  501    0  0.00000000000E+00  0.00000000000E+00  0.16331479352E+04  0.16331479352E+04  0.50400001928E-02 0.  1.
       -1   -1    0    0    0  501  0.00000000000E+00  0.00000000000E+00 -0.12841734606E+04  0.12841734606E+04  0.50400001928E-02 0. -1.
    10030    2    1    2    0    0  0.00000000000E+00  0.00000000000E+00  0.34897447460E+03  0.29173213957E+04  0.28963737573E+04 0.  0.
        2    1    3    3  502    0  0.22977533847E+03 -0.12983568565E+04 -0.42877516546E+03  0.13864975209E+04  0.25500000920E-02 0. -1.
       -2    1    3    3    0  502 -0.22977533847E+03  0.12983568565E+04  0.77774964006E+03  0.15308238748E+04  0.25500000920E-02 0.  1.
</event>
<event>
 5   0  0.2546841E-07  0.2900192E+04  0.7818609E-02  0.8272820E-01
        2   -1    0    0  501    0  0.00000000000E+00  0.00000000000E+00  0.17587975264E+04  0.17587975264E+04  0.25500000920E-02 0. -1.
       -2   -1    0    0    0  501  0.00000000000E+00  0.00000000000E+00 -0.11955769421E+04  0.11955769421E+04  0.25500000920E-02 0.  1.
    10030    2    1    2    0    0  0.00000000000E+00  0.00000000000E+00  0.56322058427E+03  0.29543744685E+04  0.29001915581E+04 0.  0.
        1    1    3    3  502    0 -0.95535503618E+03  0.79239469730E+03 -0.48218776409E+03  0.13315771256E+04  0.50400001928E-02 0.  1.
       -1    1    3    3    0  502  0.95535503618E+03 -0.79239469730E+03  0.10454083484E+04  0.16227973430E+04  0.50400001928E-02 0. -1.
</event>
<event>
 5   0  0.9388076E-08  0.2898060E+04  0.7818609E-02  0.8273455E-01
       -1   -1    0    0    0  501  0.00000000000E+00  0.00000000000E+00  0.10050979479E+04  0.10050979479E+04  0.50400001928E-02 0.  1.
        1   -1    0    0  501    0  0.00000000000E+00  0.00000000000E+00 -0.20890385877E+04  0.20890385877E+04  0.50400001928E-02 0. -1.
    10030    2    1    2    0    0  0.00000000000E+00  0.00000000000E+00 -0.10839406398E+04  0.30941365355E+04  0.28980603151E+04 0.  0.
        5    1    3    3  502    0 -0.51725075791E+03  0.12516650420E+04  0.81092715539E+01  0.13543639002E+04  0.46999998093E+01 0.  1.
       -5    1    3    3    0  502  0.51725075791E+03 -0.12516650420E+04 -0.10920499114E+04  0.17397726354E+04  0.46999998093E+01 0. -1.
</event>
<event>
 5   0  0.9395744E-08  0.2900732E+04  0.7818609E-02  0.8272660E-01
       -1   -1    0    0    0  501  0.00000000000E+00  0.00000000000E+00  0.96998590912E+03  0.96998590913E+03  0.50400001928E-02 0.  1.
        1   -1    0    0  501    0  0.00000000000E+00  0.00000000000E+00 -0.21686511924E+04  0.21686511924E+04  0.50400001928E-02 0. -1.
    10030    2    1    2    0    0  0.00000000000E+00  0.00000000000E+00 -0.11986652833E+04  0.31386371015E+04  0.29007316997E+04 0.  0.
        2    1    3    3  502    0  0.82618512032E+03 -0.58500565296E+03 -0.17231441385E+04  0.19985092417E+04  0.25500000920E-02 0. -1.
       -2    1    3    3    0  502 -0.82618512032E+03  0.58500565296E+03  0.52447885528E+03  0.11401278598E+04  0.25500000920E-02 0.  1.
</event>
<event>
 5   0  0.9421924E-08  0.2899820E+04  0.7818609E-02  0.8272931E-01
        1   -1    0    0  501    0  0.00000000000E+00  0.00000000000E+00  0.12720111711E+04  0.12720111711E+04  0.50400001928E-02 0. -1.
       -1   -1    0    0    0  501  0.00000000000E+00  0.00000000000E+00 -0.16526893510E+04  0.16526893510E+04  0.50400001928E-02 0.  1.
    10030    2    1    2    0    0  0.00000000000E+00  0.00000000000E+00 -0.38067817990E+03  0.29247005220E+04  0.28998202129E+04 0.  0.
        1    1    3    3  502    0 -0.34949975654E+03  0.13162094573E+04 -0.69228563170E+03  0.15276834787E+04  0.50400001928E-02 0.  1.
       -1    1    3    3    0  502  0.34949975654E+03 -0.13162094573E+04  0.31160745180E+03  0.13970170433E+04  0.50400001928E-02 0. -1.
</event>
<event>
 5   0  0.2678723E-07  0.2898181E+04  0.7818609E-02  0.8273419E-01
        2   -1    0    0  501    0  0.00000000000E+00  0.00000000000E+00  0.25452658368E+04  0.25452658368E+04  0.25500000920E-02 0.  1.
       -2   -1    0    0    0  501  0.00000000000E+00  0.00000000000E+00 -0.82500755347E+03  0.82500755347E+03  0.25500000920E-02 0. -1.
    10030    2    1    2    0    0  0.00000000000E+00  0.00000000000E+00  0.17202582833E+04  0.33702733903E+04  0.28981811820E+04 0.  0.
        5    1    3    3  502    0  0.14006390002E+03  0.14420079869E+04  0.82649518582E+03  0.16679692181E+04  0.46999998093E+01 0. -1.
       -5    1    3    3    0  502 -0.14006390002E+03 -0.14420079869E+04  0.89376309752E+03  0.17023041722E+04  0.46999998093E+01 0.  1.
</event>
<event>
 5   0  0.2678723E-07  0.2900191E+04  0.7818609E-02  0.8272821E-01
       -2   -1    0    0    0  501  0.00000000000E+00  0.00000000000E+00  0.10867894177E+04  0.10867894177E+04  0.25500000920E-02 0. -1.
        2   -1    0    0  501    0  0.00000000000E+00  0.00000000000E+00 -0.19348519570E+04  0.19348519571E+04  0.25500000920E-02 0.  1.
    10030    2    1    2    0    0  0.00000000000E+00  0.00000000000E+00 -0.84806253930E+03  0.30216413748E+04  0.29001907743E+04 0.  0.
        5    1    3    3  502    0 -0.11500621591E+04  0.27895096122E+03  0.44909498408E+03  0.12657665675E+04  0.46999998093E+01 0. -1.
       -5    1    3    3    0  502  0.11500621591E+04 -0.27895096122E+03 -0.12971575234E+04  0.17558748073E+04  0.46999998093E+01 0.  1.
</event>
<event>
 5   0  0.2492232E-07  0.2891044E+04  0.7818609E-02  0.8275547E-01
        2   -1    0    0  501    0  0.00000000000E+00  0.00000000000E+00  0.18767625809E+04  0.18767625809E+04  0.25500000920E-02 0. -1.
       -2   -1    0    0    0  501  0.00000000000E+00  0.00000000000E+00 -0.11133712524E+04  0.11133712525E+04  0.25500000920E-02 0.  1.
    10030    2    1    2    0    0  0.00000000000E+00  0.00000000000E+00  0.76339132843E+03  0.29901338333E+04  0.28910437598E+04 0.  0.
        4    1    3    3  502    0  0.53321966618E+03  0.52473178402E+03  0.16609666484E+04  0.18216691460E+04  0.12699999809E+01 0. -1.
       -4    1    3    3    0  502 -0.53321966618E+03 -0.52473178402E+03 -0.89757531997E+03  0.11684646873E+04  0.12699999809E+01 0.  1.
</event>
<event>
 5   0  0.9388076E-08  0.2899271E+04  0.7818609E-02  0.8273094E-01
        1   -1    0    0  501    0  0.00000000000E+00  0.00000000000E+00  0.14638109058E+04  0.14638109058E+04  0.50400001928E-02 0.  1.
       -1   -1    0    0    0  501  0.00000000000E+00  0.00000000000E+00 -0.14355971827E+04  0.14355971827E+04  0.50400001928E-02 0. -1.
    10030    2    1    2    0    0  0.00000000000E+00  0.00000000000E+00  0.28213723085E+02  0.28994080884E+04  0.28992708134E+04 0.  0.
        5    1    3    3  502    0 -0.71427702103E+03  0.11357817361E+04 -0.53476237012E+03  0.14443630767E+04  0.46999998093E+01 0. -1.
       -5    1    3    3    0  502  0.71427702103E+03 -0.11357817361E+04  0.56297609321E+03  0.14550450118E+04  0.46999998093E+01 0.  1.
</event>
<event>
 5   0  0.2608591E-07  0.2900717E+04  0.7818609E-02  0.8272664E-01
       -2   -1    0    0    0  501  0.00000000000E+00  0.00000000000E+00  0.13894707243E+04  0.13894707243E+04  0.25500000920E-02 0.  1.
        2   -1    0    0  501    0  0.00000000000E+00  0.00000000000E+00 -0.15139140847E+04  0.15139140847E+04  0.25500000920E-02 0. -1.
    10030    2    1    2    0    0  0.00000000000E+00  0.00000000000E+00 -0.12444336035E+03  0.29033848090E+04  0.29007166700E+04 0.  0.
        2    1    3    3  502    0  0.92001843169E+02 -0.10077376512E+04  0.97774306264E+03  0.14071179799E+04  0.25500000920E-02 0.  1.
       -2    1    3    3    0  502 -0.92001843169E+02  0.10077376512E+04 -0.11021864230E+04  0.14962668291E+04  0.25500000920E-02 0. -1.
</event>
<event>
 5   0  0.9395744E-08  0.2900248E+04  0.7818609E-02  0.8272804E-01
        1   -1    0    0  501    0  0.00000000000E+00  0.00000000000E+00  0.14476910082E+04  0.14476910082E+04  0.50400001928E-02 0. -1.
       -1   -1    0    0    0  501  0.00000000000E+00  0.00000000000E+00 -0.14525615149E+04  0.14525615149E+04  0.50400001928E-02 0.  1.
    10030    2    1    2    0    0  0.00000000000E+00  0.00000000000E+00 -0.48705066870E+01  0.29002525232E+04  0.29002484336E+04 0.  0.
        2    1    3    3  502    0  0.58969796427E+03  0.11017914288E+04 -0.73808036388E+03  0.14513616590E+04  0.25500000920E-02 0.  1.
       -2    1    3    3    0  502 -0.58969796427E+03 -0.11017914288E+04  0.73320985719E+03  0.14488908642E+04  0.25500000920E-02 0. -1.
</event>
<event>
 5   0  0.2608591E-07  0.2899421E+04  0.7818609E-02  0.8273050E-01
        2   -1    0    0  501    0  0.00000000000E+00  0.00000000000E+00  0.13842420211E+04  0.13842420211E+04  0.25500000920E-02 0. -1.
       -2   -1    0    0    0  501  0.00000000000E+00  0.00000000000E+00 -0.15182753218E+04  0.15182753218E+04  0.25500000920E-02 0.  1.
    10030    2    1    2    0    0  0.00000000000E+00  0.00000000000E+00 -0.13403330071E+03  0.29025173430E+04  0.28994209768E+04 0.  0.
        2    1    3    3  502    0 -0.47574481547E+03 -0.12387483593E+04 -0.65144647828E+03  0.14782466442E+04  0.25500000920E-02 0.  1.
       -2    1    3    3    0  502  0.47574481547E+03  0.12387483593E+04  0.51741317758E+03  0.14242706988E+04  0.25500000920E-02 0. -1.
</event>
<event>
 5   0  0.9388076E-08  0.2900373E+04  0.7818609E-02  0.8272766E-01
       -1   -1    0    0    0  501  0.00000000000E+00  0.00000000000E+00  0.11024709821E+04  0.11024709821E+04  0.50400001928E-02 0. -1.
        1   -1    0    0  501    0  0.00000000000E+00  0.00000000000E+00 -0.19075708012E+04  0.19075708012E+04  0.50400001928E-02 0.  1.
    10030    2    1    2    0    0  0.00000000000E+00  0.00000000000E+00 -0.80509981908E+03  0.30100417832E+04  0.29003733929E+04 0.  0.
        5    1    3    3  502    0 -0.12385913926E+04 -0.62247723875E+03  0.39505317145E+02  0.13867838010E+04  0.46999998093E+01 0. -1.
       -5    1    3    3    0  502  0.12385913926E+04  0.62247723875E+03 -0.84460513623E+03  0.16232579822E+04  0.46999998093E+01 0.  1.
</event>
<event>
 5   0  0.2492232E-07  0.2886452E+04  0.7818609E-02  0.8276920E-01
       -2   -1    0    0    0  501  0.00000000000E+00  0.00000000000E+00  0.68796072464E+03  0.68796072465E+03  0.25500000920E-02 0. -1.
        2   -1    0    0  501    0  0.00000000000E+00  0.00000000000E+00 -0.30276452204E+04  0.30276452204E+04  0.25500000920E-02 0.  1.
    10030    2    1    2    0    0  0.00000000000E+00  0.00000000000E+00 -0.23396844957E+04  0.37156059450E+04  0.28864518009E+04 0.  0.
        4    1    3    3  502    0  0.12189130190E+03  0.14164124162E+04 -0.14898953106E+04  0.20593375808E+04  0.12699999809E+01 0. -1.
       -4    1    3    3    0  502 -0.12189130190E+03 -0.14164124162E+04 -0.84978918508E+03  0.16562683642E+04  0.12699999809E+01 0.  1.
</event>
<event>
 5   0  0.9421924E-08  0.2899258E+04  0.7818609E-02  0.8273098E-01
        1   -1    0    0  501    0  0.00000000000E+00  0.00000000000E+00  0.19122184083E+04  0.19122184084E+04  0.50400001928E-02 0. -1.
       -1   -1    0    0    0  501  0.00000000000E+00  0.00000000000E+00 -0.10989458883E+04  0.10989458883E+04  0.50400001928E-02 0.  1.
    10030    2    1    2    0    0  0.00000000000E+00  0.00000000000E+00  0.81327252009E+03  0.30111642966E+04  0.28992582205E+04 0.  0.
        1    1    3    3  502    0 -0.52841925447E+03  0.11232500384E+04  0.11842037160E+04  0.17155920256E+04  0.50400001928E-02 0. -1.
       -1    1    3    3    0  502  0.52841925447E+03 -0.11232500384E+04 -0.37093119592E+03  0.12955722710E+04  0.50400001928E-02 0.  1.
</event>
<event>
 5   0  0.9388076E-08  0.2899278E+04  0.7818609E-02  0.8273092E-01
       -1   -1    0    0    0  501  0.00000000000E+00  0.00000000000E+00  0.98827750698E+03  0.98827750699E+03  0.50400001928E-02 0. -1.
        1   -1    0    0  501    0  0.00000000000E+00  0.00000000000E+00 -0.21263789889E+04  0.21263789889E+04  0.50400001928E-02 0.  1.
    10030    2    1    2    0    0  0.00000000000E+00  0.00000000000E+00 -0.11381014819E+04  0.31146564959E+04  0.28992775142E+04 0.  0.
        5    1    3    3  502    0  0.65581268924E+03 -0.62242122015E+03  0.64823175562E+03  0.11125308794E+04  0.46999998093E+01 0. -1.
       -5    1    3    3    0  502 -0.65581268924E+03  0.62242122015E+03 -0.17863332375E+04  0.20021256165E+04  0.46999998093E+01 0.  1.
</event>
<event>
 5   0  0.9421924E-08  0.2900129E+04  0.7818609E-02  0.8272839E-01
        1   -1    0    0  501    0  0.00000000000E+00  0.00000000000E+00  0.22605181185E+04  0.22605181186E+04  0.50400001928E-02 0. -1.
       -1   -1    0    0    0  501  0.00000000000E+00  0.00000000000E+00 -0.93017930962E+03  0.93017930964E+03  0.50400001928E-02 0.  1.
    10030    2    1    2    0    0  0.00000000000E+00  0.00000000000E+00  0.13303388089E+04  0.31906974282E+04  0.29001290888E+04 0.  0.
        1    1    3    3  502    0  0.37879680515E+03  0.13388217002E+04  0.21589690814E+03  0.14080277126E+04  0.50400001928E-02 0.  1.
       -1    1    3    3    0  502 -0.37879680515E+03 -0.13388217002E+04  0.11144419008E+04  0.17826697156E+04  0.50400001928E-02 0. -1.
</event>
<event>
 5   0  0.2608591E-07  0.2901821E+04  0.7818609E-02  0.8272336E-01
        2   -1    0    0  501    0  0.00000000000E+00  0.00000000000E+00  0.22056299068E+04  0.22056299068E+04  0.25500000920E-02 0.  1.
       -2   -1    0    0    0  501  0.00000000000E+00  0.00000000000E+00 -0.95444012209E+03  0.95444012210E+03  0.25500000920E-02 0. -1.
    10030    2    1    2    0    0  0.00000000000E+00  0.00000000000E+00  0.12511897847E+04  0.31600700289E+04  0.29018212747E+04 0.  0.
        2    1    3    3  502    0 -0.56812719349E+03  0.11235023812E+04 -0.15977811984E+03  0.12690764974E+04  0.25500000920E-02 0. -1.
       -2    1    3    3    0  502  0.56812719349E+03 -0.11235023812E+04  0.14109679046E+04  0.18909935315E+04  0.25500000920E-02 0.  1.
</event>
<event>
 5   0  0.2534588E-07  0.2900372E+04  0.7818609E-02  0.8272767E-01
       -2   -1    0    0    0  501  0.00000000000E+00  0.00000000000E+00  0.12665419278E+04  0.12665419278E+04  0.25500000920E-02 0.  1.
        2   -1    0    0  501    0  0.00000000000E+00  0.00000000000E+00 -0.16604579567E+04  0.16604579567E+04  0.25500000920E-02 0. -1.
    10030    2    1    2    0    0  0.00000000000E+00  0.00000000000E+00 -0.39391602881E+03  0.29269998845E+04  0.29003721289E+04 0.  0.
        3    1    3    3  502    0 -0.13039887005E+04 -0.36369765787E+03 -0.72170980605E+03  0.15341211073E+04  0.10100000352E+00 0. -1.
       -3    1    3    3    0  502  0.13039887005E+04  0.36369765787E+03  0.32779377724E+03  0.13928787772E+04  0.10100000352E+00 0.  1.
</event>
<event>
 5   0  0.9388076E-08  0.2900138E+04  0.7818609E-02  0.8272836E-01
       -1   -1    0    0    0  501  0.00000000000E+00  0.00000000000E+00  0.15393733068E+04  0.15393733069E+04  0.50400001928E-02 0.  1.
        1   -1    0    0  501    0  0.00000000000E+00  0.00000000000E+00 -0.13659459162E+04  0.13659459162E+04  0.50400001928E-02 0. -1.
    10030    2    1    2    0    0  0.00000000000E+00  0.00000000000E+00  0.17342739067E+03  0.29053192230E+04  0.29001383981E+04 0.  0.
        5    1    3    3  502    0  0.89958273050E+03  0.68652999064E+02  0.12239580501E+04  0.15205452054E+04  0.46999998093E+01 0.  1.
       -5    1    3    3    0  502 -0.89958273050E+03 -0.68652999064E+02 -0.10505306595E+04  0.13847740176E+04  0.46999998093E+01 0. -1.
</event>
<event>
 5   0  0.2678723E-07  0.2903244E+04  0.7818609E-02  0.8271913E-01
       -2   -1    0    0    0  501  0.00000000000E+00  0.00000000000E+00  0.11379534405E+04  0.11379534405E+04  0.25500000920E-02 0. -1.
        2   -1    0    0  501    0  0.00000000000E+00  0.00000000000E+00 -0.18517505055E+04  0.18517505055E+04  0.25500000920E-02 0.  1.
    10030    2    1    2    0    0  0.00000000000E+00  0.00000000000E+00 -0.71379706496E+03  0.29897039460E+04  0.29032436058E+04 0.  0.
        5    1    3    3  502    0  0.69041233213E+03 -0.11611558369E+04  0.19017739379E+03  0.13642366353E+04  0.46999998093E+01 0. -1.
       -5    1    3    3    0  502 -0.69041233213E+03  0.11611558369E+04 -0.90397445875E+03  0.16254673107E+04  0.46999998093E+01 0.  1.
</event>
<event>
 5   0  0.2678723E-07  0.2887320E+04  0.7818609E-02  0.8276660E-01
        2   -1    0    0  501    0  0.00000000000E+00  0.00000000000E+00  0.20741916039E+04  0.20741916039E+04  0.25500000920E-02 0.  1.
       -2   -1    0    0    0  501  0.00000000000E+00  0.00000000000E+00 -0.10048028536E+04  0.10048028536E+04  0.25500000920E-02 0. -1.
    10030    2    1    2    0    0  0.00000000000E+00  0.00000000000E+00  0.10693887504E+04  0.30789944575E+04  0.28873196169E+04 0.  0.
        5    1    3    3  502    0 -0.11034203196E+04  0.93087836209E+03  0.52639123343E+03  0.15366134021E+04  0.46999998093E+01 0.  1.
       -5    1    3    3    0  502  0.11034203196E+04 -0.93087836209E+03  0.54299751693E+03  0.15423810554E+04  0.46999998093E+01 0. -1.
</event>
<event>
 5   0  0.2678723E-07  0.2901330E+04  0.7818609E-02  0.8272482E-01
       -2   -1    0    0    0  501  0.00000000000E+00  0.00000000000E+00  0.83129092739E+03  0.83129092739E+03  0.25500000920E-02 0. -1.
        2   -1    0    0  501    0  0.00000000000E+00  0.00000000000E+00 -0.25315188069E+04  0.25315188069E+04  0.25500000920E-02 0.  1.
    10030    2    1    2    0    0  0.00000000000E+00  0.00000000000E+00 -0.17002278795E+04  0.33628097343E+04  0.29013297756E+04 0.  0.
        5    1    3    3  502    0  0.42334114660E+03  0.77788200640E+02 -0.24557912859E+04  0.24932311687E+04  0.46999998093E+01 0.  1.
       -5    1    3    3    0  502 -0.42334114660E+03 -0.77788200640E+02  0.75556340643E+03  0.86957856557E+03  0.46999998093E+01 0. -1.
</event>
<event>
 5   0  0.9421924E-08  0.2898793E+04  0.7818609E-02  0.8273237E-01
       -1   -1    0    0    0  501  0.00000000000E+00  0.00000000000E+00  0.78429929380E+03  0.78429929382E+03  0.50400001928E-02 0.  1.
        1   -1    0    0  501    0  0.00000000000E+00  0.00000000000E+00 -0.26785055068E+04  0.26785055068E+04  0.50400001928E-02 0. -1.
    10030    2    1    2    0    0  0.00000000000E+00  0.00000000000E+00 -0.18942062130E+04  0.34628048006E+04  0.28987928367E+04 0.  0.
        1    1    3    3  502    0  0.53726151203E+03  0.10067977702E+03  0.65645182507E+03  0.85423377859E+03  0.50400001928E-02 0.  1.
       -1    1    3    3    0  502 -0.53726151203E+03 -0.10067977702E+03 -0.25506580381E+04  0.26085710221E+04  0.50400001928E-02 0. -1.
</event>
<event>
 5   0  0.2492232E-07  0.2900192E+04  0.7818609E-02  0.8272820E-01
       -2   -1    0    0    0  501  0.00000000000E+00  0.00000000000E+00  0.16774691904E+04  0.16774691904E+04  0.25500000920E-02 0. -1.
        2   -1    0    0  501    0  0.00000000000E+00  0.00000000000E+00 -0.12535422010E+04  0.12535422010E+04  0.25500000920E-02 0.  1.
    10030    2    1    2    0    0  0.00000000000E+00  0.00000000000E+00  0.42392698939E+03  0.29310113915E+04  0.29001920082E+04 0.  0.
        4    1    3    3  502    0  0.12555645844E+04 -0.20375729499E+01 -0.52123221082E+03  0.13594598956E+04  0.12699999809E+01 0.  1.
       -4    1    3    3    0  502 -0.12555645844E+04  0.20375729499E+01  0.94515920021E+03  0.15715514958E+04  0.12699999809E+01 0. -1.
</event>
<event>
 5   0  0.9421924E-08  0.2898269E+04  0.7818609E-02  0.8273393E-01
        1   -1    0    0  501    0  0.00000000000E+00  0.00000000000E+00  0.17312796662E+04  0.17312796662E+04  0.50400001928E-02 0.  1.
       -1   -1    0    0    0  501  0.00000000000E+00  0.00000000000E+00 -0.12129700473E+04  0.12129700473E+04  0.50400001928E-02 0. -1.
    10030    2    1    2    0    0  0.00000000000E+00  0.00000000000E+00  0.51830961889E+03  0.29442497135E+04  0.28982687098E+04 0.  0.
        1    1    3    3  502    0  0.54613102284E+03  0.51238807250E+03  0.15194784258E+04  0.16939938953E+04  0.50400001928E-02 0.  1.
       -1    1    3    3    0  502 -0.54613102284E+03 -0.51238807250E+03 -0.10011688069E+04  0.12502558182E+04  0.50400001928E-02 0. -1.
</event>
<event>
 5   0  0.9763851E-08  0.2900242E+04  0.7818609E-02  0.8272805E-01
       -1   -1    0    0    0  501  0.00000000000E+00  0.00000000000E+00  0.92300471954E+03  0.92300471955E+03  0.50400001928E-02 0. -1.
        1   -1    0    0  501    0  0.00000000000E+00  0.00000000000E+00 -0.22782667548E+04  0.22782667548E+04  0.50400001928E-02 0.  1.
    10030    2    1    2    0    0  0.00000000000E+00  0.00000000000E+00 -0.13552620353E+04  0.32012714744E+04  0.29002420362E+04 0.  0.
        3    1    3    3  502    0 -0.46993398403E+03 -0.61295626040E+03 -0.20323326630E+04  0.21741502685E+04  0.10100000352E+00 0.  1.
       -3    1    3    3    0  502  0.46993398403E+03  0.61295626040E+03  0.67707062773E+03  0.10271212059E+04  0.10100000352E+00 0. -1.
</event>
<event>
 5   0  0.9395744E-08  0.2893346E+04  0.7818609E-02  0.8274860E-01
       -1   -1    0    0    0  501  0.00000000000E+00  0.00000000000E+00  0.81236586853E+03  0.81236586855E+03  0.50400001928E-02 0.  1.
        1   -1    0    0  501    0  0.00000000000E+00  0.00000000000E+00 -0.25762569154E+04  0.25762569154E+04  0.50400001928E-02 0. -1.
    10030    2    1    2    0    0  0.00000000000E+00  0.00000000000E+00 -0.17638910468E+04  0.33886227839E+04  0.28933462887E+04 0.  0.
        2    1    3    3  502    0 -0.67408579031E+03 -0.20587956358E+03  0.59767667558E+03  0.92411874558E+03  0.25500000920E-02 0.  1.
       -2    1    3    3    0  502  0.67408579031E+03  0.20587956358E+03 -0.23615677224E+04  0.24645040383E+04  0.25500000920E-02 0. -1.
</event>
<event>
 5   0  0.2492232E-07  0.2900147E+04  0.7818609E-02  0.8272834E-01
       -2   -1    0    0    0  501  0.00000000000E+00  0.00000000000E+00  0.15380491217E+04  0.15380491217E+04  0.25500000920E-02 0.  1.
        2   -1    0    0  501    0  0.00000000000E+00  0.00000000000E+00 -0.13671300539E+04  0.13671300539E+04  0.25500000920E-02 0. -1.
    10030    2    1    2    0    0  0.00000000000E+00  0.00000000000E+00  0.17091906779E+03  0.29051791757E+04  0.29001470161E+04 0.  0.
        4    1    3    3  502    0 -0.10532488262E+04 -0.10820988383E+03  0.10779708528E+04  0.15109815489E+04  0.12699999809E+01 0.  1.
       -4    1    3    3    0  502  0.10532488262E+04  0.10820988383E+03 -0.90705178501E+03  0.13941976267E+04  0.12699999809E+01 0. -1.
</event>
<event>
 5   0  0.9443352E-08  0.2900550E+04  0.7818609E-02  0.8272714E-01
       -1   -1    0    0    0  501  0.00000000000E+00  0.00000000000E+00  0.86833364865E+03  0.86833364867E+03  0.50400001928E-02 0. -1.
        1   -1    0    0  501    0  0.00000000000E+00  0.00000000000E+00 -0.24222231692E+04  0.24222231693E+04  0.50400001928E-02 0.  1.
    10030    2    1    2    0    0  0.00000000000E+00  0.00000000000E+00 -0.15538895206E+04  0.32905568179E+04  0.29005502116E+04 0.  0.
        4    1    3    3  502    0 -0.10784126505E+04 -0.16101514054E+03 -0.18617612934E+04  0.21575579822E+04  0.12699999809E+01 0.  1.
       -4    1    3    3    0  502  0.10784126505E+04  0.16101514054E+03  0.30787177280E+03  0.11329988357E+04  0.12699999809E+01 0. -1.
</event>
<event>
 5   0  0.9763851E-08  0.2899035E+04  0.7818609E-02  0.8273165E-01
        1   -1    0    0  501    0  0.00000000000E+00  0.00000000000E+00  0.15741572486E+04  0.15741572486E+04  0.50400001928E-02 0.  1.
       -1   -1    0    0    0  501  0.00000000000E+00  0.00000000000E+00 -0.13347469742E+04  0.13347469742E+04  0.50400001928E-02 0. -1.
    10030    2    1    2    0    0  0.00000000000E+00  0.00000000000E+00  0.23941027434E+03  0.29089042228E+04  0.28990354427E+04 0.  0.
        3    1    3    3  502    0 -0.73530964923E+03 -0.54519256295E+03 -0.10080365081E+04  0.13616360831E+04  0.10100000352E+00 0. -1.
       -3    1    3    3    0  502  0.73530964923E+03  0.54519256295E+03  0.12474467824E+04  0.15472681397E+04  0.10100000352E+00 0.  1.
</event>
<event>
 5   0  0.2546841E-07  0.2898743E+04  0.7818609E-02  0.8273252E-01
       -2   -1    0    0    0  501  0.00000000000E+00  0.00000000000E+00  0.12384332459E+04  0.12384332459E+04  0.25500000920E-02 0. -1.
        2   -1    0    0  501    0  0.00000000000E+00  0.00000000000E+00 -0.16962378476E+04  0.16962378476E+04  0.25500000920E-02 0.  1.
    10030    2    1    2    0    0  0.00000000000E+00  0.00000000000E+00 -0.45780460169E+03  0.29346710935E+04  0.28987427230E+04 0.  0.
        1    1    3    3  502    0 -0.57722298008E+03 -0.65973110762E+03 -0.13974379047E+04  0.16496254728E+04  0.50400001928E-02 0.  1.
       -1    1    3    3    0  502  0.57722298008E+03  0.65973110762E+03  0.93963330302E+03  0.12850456207E+04  0.50400001928E-02 0. -1.
</event>
<event>
 5   0  0.2678723E-07  0.2896249E+04  0.7818609E-02  0.8273994E-01
        2   -1    0    0  501    0  0.00000000000E+00  0.00000000000E+00  0.15345238573E+04  0.15345238573E+04  0.25500000920E-02 0. -1.
       -2   -1    0    0    0  501  0.00000000000E+00  0.00000000000E+00 -0.13665895750E+04  0.13665895750E+04  0.25500000920E-02 0.  1.
    10030    2    1    2    0    0  0.00000000000E+00  0.00000000000E+00  0.16793428228E+03  0.29011134323E+04  0.28962488194E+04 0.  0.
        5    1    3    3  502    0 -0.13692620402E+04  0.17701766962E+03  0.52153999753E+03  0.14758861234E+04  0.46999998093E+01 0. -1.
       -5    1    3    3    0  502  0.13692620402E+04 -0.17701766962E+03 -0.35360571525E+03  0.14252273089E+04  0.46999998093E+01 0.  1.
</event>
<event>
 5   0  0.9443352E-08  0.2898984E+04  0.7818609E-02  0.8273180E-01
       -1   -1    0    0    0  501  0.00000000000E+00  0.00000000000E+00  0.10189218045E+04  0.10189218045E+04  0.50400001928E-02 0.  1.
        1   -1    0    0  501    0  0.00000000000E+00  0.00000000000E+00 -0.20620098593E+04  0.20620098593E+04  0.50400001928E-02 0. -1.
    10030    2    1    2    0    0  0.00000000000E+00  0.00000000000E+00 -0.10430880548E+04  0.30809316638E+04  0.28989838266E+04 0.  0.
        4    1    3    3  502    0 -0.12568817112E+04  0.28690403030E+03 -0.12256670852E+04  0.17788555240E+04  0.12699999809E+01 0.  1.
       -4    1    3    3    0  502  0.12568817112E+04 -0.28690403030E+03  0.18257903042E+03  0.13020761398E+04  0.12699999809E+01 0. -1.
</event>
<event>
 5   0  0.2492232E-07  0.2900955E+04  0.7818609E-02  0.8272593E-01
       -2   -1    0    0    0  501  0.00000000000E+00  0.00000000000E+00  0.74165168886E+03  0.74165168886E+03  0.25500000920E-02 0. -1.
        2   -1    0    0  501    0  0.00000000000E+00  0.00000000000E+00 -0.28367570957E+04  0.28367570957E+04  0.25500000920E-02 0.  1.
    10030    2    1    2    0    0  0.00000000000E+00  0.00000000000E+00 -0.20951054069E+04  0.35784087846E+04  0.29009554915E+04 0.  0.
        4    1    3    3  502    0  0.37085049670E+03  0.53473690943E+03 -0.26465825469E+04  0.27254127107E+04  0.12699999809E+01 0.  1.
       -4    1    3    3    0  502 -0.37085049670E+03 -0.53473690943E+03  0.55147714003E+03  0.85299607389E+03  0.12699999809E+01 0. -1.
</event>
<event>
 5   0  0.2608591E-07  0.2899363E+04  0.7818609E-02  0.8273067E-01
       -2   -1    0    0    0  501  0.00000000000E+00  0.00000000000E+00  0.13639426708E+04  0.13639426708E+04  0.25500000920E-02 0.  1.
        2   -1    0    0  501    0  0.00000000000E+00  0.00000000000E+00 -0.15408101557E+04  0.15408101557E+04  0.25500000920E-02 0. -1.
    10030    2    1    2    0    0  0.00000000000E+00  0.00000000000E+00 -0.17686748494E+03  0.29047528265E+04  0.28993631845E+04 0.  0.
        2    1    3    3  502    0  0.34391919196E+03  0.12025193159E+04  0.64589781062E+03  0.14076637018E+04  0.25500000920E-02 0.  1.
       -2    1    3    3    0  502 -0.34391919196E+03 -0.12025193159E+04 -0.82276529556E+03  0.14970891247E+04  0.25500000920E-02 0. -1.
</event>
<event>
 5   0  0.9421924E-08  0.2903592E+04  0.7818609E-02  0.8271810E-01
        1   -1    0    0  501    0  0.00000000000E+00  0.00000000000E+00  0.15885189239E+04  0.15885189240E+04  0.50400001928E-02 0.  1.
       -1   -1    0    0    0  501  0.00000000000E+00  0.00000000000E+00 -0.13268408412E+04  0.13268408412E+04  0.50400001928E-02 0. -1.
    10030    2    1    2    0    0  0.00000000000E+00  0.00000000000E+00  0.26167808278E+03  0.29153597651E+04  0.29035921100E+04 0.  0.
        1    1    3    3  502    0  0.10014451785E+04  0.39453495825E+03 -0.84735858944E+03  0.13698784099E+04  0.50400001928E-02 0.  1.
       -1    1    3    3    0  502 -0.10014451785E+04 -0.39453495825E+03  0.11090366722E+04  0.15454813552E+04  0.50400001928E-02 0. -1.
</event>
<event>
 5   0  0.2608591E-07  0.2900213E+04  0.7818609E-02  0.8272814E-01
        2   -1    0    0  501    0  0.00000000000E+00  0.00000000000E+00  0.14746203123E+04  0.14746203123E+04  0.25500000920E-02 0. -1.
       -2   -1    0    0    0  501  0.00000000000E+00  0.00000000000E+00 -0.14259999830E+04  0.14259999830E+04  0.25500000920E-02 0.  1.
    10030    2    1    2    0    0  0.00000000000E+00  0.00000000000E+00  0.48620329369E+02  0.29006202953E+04  0.29002127786E+04 0.  0.
        2    1    3    3  502    0  0.16899227541E+02  0.12751432662E+04 -0.66610024537E+03  0.14387374569E+04  0.25500000920E-02 0.  1.
       -2    1    3    3    0  502 -0.16899227541E+02 -0.12751432662E+04  0.71472057474E+03  0.14618828384E+04  0.25500000920E-02 0. -1.
</event>
<event>
 5   0  0.9395744E-08  0.2906286E+04  0.7818609E-02  0.8271010E-01
       -1   -1    0    0    0  501  0.00000000000E+00  0.00000000000E+00  0.11631534747E+04  0.11631534747E+04  0.50400001928E-02 0.  1.
        1   -1    0    0  501    0  0.00000000000E+00  0.00000000000E+00 -0.18154301844E+04  0.18154301844E+04  0.50400001928E-02 0. -1.
    10030    2    1    2    0    0  0.00000000000E+00  0.00000000000E+00 -0.65227670970E+03  0.29785836591E+04  0.29062855517E+04 0.  0.
        2    1    3    3  502    0  0.12439114273E+04  0.27669221646E+03 -0.10419026453E+04  0.16460362523E+04  0.25500000920E-02 0. -1.
       -2    1    3    3    0  502 -0.12439114273E+04 -0.27669221646E+03  0.38962593561E+03  0.13325474068E+04  0.25500000920E-02 0.  1.
</event>
<event>
 5   0  0.9421924E-08  0.2900485E+04  0.7818609E-02  0.8272733E-01
        1   -1    0    0  501    0  0.00000000000E+00  0.00000000000E+00  0.30980468871E+04  0.30980468871E+04  0.50400001928E-02 0.  1.
       -1   -1    0    0    0  501  0.00000000000E+00  0.00000000000E+00 -0.67888039299E+03  0.67888039301E+03  0.50400001928E-02 0. -1.
    10030    2    1    2    0    0  0.00000000000E+00  0.00000000000E+00  0.24191664941E+04  0.37769272801E+04  0.29004849858E+04 0.  0.
        1    1    3    3  502    0  0.24802938831E+03  0.86171706271E+03  0.26937887665E+04  0.28391147902E+04  0.50400001928E-02 0.  1.
       -1    1    3    3    0  502 -0.24802938831E+03 -0.86171706271E+03 -0.27462227239E+03  0.93781248987E+03  0.50400001928E-02 0. -1.
</event>
<event>
 5   0  0.2546841E-07  0.2899344E+04  0.7818609E-02  0.8273073E-01
       -2   -1    0    0    0  501  0.00000000000E+00  0.00000000000E+00  0.85281271352E+03  0.85281271353E+03  0.25500000920E-02 0. -1.
        2   -1    0    0  501    0  0.00000000000E+00  0.00000000000E+00 -0.24642553564E+04  0.24642553564E+04  0.25500000920E-02 0.  1.
    10030    2    1    2    0    0  0.00000000000E+00  0.00000000000E+00 -0.16114426429E+04  0.33170680699E+04  0.28993435790E+04 0.  0.
        1    1    3    3  502    0 -0.78928361950E+02  0.68694848825E+02 -0.24599293906E+04  0.24621537879E+04  0.50400001928E-02 0.  1.
       -1    1    3    3    0  502  0.78928361950E+02 -0.68694848825E+02  0.84848674770E+03  0.85491428203E+03  0.50400001928E-02 0. -1.
</event>
<event>
 5   0  0.2608591E-07  0.2899560E+04  0.7818609E-02  0.8273008E-01
        2   -1    0    0  501    0  0.00000000000E+00  0.00000000000E+00  0.15136582239E+04  0.15136582239E+04  0.25500000920E-02 0. -1.
       -2   -1    0    0    0  501  0.00000000000E+00  0.00000000000E+00 -0.13885978204E+04  0.13885978204E+04  0.25500000920E-02 0.  1.
    10030    2    1    2    0    0  0.00000000000E+00  0.00000000000E+00  0.12506040347E+03  0.29022560443E+04  0.28995603188E+04 0.  0.
        2    1    3    3  502    0 -0.88497700782E+03  0.51537491991E+03  0.10896747310E+04  0.14953884552E+04  0.25500000920E-02 0. -1.
       -2    1    3    3    0  502  0.88497700782E+03 -0.51537491991E+03 -0.96461432757E+03  0.14068675892E+04  0.25500000920E-02 0.  1.
</event>
<event>
 5   0  0.9421924E-08  0.2899261E+04  0.7818609E-02  0.8273097E-01
       -1   -1    0    0    0  501  0.00000000000E+00  0.00000000000E+00  0.16010188819E+04  0.16010188819E+04  0.50400001928E-02 0.  1.
        1   -1    0    0  501    0  0.00000000000E+00  0.00000000000E+00 -0.13125573917E+04  0.13125573917E+04  0.50400001928E-02 0. -1.
    10030    2    1    2    0    0  0.00000000000E+00  0.00000000000E+00  0.28846149025E+03  0.29135762737E+04  0.28992614010E+04 0.  0.
        1    1    3    3  502    0  0.92314615316E+03  0.10302402875E+04  0.57977031893E+03  0.14999091615E+04  0.50400001928E-02 0.  1.
       -1    1    3    3    0  502 -0.92314615316E+03 -0.10302402875E+04 -0.29130882869E+03  0.14136671121E+04  0.50400001928E-02 0. -1.
</event>
<event>
 5   0  0.9395744E-08  0.2899638E+04  0.7818609E-02  0.8272985E-01
        1   -1    0    0  501    0  0.00000000000E+00  0.00000000000E+00  0.19051281479E+04  0.19051281480E+04  0.50400001928E-02 0.  1.
       -1   -1    0    0    0  501  0.00000000000E+00  0.00000000000E+00 -0.11033249815E+04  0.11033249815E+04  0.50400001928E-02 0. -1.
    10030    2    1    2    0    0  0.00000000000E+00  0.00000000000E+00  0.80180316642E+03  0.30084531295E+04  0.28996382386E+04 0.  0.
        2    1    3    3  502    0 -0.41187658582E+03 -0.80334495429E+03  0.15779210617E+04  0.18179219770E+04  0.25500000920E-02 0.  1.
       -2    1    3    3    0  502  0.41187658582E+03  0.80334495429E+03 -0.77611789532E+03  0.11905311525E+04  0.25500000920E-02 0. -1.
</event>
<event>
 5   0  0.2546841E-07  0.2901880E+04  0.7818609E-02  0.8272318E-01
        2   -1    0    0  501    0  0.00000000000E+00  0.00000000000E+00  0.13486252701E+04  0.13486252701E+04  0.25500000920E-02 0.  1.
       -2   -1    0    0    0  501  0.00000000000E+00  0.00000000000E+00 -0.15610171633E+04  0.15610171633E+04  0.25500000920E-02 0. -1.
    10030    2    1    2    0    0  0.00000000000E+00  0.00000000000E+00 -0.21239189324E+03  0.29096424334E+04  0.29018802136E+04 0.  0.
        1    1    3    3  502    0 -0.47520152857E+03 -0.63140036439E+03 -0.13263092779E+04  0.15438844560E+04  0.50400001928E-02 0. -1.
       -1    1    3    3    0  502  0.47520152857E+03  0.63140036439E+03  0.11139173846E+04  0.13657579774E+04  0.50400001928E-02 0.  1.
</event>
<event>
 5   0  0.9395744E-08  0.2895107E+04  0.7818609E-02  0.8274335E-01
        1   -1    0    0  501    0  0.00000000000E+00  0.00000000000E+00  0.19191141490E+04  0.19191141490E+04  0.50400001928E-02 0.  1.
       -1   -1    0    0    0  501  0.00000000000E+00  0.00000000000E+00 -0.10918640472E+04  0.10918640472E+04  0.50400001928E-02 0. -1.
    10030    2    1    2    0    0  0.00000000000E+00  0.00000000000E+00  0.82725010178E+03  0.30109781963E+04  0.28951074190E+04 0.  0.
        2    1    3    3  502    0  0.30794807005E+03  0.35499070704E+03  0.18375685421E+04  0.18967099311E+04  0.25500000920E-02 0.  1.
       -2    1    3    3    0  502 -0.30794807005E+03 -0.35499070704E+03 -0.10103184403E+04  0.11142682652E+04  0.25500000920E-02 0. -1.
</event>
<event>
 5   0  0.9763851E-08  0.2898212E+04  0.7818609E-02  0.8273410E-01
        1   -1    0    0  501    0  0.00000000000E+00  0.00000000000E+00  0.18729279229E+04  0.18729279229E+04  0.50400001928E-02 0.  1.
       -1   -1    0    0    0  501  0.00000000000E+00  0.00000000000E+00 -0.11211898352E+04  0.11211898352E+04  0.50400001928E-02 0. -1.
    10030    2    1    2    0    0  0.00000000000E+00  0.00000000000E+00  0.75173808766E+03  0.29941177582E+04  0.28982116895E+04 0.  0.
        3    1    3    3  502    0 -0.85278081043E+03 -0.18643838613E+03 -0.81908930529E+03  0.11970387140E+04  0.10100000352E+00 0. -1.
       -3    1    3    3    0  502  0.85278081043E+03  0.18643838613E+03  0.15708273929E+04  0.17970790442E+04  0.10100000352E+00 0.  1.
</event>
<event>
 5   0  0.2492232E-07  0.2900746E+04  0.7818609E-02  0.8272656E-01
       -2   -1    0    0    0  501  0.00000000000E+00  0.00000000000E+00  0.26686964403E+04  0.26686964403E+04  0.25500000920E-02 0.  1.
        2   -1    0    0  501    0  0.00000000000E+00  0.00000000000E+00 -0.78824300434E+03  0.78824300434E+03  0.25500000920E-02 0. -1.
    10030    2    1    2    0    0  0.00000000000E+00  0.00000000000E+00  0.18804534360E+04  0.34569394447E+04  0.29007456282E+04 0.  0.
        4    1    3    3  502    0 -0.98869204323E+03  0.26301441219E+01  0.22048554607E+04  0.24163832662E+04  0.12699999809E+01 0.  1.
       -4    1    3    3    0  502  0.98869204323E+03 -0.26301441219E+01 -0.32440202467E+03  0.10405561785E+04  0.12699999809E+01 0. -1.
</event>
<event>
 5   0  0.2492232E-07  0.2899352E+04  0.7818609E-02  0.8273070E-01
       -2   -1    0    0    0  501  0.00000000000E+00  0.00000000000E+00  0.17792470209E+04  0.17792470209E+04  0.25500000920E-02 0. -1.
        2   -1    0    0  501    0  0.00000000000E+00  0.00000000000E+00 -0.11811513119E+04  0.11811513119E+04  0.25500000920E-02 0.  1.
    10030    2    1    2    0    0  0.00000000000E+00  0.00000000000E+00  0.59809570893E+03  0.29603983328E+04  0.28993516192E+04 0.  0.
        4    1    3    3  502    0 -0.72195371718E+03 -0.88582763622E+02  0.15794423496E+04  0.17388800489E+04  0.12699999809E+01 0. -1.
       -4    1    3    3    0  502  0.72195371718E+03  0.88582763622E+02 -0.98134664072E+03  0.12215182839E+04  0.12699999809E+01 0.  1.
</event>
<event>
 5   0  0.2492232E-07  0.2903909E+04  0.7818609E-02  0.8271715E-01
       -2   -1    0    0    0  501  0.00000000000E+00  0.00000000000E+00  0.18050277151E+04  0.18050277151E+04  0.25500000920E-02 0. -1.
        2   -1    0    0  501    0  0.00000000000E+00  0.00000000000E+00 -0.11679446593E+04  0.11679446593E+04  0.25500000920E-02 0.  1.
    10030    2    1    2    0    0  0.00000000000E+00  0.00000000000E+00  0.63708305578E+03  0.29729723745E+04  0.29039094200E+04 0.  0.
        4    1    3    3  502    0 -0.59252639071E+03 -0.91694687721E+03  0.12985384247E+04  0.16964913064E+04  0.12699999809E+01 0. -1.
       -4    1    3    3    0  502  0.59252639071E+03  0.91694687721E+03 -0.66145536889E+03  0.12764810681E+04  0.12699999809E+01 0.  1.
</event>
<event>
 5   0  0.2534588E-07  0.2899707E+04  0.7818609E-02  0.8272965E-01
        2   -1    0    0  501    0  0.00000000000E+00  0.00000000000E+00  0.20556504650E+04  0.20556504650E+04  0.25500000920E-02 0. -1.
       -2   -1    0    0    0  501  0.00000000000E+00  0.00000000000E+00 -0.10225837746E+04  0.10225837746E+04  0.25500000920E-02 0.  1.
    10030    2    1    2    0    0  0.00000000000E+00  0.00000000000E+00  0.10330666904E+04  0.30782342396E+04  0.28997067519E+04 0.  0.
        3    1    3    3  502    0  0.13085018230E+04 -0.62113937777E+03  0.58437119238E+03  0.15618837499E+04  0.10100000352E+00 0. -1.
       -3    1    3    3    0  502 -0.13085018230E+04  0.62113937777E+03  0.44869549801E+03  0.15163504897E+04  0.10100000352E+00 0.  1.
</event>
<event>
 5   0  0.9421924E-08  0.2899405E+04  0.7818609E-02  0.8273054E-01
       -1   -1    0    0    0  501  0.00000000000E+00  0.00000000000E+00  0.10776473605E+04  0.10776473605E+04  0.50400001928E-02 0. -1.
        1   -1    0    0  501    0  0.00000000000E+00  0.00000000000E+00 -0.19502090682E+04  0.19502090682E+04  0.50400001928E-02 0.  1.
    10030    2    1    2    0    0  0.00000000000E+00  0.00000000000E+00 -0.87256170763E+03  0.30278564287E+04  0.28994052182E+04 0.  0.
        1    1    3    3  502    0  0.12777806143E+04  0.67818661930E+03 -0.53522689101E+03  0.15424422887E+04  0.50400001928E-02 0.  1.
       -1    1    3    3    0  502 -0.12777806143E+04 -0.67818661930E+03 -0.33733481663E+03  0.14854141401E+04  0.50400001928E-02 0. -1.
</event>
<event>
 5   0  0.2608591E-07  0.2901068E+04  0.7818609E-02  0.8272560E-01
        2   -1    0    0  501    0  0.00000000000E+00  0.00000000000E+00  0.19611845133E+04  0.19611845133E+04  0.25500000920E-02 0. -1.
       -2   -1    0    0    0  501  0.00000000000E+00  0.00000000000E+00 -0.10728458268E+04  0.10728458268E+04  0.25500000920E-02 0.  1.
    10030    2    1    2    0    0  0.00000000000E+00  0.00000000000E+00  0.88833868651E+03  0.30340303401E+04  0.29010678177E+04 0.  0.
        2    1    3    3  502    0  0.77163113144E+02  0.12103121882E+04  0.12764040528E+04  0.17606865266E+04  0.25500000920E-02 0. -1.
       -2    1    3    3    0  502 -0.77163113144E+02 -0.12103121882E+04 -0.38806536628E+03  0.12733438135E+04  0.25500000920E-02 0.  1.
</event>
<event>
 5   0  0.2546841E-07  0.2899792E+04  0.7818609E-02  0.8272940E-01
       -2   -1    0    0    0  501  0.00000000000E+00  0.00000000000E+00  0.14817995464E+04  0.14817995464E+04  0.25500000920E-02 0.  1.
        2   -1    0    0  501    0  0.00000000000E+00  0.00000000000E+00 -0.14186788699E+04  0.14186788699E+04  0.25500000920E-02 0. -1.
    10030    2    1    2    0    0  0.00000000000E+00  0.00000000000E+00  0.63120676504E+02  0.29004784164E+04  0.28997915139E+04 0.  0.
        1    1    3    3  502    0  0.10032691965E+04 -0.32071963296E+02 -0.10149283922E+04  0.14274653526E+04  0.50400001928E-02 0. -1.
       -1    1    3    3    0  502 -0.10032691965E+04  0.32071963296E+02  0.10780490687E+04  0.14730130638E+04  0.50400001928E-02 0.  1.
</event>
<event>
 5   0  0.9395744E-08  0.2901862E+04  0.7818609E-02  0.8272324E-01
       -1   -1    0    0    0  501  0.00000000000E+00  0.00000000000E+00  0.84769984860E+03  0.84769984861E+03  0.50400001928E-02 0. -1.
        1   -1    0    0  501    0  0.00000000000E+00  0.00000000000E+00 -0.24834274907E+04  0.24834274907E+04  0.50400001928E-02 0.  1.
    10030    2    1    2    0    0  0.00000000000E+00  0.00000000000E+00 -0.16357276421E+04  0.33311273393E+04  0.29018622351E+04 0.  0.
        2    1    3    3  502    0 -0.64300800805E+03 -0.11997856132E+04 -0.24131585026E+03  0.13824536721E+04  0.25500000920E-02 0. -1.
       -2    1    3    3    0  502  0.64300800805E+03  0.11997856132E+04 -0.13944117918E+04  0.19486736672E+04  0.25500000920E-02 0.  1.
</event>
<event>
 5   0  0.9395744E-08  0.2899022E+04  0.7818609E-02  0.8273168E-01
        1   -1    0    0  501    0  0.00000000000E+00  0.00000000000E+00  0.12381204265E+04  0.12381204266E+04  0.50400001928E-02 0. -1.
       -1   -1    0    0    0  501  0.00000000000E+00  0.00000000000E+00 -0.16969939415E+04  0.16969939415E+04  0.50400001928E-02 0.  1.
    10030    2    1    2    0    0  0.00000000000E+00  0.00000000000E+00 -0.45887351495E+03  0.29351143681E+04  0.28990224992E+04 0.  0.
        2    1    3    3  502    0  0.91797472965E+02 -0.11013402907E+04 -0.11790398784E+04  0.16160174030E+04  0.25500000920E-02 0.  1.
       -2    1    3    3    0  502 -0.91797472965E+02  0.11013402907E+04  0.72016636347E+03  0.13190969650E+04  0.25500000920E-02 0. -1.
</event>
<event>
 5   0  0.2546841E-07  0.2894988E+04  0.7818609E-02  0.8274370E-01
       -2   -1    0    0    0  501  0.00000000000E+00  0.00000000000E+00  0.11025093079E+04  0.11025093079E+04  0.25500000920E-02 0.  1.
        2   -1    0    0  501    0  0.00000000000E+00  0.00000000000E+00 -0.19004271898E+04  0.19004271898E+04  0.25500000920E-02 0. -1.
    10030    2    1    2    0    0  0.00000000000E+00  0.00000000000E+00 -0.79791788194E+03  0.30029364976E+04  0.28949878519E+04 0.  0.
        1    1    3    3  502    0 -0.13264540693E+04 -0.54064832620E+03 -0.18272067646E+03  0.14440110305E+04  0.50400001928E-02 0.  1.
       -1    1    3    3    0  502  0.13264540693E+04  0.54064832620E+03 -0.61519720548E+03  0.15589254672E+04  0.50400001928E-02 0. -1.
</event>
<event>
 5   0  0.2492232E-07  0.2900452E+04  0.7818609E-02  0.8272743E-01
        2   -1    0    0  501    0  0.00000000000E+00  0.00000000000E+00  0.15972938382E+04  0.15972938382E+04  0.25500000920E-02 0. -1.
       -2   -1    0    0    0  501  0.00000000000E+00  0.00000000000E+00 -0.13166987046E+04  0.13166987046E+04  0.25500000920E-02 0.  1.
    10030    2    1    2    0    0  0.00000000000E+00  0.00000000000E+00  0.28059513355E+03  0.29139925428E+04  0.29004515011E+04 0.  0.
        4    1    3    3  502    0  0.11287881400E+04  0.63829039146E+03 -0.51202240867E+03  0.13941828606E+04  0.12699999809E+01 0.  1.
       -4    1    3    3    0  502 -0.11287881400E+04 -0.63829039146E+03  0.79261754223E+03  0.15198096822E+04  0.12699999809E+01 0. -1.
</event>
<event>
 5   0  0.2492232E-07  0.2897180E+04  0.7818609E-02  0.8273717E-01
       -2   -1    0    0    0  501  0.00000000000E+00  0.00000000000E+00  0.24425923619E+04  0.24425923619E+04  0.25500000920E-02 0.  1.
        2   -1    0    0  501    0  0.00000000000E+00  0.00000000000E+00 -0.85909247130E+03  0.85909247130E+03  0.25500000920E-02 0. -1.
    10030    2    1    2    0    0  0.00000000000E+00  0.00000000000E+00  0.15834998906E+04  0.33016848332E+04  0.28971798071E+04 0.  0.
        4    1    3    3  502    0 -0.62959962809E+03  0.71812293985E+03 -0.44950258863E+03  0.10555332484E+04  0.12699999809E+01 0. -1.
       -4    1    3    3    0  502  0.62959962809E+03 -0.71812293985E+03  0.20330024793E+04  0.22461515848E+04  0.12699999809E+01 0.  1.
</event>
<event>
 5   0  0.9763851E-08  0.2900620E+04  0.7818609E-02  0.8272693E-01
        1   -1    0    0  501    0  0.00000000000E+00  0.00000000000E+00  0.19269423872E+04  0.19269423872E+04  0.50400001928E-02 0.  1.
       -1   -1    0    0    0  501  0.00000000000E+00  0.00000000000E+00 -0.10915734321E+04  0.10915734321E+04  0.50400001928E-02 0. -1.
    10030    2    1    2    0    0  0.00000000000E+00  0.00000000000E+00  0.83536895516E+03  0.30185158193E+04  0.29006200130E+04 0.  0.
        3    1    3    3  502    0  0.10794891524E+02 -0.13094636582E+04 -0.23102020369E+03  0.13297300277E+04  0.10100000352E+00 0. -1.
       -3    1    3    3    0  502 -0.10794891524E+02  0.13094636582E+04  0.10663891589E+04  0.16887857916E+04  0.10100000352E+00 0.  1.
</event>
<event>
 5   0  0.9388076E-08  0.2900274E+04  0.7818609E-02  0.8272796E-01
       -1   -1    0    0    0  501  0.00000000000E+00  0.00000000000E+00  0.11146604616E+04  0.11146604616E+04  0.50400001928E-02 0.  1.
        1   -1    0    0  501    0  0.00000000000E+00  0.00000000000E+00 -0.18865816445E+04  0.18865816445E+04  0.50400001928E-02 0. -1.
    10030    2    1    2    0    0  0.00000000000E+00  0.00000000000E+00 -0.77192118294E+03  0.30012421061E+04  0.29002744468E+04 0.  0.
        5    1    3    3  502    0  0.76389631084E+03 -0.15952181762E+03 -0.16507592709E+04  0.18259279954E+04  0.46999998093E+01 0. -1.
       -5    1    3    3    0  502 -0.76389631084E+03  0.15952181762E+03  0.87883808793E+03  0.11753141107E+04  0.46999998093E+01 0.  1.
</event>
<event>
 5   0  0.2608591E-07  0.2895334E+04  0.7818609E-02  0.8274267E-01
        2   -1    0    0  501    0  0.00000000000E+00  0.00000000000E+00  0.11985758938E+04  0.11985758938E+04  0.25500000920E-02 0.  1.
       -2   -1    0    0    0  501  0.00000000000E+00  0.00000000000E+00 -0.17485254233E+04  0.17485254233E+04  0.25500000920E-02 0. -1.
    10030    2    1    2    0    0  0.00000000000E+00  0.00000000000E+00 -0.54994952953E+03  0.29471013170E+04  0.28953344691E+04 0.  0.
        2    1    3    3  502    0 -0.44916870176E+03 -0.70772173742E+03 -0.14763820274E+04  0.16977415796E+04  0.25500000920E-02 0. -1.
       -2    1    3    3    0  502  0.44916870176E+03  0.70772173742E+03  0.92643249792E+03  0.12493597374E+04  0.25500000920E-02 0.  1.
</event>
<event>
 5   0  0.9395744E-08  0.2900232E+04  0.7818609E-02  0.8272809E-01
        1   -1    0    0  501    0  0.00000000000E+00  0.00000000000E+00  0.14810332868E+04  0.14810332868E+04  0.50400001928E-02 0. -1.
       -1   -1    0    0    0  501  0.00000000000E+00  0.00000000000E+00 -0.14198437863E+04  0.14198437863E+04  0.50400001928E-02 0.  1.
    10030    2    1    2    0    0  0.00000000000E+00  0.00000000000E+00  0.61189500473E+02  0.29008770731E+04  0.29002316525E+04 0.  0.
        2    1    3    3  502    0 -0.56915282445E+03  0.13270604444E+04 -0.10289486531E+03  0.14476227803E+04  0.25500000920E-02 0.  1.
       -2    1    3    3    0  502  0.56915282445E+03 -0.13270604444E+04  0.16408436578E+03  0.14532542929E+04  0.25500000920E-02 0. -1.
</event>
<event>
 5   0  0.9395744E-08  0.2899005E+04  0.7818609E-02  0.8273174E-01
       -1   -1    0    0    0  501  0.00000000000E+00  0.00000000000E+00  0.27525456404E+04  0.27525456404E+04  0.50400001928E-02 0.  1.
        1   -1    0    0  501    0  0.00000000000E+00  0.00000000000E+00 -0.76331408023E+03  0.76331408024E+03  0.50400001928E-02 0. -1.
    10030    2    1    2    0    0  0.00000000000E+00  0.00000000000E+00  0.19892315602E+04  0.35158597207E+04  0.28990045490E+04 0.  0.
        2    1    3    3  502    0 -0.10912152358E+04  0.24023292626E+03  0.21144503052E+04  0.23915188988E+04  0.25500000920E-02 0.  1.
       -2    1    3    3    0  502  0.10912152358E+04 -0.24023292626E+03 -0.12521874503E+03  0.11243408219E+04  0.25500000920E-02 0. -1.
</event>
<event>
 5   0  0.9421924E-08  0.2898860E+04  0.7818609E-02  0.8273217E-01
        1   -1    0    0  501    0  0.00000000000E+00  0.00000000000E+00  0.11394368342E+04  0.11394368343E+04  0.50400001928E-02 0. -1.
       -1   -1    0    0    0  501  0.00000000000E+00  0.00000000000E+00 -0.18437594571E+04  0.18437594571E+04  0.50400001928E-02 0.  1.
    10030    2    1    2    0    0  0.00000000000E+00  0.00000000000E+00 -0.70432262285E+03  0.29831962914E+04  0.28988600787E+04 0.  0.
        1    1    3    3  502    0 -0.31628519879E+03 -0.11599816988E+04  0.48086606649E+03  0.12949231802E+04  0.50400001928E-02 0. -1.
       -1    1    3    3    0  502  0.31628519879E+03  0.11599816988E+04 -0.11851886893E+04  0.16882731112E+04  0.50400001928E-02 0.  1.
</event>
<event>
 5   0  0.2608591E-07  0.2903783E+04  0.7818609E-02  0.8271753E-01
        2   -1    0    0  501    0  0.00000000000E+00  0.00000000000E+00  0.19993393421E+04  0.19993393421E+04  0.25500000920E-02 0.  1.
       -2   -1    0    0    0  501  0.00000000000E+00  0.00000000000E+00 -0.10543425432E+04  0.10543425432E+04  0.25500000920E-02 0. -1.
    10030    2    1    2    0    0  0.00000000000E+00  0.00000000000E+00  0.94499679887E+03  0.30536818853E+04  0.29037827238E+04 0.  0.
        2    1    3    3  502    0  0.13947495217E+04  0.26096674096E+02  0.49253176506E+02  0.13958628658E+04  0.25500000920E-02 0. -1.
       -2    1    3    3    0  502 -0.13947495217E+04 -0.26096674096E+02  0.89574362236E+03  0.16578190196E+04  0.25500000920E-02 0.  1.
</event>
<event>
 5   0  0.2492232E-07  0.2914312E+04  0.7818609E-02  0.8268632E-01
       -2   -1    0    0    0  501  0.00000000000E+00  0.00000000000E+00  0.11020787421E+04  0.11020787421E+04  0.25500000920E-02 0. -1.
        2   -1    0    0  501    0  0.00000000000E+00  0.00000000000E+00 -0.19266350252E+04  0.19266350252E+04  0.25500000920E-02 0.  1.
    10030    2    1    2    0    0  0.00000000000E+00  0.00000000000E+00 -0.82455628314E+03  0.30287137673E+04  0.29143119291E+04 0.  0.
        4    1    3    3  502    0 -0.29924323669E+02 -0.94525972533E+03  0.73979164533E+03  0.12007100836E+04  0.12699999809E+01 0. -1.
       -4    1    3    3    0  502  0.29924323669E+02  0.94525972533E+03 -0.15643479285E+04  0.18280036837E+04  0.12699999809E+01 0.  1.
</event>
<event>
 5   0  0.9763851E-08  0.2899109E+04  0.7818609E-02  0.8273143E-01
        1   -1    0    0  501    0  0.00000000000E+00  0.00000000000E+00  0.12779233694E+04  0.12779233694E+04  0.50400001928E-02 0.  1.
       -1   -1    0    0    0  501  0.00000000000E+00  0.00000000000E+00 -0.16442361243E+04  0.16442361243E+04  0.50400001928E-02 0. -1.
    10030    2    1    2    0    0  0.00000000000E+00  0.00000000000E+00 -0.36631275488E+03  0.29221594937E+04  0.28991086686E+04 0.  0.
        3    1    3    3  502    0 -0.49857461409E+03 -0.13244217297E+04  0.13324744465E+03  0.14214163555E+04  0.10100000352E+00 0. -1.
       -3    1    3    3    0  502  0.49857461409E+03  0.13244217297E+04 -0.49956019954E+03  0.15007431383E+04  0.10100000352E+00 0.  1.
</event>
<event>
 5   0  0.2546841E-07  0.2898227E+04  0.7818609E-02  0.8273405E-01
       -2   -1    0    0    0  501  0.00000000000E+00  0.00000000000E+00  0.86012436100E+03  0.86012436100E+03  0.25500000920E-02 0.  1.
        2   -1    0    0  501    0  0.00000000000E+00  0.00000000000E+00 -0.24414259430E+04  0.24414259430E+04  0.25500000920E-02 0. -1.
    10030    2    1    2    0    0  0.00000000000E+00  0.00000000000E+00 -0.15813015820E+04  0.33015503040E+04  0.28982269954E+04 0.  0.
        1    1    3    3  502    0  0.13776188721E+04  0.44289088422E+03 -0.70282562682E+03  0.16087106495E+04  0.50400001928E-02 0. -1.
       -1    1    3    3    0  502 -0.13776188721E+04 -0.44289088422E+03 -0.87847595518E+03  0.16928396545E+04  0.50400001928E-02 0.  1.
</event>
<event>
 5   0  0.9395744E-08  0.2900042E+04  0.7818609E-02  0.8272865E-01
        1   -1    0    0  501    0  0.00000000000E+00  0.00000000000E+00  0.11793998715E+04  0.11793998715E+04  0.50400001928E-02 0. -1.
       -1   -1    0    0    0  501  0.00000000000E+00  0.00000000000E+00 -0.17827379052E+04  0.17827379052E+04  0.50400001928E-02 0.  1.
    10030    2    1    2    0    0  0.00000000000E+00  0.00000000000E+00 -0.60333803373E+03  0.29621377767E+04  0.29000419696E+04 0.  0.
        2    1    3    3  502    0  0.83151832708E+02  0.84543001430E+03 -0.15019453871E+04  0.17255451551E+04  0.25500000920E-02 0.  1.
       -2    1    3    3    0  502 -0.83151832708E+02 -0.84543001430E+03  0.89860735339E+03  0.12365926217E+04  0.25500000920E-02 0. -1.
</event>
<event>
 5   0  0.9421924E-08  0.2899403E+04  0.7818609E-02  0.8273055E-01
        1   -1    0    0  501    0  0.00000000000E+00  0.00000000000E+00  0.14850740116E+04  0.14850740116E+04  0.50400001928E-02 0. -1.
       -1   -1    0    0    0  501  0.00000000000E+00  0.00000000000E+00 -0.14151717508E+04  0.14151717508E+04  0.50400001928E-02 0.  1.
    10030    2    1    2    0    0  0.00000000000E+00  0.00000000000E+00  0.69902260844E+02  0.29002457624E+04  0.28994032414E+04 0.  0.
        1    1    3    3  502    0  0.34963338533E+03  0.63504278568E+03 -0.12208466499E+04  0.14198554104E+04  0.50400001928E-02 0.  1.
       -1    1    3    3    0  502 -0.34963338533E+03 -0.63504278568E+03  0.12907489108E+04  0.14803903520E+04  0.50400001928E-02 0. -1.
</event>
<event>
 5   0  0.9763851E-08  0.2898142E+04  0.7818609E-02  0.8273431E-01
       -1   -1    0    0    0  501  0.00000000000E+00  0.00000000000E+00  0.18565179625E+04  0.18565179625E+04  0.50400001928E-02 0.  1.
        1   -1    0    0  501    0  0.00000000000E+00  0.00000000000E+00 -0.11310455260E+04  0.11310455261E+04  0.50400001928E-02 0. -1.
    10030    2    1    2    0    0  0.00000000000E+00  0.00000000000E+00  0.72547243644E+03  0.29875634885E+04  0.28981417050E+04 0.  0.
        3    1    3    3  502    0  0.31237275717E+03  0.56578544515E+03  0.16997181903E+04  0.18184421481E+04  0.10100000352E+00 0.  1.
       -3    1    3    3    0  502 -0.31237275717E+03 -0.56578544515E+03 -0.97424575390E+03  0.11691213404E+04  0.10100000352E+00 0. -1.
</event>
<event>
 5   0  0.9421924E-08  0.2898953E+04  0.7818609E-02  0.8273189E-01
       -1   -1    0    0    0  501  0.00000000000E+00  0.00000000000E+00  0.89096472469E+03  0.89096472471E+03  0.50400001928E-02 0.  1.
        1   -1    0    0  501    0  0.00000000000E+00  0.00000000000E+00 -0.23580984523E+04  0.23580984523E+04  0.50400001928E-02 0. -1.
    10030    2    1    2    0    0  0.00000000000E+00  0.00000000000E+00 -0.14671337276E+04  0.32490631770E+04  0.28989532859E+04 0.  0.
        1    1    3    3  502    0 -0.57468674319E+03  0.24197472077E+01 -0.22249556849E+04  0.22979770469E+04  0.50400001928E-02 0. -1.
       -1    1    3    3    0  502  0.57468674319E+03 -0.24197472077E+01  0.75782195731E+03  0.95108613016E+03  0.50400001928E-02 0.  1.
</event>
<event>
 5   0  0.9421924E-08  0.2899816E+04  0.7818609E-02  0.8272932E-01
       -1   -1    0    0    0  501  0.00000000000E+00  0.00000000000E+00  0.93025656415E+03  0.93025656416E+03  0.50400001928E-02 0.  1.
        1   -1    0    0  501    0  0.00000000000E+00  0.00000000000E+00 -0.22598419082E+04  0.22598419082E+04  0.50400001928E-02 0. -1.
    10030    2    1    2    0    0  0.00000000000E+00  0.00000000000E+00 -0.13295853440E+04  0.31900984723E+04  0.28998156969E+04 0.  0.
        1    1    3    3  502    0 -0.96565985392E+03  0.44879466958E+03 -0.17473290684E+04  0.20462342198E+04  0.50400001928E-02 0. -1.
       -1    1    3    3    0  502  0.96565985392E+03 -0.44879466958E+03  0.41774372441E+03  0.11438642525E+04  0.50400001928E-02 0.  1.
</event>
<event>
 5   0  0.9395744E-08  0.2900521E+04  0.7818609E-02  0.8272722E-01
       -1   -1    0    0    0  501  0.00000000000E+00  0.00000000000E+00  0.11261704617E+04  0.11261704617E+04  0.50400001928E-02 0.  1.
        1   -1    0    0  501    0  0.00000000000E+00  0.00000000000E+00 -0.18676174652E+04  0.18676174652E+04  0.50400001928E-02 0. -1.
    10030    2    1    2    0    0  0.00000000000E+00  0.00000000000E+00 -0.74144700352E+03  0.29937879270E+04  0.29005210726E+04 0.  0.
        2    1    3    3  502    0 -0.16343323284E+03 -0.78819706073E+03 -0.16158683298E+04  0.18052688131E+04  0.25500000920E-02 0. -1.
       -2    1    3    3    0  502  0.16343323284E+03  0.78819706073E+03  0.87442132631E+03  0.11885191139E+04  0.25500000920E-02 0.  1.
</event>
<event>
 5   0  0.9421924E-08  0.2900107E+04  0.7818609E-02  0.8272846E-01
        1   -1    0    0  501    0  0.00000000000E+00  0.00000000000E+00  0.91893374986E+03  0.91893374988E+03  0.50400001928E-02 0.  1.
       -1   -1    0    0    0  501  0.00000000000E+00  0.00000000000E+00 -0.22881473118E+04  0.22881473118E+04  0.50400001928E-02 0. -1.
    10030    2    1    2    0    0  0.00000000000E+00  0.00000000000E+00 -0.13692135619E+04  0.32070810617E+04  0.29001074390E+04 0.  0.
        1    1    3    3  502    0 -0.36923764687E+03 -0.85334851313E+03 -0.19150921640E+04  0.21288771974E+04  0.50400001928E-02 0. -1.
       -1    1    3    3    0  502  0.36923764687E+03  0.85334851313E+03  0.54587860211E+03  0.10782038643E+04  0.50400001928E-02 0.  1.
</event>
<event>
 5   0  0.2608591E-07  0.2901827E+04  0.7818609E-02  0.8272334E-01
       -2   -1    0    0    0  501  0.00000000000E+00  0.00000000000E+00  0.16063636784E+04  0.16063636784E+04  0.25500000920E-02 0. -1.
        2   -1    0    0  501    0  0.00000000000E+00  0.00000000000E+00 -0.13105068890E+04  0.13105068890E+04  0.25500000920E-02 0.  1.
    10030    2    1    2    0    0  0.00000000000E+00  0.00000000000E+00  0.29585678941E+03  0.29168705674E+04  0.29018274703E+04 0.  0.
        2    1    3    3  502    0  0.79167293264E+03  0.51303394468E+03  0.12560045135E+04  0.15708269155E+04  0.25500000920E-02 0. -1.
       -2    1    3    3    0  502 -0.79167293264E+03 -0.51303394468E+03 -0.96014772408E+03  0.13460436519E+04  0.25500000920E-02 0.  1.
</event>
<event>
 5   0  0.9395744E-08  0.2901881E+04  0.7818609E-02  0.8272318E-01
        1   -1    0    0  501    0  0.00000000000E+00  0.00000000000E+00  0.20547447980E+04  0.20547447980E+04  0.50400001928E-02 0. -1.
       -1   -1    0    0    0  501  0.00000000000E+00  0.00000000000E+00 -0.10245691856E+04  0.10245691856E+04  0.50400001928E-02 0.  1.
    10030    2    1    2    0    0  0.00000000000E+00  0.00000000000E+00  0.10301756124E+04  0.30793139836E+04  0.29018809102E+04 0.  0.
        2    1    3    3  502    0  0.30080355051E+03 -0.59214855533E+03 -0.85379043038E+03  0.10817027256E+04  0.25500000920E-02 0.  1.
       -2    1    3    3    0  502 -0.30080355051E+03  0.59214855533E+03  0.18839660428E+04  0.19976112580E+04  0.25500000920E-02 0. -1.
</event>
<event>
 5   0  0.9388076E-08  0.2900630E+04  0.7818609E-02  0.8272690E-01
        1   -1    0    0  501    0  0.00000000000E+00  0.00000000000E+00  0.19073638761E+04  0.19073638761E+04  0.50400001928E-02 0. -1.
       -1   -1    0    0    0  501  0.00000000000E+00  0.00000000000E+00 -0.11027854092E+04  0.11027854092E+04  0.50400001928E-02 0.  1.
    10030    2    1    2    0    0  0.00000000000E+00  0.00000000000E+00  0.80457846697E+03  0.30101492853E+04  0.29006296231E+04 0.  0.
        5    1    3    3  502    0 -0.67834095259E+02  0.39832328298E+03 -0.10431869989E+04  0.11187153824E+04  0.46999998093E+01 0.  1.
       -5    1    3    3    0  502  0.67834095259E+02 -0.39832328298E+03  0.18477654659E+04  0.18914339029E+04  0.46999998093E+01 0. -1.
</event>
<event>
 5   0  0.2546841E-07  0.2898984E+04  0.7818609E-02  0.8273180E-01
       -2   -1    0    0    0  501  0.00000000000E+00  0.00000000000E+00  0.14823999124E+04  0.14823999124E+04  0.25500000920E-02 0. -1.
        2   -1    0    0  501    0  0.00000000000E+00  0.00000000000E+00 -0.14173143102E+04  0.14173143102E+04  0.25500000920E-02 0.  1.
    10030    2    1    2    0    0  0.00000000000E+00  0.00000000000E+00  0.65085602242E+02  0.28997142226E+04  0.28989836904E+04 0.  0.
        1    1    3    3  502    0 -0.61300309222E+03  0.12681815712E+04  0.37463676460E+03  0.14575355892E+04  0.50400001928E-02 0. -1.
       -1    1    3    3    0  502  0.61300309222E+03 -0.12681815712E+04 -0.30955116235E+03  0.14421786334E+04  0.50400001928E-02 0.  1.
</event>
<event>
 5   0  0.2546841E-07  0.2899595E+04  0.7818609E-02  0.8272998E-01
       -2   -1    0    0    0  501  0.00000000000E+00  0.00000000000E+00  0.10452722081E+04  0.10452722081E+04  0.25500000920E-02 0. -1.
        2   -1    0    0  501    0  0.00000000000E+00  0.00000000000E+00 -0.20108761298E+04  0.20108761298E+04  0.25500000920E-02 0.  1.
    10030    2    1    2    0    0  0.00000000000E+00  0.00000000000E+00 -0.96560392170E+03  0.30561483379E+04  0.28995950976E+04 0.  0.
        1    1    3    3  502    0  0.74215325075E+03 -0.12437855948E+04 -0.41515837971E+03  0.15067018729E+04  0.50400001928E-02 0. -1.
       -1    1    3    3    0  502 -0.74215325075E+03  0.12437855948E+04 -0.55044554199E+03  0.15494464651E+04  0.50400001928E-02 0.  1.
</event>
<event>
 5   0  0.2608591E-07  0.2901463E+04  0.7818609E-02  0.8272442E-01
       -2   -1    0    0    0  501  0.00000000000E+00  0.00000000000E+00  0.11720971031E+04  0.11720971031E+04  0.25500000920E-02 0.  1.
        2   -1    0    0  501    0  0.00000000000E+00  0.00000000000E+00 -0.17956043007E+04  0.17956043007E+04  0.25500000920E-02 0. -1.
    10030    2    1    2    0    0  0.00000000000E+00  0.00000000000E+00 -0.62350719762E+03  0.29677014038E+04  0.29014634922E+04 0.  0.
        2    1    3    3  502    0  0.78902645876E+03  0.12067162116E+04 -0.14715807526E+03  0.14492695633E+04  0.25500000920E-02 0.  1.
       -2    1    3    3    0  502 -0.78902645876E+03 -0.12067162116E+04 -0.47634912236E+03  0.15184318405E+04  0.25500000920E-02 0. -1.
</event>
<event>
 5   0  0.2678723E-07  0.2899851E+04  0.7818609E-02  0.8272922E-01
        2   -1    0    0  501    0  0.00000000000E+00  0.00000000000E+00  0.15920200174E+04  0.15920200174E+04  0.25500000920E-02 0. -1.
       -2   -1    0    0    0  501  0.00000000000E+00  0.00000000000E+00 -0.13205132982E+04  0.13205132982E+04  0.25500000920E-02 0.  1.
    10030    2    1    2    0    0  0.00000000000E+00  0.00000000000E+00  0.27150671917E+03  0.29125333157E+04  0.28998507576E+04 0.  0.
        5    1    3    3  502    0  0.38124997457E+01 -0.79393877037E+03 -0.10827749350E+04  0.13426752981E+04  0.46999998093E+01 0.  1.
       -5    1    3    3    0  502 -0.38124997457E+01  0.79393877037E+03  0.13542816542E+04  0.15698580175E+04  0.46999998093E+01 0. -1.
</event>
<event>
 5   0  0.9443352E-08  0.2886346E+04  0.7818609E-02  0.8276951E-01
        1   -1    0    0  501    0  0.00000000000E+00  0.00000000000E+00  0.15948712717E+04  0.15948712717E+04  0.50400001928E-02 0. -1.
       -1   -1    0    0    0  501  0.00000000000E+00  0.00000000000E+00 -0.13059040513E+04  0.13059040513E+04  0.50400001928E-02 0.  1.
    10030    2    1    2    0    0  0.00000000000E+00  0.00000000000E+00  0.28896722041E+03  0.29007753231E+04  0.28863463791E+04 0.  0.
        4    1    3    3  502    0  0.53098832726E+03 -0.28876444195E+03 -0.11725689605E+04  0.13191865246E+04  0.12699999809E+01 0.  1.
       -4    1    3    3    0  502 -0.53098832726E+03  0.28876444195E+03  0.14615361809E+04  0.15815887985E+04  0.12699999809E+01 0. -1.
</event>
<event>
 5   0  0.2546841E-07  0.2891341E+04  0.7818609E-02  0.8275458E-01
        2   -1    0    0  501    0  0.00000000000E+00  0.00000000000E+00  0.17003714288E+04  0.17003714288E+04  0.25500000920E-02 0. -1.
       -2   -1    0    0    0  501  0.00000000000E+00  0.00000000000E+00 -0.12291214508E+04  0.12291214508E+04  0.25500000920E-02 0.  1.
    10030    2    1    2    0    0  0.00000000000E+00  0.00000000000E+00  0.47124997803E+03  0.29294928796E+04  0.28913408637E+04 0.  0.
        1    1    3    3  502    0  0.14042146833E+04  0.29212125188E+03  0.52101523774E+02  0.14352241189E+04  0.50400001928E-02 0.  1.
       -1    1    3    3    0  502 -0.14042146833E+04 -0.29212125188E+03  0.41914845425E+03  0.14942687607E+04  0.50400001928E-02 0. -1.
</event>
<event>
 5   0  0.9421924E-08  0.2899838E+04  0.7818609E-02  0.8272926E-01
       -1   -1    0    0    0  501  0.00000000000E+00  0.00000000000E+00  0.32088148829E+04  0.32088148830E+04  0.50400001928E-02 0. -1.
        1   -1    0    0  501    0  0.00000000000E+00  0.00000000000E+00 -0.65515307753E+03  0.65515307755E+03  0.50400001928E-02 0.  1.
    10030    2    1    2    0    0  0.00000000000E+00  0.00000000000E+00  0.25536618054E+04  0.38639679605E+04  0.28998378891E+04 0.  0.
        1    1    3    3  502    0  0.34862558200E+03  0.13814257608E+04  0.16353341849E+04  0.21689155874E+04  0.50400001928E-02 0. -1.
       -1    1    3    3    0  502 -0.34862558200E+03 -0.13814257608E+04  0.91832762048E+03  0.16950523731E+04  0.50400001928E-02 0.  1.
</event>
<event>
 5   0  0.9395744E-08  0.2900173E+04  0.7818609E-02  0.8272826E-01
        1   -1    0    0  501    0  0.00000000000E+00  0.00000000000E+00  0.15435081497E+04  0.15435081497E+04  0.50400001928E-02 0. -1.
       -1   -1    0    0    0  501  0.00000000000E+00  0.00000000000E+00 -0.13623195161E+04  0.13623195162E+04  0.50400001928E-02 0.  1.
    10030    2    1    2    0    0  0.00000000000E+00  0.00000000000E+00  0.18118863359E+03  0.29058276659E+04  0.29001732884E+04 0.  0.
        2    1    3    3  502    0 -0.13002315700E+02  0.16390730457E+03  0.15341380194E+04  0.15429238890E+04  0.25500000920E-02 0. -1.
       -2    1    3    3    0  502  0.13002315700E+02 -0.16390730457E+03 -0.13529493858E+04  0.13629037769E+04  0.25500000920E-02 0.  1.
</event>
<event>
 5   0  0.9763851E-08  0.2900003E+04  0.7818609E-02  0.8272876E-01
       -1   -1    0    0    0  501  0.00000000000E+00  0.00000000000E+00  0.11701950639E+04  0.11701950639E+04  0.50400001928E-02 0. -1.
        1   -1    0    0  501    0  0.00000000000E+00  0.00000000000E+00 -0.17967132471E+04  0.17967132471E+04  0.50400001928E-02 0.  1.
    10030    2    1    2    0    0  0.00000000000E+00  0.00000000000E+00 -0.62651818318E+03  0.29669083110E+04  0.29000034296E+04 0.  0.
        3    1    3    3  502    0  0.53865756921E+03  0.16991549645E+03 -0.16795398231E+04  0.17719698870E+04  0.10100000352E+00 0.  1.
       -3    1    3    3    0  502 -0.53865756921E+03 -0.16991549645E+03  0.10530216399E+04  0.11949384240E+04  0.10100000352E+00 0. -1.
</event>
<event>
 5   0  0.9388076E-08  0.2899623E+04  0.7818609E-02  0.8272990E-01
       -1   -1    0    0    0  501  0.00000000000E+00  0.00000000000E+00  0.14433555982E+04  0.14433555982E+04  0.50400001928E-02 0.  1.
        1   -1    0    0  501    0  0.00000000000E+00  0.00000000000E+00 -0.14562958567E+04  0.14562958567E+04  0.50400001928E-02 0. -1.
    10030    2    1    2    0    0  0.00000000000E+00  0.00000000000E+00 -0.12940258492E+02  0.28996514550E+04  0.28996225806E+04 0.  0.
        5    1    3    3  502    0 -0.11771801908E+04 -0.80595218520E+03 -0.26457841645E+03  0.14509775859E+04  0.46999998093E+01 0. -1.
       -5    1    3    3    0  502  0.11771801908E+04  0.80595218520E+03  0.25163815796E+03  0.14486738691E+04  0.46999998093E+01 0.  1.
</event>
<event>
 5   0  0.9395744E-08  0.2898566E+04  0.7818609E-02  0.8273304E-01
       -1   -1    0    0    0  501  0.00000000000E+00  0.00000000000E+00  0.90062469570E+03  0.90062469571E+03  0.50400001928E-02 0. -1.
        1   -1    0    0  501    0  0.00000000000E+00  0.00000000000E+00 -0.23321831583E+04  0.23321831583E+04  0.50400001928E-02 0.  1.
    10030    2    1    2    0    0  0.00000000000E+00  0.00000000000E+00 -0.14315584626E+04  0.32328078540E+04  0.28985663679E+04 0.  0.
        2    1    3    3  502    0  0.49785026598E+02  0.13813393581E+04 -0.12017341358E+04  0.18315954532E+04  0.25500000920E-02 0. -1.
       -2    1    3    3    0  502 -0.49785026598E+02 -0.13813393581E+04 -0.22982432682E+03  0.14012124008E+04  0.25500000920E-02 0.  1.
</event>
<event>
 5   0  0.2546841E-07  0.2898624E+04  0.7818609E-02  0.8273287E-01
        2   -1    0    0  501    0  0.00000000000E+00  0.00000000000E+00  0.18203475600E+04  0.18203475600E+04  0.25500000920E-02 0. -1.
       -2   -1    0    0    0  501  0.00000000000E+00  0.00000000000E+00 -0.11539036924E+04  0.11539036924E+04  0.25500000920E-02 0.  1.
    10030    2    1    2    0    0  0.00000000000E+00  0.00000000000E+00  0.66644386766E+03  0.29742512524E+04  0.28986243433E+04 0.  0.
        1    1    3    3  502    0  0.52647063251E+03  0.90205104540E+03  0.13642456098E+04  0.17181482763E+04  0.50400001928E-02 0. -1.
       -1    1    3    3    0  502 -0.52647063251E+03 -0.90205104540E+03 -0.69780174210E+03  0.12561029762E+04  0.50400001928E-02 0.  1.
</event>
<event>
 5   0  0.2534588E-07  0.2902686E+04  0.7818609E-02  0.8272079E-01
        2   -1    0    0  501    0  0.00000000000E+00  0.00000000000E+00  0.21639621064E+04  0.21639621064E+04  0.25500000920E-02 0.  1.
       -2   -1    0    0    0  501  0.00000000000E+00  0.00000000000E+00 -0.97339837989E+03  0.97339837990E+03  0.25500000920E-02 0. -1.
    10030    2    1    2    0    0  0.00000000000E+00  0.00000000000E+00  0.11905637265E+04  0.31373604863E+04  0.29026864857E+04 0.  0.
        3    1    3    3  502    0  0.96588112417E+03 -0.82861744799E+03  0.13494498838E+04  0.18548714835E+04  0.10100000352E+00 0.  1.
       -3    1    3    3    0  502 -0.96588112417E+03  0.82861744799E+03 -0.15888615731E+03  0.12824890028E+04  0.10100000352E+00 0. -1.
</event>
<event>
 5   0  0.9421924E-08  0.2900496E+04  0.7818609E-02  0.8272730E-01
        1   -1    0    0  501    0  0.00000000000E+00  0.00000000000E+00  0.12269449084E+04  0.12269449084E+04  0.50400001928E-02 0. -1.
       -1   -1    0    0    0  501  0.00000000000E+00  0.00000000000E+00 -0.17141918436E+04  0.17141918436E+04  0.50400001928E-02 0.  1.
    10030    2    1    2    0    0  0.00000000000E+00  0.00000000000E+00 -0.48724693528E+03  0.29411367520E+04  0.29004957883E+04 0.  0.
        1    1    3    3  502    0  0.10331597957E+03  0.14458690294E+04 -0.19819039323E+03  0.14630416514E+04  0.50400001928E-02 0.  1.
       -1    1    3    3    0  502 -0.10331597957E+03 -0.14458690294E+04 -0.28905654206E+03  0.14780951006E+04  0.50400001928E-02 0. -1.
</event>
<event>
 5   0  0.9395744E-08  0.2896453E+04  0.7818609E-02  0.8273934E-01
       -1   -1    0    0    0  501  0.00000000000E+00  0.00000000000E+00  0.12070688100E+04  0.12070688100E+04  0.50400001928E-02 0. -1.
        1   -1    0    0  501    0  0.00000000000E+00  0.00000000000E+00 -0.17375644676E+04  0.17375644676E+04  0.50400001928E-02 0.  1.
    10030    2    1    2    0    0  0.00000000000E+00  0.00000000000E+00 -0.53049565766E+03  0.29446332776E+04  0.28964529164E+04 0.  0.
        2    1    3    3  502    0 -0.28745071993E+03 -0.56511382375E+02 -0.17071271345E+04  0.17320809756E+04  0.25500000920E-02 0.  1.
       -2    1    3    3    0  502  0.28745071993E+03  0.56511382375E+02  0.11766314768E+04  0.12125523020E+04  0.25500000920E-02 0. -1.
</event>
<event>
 5   0  0.9421924E-08  0.2901017E+04  0.7818609E-02  0.8272575E-01
       -1   -1    0    0    0  501  0.00000000000E+00  0.00000000000E+00  0.10885222930E+04  0.10885222930E+04  0.50400001928E-02 0.  1.
        1   -1    0    0  501    0  0.00000000000E+00  0.00000000000E+00 -0.19328730301E+04  0.19328730301E+04  0.50400001928E-02 0. -1.
    10030    2    1    2    0    0  0.00000000000E+00  0.00000000000E+00 -0.84435073709E+03  0.30213953231E+04  0.29010173269E+04 0.  0.
        1    1    3    3  502    0 -0.10498258929E+04  0.99948658498E+03 -0.36640387755E+03  0.14951119157E+04  0.50400001928E-02 0. -1.
       -1    1    3    3    0  502  0.10498258929E+04 -0.99948658498E+03 -0.47794685954E+03  0.15262834074E+04  0.50400001928E-02 0.  1.
</event>
<event>
 5   0  0.9443352E-08  0.2899940E+04  0.7818609E-02  0.8272895E-01
        1   -1    0    0  501    0  0.00000000000E+00  0.00000000000E+00  0.26976635416E+04  0.26976635416E+04  0.50400001928E-02 0.  1.
       -1   -1    0    0    0  501  0.00000000000E+00  0.00000000000E+00 -0.77934568810E+03  0.77934568812E+03  0.50400001928E-02 0. -1.
    10030    2    1    2    0    0  0.00000000000E+00  0.00000000000E+00  0.19183178535E+04  0.34770092297E+04  0.28999396194E+04 0.  0.
        4    1    3    3  502    0 -0.30756050652E+02 -0.10734051318E+04 -0.20902419020E+03  0.10940005652E+04  0.12699999809E+01 0. -1.
       -4    1    3    3    0  502  0.30756050652E+02  0.10734051318E+04  0.21273420437E+04  0.23830086645E+04  0.12699999809E+01 0.  1.
</event>
<event>
 5   0  0.9763851E-08  0.2890332E+04  0.7818609E-02  0.8275760E-01
       -1   -1    0    0    0  501  0.00000000000E+00  0.00000000000E+00  0.24985454527E+04  0.24985454527E+04  0.50400001928E-02 0. -1.
        1   -1    0    0  501    0  0.00000000000E+00  0.00000000000E+00 -0.83588798487E+03  0.83588798488E+03  0.50400001928E-02 0.  1.
    10030    2    1    2    0    0  0.00000000000E+00  0.00000000000E+00  0.16626574678E+04  0.33344334376E+04  0.28903315544E+04 0.  0.
        3    1    3    3  502    0 -0.11025005566E+03 -0.43844441525E+03  0.24148655076E+04  0.24568198977E+04  0.10100000352E+00 0. -1.
       -3    1    3    3    0  502  0.11025005566E+03  0.43844441525E+03 -0.75220803975E+03  0.87761353984E+03  0.10100000352E+00 0.  1.
</event>
<event>
 5   0  0.2546841E-07  0.2903357E+04  0.7818609E-02  0.8271879E-01
       -2   -1    0    0    0  501  0.00000000000E+00  0.00000000000E+00  0.13569415335E+04  0.13569415335E+04  0.25500000920E-02 0.  1.
        2   -1    0    0  501    0  0.00000000000E+00  0.00000000000E+00 -0.15530294692E+04  0.15530294692E+04  0.25500000920E-02 0. -1.
    10030    2    1    2    0    0  0.00000000000E+00  0.00000000000E+00 -0.19608793569E+03  0.29099710026E+04  0.29033568085E+04 0.  0.
        1    1    3    3  502    0 -0.76145719384E+03  0.42638126317E+03  0.10646643803E+04  0.13766365832E+04  0.50400001928E-02 0.  1.
       -1    1    3    3    0  502  0.76145719384E+03 -0.42638126317E+03 -0.12607523159E+04  0.15333344194E+04  0.50400001928E-02 0. -1.
</event>
<event>
 5   0  0.9388076E-08  0.2898611E+04  0.7818609E-02  0.8273291E-01
       -1   -1    0    0    0  501  0.00000000000E+00  0.00000000000E+00  0.90223478616E+03  0.90223478617E+03  0.50400001928E-02 0.  1.
        1   -1    0    0  501    0  0.00000000000E+00  0.00000000000E+00 -0.23280932083E+04  0.23280932083E+04  0.50400001928E-02 0. -1.
    10030    2    1    2    0    0  0.00000000000E+00  0.00000000000E+00 -0.14258584221E+04  0.32303279945E+04  0.28986111695E+04 0.  0.
        5    1    3    3  502    0  0.33162303482E+03  0.13999331651E+04 -0.51773390926E+03  0.15290052959E+04  0.46999998093E+01 0.  1.
       -5    1    3    3    0  502 -0.33162303482E+03 -0.13999331651E+04 -0.90812451287E+03  0.17013226986E+04  0.46999998093E+01 0. -1.
</event>
<event>
 5   0  0.2608591E-07  0.2899496E+04  0.7818609E-02  0.8273028E-01
       -2   -1    0    0    0  501  0.00000000000E+00  0.00000000000E+00  0.20058638974E+04  0.20058638974E+04  0.25500000920E-02 0. -1.
        2   -1    0    0  501    0  0.00000000000E+00  0.00000000000E+00 -0.10478122061E+04  0.10478122061E+04  0.25500000920E-02 0.  1.
    10030    2    1    2    0    0  0.00000000000E+00  0.00000000000E+00  0.95805169130E+03  0.30536761036E+04  0.28994955944E+04 0.  0.
        2    1    3    3  502    0 -0.12455581604E+04  0.20857598844E+02  0.12600234190E+04  0.17718660183E+04  0.25500000920E-02 0. -1.
       -2    1    3    3    0  502  0.12455581604E+04 -0.20857598844E+02 -0.30197172771E+03  0.12818100853E+04  0.25500000920E-02 0.  1.
</event>
<event>
 5   0  0.9443352E-08  0.2900298E+04  0.7818609E-02  0.8272789E-01
       -1   -1    0    0    0  501  0.00000000000E+00  0.00000000000E+00  0.14831317267E+04  0.14831317267E+04  0.50400001928E-02 0. -1.
        1   -1    0    0  501    0  0.00000000000E+00  0.00000000000E+00 -0.14178994421E+04  0.14178994421E+04  0.50400001928E-02 0.  1.
    10030    2    1    2    0    0  0.00000000000E+00  0.00000000000E+00  0.65232284658E+02  0.29010311688E+04  0.29002976729E+04 0.  0.
        4    1    3    3  502    0 -0.12286037553E+04  0.10607206382E+03  0.79583700728E+03  0.14676772893E+04  0.12699999809E+01 0. -1.
       -4    1    3    3    0  502  0.12286037553E+04 -0.10607206382E+03 -0.73060472262E+03  0.14333538795E+04  0.12699999809E+01 0.  1.
</event>
<event>
 5   0  0.2534588E-07  0.2904175E+04  0.7818609E-02  0.8271637E-01
        2   -1    0    0  501    0  0.00000000000E+00  0.00000000000E+00  0.15554368361E+04  0.15554368361E+04  0.25500000920E-02 0.  1.
       -2   -1    0    0    0  501  0.00000000000E+00  0.00000000000E+00 -0.13556046492E+04  0.13556046492E+04  0.25500000920E-02 0. -1.
    10030    2    1    2    0    0  0.00000000000E+00  0.00000000000E+00  0.19983218696E+03  0.29110414853E+04  0.29041745172E+04 0.  0.
        3    1    3    3  502    0 -0.43846457692E+03 -0.75839810959E+03  0.12607297325E+04  0.15352062879E+04  0.10100000352E+00 0.  1.
       -3    1    3    3    0  502  0.43846457692E+03  0.75839810959E+03 -0.10608975456E+04  0.13758351973E+04  0.10100000352E+00 0. -1.
</event>
<event>
 5   0  0.9421924E-08  0.2901996E+04  0.7818609E-02  0.8272284E-01
       -1   -1    0    0    0  501  0.00000000000E+00  0.00000000000E+00  0.10548880576E+04  0.10548880577E+04  0.50400001928E-02 0. -1.
        1   -1    0    0  501    0  0.00000000000E+00  0.00000000000E+00 -0.19958472418E+04  0.19958472418E+04  0.50400001928E-02 0.  1.
    10030    2    1    2    0    0  0.00000000000E+00  0.00000000000E+00 -0.94095918411E+03  0.30507352994E+04  0.29019961545E+04 0.  0.
        1    1    3    3  502    0  0.67249526269E+03 -0.95369992032E+03  0.43604161903E+03  0.12457631034E+04  0.50400001928E-02 0. -1.
       -1    1    3    3    0  502 -0.67249526269E+03  0.95369992032E+03 -0.13770008031E+04  0.18049721960E+04  0.50400001928E-02 0.  1.
</event>
<event>
 5   0  0.2534588E-07  0.2898519E+04  0.7818609E-02  0.8273318E-01
       -2   -1    0    0    0  501  0.00000000000E+00  0.00000000000E+00  0.96220957024E+03  0.96220957024E+03  0.25500000920E-02 0. -1.
        2   -1    0    0  501    0  0.00000000000E+00  0.00000000000E+00 -0.21828430036E+04  0.21828430036E+04  0.25500000920E-02 0.  1.
    10030    2    1    2    0    0  0.00000000000E+00  0.00000000000E+00 -0.12206334333E+04  0.31450525738E+04  0.28985185377E+04 0.  0.
        3    1    3    3  502    0  0.64534846274E+03 -0.78724856461E+03  0.50898357129E+03  0.11381121328E+04  0.10100000352E+00 0. -1.
       -3    1    3    3    0  502 -0.64534846274E+03  0.78724856461E+03 -0.17296170046E+04  0.20069404410E+04  0.10100000352E+00 0.  1.
</event>
<event>
 5   0  0.9388076E-08  0.2899626E+04  0.7818609E-02  0.8272989E-01
       -1   -1    0    0    0  501  0.00000000000E+00  0.00000000000E+00  0.12482338784E+04  0.12482338784E+04  0.50400001928E-02 0. -1.
        1   -1    0    0  501    0  0.00000000000E+00  0.00000000000E+00 -0.16839452656E+04  0.16839452656E+04  0.50400001928E-02 0.  1.
    10030    2    1    2    0    0  0.00000000000E+00  0.00000000000E+00 -0.43571138713E+03  0.29321791440E+04  0.28996258586E+04 0.  0.
        5    1    3    3  502    0 -0.54404388267E+03 -0.13321396337E+04 -0.39691904809E+03  0.14926977493E+04  0.46999998093E+01 0.  1.
       -5    1    3    3    0  502  0.54404388267E+03  0.13321396337E+04 -0.38792339037E+02  0.14394813947E+04  0.46999998093E+01 0. -1.
</event>
<event>
 5   0  0.9388076E-08  0.2899132E+04  0.7818609E-02  0.8273136E-01
        1   -1    0    0  501    0  0.00000000000E+00  0.00000000000E+00  0.22293627290E+04  0.22293627290E+04  0.50400001928E-02 0.  1.
       -1   -1    0    0    0  501  0.00000000000E+00  0.00000000000E+00 -0.94252984655E+03  0.94252984656E+03  0.50400001928E-02 0. -1.
    10030    2    1    2    0    0  0.00000000000E+00  0.00000000000E+00  0.12868328825E+04  0.31718925756E+04  0.28991315326E+04 0.  0.
        5    1    3    3  502    0 -0.47772725075E+03 -0.18508015882E+03  0.21269958969E+04  0.21878326322E+04  0.46999998093E+01 0.  1.
       -5    1    3    3    0  502  0.47772725075E+03  0.18508015882E+03 -0.84016301442E+03  0.98405994334E+03  0.46999998093E+01 0. -1.
</event>
<event>
 5   0  0.9763851E-08  0.2901002E+04  0.7818609E-02  0.8272579E-01
        1   -1    0    0  501    0  0.00000000000E+00  0.00000000000E+00  0.25467673417E+04  0.25467673417E+04  0.50400001928E-02 0.  1.
       -1   -1    0    0    0  501  0.00000000000E+00  0.00000000000E+00 -0.82612689017E+03  0.82612689018E+03  0.50400001928E-02 0. -1.
    10030    2    1    2    0    0  0.00000000000E+00  0.00000000000E+00  0.17206404516E+04  0.33728942319E+04  0.29010018849E+04 0.  0.
        3    1    3    3  502    0  0.10211242320E+04  0.10237194890E+04  0.72645364506E+03  0.16181567285E+04  0.10100000352E+00 0.  1.
       -3    1    3    3    0  502 -0.10211242320E+04 -0.10237194890E+04  0.99418680649E+03  0.17547375034E+04  0.10100000352E+00 0. -1.
</event>
<event>
 5   0  0.2678723E-07  0.2900460E+04  0.7818609E-02  0.8272741E-01
       -2   -1    0    0    0  501  0.00000000000E+00  0.00000000000E+00  0.15652996453E+04  0.15652996453E+04  0.25500000920E-02 0.  1.
        2   -1    0    0  501    0  0.00000000000E+00  0.00000000000E+00 -0.13436196039E+04  0.13436196039E+04  0.25500000920E-02 0. -1.
    10030    2    1    2    0    0  0.00000000000E+00  0.00000000000E+00  0.22168004146E+03  0.29089192492E+04  0.29004601631E+04 0.  0.
        5    1    3    3  502    0 -0.17168562736E+03  0.23934295499E+03  0.15349758174E+04  0.15629887570E+04  0.46999998093E+01 0.  1.
       -5    1    3    3    0  502  0.17168562736E+03 -0.23934295499E+03 -0.13132957759E+04  0.13459304922E+04  0.46999998093E+01 0. -1.
</event>
<event>
 5   0  0.2546841E-07  0.2900742E+04  0.7818609E-02  0.8272657E-01
       -2   -1    0    0    0  501  0.00000000000E+00  0.00000000000E+00  0.85883975735E+03  0.85883975736E+03  0.25500000920E-02 0. -1.
        2   -1    0    0  501    0  0.00000000000E+00  0.00000000000E+00 -0.24493233402E+04  0.24493233402E+04  0.25500000920E-02 0.  1.
    10030    2    1    2    0    0  0.00000000000E+00  0.00000000000E+00 -0.15904835829E+04  0.33081630976E+04  0.29007421555E+04 0.  0.
        1    1    3    3  502    0  0.31961297702E+03 -0.67423032727E+03  0.62316270936E+03  0.97214749480E+03  0.50400001928E-02 0. -1.
       -1    1    3    3    0  502 -0.31961297702E+03  0.67423032727E+03 -0.22136462922E+04  0.23360156028E+04  0.50400001928E-02 0.  1.
</event>
<event>
 5   0  0.2546841E-07  0.2899332E+04  0.7818609E-02  0.8273076E-01
        2   -1    0    0  501    0  0.00000000000E+00  0.00000000000E+00  0.11056105769E+04  0.11056105769E+04  0.25500000920E-02 0.  1.
       -2   -1    0    0    0  501  0.00000000000E+00  0.00000000000E+00 -0.19007885493E+04  0.19007885493E+04  0.25500000920E-02 0. -1.
    10030    2    1    2    0    0  0.00000000000E+00  0.00000000000E+00 -0.79517797232E+03  0.30063991262E+04  0.28993322849E+04 0.  0.
        1    1    3    3  502    0 -0.11291039559E+04 -0.92521209071E+02 -0.13354765591E+04  0.17512662726E+04  0.50400001928E-02 0. -1.
       -1    1    3    3    0  502  0.11291039559E+04  0.92521209071E+02  0.54029858679E+03  0.12551328537E+04  0.50400001928E-02 0.  1.
</event>
<event>
 5   0  0.9395744E-08  0.2899333E+04  0.7818609E-02  0.8273076E-01
       -1   -1    0    0    0  501  0.00000000000E+00  0.00000000000E+00  0.12211504662E+04  0.12211504662E+04  0.50400001928E-02 0. -1.
        1   -1    0    0  501    0  0.00000000000E+00  0.00000000000E+00 -0.17209452052E+04  0.17209452052E+04  0.50400001928E-02 0.  1.
    10030    2    1    2    0    0  0.00000000000E+00  0.00000000000E+00 -0.49979473904E+03  0.29420956714E+04  0.28993330541E+04 0.  0.
        2    1    3    3  502    0 -0.52315163368E+03 -0.75692291687E+03  0.88685406708E+03  0.12779397757E+04  0.25500000920E-02 0. -1.
       -2    1    3    3    0  502  0.52315163368E+03  0.75692291687E+03 -0.13866488061E+04  0.16641558958E+04  0.25500000920E-02 0.  1.
</event>
<event>
 5   0  0.9395744E-08  0.2899976E+04  0.7818609E-02  0.8272885E-01
        1   -1    0    0  501    0  0.00000000000E+00  0.00000000000E+00  0.22574292681E+04  0.22574292682E+04  0.50400001928E-02 0. -1.
       -1   -1    0    0    0  501  0.00000000000E+00  0.00000000000E+00 -0.93135397958E+03  0.93135397960E+03  0.50400001928E-02 0.  1.
    10030    2    1    2    0    0  0.00000000000E+00  0.00000000000E+00  0.13260752886E+04  0.31887832477E+04  0.28999763672E+04 0.  0.
        2    1    3    3  502    0 -0.81741723446E+03 -0.81341544749E+03  0.16295824153E+04  0.19963352609E+04  0.25500000920E-02 0. -1.
       -2    1    3    3    0  502  0.81741723446E+03  0.81341544749E+03 -0.30350712677E+03  0.11924479869E+04  0.25500000920E-02 0.  1.
</event>
<event>
 5   0  0.2608591E-07  0.2900332E+04  0.7818609E-02  0.8272779E-01
       -2   -1    0    0    0  501  0.00000000000E+00  0.00000000000E+00  0.87102990593E+03  0.87102990594E+03  0.25500000920E-02 0. -1.
        2   -1    0    0  501    0  0.00000000000E+00  0.00000000000E+00 -0.24143612167E+04  0.24143612167E+04  0.25500000920E-02 0.  1.
    10030    2    1    2    0    0  0.00000000000E+00  0.00000000000E+00 -0.15433313108E+04  0.32853911227E+04  0.29003315835E+04 0.  0.
        2    1    3    3  502    0  0.38281448295E+03  0.12298967980E+04 -0.15262835300E+04  0.19971816332E+04  0.25500000920E-02 0.  1.
       -2    1    3    3    0  502 -0.38281448295E+03 -0.12298967980E+04 -0.17047780846E+02  0.12882094895E+04  0.25500000920E-02 0. -1.
</event>
<event>
 5   0  0.9388076E-08  0.2899292E+04  0.7818609E-02  0.8273088E-01
       -1   -1    0    0    0  501  0.00000000000E+00  0.00000000000E+00  0.22571606413E+04  0.22571606413E+04  0.50400001928E-02 0. -1.
        1   -1    0    0  501    0  0.00000000000E+00  0.00000000000E+00 -0.93102503914E+03  0.93102503915E+03  0.50400001928E-02 0.  1.
    10030    2    1    2    0    0  0.00000000000E+00  0.00000000000E+00  0.13261356021E+04  0.31881856804E+04  0.28992916889E+04 0.  0.
        5    1    3    3  502    0 -0.88725304709E+03 -0.44793004497E+03  0.18234864158E+04  0.20767725184E+04  0.46999998093E+01 0. -1.
       -5    1    3    3    0  502  0.88725304709E+03  0.44793004497E+03 -0.49735081367E+03  0.11114131620E+04  0.46999998093E+01 0.  1.
</event>
<event>
 5   0  0.9443352E-08  0.2899679E+04  0.7818609E-02  0.8272973E-01
       -1   -1    0    0    0  501  0.00000000000E+00  0.00000000000E+00  0.12128286886E+04  0.12128286886E+04  0.50400001928E-02 0. -1.
        1   -1    0    0  501    0  0.00000000000E+00  0.00000000000E+00 -0.17331666280E+04  0.17331666280E+04  0.50400001928E-02 0.  1.
    10030    2    1    2    0    0  0.00000000000E+00  0.00000000000E+00 -0.52033793936E+03  0.29459953166E+04  0.28996787468E+04 0.  0.
        4    1    3    3  502    0  0.42669513857E+03  0.79187695641E+03  0.89504850845E+03  0.12689567766E+04  0.12699999809E+01 0. -1.
       -4    1    3    3    0  502 -0.42669513857E+03 -0.79187695641E+03 -0.14153864478E+04  0.16770385401E+04  0.12699999809E+01 0.  1.
</event>
<event>
 5   0  0.9763851E-08  0.2902135E+04  0.7818609E-02  0.8272242E-01
       -1   -1    0    0    0  501  0.00000000000E+00  0.00000000000E+00  0.16874366501E+04  0.16874366501E+04  0.50400001928E-02 0. -1.
        1   -1    0    0  501    0  0.00000000000E+00  0.00000000000E+00 -0.12478081006E+04  0.12478081006E+04  0.50400001928E-02 0.  1.
    10030    2    1    2    0    0  0.00000000000E+00  0.00000000000E+00  0.43962854954E+03  0.29352447507E+04  0.29021351597E+04 0.  0.
        3    1    3    3  502    0 -0.12607992889E+04 -0.70991602531E+03  0.33061547689E+03  0.14842177110E+04  0.10100000352E+00 0. -1.
       -3    1    3    3    0  502  0.12607992889E+04  0.70991602531E+03  0.10901307265E+03  0.14510270397E+04  0.10100000352E+00 0.  1.
</event>
<event>
 5   0  0.9388076E-08  0.2900423E+04  0.7818609E-02  0.8272752E-01
       -1   -1    0    0    0  501  0.00000000000E+00  0.00000000000E+00  0.19419916176E+04  0.19419916176E+04  0.50400001928E-02 0.  1.
        1   -1    0    0  501    0  0.00000000000E+00  0.00000000000E+00 -0.10829674356E+04  0.10829674356E+04  0.50400001928E-02 0. -1.
    10030    2    1    2    0    0  0.00000000000E+00  0.00000000000E+00  0.85902418201E+03  0.30249590531E+04  0.29004231981E+04 0.  0.
        5    1    3    3  502    0  0.83347749121E+03  0.77494582547E+03  0.13669181369E+04  0.17786829520E+04  0.46999998093E+01 0.  1.
       -5    1    3    3    0  502 -0.83347749121E+03 -0.77494582547E+03 -0.50789395493E+03  0.12462761011E+04  0.46999998093E+01 0. -1.
</event>
<event>
 5   0  0.2608591E-07  0.2899784E+04  0.7818609E-02  0.8272942E-01
        2   -1    0    0  501    0  0.00000000000E+00  0.00000000000E+00  0.10384128128E+04  0.10384128128E+04  0.25500000920E-02 0. -1.
       -2   -1    0    0    0  501  0.00000000000E+00  0.00000000000E+00 -0.20244228793E+04  0.20244228793E+04  0.25500000920E-02 0.  1.
    10030    2    1    2    0    0  0.00000000000E+00  0.00000000000E+00 -0.98601006648E+03  0.30628356922E+04  0.28997838930E+04 0.  0.
        2    1    3    3  502    0  0.10661975699E+04 -0.42459619005E+03  0.44289217889E+03  0.12301270930E+04  0.25500000920E-02 0. -1.
       -2    1    3    3    0  502 -0.10661975699E+04  0.42459619005E+03 -0.14289022454E+04  0.18327085992E+04  0.25500000920E-02 0.  1.
</event>
<event>
 5   0  0.2608591E-07  0.2899167E+04  0.7818609E-02  0.8273125E-01
        2   -1    0    0  501    0  0.00000000000E+00  0.00000000000E+00  0.17567736584E+04  0.17567736584E+04  0.25500000920E-02 0. -1.
       -2   -1    0    0    0  501  0.00000000000E+00  0.00000000000E+00 -0.11961088637E+04  0.11961088637E+04  0.25500000920E-02 0.  1.
    10030    2    1    2    0    0  0.00000000000E+00  0.00000000000E+00  0.56066479470E+03  0.29528825220E+04  0.28991671523E+04 0.  0.
        2    1    3    3  502    0 -0.74893537975E+03  0.13710633928E+03  0.15367145661E+04  0.17149909647E+04  0.25500000920E-02 0. -1.
       -2    1    3    3    0  502  0.74893537975E+03 -0.13710633928E+03 -0.97604977144E+03  0.12378915573E+04  0.25500000920E-02 0.  1.
</event>
<event>
 5   0  0.9443352E-08  0.2899489E+04  0.7818609E-02  0.8273029E-01
       -1   -1    0    0    0  501  0.00000000000E+00  0.00000000000E+00  0.11657901227E+04  0.11657901227E+04  0.50400001928E-02 0.  1.
        1   -1    0    0  501    0  0.00000000000E+00  0.00000000000E+00 -0.18028626107E+04  0.18028626107E+04  0.50400001928E-02 0. -1.
    10030    2    1    2    0    0  0.00000000000E+00  0.00000000000E+00 -0.63707248807E+03  0.29686527334E+04  0.28994892130E+04 0.  0.
        4    1    3    3  502    0 -0.61977387463E+02  0.12935305703E+02 -0.18014458962E+04  0.18025585840E+04  0.12699999809E+01 0. -1.
       -4    1    3    3    0  502  0.61977387463E+02 -0.12935305703E+02  0.11643734082E+04  0.11660941494E+04  0.12699999809E+01 0.  1.
</event>
<event>
 5   0  0.9421924E-08  0.2899399E+04  0.7818609E-02  0.8273056E-01
       -1   -1    0    0    0  501  0.00000000000E+00  0.00000000000E+00  0.91967504172E+03  0.91967504173E+03  0.50400001928E-02 0.  1.
        1   -1    0    0  501    0  0.00000000000E+00  0.00000000000E+00 -0.22851854408E+04  0.22851854408E+04  0.50400001928E-02 0. -1.
    10030    2    1    2    0    0  0.00000000000E+00  0.00000000000E+00 -0.13655103991E+04  0.32048604825E+04  0.28993985691E+04 0.  0.
        1    1    3    3  502    0  0.11939417440E+04 -0.76781191767E+03 -0.35748064543E+03  0.14638389395E+04  0.50400001928E-02 0.  1.
       -1    1    3    3    0  502 -0.11939417440E+04  0.76781191767E+03 -0.10080297536E+04  0.17410215430E+04  0.50400001928E-02 0. -1.
</event>
<event>
 5   0  0.9421924E-08  0.2899556E+04  0.7818609E-02  0.8273010E-01
       -1   -1    0    0    0  501  0.00000000000E+00  0.00000000000E+00  0.18270743578E+04  0.18270743578E+04  0.50400001928E-02 0.  1.
        1   -1    0    0  501    0  0.00000000000E+00  0.00000000000E+00 -0.11503945825E+04  0.11503945825E+04  0.50400001928E-02 0. -1.
    10030    2    1    2    0    0  0.00000000000E+00  0.00000000000E+00  0.67667977531E+03  0.29774689403E+04  0.28995561336E+04 0.  0.
        1    1    3    3  502    0 -0.70888586940E+03  0.54814508314E+03 -0.83196567679E+03  0.12227628942E+04  0.50400001928E-02 0. -1.
       -1    1    3    3    0  502  0.70888586940E+03 -0.54814508314E+03  0.15086454521E+04  0.17547060461E+04  0.50400001928E-02 0.  1.
</event>
<event>
 5   0  0.9388076E-08  0.2900364E+04  0.7818609E-02  0.8272769E-01
        1   -1    0    0  501    0  0.00000000000E+00  0.00000000000E+00  0.16178655363E+04  0.16178655363E+04  0.50400001928E-02 0.  1.
       -1   -1    0    0    0  501  0.00000000000E+00  0.00000000000E+00 -0.12998777257E+04  0.12998777257E+04  0.50400001928E-02 0. -1.
    10030    2    1    2    0    0  0.00000000000E+00  0.00000000000E+00  0.31798781063E+03  0.29177432620E+04  0.29003636833E+04 0.  0.
        5    1    3    3  502    0 -0.75339618579E+03 -0.96977359533E+03  0.93493848953E+03  0.15434373030E+04  0.46999998093E+01 0.  1.
       -5    1    3    3    0  502  0.75339618579E+03  0.96977359533E+03 -0.61695067890E+03  0.13743059591E+04  0.46999998093E+01 0. -1.
</event>
<event>
 5   0  0.2546841E-07  0.2900120E+04  0.7818609E-02  0.8272842E-01
        2   -1    0    0  501    0  0.00000000000E+00  0.00000000000E+00  0.11145680261E+04  0.11145680261E+04  0.25500000920E-02 0. -1.
       -2   -1    0    0    0  501  0.00000000000E+00  0.00000000000E+00 -0.18865368673E+04  0.18865368673E+04  0.25500000920E-02 0.  1.
    10030    2    1    2    0    0  0.00000000000E+00  0.00000000000E+00 -0.77196884113E+03  0.30011048934E+04  0.29001197716E+04 0.  0.
        1    1    3    3  502    0  0.70223144497E+03  0.81206039091E+03  0.62268880321E+03  0.12410932384E+04  0.50400001928E-02 0. -1.
       -1    1    3    3    0  502 -0.70223144497E+03 -0.81206039091E+03 -0.13946576443E+04  0.17600116550E+04  0.50400001928E-02 0.  1.
</event>
<event>
 5   0  0.2534588E-07  0.2900506E+04  0.7818609E-02  0.8272727E-01
       -2   -1    0    0    0  501  0.00000000000E+00  0.00000000000E+00  0.11846631824E+04  0.11846631824E+04  0.25500000920E-02 0.  1.
        2   -1    0    0  501    0  0.00000000000E+00  0.00000000000E+00 -0.17753851414E+04  0.17753851414E+04  0.25500000920E-02 0. -1.
    10030    2    1    2    0    0  0.00000000000E+00  0.00000000000E+00 -0.59072195898E+03  0.29600483237E+04  0.29005057569E+04 0.  0.
        3    1    3    3  502    0  0.67475172743E+03  0.87998851533E+03  0.65847206490E+03  0.12896724977E+04  0.10100000352E+00 0.  1.
       -3    1    3    3    0  502 -0.67475172743E+03 -0.87998851533E+03 -0.12491940239E+04  0.16703758261E+04  0.10100000352E+00 0. -1.
</event>
<event>
 5   0  0.2546841E-07  0.2899514E+04  0.7818609E-02  0.8273022E-01
       -2   -1    0    0    0  501  0.00000000000E+00  0.00000000000E+00  0.11385138219E+04  0.11385138219E+04  0.25500000920E-02 0. -1.
        2   -1    0    0  501    0  0.00000000000E+00  0.00000000000E+00 -0.18460873451E+04  0.18460873451E+04  0.25500000920E-02 0.  1.
    10030    2    1    2    0    0  0.00000000000E+00  0.00000000000E+00 -0.70757352318E+03  0.29846011670E+04  0.28995144137E+04 0.  0.
        1    1    3    3  502    0 -0.11470599151E+04 -0.33001245063E+03 -0.12008204461E+04  0.16931108677E+04  0.50400001928E-02 0.  1.
       -1    1    3    3    0  502  0.11470599151E+04  0.33001245063E+03  0.49324692294E+03  0.12914902994E+04  0.50400001928E-02 0. -1.
</event>
<event>
 5   0  0.2534588E-07  0.2900746E+04  0.7818609E-02  0.8272655E-01
        2   -1    0    0  501    0  0.00000000000E+00  0.00000000000E+00  0.18282247270E+04  0.18282247270E+04  0.25500000920E-02 0. -1.
       -2   -1    0    0    0  501  0.00000000000E+00  0.00000000000E+00 -0.11506148399E+04  0.11506148399E+04  0.25500000920E-02 0.  1.
    10030    2    1    2    0    0  0.00000000000E+00  0.00000000000E+00  0.67760988718E+03  0.29788395669E+04  0.29007464567E+04 0.  0.
        3    1    3    3  502    0  0.87462519714E+03 -0.84761318184E+03 -0.46990172084E+03  0.13054596811E+04  0.10100000352E+00 0.  1.
       -3    1    3    3    0  502 -0.87462519714E+03  0.84761318184E+03  0.11475116080E+04  0.16733798858E+04  0.10100000352E+00 0. -1.
</event>
<event>
 5   0  0.2678723E-07  0.2900248E+04  0.7818609E-02  0.8272804E-01
       -2   -1    0    0    0  501  0.00000000000E+00  0.00000000000E+00  0.91111412429E+03  0.91111412429E+03  0.25500000920E-02 0. -1.
        2   -1    0    0  501    0  0.00000000000E+00  0.00000000000E+00 -0.23080090620E+04  0.23080090620E+04  0.25500000920E-02 0.  1.
    10030    2    1    2    0    0  0.00000000000E+00  0.00000000000E+00 -0.13968949377E+04  0.32191231863E+04  0.29002480276E+04 0.  0.
        5    1    3    3  502    0  0.61747446234E+03 -0.39928954650E+02 -0.21541167148E+04  0.22412295608E+04  0.46999998093E+01 0.  1.
       -5    1    3    3    0  502 -0.61747446234E+03  0.39928954650E+02  0.75722177712E+03  0.97789362550E+03  0.46999998093E+01 0. -1.
</event>
<event>
 5   0  0.9395744E-08  0.2898746E+04  0.7818609E-02  0.8273251E-01
        1   -1    0    0  501    0  0.00000000000E+00  0.00000000000E+00  0.12345652795E+04  0.12345652795E+04  0.50400001928E-02 0.  1.
       -1   -1    0    0    0  501  0.00000000000E+00  0.00000000000E+00 -0.17015557262E+04  0.17015557262E+04  0.50400001928E-02 0. -1.
    10030    2    1    2    0    0  0.00000000000E+00  0.00000000000E+00 -0.46699044670E+03  0.29361210058E+04  0.28987456741E+04 0.  0.
        2    1    3    3  502    0 -0.46371797627E+03  0.90943158926E+03 -0.12756350060E+04  0.16338129775E+04  0.25500000920E-02 0. -1.
       -2    1    3    3    0  502  0.46371797627E+03 -0.90943158926E+03  0.80864455930E+03  0.13023080282E+04  0.25500000920E-02 0.  1.
</event>
<event>
 5   0  0.9763851E-08  0.2902730E+04  0.7818609E-02  0.8272066E-01
       -1   -1    0    0    0  501  0.00000000000E+00  0.00000000000E+00  0.80831031826E+03  0.80831031827E+03  0.50400001928E-02 0.  1.
        1   -1    0    0  501    0  0.00000000000E+00  0.00000000000E+00 -0.26060040922E+04  0.26060040922E+04  0.50400001928E-02 0. -1.
    10030    2    1    2    0    0  0.00000000000E+00  0.00000000000E+00 -0.17976937740E+04  0.34143144105E+04  0.29027297478E+04 0.  0.
        3    1    3    3  502    0 -0.32124017984E+03 -0.13525644702E+04 -0.13892626023E+04  0.19653693006E+04  0.10100000352E+00 0. -1.
       -3    1    3    3    0  502  0.32124017984E+03  0.13525644702E+04 -0.40843117161E+03  0.14489451099E+04  0.10100000352E+00 0.  1.
</event>
<event>
 5   0  0.2546841E-07  0.2900436E+04  0.7818609E-02  0.8272748E-01
        2   -1    0    0  501    0  0.00000000000E+00  0.00000000000E+00  0.14955849956E+04  0.14955849956E+04  0.25500000920E-02 0. -1.
       -2   -1    0    0    0  501  0.00000000000E+00  0.00000000000E+00 -0.14062267337E+04  0.14062267337E+04  0.25500000920E-02 0.  1.
    10030    2    1    2    0    0  0.00000000000E+00  0.00000000000E+00  0.89358261923E+02  0.29018117292E+04  0.29004355557E+04 0.  0.
        1    1    3    3  502    0  0.56290547253E+03 -0.10248198755E+04  0.90299833439E+03  0.14773369082E+04  0.50400001928E-02 0. -1.
       -1    1    3    3    0  502 -0.56290547253E+03  0.10248198755E+04 -0.81364007246E+03  0.14244748211E+04  0.50400001928E-02 0.  1.
</event>
<event>
 5   0  0.9763851E-08  0.2901083E+04  0.7818609E-02  0.8272555E-01
       -1   -1    0    0    0  501  0.00000000000E+00  0.00000000000E+00  0.15072331819E+04  0.15072331819E+04  0.50400001928E-02 0.  1.
        1   -1    0    0  501    0  0.00000000000E+00  0.00000000000E+00 -0.13959819125E+04  0.13959819125E+04  0.50400001928E-02 0. -1.
    10030    2    1    2    0    0  0.00000000000E+00  0.00000000000E+00  0.11125126944E+03  0.29032150944E+04  0.29010827357E+04 0.  0.
        3    1    3    3  502    0  0.72002208684E+03 -0.12535461433E+04 -0.63879520170E+02  0.14470281069E+04  0.10100000352E+00 0. -1.
       -3    1    3    3    0  502 -0.72002208684E+03  0.12535461433E+04  0.17513078961E+03  0.14561869875E+04  0.10100000352E+00 0.  1.
</event>
<event>
 5   0  0.9395744E-08  0.2898842E+04  0.7818609E-02  0.8273222E-01
       -1   -1    0    0    0  501  0.00000000000E+00  0.00000000000E+00  0.13726195586E+04  0.13726195586E+04  0.50400001928E-02 0.  1.
        1   -1    0    0  501    0  0.00000000000E+00  0.00000000000E+00 -0.15305197733E+04  0.15305197733E+04  0.50400001928E-02 0. -1.
    10030    2    1    2    0    0  0.00000000000E+00  0.00000000000E+00 -0.15790021472E+03  0.29031393319E+04  0.28988420968E+04 0.  0.
        2    1    3    3  502    0 -0.13233222095E+04 -0.38215247855E+03  0.37293844702E+03  0.14269916862E+04  0.25500000920E-02 0. -1.
       -2    1    3    3    0  502  0.13233222095E+04  0.38215247855E+03 -0.53083866174E+03  0.14761476457E+04  0.25500000920E-02 0.  1.
</event>
<event>
 5   0  0.9443352E-08  0.2899980E+04  0.7818609E-02  0.8272884E-01
        1   -1    0    0  501    0  0.00000000000E+00  0.00000000000E+00  0.82397149706E+03  0.82397149708E+03  0.50400001928E-02 0.  1.
       -1   -1    0    0    0  501  0.00000000000E+00  0.00000000000E+00 -0.25516301096E+04  0.25516301096E+04  0.50400001928E-02 0. -1.
    10030    2    1    2    0    0  0.00000000000E+00  0.00000000000E+00 -0.17276586125E+04  0.33756016067E+04  0.28999796423E+04 0.  0.
        4    1    3    3  502    0 -0.82400668957E+01  0.93619365550E+03  0.42498773597E+03  0.10281744249E+04  0.12699999809E+01 0.  1.
       -4    1    3    3    0  502  0.82400668957E+01 -0.93619365550E+03 -0.21526463485E+04  0.23474271818E+04  0.12699999809E+01 0. -1.
</event>
<event>
 5   0  0.2492232E-07  0.2904513E+04  0.7818609E-02  0.8271536E-01
       -2   -1    0    0    0  501  0.00000000000E+00  0.00000000000E+00  0.10531320347E+04  0.10531320347E+04  0.25500000920E-02 0.  1.
        2   -1    0    0  501    0  0.00000000000E+00  0.00000000000E+00 -0.20026440236E+04  0.20026440236E+04  0.25500000920E-02 0. -1.
    10030    2    1    2    0    0  0.00000000000E+00  0.00000000000E+00 -0.94951198892E+03  0.30557760583E+04  0.29045127477E+04 0.  0.
        4    1    3    3  502    0 -0.10239480905E+04  0.10260672896E+04 -0.38205843964E+03  0.14990844002E+04  0.12699999809E+01 0. -1.
       -4    1    3    3    0  502  0.10239480905E+04 -0.10260672896E+04 -0.56745354929E+03  0.15566916581E+04  0.12699999809E+01 0.  1.
</event>
<event>
 5   0  0.8407500E-08  0.2900317E+04  0.7818609E-02  0.8272783E-01
        3   -1    0    0  501    0  0.00000000000E+00  0.00000000000E+00  0.11872400435E+04  0.11872400478E+04  0.10100000352E+00 0.  1.
       -3   -1    0    0    0  501  0.00000000000E+00  0.00000000000E+00 -0.17713017516E+04  0.17713017545E+04  0.10100000352E+00 0. -1.
    10030    2    1    2    0    0  0.00000000000E+00  0.00000000000E+00 -0.58406170806E+03  0.29585418023E+04  0.29003174856E+04 0.  0.
        2    1    3    3  502    0 -0.10892707455E+04 -0.85243165228E+03  0.15238710422E+03  0.13915359530E+04  0.25500000920E-02 0. -1.
       -2    1    3    3    0  502  0.10892707455E+04  0.85243165228E+03 -0.73644881228E+03  0.15670058494E+04  0.25500000920E-02 0.  1.
</event>
<event>
 5   0  0.9388076E-08  0.2899932E+04  0.7818609E-02  0.8272898E-01
        1   -1    0    0  501    0  0.00000000000E+00  0.00000000000E+00  0.14609574726E+04  0.14609574726E+04  0.50400001928E-02 0.  1.
       -1   -1    0    0    0  501  0.00000000000E+00  0.00000000000E+00 -0.14390571729E+04  0.14390571729E+04  0.50400001928E-02 0. -1.
    10030    2    1    2    0    0  0.00000000000E+00  0.00000000000E+00  0.21900299718E+02  0.29000146455E+04  0.28999319511E+04 0.  0.
        5    1    3    3  502    0 -0.17409341697E+03 -0.60232030877E+03  0.13183821569E+04  0.14598807739E+04  0.46999998093E+01 0.  1.
       -5    1    3    3    0  502  0.17409341697E+03  0.60232030877E+03 -0.12964818572E+04  0.14401338717E+04  0.46999998093E+01 0. -1.
</event>
<event>
 5   0  0.9388076E-08  0.2900087E+04  0.7818609E-02  0.8272851E-01
       -1   -1    0    0    0  501  0.00000000000E+00  0.00000000000E+00  0.97305345334E+03  0.97305345336E+03  0.50400001928E-02 0. -1.
        1   -1    0    0  501    0  0.00000000000E+00  0.00000000000E+00 -0.21608543328E+04  0.21608543328E+04  0.50400001928E-02 0.  1.
    10030    2    1    2    0    0  0.00000000000E+00  0.00000000000E+00 -0.11878008795E+04  0.31339077862E+04  0.29000874268E+04 0.  0.
        5    1    3    3  502    0 -0.32376776516E+03 -0.68391866140E+03 -0.19305751080E+04  0.20735748452E+04  0.46999998093E+01 0.  1.
       -5    1    3    3    0  502  0.32376776516E+03  0.68391866140E+03  0.74277422850E+03  0.10603329410E+04  0.46999998093E+01 0. -1.
</event>
<event>
 5   0  0.2678723E-07  0.2901534E+04  0.7818609E-02  0.8272421E-01
       -2   -1    0    0    0  501  0.00000000000E+00  0.00000000000E+00  0.12181382542E+04  0.12181382542E+04  0.25500000920E-02 0. -1.
        2   -1    0    0  501    0  0.00000000000E+00  0.00000000000E+00 -0.17278214678E+04  0.17278214678E+04  0.25500000920E-02 0.  1.
    10030    2    1    2    0    0  0.00000000000E+00  0.00000000000E+00 -0.50968321354E+03  0.29459597220E+04  0.29015343709E+04 0.  0.
        5    1    3    3  502    0 -0.11869509856E+04  0.77564344576E+03 -0.56650725128E+03  0.15269014221E+04  0.46999998093E+01 0.  1.
       -5    1    3    3    0  502  0.11869509856E+04 -0.77564344576E+03  0.56824037739E+02  0.14190582999E+04  0.46999998093E+01 0. -1.
</event>
<event>
 5   0  0.2546841E-07  0.2898706E+04  0.7818609E-02  0.8273263E-01
       -2   -1    0    0    0  501  0.00000000000E+00  0.00000000000E+00  0.14688690538E+04  0.14688690538E+04  0.25500000920E-02 0.  1.
        2   -1    0    0  501    0  0.00000000000E+00  0.00000000000E+00 -0.14300958512E+04  0.14300958512E+04  0.25500000920E-02 0. -1.
    10030    2    1    2    0    0  0.00000000000E+00  0.00000000000E+00  0.38773202604E+02  0.28989649049E+04  0.28987056006E+04 0.  0.
        1    1    3    3  502    0 -0.13459029612E+04 -0.38035677615E+03 -0.36077564677E+03  0.14443978418E+04  0.50400001928E-02 0. -1.
       -1    1    3    3    0  502  0.13459029612E+04  0.38035677615E+03  0.39954884938E+03  0.14545670631E+04  0.50400001928E-02 0.  1.
</event>
<event>
 5   0  0.9395744E-08  0.2900127E+04  0.7818609E-02  0.8272840E-01
       -1   -1    0    0    0  501  0.00000000000E+00  0.00000000000E+00  0.14141348950E+04  0.14141348950E+04  0.50400001928E-02 0.  1.
        1   -1    0    0  501    0  0.00000000000E+00  0.00000000000E+00 -0.14869046607E+04  0.14869046607E+04  0.50400001928E-02 0. -1.
    10030    2    1    2    0    0  0.00000000000E+00  0.00000000000E+00 -0.72769765639E+02  0.29010395557E+04  0.29001267326E+04 0.  0.
        2    1    3    3  502    0 -0.10422324087E+04  0.81438948633E+03  0.55811281830E+03  0.14356073792E+04  0.25500000920E-02 0.  1.
       -2    1    3    3    0  502  0.10422324087E+04 -0.81438948633E+03 -0.63088258394E+03  0.14654321765E+04  0.25500000920E-02 0. -1.
</event>
<event>
 5   0  0.8407500E-08  0.2900670E+04  0.7818609E-02  0.8272678E-01
        4   -1    0    0  501    0  0.00000000000E+00  0.00000000000E+00  0.10677441994E+04  0.10677449547E+04  0.12699999809E+01 0. -1.
       -4   -1    0    0    0  501  0.00000000000E+00  0.00000000000E+00 -0.19700131159E+04  0.19700135252E+04  0.12699999809E+01 0.  1.
    10030    2    1    2    0    0  0.00000000000E+00  0.00000000000E+00 -0.90226891649E+03  0.30377584799E+04  0.29006701613E+04 0.  0.
        5    1    3    3  502    0  0.90604040591E+03  0.11272907381E+04 -0.33758446794E+03  0.14851528501E+04  0.46999998093E+01 0.  1.
       -5    1    3    3    0  502 -0.90604040591E+03 -0.11272907381E+04 -0.56468444855E+03  0.15526056298E+04  0.46999998093E+01 0. -1.
</event>
<event>
 5   0  0.2546841E-07  0.2899722E+04  0.7818609E-02  0.8272960E-01
        2   -1    0    0  501    0  0.00000000000E+00  0.00000000000E+00  0.15107138058E+04  0.15107138058E+04  0.25500000920E-02 0. -1.
       -2   -1    0    0    0  501  0.00000000000E+00  0.00000000000E+00 -0.13914598534E+04  0.13914598534E+04  0.25500000920E-02 0.  1.
    10030    2    1    2    0    0  0.00000000000E+00  0.00000000000E+00  0.11925395240E+03  0.29021736593E+04  0.28997224770E+04 0.  0.
        1    1    3    3  502    0 -0.40735506142E+03 -0.11066943615E+04 -0.78452363667E+03  0.14163996232E+04  0.50400001928E-02 0.  1.
       -1    1    3    3    0  502  0.40735506142E+03  0.11066943615E+04  0.90377758907E+03  0.14857740361E+04  0.50400001928E-02 0. -1.
</event>
<event>
 5   0  0.2546841E-07  0.2897479E+04  0.7818609E-02  0.8273628E-01
        2   -1    0    0  501    0  0.00000000000E+00  0.00000000000E+00  0.16238246556E+04  0.16238246556E+04  0.25500000920E-02 0. -1.
       -2   -1    0    0    0  501  0.00000000000E+00  0.00000000000E+00 -0.12925327133E+04  0.12925327133E+04  0.25500000920E-02 0.  1.
    10030    2    1    2    0    0  0.00000000000E+00  0.00000000000E+00  0.33129194233E+03  0.29163573689E+04  0.28974792410E+04 0.  0.
        1    1    3    3  502    0  0.11179225089E+04 -0.35315765760E+03 -0.69100174389E+03  0.13608653413E+04  0.50400001928E-02 0.  1.
       -1    1    3    3    0  502 -0.11179225089E+04  0.35315765760E+03  0.10222936862E+04  0.15554920276E+04  0.50400001928E-02 0. -1.
</event>
<event>
 5   0  0.2534588E-07  0.2900993E+04  0.7818609E-02  0.8272582E-01
        2   -1    0    0  501    0  0.00000000000E+00  0.00000000000E+00  0.16709455529E+04  0.16709455529E+04  0.25500000920E-02 0.  1.
       -2   -1    0    0    0  501  0.00000000000E+00  0.00000000000E+00 -0.12591310619E+04  0.12591310619E+04  0.25500000920E-02 0. -1.
    10030    2    1    2    0    0  0.00000000000E+00  0.00000000000E+00  0.41181449096E+03  0.29300766148E+04  0.29009925532E+04 0.  0.
        3    1    3    3  502    0 -0.10964653649E+04 -0.94512310891E+03  0.11308677185E+03  0.14519926362E+04  0.10100000352E+00 0.  1.
       -3    1    3    3    0  502  0.10964653649E+04  0.94512310891E+03  0.29872771911E+03  0.14780839786E+04  0.10100000352E+00 0. -1.
</event>
<event>
 5   0  0.9443352E-08  0.2894515E+04  0.7818609E-02  0.8274511E-01
       -1   -1    0    0    0  501  0.00000000000E+00  0.00000000000E+00  0.25509103507E+04  0.25509103507E+04  0.50400001928E-02 0.  1.
        1   -1    0    0  501    0  0.00000000000E+00  0.00000000000E+00 -0.82110093720E+03  0.82110093721E+03  0.50400001928E-02 0. -1.
    10030    2    1    2    0    0  0.00000000000E+00  0.00000000000E+00  0.17298094135E+04  0.33720112879E+04  0.28945154204E+04 0.  0.
        4    1    3    3  502    0 -0.49648170814E+03  0.13211517942E+04  0.49172067108E+03  0.14945658169E+04  0.12699999809E+01 0. -1.
       -4    1    3    3    0  502  0.49648170814E+03 -0.13211517942E+04  0.12380887424E+04  0.18774454710E+04  0.12699999809E+01 0.  1.
</event>
<event>
 5   0  0.9443352E-08  0.2898620E+04  0.7818609E-02  0.8273288E-01
       -1   -1    0    0    0  501  0.00000000000E+00  0.00000000000E+00  0.96820524520E+03  0.96820524522E+03  0.50400001928E-02 0.  1.
        1   -1    0    0  501    0  0.00000000000E+00  0.00000000000E+00 -0.21694771064E+04  0.21694771064E+04  0.50400001928E-02 0. -1.
    10030    2    1    2    0    0  0.00000000000E+00  0.00000000000E+00 -0.12012718612E+04  0.31376823516E+04  0.28986197500E+04 0.  0.
        4    1    3    3  502    0 -0.73951569029E+03  0.12452930913E+04 -0.54275479153E+03  0.15466811941E+04  0.12699999809E+01 0.  1.
       -4    1    3    3    0  502  0.73951569029E+03 -0.12452930913E+04 -0.65851706966E+03  0.15910011576E+04  0.12699999809E+01 0. -1.
</event>
<event>
 5   0  0.9421924E-08  0.2900227E+04  0.7818609E-02  0.8272810E-01
        1   -1    0    0  501    0  0.00000000000E+00  0.00000000000E+00  0.80230355076E+03  0.80230355078E+03  0.50400001928E-02 0. -1.
       -1   -1    0    0    0  501  0.00000000000E+00  0.00000000000E+00 -0.26209888966E+04  0.26209888966E+04  0.50400001928E-02 0.  1.
    10030    2    1    2    0    0  0.00000000000E+00  0.00000000000E+00 -0.18186853458E+04  0.34232924474E+04  0.29002266796E+04 0.  0.
        1    1    3    3  502    0 -0.12877566548E+04  0.18616375081E+03 -0.16650035553E+04  0.21131045841E+04  0.50400001928E-02 0.  1.
       -1    1    3    3    0  502  0.12877566548E+04 -0.18616375081E+03 -0.15368179048E+03  0.13101878632E+04  0.50400001928E-02 0. -1.
</event>
<event>
 5   0  0.2678723E-07  0.2899883E+04  0.7818609E-02  0.8272912E-01
        2   -1    0    0  501    0  0.00000000000E+00  0.00000000000E+00  0.16556305284E+04  0.16556305284E+04  0.25500000920E-02 0.  1.
       -2   -1    0    0    0  501  0.00000000000E+00  0.00000000000E+00 -0.12698060764E+04  0.12698060764E+04  0.25500000920E-02 0. -1.
    10030    2    1    2    0    0  0.00000000000E+00  0.00000000000E+00  0.38582445202E+03  0.29254366047E+04  0.28998825529E+04 0.  0.
        5    1    3    3  502    0  0.41238563407E+03  0.10260157790E+04 -0.75318859514E+03  0.13379407460E+04  0.46999998093E+01 0. -1.
       -5    1    3    3    0  502 -0.41238563407E+03 -0.10260157790E+04  0.11390130472E+04  0.15874958587E+04  0.46999998093E+01 0.  1.
</event>
<event>
 5   0  0.9763851E-08  0.2902026E+04  0.7818609E-02  0.8272275E-01
        1   -1    0    0  501    0  0.00000000000E+00  0.00000000000E+00  0.25685203593E+04  0.25685203593E+04  0.50400001928E-02 0.  1.
       -1   -1    0    0    0  501  0.00000000000E+00  0.00000000000E+00 -0.81970868520E+03  0.81970868522E+03  0.50400001928E-02 0. -1.
    10030    2    1    2    0    0  0.00000000000E+00  0.00000000000E+00  0.17488116741E+04  0.33882290445E+04  0.29020258074E+04 0.  0.
        3    1    3    3  502    0 -0.44066788070E+02 -0.14205446304E+04  0.53291406203E+03  0.15178558352E+04  0.10100000352E+00 0. -1.
       -3    1    3    3    0  502  0.44066788070E+02  0.14205446304E+04  0.12158976121E+04  0.18703732093E+04  0.10100000352E+00 0.  1.
</event>
<event>
 5   0  0.2678723E-07  0.2904259E+04  0.7818609E-02  0.8271612E-01
       -2   -1    0    0    0  501  0.00000000000E+00  0.00000000000E+00  0.23050917684E+04  0.23050917684E+04  0.25500000920E-02 0.  1.
        2   -1    0    0  501    0  0.00000000000E+00  0.00000000000E+00 -0.91479199881E+03  0.91479199882E+03  0.25500000920E-02 0. -1.
    10030    2    1    2    0    0  0.00000000000E+00  0.00000000000E+00  0.13902997696E+04  0.32198837673E+04  0.29042586016E+04 0.  0.
        5    1    3    3  502    0 -0.22848890775E+03 -0.13172879069E+04  0.13234896935E+04  0.18812500284E+04  0.46999998093E+01 0.  1.
       -5    1    3    3    0  502  0.22848890775E+03  0.13172879069E+04  0.66810076085E+02  0.13386337388E+04  0.46999998093E+01 0. -1.
</event>
<event>
 5   0  0.2546841E-07  0.2900602E+04  0.7818609E-02  0.8272698E-01
       -2   -1    0    0    0  501  0.00000000000E+00  0.00000000000E+00  0.10236753741E+04  0.10236753741E+04  0.25500000920E-02 0.  1.
        2   -1    0    0  501    0  0.00000000000E+00  0.00000000000E+00 -0.20547264938E+04  0.20547264938E+04  0.25500000920E-02 0. -1.
    10030    2    1    2    0    0  0.00000000000E+00  0.00000000000E+00 -0.10310511197E+04  0.30784018679E+04  0.29006019459E+04 0.  0.
        1    1    3    3  502    0  0.13717684793E+04  0.37523124115E+03 -0.81725092974E+03  0.16402580063E+04  0.50400001928E-02 0. -1.
       -1    1    3    3    0  502 -0.13717684793E+04 -0.37523124115E+03 -0.21380019000E+03  0.14381438615E+04  0.50400001928E-02 0.  1.
</event>
<event>
 5   0  0.2492232E-07  0.2904963E+04  0.7818609E-02  0.8271402E-01
        2   -1    0    0  501    0  0.00000000000E+00  0.00000000000E+00  0.11198240604E+04  0.11198240604E+04  0.25500000920E-02 0. -1.
       -2   -1    0    0    0  501  0.00000000000E+00  0.00000000000E+00 -0.18839589756E+04  0.18839589756E+04  0.25500000920E-02 0.  1.
    10030    2    1    2    0    0  0.00000000000E+00  0.00000000000E+00 -0.76413491519E+03  0.30037830359E+04  0.29049630563E+04 0.  0.
        4    1    3    3  502    0 -0.11060425574E+04 -0.43540904355E+03 -0.12452026806E+04  0.17214652197E+04  0.12699999809E+01 0.  1.
       -4    1    3    3    0  502  0.11060425574E+04  0.43540904355E+03  0.48106776544E+03  0.12823178162E+04  0.12699999809E+01 0. -1.
</event>
<event>
 5   0  0.2678723E-07  0.2900605E+04  0.7818609E-02  0.8272698E-01
       -2   -1    0    0    0  501  0.00000000000E+00  0.00000000000E+00  0.19239693788E+04  0.19239693788E+04  0.25500000920E-02 0.  1.
        2   -1    0    0  501    0  0.00000000000E+00  0.00000000000E+00 -0.10932487141E+04  0.10932487141E+04  0.25500000920E-02 0. -1.
    10030    2    1    2    0    0  0.00000000000E+00  0.00000000000E+00  0.83072066468E+03  0.30172180929E+04  0.29006047986E+04 0.  0.
        5    1    3    3  502    0  0.37710601617E+03 -0.41145742399E+03 -0.97705508187E+03  0.11252399221E+04  0.46999998093E+01 0. -1.
       -5    1    3    3    0  502 -0.37710601617E+03  0.41145742399E+03  0.18077757466E+04  0.18919781709E+04  0.46999998093E+01 0.  1.
</event>
<event>
 5   0  0.9443352E-08  0.2899560E+04  0.7818609E-02  0.8273008E-01
       -1   -1    0    0    0  501  0.00000000000E+00  0.00000000000E+00  0.11119897469E+04  0.11119897469E+04  0.50400001928E-02 0. -1.
        1   -1    0    0  501    0  0.00000000000E+00  0.00000000000E+00 -0.18901809645E+04  0.18901809646E+04  0.50400001928E-02 0.  1.
    10030    2    1    2    0    0  0.00000000000E+00  0.00000000000E+00 -0.77819121763E+03  0.30021707115E+04  0.28995598648E+04 0.  0.
        4    1    3    3  502    0  0.15104074899E+03  0.52660499872E+03 -0.17788839176E+04  0.18613317109E+04  0.12699999809E+01 0.  1.
       -4    1    3    3    0  502 -0.15104074899E+03 -0.52660499872E+03  0.10006927000E+04  0.11408390006E+04  0.12699999809E+01 0. -1.
</event>
<event>
 5   0  0.2546841E-07  0.2898528E+04  0.7818609E-02  0.8273315E-01
        2   -1    0    0  501    0  0.00000000000E+00  0.00000000000E+00  0.32462140319E+04  0.32462140319E+04  0.25500000920E-02 0. -1.
       -2   -1    0    0    0  501  0.00000000000E+00  0.00000000000E+00 -0.64702038481E+03  0.64702038482E+03  0.25500000920E-02 0.  1.
    10030    2    1    2    0    0  0.00000000000E+00  0.00000000000E+00  0.25991936471E+04  0.38932344167E+04  0.28985283522E+04 0.  0.
        1    1    3    3  502    0 -0.56233397146E+03 -0.29031947720E+03  0.30508131719E+04  0.31157608869E+04  0.50400001928E-02 0. -1.
       -1    1    3    3    0  502  0.56233397146E+03  0.29031947720E+03 -0.45161952485E+03  0.77747352981E+03  0.50400001928E-02 0.  1.
</event>
<event>
 5   0  0.9421924E-08  0.2902706E+04  0.7818609E-02  0.8272073E-01
       -1   -1    0    0    0  501  0.00000000000E+00  0.00000000000E+00  0.10057955761E+04  0.10057955762E+04  0.50400001928E-02 0. -1.
        1   -1    0    0  501    0  0.00000000000E+00  0.00000000000E+00 -0.20942876719E+04  0.20942876719E+04  0.50400001928E-02 0.  1.
    10030    2    1    2    0    0  0.00000000000E+00  0.00000000000E+00 -0.10884920958E+04  0.31000832481E+04  0.29027058243E+04 0.  0.
        1    1    3    3  502    0  0.19180085909E+03 -0.12824700630E+04  0.15192812958E+03  0.13056029981E+04  0.50400001928E-02 0. -1.
       -1    1    3    3    0  502 -0.19180085909E+03  0.12824700630E+04 -0.12404202254E+04  0.17944802500E+04  0.50400001928E-02 0.  1.
</event>
<event>
 5   0  0.9395744E-08  0.2904426E+04  0.7818609E-02  0.8271562E-01
        1   -1    0    0  501    0  0.00000000000E+00  0.00000000000E+00  0.15583324160E+04  0.15583324160E+04  0.50400001928E-02 0. -1.
       -1   -1    0    0    0  501  0.00000000000E+00  0.00000000000E+00 -0.13533204206E+04  0.13533204206E+04  0.50400001928E-02 0.  1.
    10030    2    1    2    0    0  0.00000000000E+00  0.00000000000E+00  0.20501199533E+03  0.29116528366E+04  0.29044263328E+04 0.  0.
        2    1    3    3  502    0  0.67370110186E+03 -0.12497459954E+04  0.40852746160E+03  0.14773736543E+04  0.25500000920E-02 0. -1.
       -2    1    3    3    0  502 -0.67370110186E+03  0.12497459954E+04 -0.20351546627E+03  0.14342791823E+04  0.25500000920E-02 0.  1.
</event>
<event>
 5   0  0.9395744E-08  0.2900663E+04  0.7818609E-02  0.8272680E-01
       -1   -1    0    0    0  501  0.00000000000E+00  0.00000000000E+00  0.12232322919E+04  0.12232322919E+04  0.50400001928E-02 0. -1.
        1   -1    0    0  501    0  0.00000000000E+00  0.00000000000E+00 -0.17195928080E+04  0.17195928080E+04  0.50400001928E-02 0.  1.
    10030    2    1    2    0    0  0.00000000000E+00  0.00000000000E+00 -0.49636051612E+03  0.29428251000E+04  0.29006629944E+04 0.  0.
        2    1    3    3  502    0  0.96198530967E+03 -0.16397363211E+03 -0.13366959991E+04  0.16550103571E+04  0.25500000920E-02 0.  1.
       -2    1    3    3    0  502 -0.96198530967E+03  0.16397363211E+03  0.84033548296E+03  0.12878147429E+04  0.25500000920E-02 0. -1.
</event>
<event>
 5   0  0.9421924E-08  0.2900509E+04  0.7818609E-02  0.8272726E-01
       -1   -1    0    0    0  501  0.00000000000E+00  0.00000000000E+00  0.11539683243E+04  0.11539683243E+04  0.50400001928E-02 0. -1.
        1   -1    0    0  501    0  0.00000000000E+00  0.00000000000E+00 -0.18226137952E+04  0.18226137952E+04  0.50400001928E-02 0.  1.
    10030    2    1    2    0    0  0.00000000000E+00  0.00000000000E+00 -0.66864547087E+03  0.29765821195E+04  0.29005093257E+04 0.  0.
        1    1    3    3  502    0  0.12321831691E+04 -0.34666243482E+03  0.36531179169E+03  0.13311284353E+04  0.50400001928E-02 0. -1.
       -1    1    3    3    0  502 -0.12321831691E+04  0.34666243482E+03 -0.10339572626E+04  0.16454536842E+04  0.50400001928E-02 0.  1.
</event>
<event>
 5   0  0.9443352E-08  0.2900045E+04  0.7818609E-02  0.8272864E-01
       -1   -1    0    0    0  501  0.00000000000E+00  0.00000000000E+00  0.11728119641E+04  0.11728119641E+04  0.50400001928E-02 0.  1.
        1   -1    0    0  501    0  0.00000000000E+00  0.00000000000E+00 -0.17927551800E+04  0.17927551800E+04  0.50400001928E-02 0. -1.
    10030    2    1    2    0    0  0.00000000000E+00  0.00000000000E+00 -0.61994321593E+03  0.29655671441E+04  0.29000446368E+04 0.  0.
        4    1    3    3  502    0 -0.99670599098E+03  0.94194167198E+03  0.17171901386E+03  0.13820875437E+04  0.12699999809E+01 0.  1.
       -4    1    3    3    0  502  0.99670599098E+03 -0.94194167198E+03 -0.79166222979E+03  0.15834796004E+04  0.12699999809E+01 0. -1.
</event>
<event>
 5   0  0.2492232E-07  0.2900474E+04  0.7818609E-02  0.8272736E-01
        2   -1    0    0  501    0  0.00000000000E+00  0.00000000000E+00  0.17312954354E+04  0.17312954354E+04  0.25500000920E-02 0. -1.
       -2   -1    0    0    0  501  0.00000000000E+00  0.00000000000E+00 -0.12148057287E+04  0.12148057287E+04  0.25500000920E-02 0.  1.
    10030    2    1    2    0    0  0.00000000000E+00  0.00000000000E+00  0.51648970671E+03  0.29461011641E+04  0.29004741771E+04 0.  0.
        4    1    3    3  502    0  0.14106380172E+04  0.43937970320E+02 -0.80704765809E+02  0.14136283220E+04  0.12699999809E+01 0.  1.
       -4    1    3    3    0  502 -0.14106380172E+04 -0.43937970320E+02  0.59719447252E+03  0.15324728421E+04  0.12699999809E+01 0. -1.
</event>
<event>
 5   0  0.2492232E-07  0.2898312E+04  0.7818609E-02  0.8273380E-01
        2   -1    0    0  501    0  0.00000000000E+00  0.00000000000E+00  0.19970262183E+04  0.19970262183E+04  0.25500000920E-02 0. -1.
       -2   -1    0    0    0  501  0.00000000000E+00  0.00000000000E+00 -0.10515901244E+04  0.10515901244E+04  0.25500000920E-02 0.  1.
    10030    2    1    2    0    0  0.00000000000E+00  0.00000000000E+00  0.94543609389E+03  0.30486163427E+04  0.28983119565E+04 0.  0.
        4    1    3    3  502    0 -0.10407117504E+04 -0.98690948786E+03  0.69078588451E+03  0.15919353115E+04  0.12699999809E+01 0. -1.
       -4    1    3    3    0  502  0.10407117504E+04  0.98690948786E+03  0.25465020938E+03  0.14566810312E+04  0.12699999809E+01 0.  1.
</event>
<event>
 5   0  0.9388076E-08  0.2899564E+04  0.7818609E-02  0.8273007E-01
        1   -1    0    0  501    0  0.00000000000E+00  0.00000000000E+00  0.11516751014E+04  0.11516751014E+04  0.50400001928E-02 0. -1.
       -1   -1    0    0    0  501  0.00000000000E+00  0.00000000000E+00 -0.18250523381E+04  0.18250523381E+04  0.50400001928E-02 0.  1.
    10030    2    1    2    0    0  0.00000000000E+00  0.00000000000E+00 -0.67337723674E+03  0.29767274395E+04  0.28995636475E+04 0.  0.
        5    1    3    3  502    0  0.13057362137E+03 -0.93791036632E+03 -0.14636824973E+04  0.17433054433E+04  0.46999998093E+01 0.  1.
       -5    1    3    3    0  502 -0.13057362137E+03  0.93791036632E+03  0.79030526054E+03  0.12334219962E+04  0.46999998093E+01 0. -1.
</event>
<event>
 5   0  0.2608591E-07  0.2899621E+04  0.7818609E-02  0.8272990E-01
        2   -1    0    0  501    0  0.00000000000E+00  0.00000000000E+00  0.11738977421E+04  0.11738977421E+04  0.25500000920E-02 0.  1.
       -2   -1    0    0    0  501  0.00000000000E+00  0.00000000000E+00 -0.17905739925E+04  0.17905739925E+04  0.25500000920E-02 0. -1.
    10030    2    1    2    0    0  0.00000000000E+00  0.00000000000E+00 -0.61667625040E+03  0.29644717347E+04  0.28996211939E+04 0.  0.
        2    1    3    3  502    0  0.88998180187E+03  0.57777255301E+03 -0.13183925117E+04  0.16923497114E+04  0.25500000920E-02 0. -1.
       -2    1    3    3    0  502 -0.88998180187E+03 -0.57777255301E+03  0.70171626134E+03  0.12721220233E+04  0.25500000920E-02 0.  1.
</event>
<event>
 5   0  0.9388076E-08  0.2900062E+04  0.7818609E-02  0.8272859E-01
        1   -1    0    0  501    0  0.00000000000E+00  0.00000000000E+00  0.12789687655E+04  0.12789687655E+04  0.50400001928E-02 0.  1.
       -1   -1    0    0    0  501  0.00000000000E+00  0.00000000000E+00 -0.16439724311E+04  0.16439724312E+04  0.50400001928E-02 0. -1.
    10030    2    1    2    0    0  0.00000000000E+00  0.00000000000E+00 -0.36500366569E+03  0.29229411966E+04  0.29000616481E+04 0.  0.
        5    1    3    3  502    0  0.66183878987E+03 -0.72460967291E+03  0.89338287029E+03  0.13271189867E+04  0.46999998093E+01 0.  1.
       -5    1    3    3    0  502 -0.66183878987E+03  0.72460967291E+03 -0.12583865360E+04  0.15958222100E+04  0.46999998093E+01 0. -1.
</event>
<event>
 5   0  0.2546841E-07  0.2898353E+04  0.7818609E-02  0.8273368E-01
        2   -1    0    0  501    0  0.00000000000E+00  0.00000000000E+00  0.24897444891E+04  0.24897444891E+04  0.25500000920E-02 0. -1.
       -2   -1    0    0    0  501  0.00000000000E+00  0.00000000000E+00 -0.84350521121E+03  0.84350521121E+03  0.25500000920E-02 0.  1.
    10030    2    1    2    0    0  0.00000000000E+00  0.00000000000E+00  0.16462392779E+04  0.33332497003E+04  0.28983529469E+04 0.  0.
        1    1    3    3  502    0 -0.41726948252E+03 -0.12526485283E+04  0.13609584593E+03  0.13273146710E+04  0.50400001928E-02 0.  1.
       -1    1    3    3    0  502  0.41726948252E+03  0.12526485283E+04  0.15101434320E+04  0.20059350293E+04  0.50400001928E-02 0. -1.
</event>
<event>
 5   0  0.2492232E-07  0.2901018E+04  0.7818609E-02  0.8272575E-01
        2   -1    0    0  501    0  0.00000000000E+00  0.00000000000E+00  0.20111484172E+04  0.20111484172E+04  0.25500000920E-02 0. -1.
       -2   -1    0    0    0  501  0.00000000000E+00  0.00000000000E+00 -0.10461569783E+04  0.10461569783E+04  0.25500000920E-02 0.  1.
    10030    2    1    2    0    0  0.00000000000E+00  0.00000000000E+00  0.96499143891E+03  0.30573053956E+04  0.29010184082E+04 0.  0.
        4    1    3    3  502    0  0.99420897024E+03  0.29517209066E+03 -0.58623625229E+03  0.11913238838E+04  0.12699999809E+01 0.  1.
       -4    1    3    3    0  502 -0.99420897024E+03 -0.29517209066E+03  0.15512276912E+04  0.18659815118E+04  0.12699999809E+01 0. -1.
</event>
<event>
 5   0  0.9388076E-08  0.2900315E+04  0.7818609E-02  0.8272784E-01
        1   -1    0    0  501    0  0.00000000000E+00  0.00000000000E+00  0.16125173073E+04  0.16125173073E+04  0.50400001928E-02 0. -1.
       -1   -1    0    0    0  501  0.00000000000E+00  0.00000000000E+00 -0.13041448789E+04  0.13041448790E+04  0.50400001928E-02 0.  1.
    10030    2    1    2    0    0  0.00000000000E+00  0.00000000000E+00  0.30837242838E+03  0.29166621863E+04  0.29003145957E+04 0.  0.
        5    1    3    3  502    0  0.11512212250E+04 -0.87206014759E+03  0.28582433295E+03  0.14722489087E+04  0.46999998093E+01 0.  1.
       -5    1    3    3    0  502 -0.11512212250E+04  0.87206014759E+03  0.22548095432E+02  0.14444132776E+04  0.46999998093E+01 0. -1.
</event>
<event>
 5   0  0.2492232E-07  0.2899510E+04  0.7818609E-02  0.8273023E-01
       -2   -1    0    0    0  501  0.00000000000E+00  0.00000000000E+00  0.11631690401E+04  0.11631690401E+04  0.25500000920E-02 0. -1.
        2   -1    0    0  501    0  0.00000000000E+00  0.00000000000E+00 -0.18069507450E+04  0.18069507450E+04  0.25500000920E-02 0.  1.
    10030    2    1    2    0    0  0.00000000000E+00  0.00000000000E+00 -0.64378170486E+03  0.29701197851E+04  0.28995097266E+04 0.  0.
        4    1    3    3  502    0 -0.83976225812E+03  0.69812374419E+03  0.65485489651E+03  0.12733475412E+04  0.12699999809E+01 0. -1.
       -4    1    3    3    0  502  0.83976225812E+03 -0.69812374419E+03 -0.12986366014E+04  0.16967722439E+04  0.12699999809E+01 0.  1.
</event>
<event>
 5   0  0.2678723E-07  0.2901071E+04  0.7818609E-02  0.8272559E-01
        2   -1    0    0  501    0  0.00000000000E+00  0.00000000000E+00  0.17663362963E+04  0.17663362963E+04  0.25500000920E-02 0.  1.
       -2   -1    0    0    0  501  0.00000000000E+00  0.00000000000E+00 -0.11911961945E+04  0.11911961945E+04  0.25500000920E-02 0. -1.
    10030    2    1    2    0    0  0.00000000000E+00  0.00000000000E+00  0.57514010179E+03  0.29575324908E+04  0.29010708880E+04 0.  0.
        5    1    3    3  502    0  0.56744588809E+03  0.11915688570E+04 -0.32597335235E+03  0.13594527918E+04  0.46999998093E+01 0. -1.
       -5    1    3    3    0  502 -0.56744588809E+03 -0.11915688570E+04  0.90111345414E+03  0.15980796989E+04  0.46999998093E+01 0.  1.
</event>
<event>
 5   0  0.2546841E-07  0.2899948E+04  0.7818609E-02  0.8272893E-01
        2   -1    0    0  501    0  0.00000000000E+00  0.00000000000E+00  0.24688685088E+04  0.24688685088E+04  0.25500000920E-02 0.  1.
       -2   -1    0    0    0  501  0.00000000000E+00  0.00000000000E+00 -0.85157401280E+03  0.85157401280E+03  0.25500000920E-02 0. -1.
    10030    2    1    2    0    0  0.00000000000E+00  0.00000000000E+00  0.16172944960E+04  0.33204425216E+04  0.28999477672E+04 0.  0.
        1    1    3    3  502    0  0.49389372333E+02  0.18463471388E+03  0.24543822687E+04  0.24618126673E+04  0.50400001928E-02 0.  1.
       -1    1    3    3    0  502 -0.49389372333E+02 -0.18463471388E+03 -0.83708777267E+03  0.85862985439E+03  0.50400001928E-02 0. -1.
</event>
<event>
 5   0  0.9443352E-08  0.2899157E+04  0.7818609E-02  0.8273128E-01
        1   -1    0    0  501    0  0.00000000000E+00  0.00000000000E+00  0.11094445954E+04  0.11094445954E+04  0.50400001928E-02 0.  1.
       -1   -1    0    0    0  501  0.00000000000E+00  0.00000000000E+00 -0.18939901751E+04  0.18939901751E+04  0.50400001928E-02 0. -1.
    10030    2    1    2    0    0  0.00000000000E+00  0.00000000000E+00 -0.78454557975E+03  0.30034347705E+04  0.28991565418E+04 0.  0.
        4    1    3    3  502    0  0.48144413226E+02  0.11943385078E+04 -0.12418384371E+04  0.17236376280E+04  0.12699999809E+01 0. -1.
       -4    1    3    3    0  502 -0.48144413226E+02 -0.11943385078E+04  0.45729285732E+03  0.12797971425E+04  0.12699999809E+01 0.  1.
</event>
<event>
 5   0  0.2546841E-07  0.2893827E+04  0.7818609E-02  0.8274717E-01
       -2   -1    0    0    0  501  0.00000000000E+00  0.00000000000E+00  0.13435333393E+04  0.13435333393E+04  0.25500000920E-02 0.  1.
        2   -1    0    0  501    0  0.00000000000E+00  0.00000000000E+00 -0.15582479985E+04  0.15582479985E+04  0.25500000920E-02 0. -1.
    10030    2    1    2    0    0  0.00000000000E+00  0.00000000000E+00 -0.21471465924E+03  0.29017813378E+04  0.28938266271E+04 0.  0.
        1    1    3    3  502    0 -0.44149002532E+03 -0.18566159574E+03  0.12617435594E+04  0.13495852993E+04  0.50400001928E-02 0.  1.
       -1    1    3    3    0  502  0.44149002532E+03  0.18566159574E+03 -0.14764582186E+04  0.15521960385E+04  0.50400001928E-02 0. -1.
</event>
<event>
 5   0  0.9395744E-08  0.2901008E+04  0.7818609E-02  0.8272578E-01
        1   -1    0    0  501    0  0.00000000000E+00  0.00000000000E+00  0.77238013806E+03  0.77238013807E+03  0.50400001928E-02 0. -1.
       -1   -1    0    0    0  501  0.00000000000E+00  0.00000000000E+00 -0.27239985855E+04  0.27239985855E+04  0.50400001928E-02 0.  1.
    10030    2    1    2    0    0  0.00000000000E+00  0.00000000000E+00 -0.19516184475E+04  0.34963787236E+04  0.29010083789E+04 0.  0.
        2    1    3    3  502    0  0.11599560977E+04 -0.70854380997E+03 -0.15861239339E+04  0.20888565324E+04  0.25500000920E-02 0. -1.
       -2    1    3    3    0  502 -0.11599560977E+04  0.70854380997E+03 -0.36549451354E+03  0.14075221912E+04  0.25500000920E-02 0.  1.
</event>
<event>
 5   0  0.2534588E-07  0.2898976E+04  0.7818609E-02  0.8273182E-01
       -2   -1    0    0    0  501  0.00000000000E+00  0.00000000000E+00  0.12709446902E+04  0.12709446902E+04  0.25500000920E-02 0. -1.
        2   -1    0    0  501    0  0.00000000000E+00  0.00000000000E+00 -0.16531131041E+04  0.16531131041E+04  0.25500000920E-02 0.  1.
    10030    2    1    2    0    0  0.00000000000E+00  0.00000000000E+00 -0.38216841386E+03  0.29240577943E+04  0.28989759033E+04 0.  0.
        3    1    3    3  502    0  0.56647226004E+03 -0.13036220280E+03 -0.15304016878E+04  0.16370749712E+04  0.10100000352E+00 0.  1.
       -3    1    3    3    0  502 -0.56647226004E+03  0.13036220280E+03  0.11482332739E+04  0.12869828230E+04  0.10100000352E+00 0. -1.
</event>
<event>
 5   0  0.9443352E-08  0.2900986E+04  0.7818609E-02  0.8272584E-01
       -1   -1    0    0    0  501  0.00000000000E+00  0.00000000000E+00  0.96243587869E+03  0.96243587870E+03  0.50400001928E-02 0. -1.
        1   -1    0    0  501    0  0.00000000000E+00  0.00000000000E+00 -0.21860470573E+04  0.21860470573E+04  0.50400001928E-02 0.  1.
    10030    2    1    2    0    0  0.00000000000E+00  0.00000000000E+00 -0.12236111786E+04  0.31484829360E+04  0.29009861223E+04 0.  0.
        4    1    3    3  502    0 -0.49104454323E+03  0.13043072935E+04 -0.17553303639E+03  0.14046906133E+04  0.12699999809E+01 0. -1.
       -4    1    3    3    0  502  0.49104454323E+03 -0.13043072935E+04 -0.10480781422E+04  0.17437923226E+04  0.12699999809E+01 0.  1.
</event>
<event>
 5   0  0.9421924E-08  0.2899474E+04  0.7818609E-02  0.8273034E-01
       -1   -1    0    0    0  501  0.00000000000E+00  0.00000000000E+00  0.15192980520E+04  0.15192980520E+04  0.50400001928E-02 0.  1.
        1   -1    0    0  501    0  0.00000000000E+00  0.00000000000E+00 -0.13833605683E+04  0.13833605683E+04  0.50400001928E-02 0. -1.
    10030    2    1    2    0    0  0.00000000000E+00  0.00000000000E+00  0.13593748373E+03  0.29026586203E+04  0.28994737568E+04 0.  0.
        1    1    3    3  502    0 -0.57425973117E+03 -0.11276476755E+03 -0.12598542207E+04  0.13891446250E+04  0.50400001928E-02 0. -1.
       -1    1    3    3    0  502  0.57425973117E+03  0.11276476755E+03  0.13957917044E+04  0.15135139953E+04  0.50400001928E-02 0.  1.
</event>
<event>
 5   0  0.2546841E-07  0.2902589E+04  0.7818609E-02  0.8272108E-01
        2   -1    0    0  501    0  0.00000000000E+00  0.00000000000E+00  0.18137325916E+04  0.18137325916E+04  0.25500000920E-02 0. -1.
       -2   -1    0    0    0  501  0.00000000000E+00  0.00000000000E+00 -0.11612821895E+04  0.11612821895E+04  0.25500000920E-02 0.  1.
    10030    2    1    2    0    0  0.00000000000E+00  0.00000000000E+00  0.65245040211E+03  0.29750147812E+04  0.29025887447E+04 0.  0.
        1    1    3    3  502    0  0.96133331797E+03  0.70635856972E+03 -0.52092814729E+03  0.13017182153E+04  0.50400001928E-02 0.  1.
       -1    1    3    3    0  502 -0.96133331797E+03 -0.70635856972E+03  0.11733785494E+04  0.16732965659E+04  0.50400001928E-02 0. -1.
</event>
<event>
 5   0  0.2492232E-07  0.2899582E+04  0.7818609E-02  0.8273002E-01
       -2   -1    0    0    0  501  0.00000000000E+00  0.00000000000E+00  0.11538893550E+04  0.11538893550E+04  0.25500000920E-02 0.  1.
        2   -1    0    0  501    0  0.00000000000E+00  0.00000000000E+00 -0.18215729816E+04  0.18215729816E+04  0.25500000920E-02 0. -1.
    10030    2    1    2    0    0  0.00000000000E+00  0.00000000000E+00 -0.66768362658E+03  0.29754623366E+04  0.28995818132E+04 0.  0.
        4    1    3    3  502    0 -0.78509305786E+03 -0.79518910723E+01  0.91684691985E+03  0.12070808711E+04  0.12699999809E+01 0.  1.
       -4    1    3    3    0  502  0.78509305786E+03  0.79518910723E+01 -0.15845305464E+04  0.17683814655E+04  0.12699999809E+01 0. -1.
</event>
<event>
 5   0  0.8407500E-08  0.2900743E+04  0.7818609E-02  0.8272657E-01
        3   -1    0    0  501    0  0.00000000000E+00  0.00000000000E+00  0.14113000669E+04  0.14113000705E+04  0.10100000352E+00 0.  1.
       -3   -1    0    0    0  501  0.00000000000E+00  0.00000000000E+00 -0.14905242956E+04  0.14905242990E+04  0.10100000352E+00 0. -1.
    10030    2    1    2    0    0  0.00000000000E+00  0.00000000000E+00 -0.79224228717E+02  0.29018243695E+04  0.29007426968E+04 0.  0.
        2    1    3    3  502    0  0.34055642762E+03 -0.70573533415E+03  0.11813084786E+04  0.14175791914E+04  0.25500000920E-02 0.  1.
       -2    1    3    3    0  502 -0.34055642762E+03  0.70573533415E+03 -0.12605327074E+04  0.14842451781E+04  0.25500000920E-02 0. -1.
</event>
<event>
 5   0  0.2546841E-07  0.2899279E+04  0.7818609E-02  0.8273092E-01
        2   -1    0    0  501    0  0.00000000000E+00  0.00000000000E+00  0.22459020451E+04  0.22459020451E+04  0.25500000920E-02 0. -1.
       -2   -1    0    0    0  501  0.00000000000E+00  0.00000000000E+00 -0.93568375920E+03  0.93568375920E+03  0.25500000920E-02 0.  1.
    10030    2    1    2    0    0  0.00000000000E+00  0.00000000000E+00  0.13102182859E+04  0.31815858043E+04  0.28992785781E+04 0.  0.
        1    1    3    3  502    0  0.10901019502E+04  0.61612605723E+03  0.14566566070E+04  0.19208805405E+04  0.50400001928E-02 0. -1.
       -1    1    3    3    0  502 -0.10901019502E+04 -0.61612605723E+03 -0.14643832110E+03  0.12607052638E+04  0.50400001928E-02 0.  1.
</event>
<event>
 5   0  0.2534588E-07  0.2899446E+04  0.7818609E-02  0.8273042E-01
       -2   -1    0    0    0  501  0.00000000000E+00  0.00000000000E+00  0.11560076574E+04  0.11560076574E+04  0.25500000920E-02 0. -1.
        2   -1    0    0  501    0  0.00000000000E+00  0.00000000000E+00 -0.18180645283E+04  0.18180645283E+04  0.25500000920E-02 0.  1.
    10030    2    1    2    0    0  0.00000000000E+00  0.00000000000E+00 -0.66205687094E+03  0.29740721857E+04  0.28994458204E+04 0.  0.
        3    1    3    3  502    0  0.95087901905E+03  0.55117216492E+03  0.63867928214E+03  0.12711698942E+04  0.10100000352E+00 0. -1.
       -3    1    3    3    0  502 -0.95087901905E+03 -0.55117216492E+03 -0.13007361531E+04  0.17029022915E+04  0.10100000352E+00 0.  1.
</event>
<event>
 5   0  0.9421924E-08  0.2900556E+04  0.7818609E-02  0.8272712E-01
       -1   -1    0    0    0  501  0.00000000000E+00  0.00000000000E+00  0.12074022984E+04  0.12074022984E+04  0.50400001928E-02 0. -1.
        1   -1    0    0  501    0  0.00000000000E+00  0.00000000000E+00 -0.17420092199E+04  0.17420092199E+04  0.50400001928E-02 0.  1.
    10030    2    1    2    0    0  0.00000000000E+00  0.00000000000E+00 -0.53460692146E+03  0.29494115183E+04  0.29005557647E+04 0.  0.
        1    1    3    3  502    0  0.64922289252E+03 -0.96002249426E+03 -0.11538676729E+04  0.16354033631E+04  0.50400001928E-02 0.  1.
       -1    1    3    3    0  502 -0.64922289252E+03  0.96002249426E+03  0.61926075139E+03  0.13140081552E+04  0.50400001928E-02 0. -1.
</event>
<event>
 5   0  0.9421924E-08  0.2900012E+04  0.7818609E-02  0.8272874E-01
       -1   -1    0    0    0  501  0.00000000000E+00  0.00000000000E+00  0.23106670055E+04  0.23106670055E+04  0.50400001928E-02 0. -1.
        1   -1    0    0  501    0  0.00000000000E+00  0.00000000000E+00 -0.90991813444E+03  0.90991813445E+03  0.50400001928E-02 0.  1.
    10030    2    1    2    0    0  0.00000000000E+00  0.00000000000E+00  0.14007488710E+04  0.32205851399E+04  0.29000122834E+04 0.  0.
        1    1    3    3  502    0 -0.13665827342E+04 -0.36685487279E+03  0.10522374051E+04  0.17633304920E+04  0.50400001928E-02 0. -1.
       -1    1    3    3    0  502  0.13665827342E+04  0.36685487279E+03  0.34851146593E+03  0.14572546480E+04  0.50400001928E-02 0.  1.
</event>
<event>
 5   0  0.9763851E-08  0.2898798E+04  0.7818609E-02  0.8273235E-01
       -1   -1    0    0    0  501  0.00000000000E+00  0.00000000000E+00  0.11050461293E+04  0.11050461293E+04  0.50400001928E-02 0.  1.
        1   -1    0    0  501    0  0.00000000000E+00  0.00000000000E+00 -0.19010583259E+04  0.19010583259E+04  0.50400001928E-02 0. -1.
    10030    2    1    2    0    0  0.00000000000E+00  0.00000000000E+00 -0.79601219658E+03  0.30061044552E+04  0.28987977815E+04 0.  0.
        3    1    3    3  502    0  0.70575036126E+03  0.12457843291E+04 -0.16451594497E+03  0.14412243661E+04  0.10100000352E+00 0. -1.
       -3    1    3    3    0  502 -0.70575036126E+03 -0.12457843291E+04 -0.63149625162E+03  0.15648800891E+04  0.10100000352E+00 0.  1.
</event>
<event>
 5   0  0.9388076E-08  0.2899466E+04  0.7818609E-02  0.8273036E-01
        1   -1    0    0  501    0  0.00000000000E+00  0.00000000000E+00  0.15303976185E+04  0.15303976185E+04  0.50400001928E-02 0. -1.
       -1   -1    0    0    0  501  0.00000000000E+00  0.00000000000E+00 -0.13733197253E+04  0.13733197253E+04  0.50400001928E-02 0.  1.
    10030    2    1    2    0    0  0.00000000000E+00  0.00000000000E+00  0.15707789321E+03  0.29037173437E+04  0.28994656314E+04 0.  0.
        5    1    3    3  502    0 -0.12088774477E+04  0.61192099342E+03 -0.43784411683E+03  0.14239246982E+04  0.46999998093E+01 0.  1.
       -5    1    3    3    0  502  0.12088774477E+04 -0.61192099342E+03  0.59492201004E+03  0.14797926455E+04  0.46999998093E+01 0. -1.
</event>
<event>
 5   0  0.9388076E-08  0.2904798E+04  0.7818609E-02  0.8271451E-01
        1   -1    0    0  501    0  0.00000000000E+00  0.00000000000E+00  0.12961359106E+04  0.12961359106E+04  0.50400001928E-02 0.  1.
       -1   -1    0    0    0  501  0.00000000000E+00  0.00000000000E+00 -0.16275014309E+04  0.16275014309E+04  0.50400001928E-02 0. -1.
    10030    2    1    2    0    0  0.00000000000E+00  0.00000000000E+00 -0.33136552029E+03  0.29236373416E+04  0.29047981336E+04 0.  0.
        5    1    3    3  502    0  0.76384581951E+03 -0.11304703950E+04  0.33556039086E+03  0.14050076925E+04  0.46999998093E+01 0.  1.
       -5    1    3    3    0  502 -0.76384581951E+03  0.11304703950E+04 -0.66692591115E+03  0.15186296491E+04  0.46999998093E+01 0. -1.
</event>
<event>
 5   0  0.2492232E-07  0.2899304E+04  0.7818609E-02  0.8273085E-01
       -2   -1    0    0    0  501  0.00000000000E+00  0.00000000000E+00  0.66197122423E+03  0.66197122423E+03  0.25500000920E-02 0.  1.
        2   -1    0    0  501    0  0.00000000000E+00  0.00000000000E+00 -0.31745958302E+04  0.31745958302E+04  0.25500000920E-02 0. -1.
    10030    2    1    2    0    0  0.00000000000E+00  0.00000000000E+00 -0.25126246060E+04  0.38365670544E+04  0.28993041152E+04 0.  0.
        4    1    3    3  502    0 -0.11034738331E+04  0.85072616743E+03 -0.17857863007E+04  0.22650438929E+04  0.12699999809E+01 0. -1.
       -4    1    3    3    0  502  0.11034738331E+04 -0.85072616743E+03 -0.72683830528E+03  0.15715231615E+04  0.12699999809E+01 0.  1.
</event>
<event>
 5   0  0.2546841E-07  0.2900859E+04  0.7818609E-02  0.8272622E-01
       -2   -1    0    0    0  501  0.00000000000E+00  0.00000000000E+00  0.10979173881E+04  0.10979173881E+04  0.25500000920E-02 0.  1.
        2   -1    0    0  501    0  0.00000000000E+00  0.00000000000E+00 -0.19161238744E+04  0.19161238744E+04  0.25500000920E-02 0. -1.
    10030    2    1    2    0    0  0.00000000000E+00  0.00000000000E+00 -0.81820648631E+03  0.30140412625E+04  0.29008589896E+04 0.  0.
        1    1    3    3  502    0 -0.78457962564E+03 -0.71031107617E+03  0.62137868541E+03  0.12272809314E+04  0.50400001928E-02 0.  1.
       -1    1    3    3    0  502  0.78457962564E+03  0.71031107617E+03 -0.14395851717E+04  0.17867603310E+04  0.50400001928E-02 0. -1.
</event>
<event>
 5   0  0.9395744E-08  0.2899606E+04  0.7818609E-02  0.8272995E-01
       -1   -1    0    0    0  501  0.00000000000E+00  0.00000000000E+00  0.20254779876E+04  0.20254779876E+04  0.50400001928E-02 0. -1.
        1   -1    0    0  501    0  0.00000000000E+00  0.00000000000E+00 -0.10377444146E+04  0.10377444146E+04  0.50400001928E-02 0.  1.
    10030    2    1    2    0    0  0.00000000000E+00  0.00000000000E+00  0.98773357301E+03  0.30632224022E+04  0.28996058135E+04 0.  0.
        2    1    3    3  502    0 -0.20699673695E+03 -0.12362931871E+04  0.12634360855E+04  0.17797581958E+04  0.25500000920E-02 0.  1.
       -2    1    3    3    0  502  0.20699673695E+03  0.12362931871E+04 -0.27570251246E+03  0.12834642063E+04  0.25500000920E-02 0. -1.
</event>
<event>
 5   0  0.2678723E-07  0.2902053E+04  0.7818609E-02  0.8272267E-01
        2   -1    0    0  501    0  0.00000000000E+00  0.00000000000E+00  0.13707523381E+04  0.13707523381E+04  0.25500000920E-02 0. -1.
       -2   -1    0    0    0  501  0.00000000000E+00  0.00000000000E+00 -0.15360014484E+04  0.15360014484E+04  0.25500000920E-02 0.  1.
    10030    2    1    2    0    0  0.00000000000E+00  0.00000000000E+00 -0.16524911032E+03  0.29067537865E+04  0.29020527747E+04 0.  0.
        5    1    3    3  502    0  0.13223806907E+04 -0.58188608376E+03 -0.21765161372E+03  0.14610531889E+04  0.46999998093E+01 0.  1.
       -5    1    3    3    0  502 -0.13223806907E+04  0.58188608376E+03  0.52402503399E+02  0.14457005977E+04  0.46999998093E+01 0. -1.
</event>
<event>
 5   0  0.9395744E-08  0.2902118E+04  0.7818609E-02  0.8272248E-01
        1   -1    0    0  501    0  0.00000000000E+00  0.00000000000E+00  0.13906918124E+04  0.13906918124E+04  0.50400001928E-02 0.  1.
       -1   -1    0    0    0  501  0.00000000000E+00  0.00000000000E+00 -0.15140466953E+04  0.15140466953E+04  0.50400001928E-02 0. -1.
    10030    2    1    2    0    0  0.00000000000E+00  0.00000000000E+00 -0.12335488287E+03  0.29047385078E+04  0.29021180836E+04 0.  0.
        2    1    3    3  502    0  0.11277337609E+04  0.85973181281E+03  0.24625294078E+03  0.14392924430E+04  0.25500000920E-02 0.  1.
       -2    1    3    3    0  502 -0.11277337609E+04 -0.85973181281E+03 -0.36960782365E+03  0.14654460648E+04  0.25500000920E-02 0. -1.
</event>
<event>
 5   0  0.2608591E-07  0.2900069E+04  0.7818609E-02  0.8272857E-01
        2   -1    0    0  501    0  0.00000000000E+00  0.00000000000E+00  0.14595028825E+04  0.14595028825E+04  0.25500000920E-02 0. -1.
       -2   -1    0    0    0  501  0.00000000000E+00  0.00000000000E+00 -0.14406270884E+04  0.14406270884E+04  0.25500000920E-02 0.  1.
    10030    2    1    2    0    0  0.00000000000E+00  0.00000000000E+00  0.18875794159E+02  0.29001299709E+04  0.29000685427E+04 0.  0.
        2    1    3    3  502    0 -0.91004856667E+03  0.73879743268E+03  0.86303043081E+03  0.14556206802E+04  0.25500000920E-02 0. -1.
       -2    1    3    3    0  502  0.91004856667E+03 -0.73879743268E+03 -0.84415463665E+03  0.14445092907E+04  0.25500000920E-02 0.  1.
</event>
<event>
 5   0  0.2534588E-07  0.2898848E+04  0.7818609E-02  0.8273220E-01
       -2   -1    0    0    0  501  0.00000000000E+00  0.00000000000E+00  0.13327556374E+04  0.13327556374E+04  0.25500000920E-02 0.  1.
        2   -1    0    0  501    0  0.00000000000E+00  0.00000000000E+00 -0.15763056952E+04  0.15763056952E+04  0.25500000920E-02 0. -1.
    10030    2    1    2    0    0  0.00000000000E+00  0.00000000000E+00 -0.24355005777E+03  0.29090613326E+04  0.28988482551E+04 0.  0.
        3    1    3    3  502    0 -0.79607905161E+03  0.10353122052E+04  0.50910276954E+03  0.14017128304E+04  0.10100000352E+00 0.  1.
       -3    1    3    3    0  502  0.79607905161E+03 -0.10353122052E+04 -0.75265282731E+03  0.15073485023E+04  0.10100000352E+00 0. -1.
</event>
<event>
 5   0  0.2546841E-07  0.2899750E+04  0.7818609E-02  0.8272952E-01
        2   -1    0    0  501    0  0.00000000000E+00  0.00000000000E+00  0.17864566944E+04  0.17864566944E+04  0.25500000920E-02 0.  1.
       -2   -1    0    0    0  501  0.00000000000E+00  0.00000000000E+00 -0.11767076933E+04  0.11767076933E+04  0.25500000920E-02 0. -1.
    10030    2    1    2    0    0  0.00000000000E+00  0.00000000000E+00  0.60974900109E+03  0.29631643876E+04  0.28997498761E+04 0.  0.
        1    1    3    3  502    0  0.12501306805E+04  0.44492912891E+03 -0.29215298577E+03  0.13587280873E+04  0.50400001928E-02 0. -1.
       -1    1    3    3    0  502 -0.12501306805E+04 -0.44492912891E+03  0.90190198686E+03  0.16044363004E+04  0.50400001928E-02 0.  1.
</event>
<event>
 5   0  0.2492232E-07  0.2904733E+04  0.7818609E-02  0.8271471E-01
       -2   -1    0    0    0  501  0.00000000000E+00  0.00000000000E+00  0.11325893265E+04  0.11325893265E+04  0.25500000920E-02 0. -1.
        2   -1    0    0  501    0  0.00000000000E+00  0.00000000000E+00 -0.18624295817E+04  0.18624295817E+04  0.25500000920E-02 0.  1.
    10030    2    1    2    0    0  0.00000000000E+00  0.00000000000E+00 -0.72984025522E+03  0.29950189082E+04  0.29047325974E+04 0.  0.
        4    1    3    3  502    0 -0.60334523375E+03  0.33536993728E+03  0.95263537991E+03  0.11764413483E+04  0.12699999809E+01 0. -1.
       -4    1    3    3    0  502  0.60334523375E+03 -0.33536993728E+03 -0.16824756351E+04  0.18185775600E+04  0.12699999809E+01 0.  1.
</event>
<event>
 5   0  0.9388076E-08  0.2899011E+04  0.7818609E-02  0.8273172E-01
        1   -1    0    0  501    0  0.00000000000E+00  0.00000000000E+00  0.18679997134E+04  0.18679997134E+04  0.50400001928E-02 0.  1.
       -1   -1    0    0    0  501  0.00000000000E+00  0.00000000000E+00 -0.11247682073E+04  0.11247682073E+04  0.50400001928E-02 0. -1.
    10030    2    1    2    0    0  0.00000000000E+00  0.00000000000E+00  0.74323150611E+03  0.29927679207E+04  0.28990113410E+04 0.  0.
        5    1    3    3  502    0  0.75083872732E+02  0.13547612010E+04  0.89803783855E+03  0.16271169439E+04  0.46999998093E+01 0.  1.
       -5    1    3    3    0  502 -0.75083872732E+02 -0.13547612010E+04 -0.15480633245E+03  0.13656509768E+04  0.46999998093E+01 0. -1.
</event>
<event>
 5   0  0.9443352E-08  0.2900274E+04  0.7818609E-02  0.8272796E-01
       -1   -1    0    0    0  501  0.00000000000E+00  0.00000000000E+00  0.11159885075E+04  0.11159885075E+04  0.50400001928E-02 0. -1.
        1   -1    0    0  501    0  0.00000000000E+00  0.00000000000E+00 -0.18843357788E+04  0.18843357788E+04  0.50400001928E-02 0.  1.
    10030    2    1    2    0    0  0.00000000000E+00  0.00000000000E+00 -0.76834727129E+03  0.30003242863E+04  0.29002738308E+04 0.  0.
        4    1    3    3  502    0 -0.66600792970E+03 -0.69707325511E+03  0.73643902503E+03  0.12131866039E+04  0.12699999809E+01 0. -1.
       -4    1    3    3    0  502  0.66600792970E+03  0.69707325511E+03 -0.15047862963E+04  0.17871376824E+04  0.12699999809E+01 0.  1.
</event>
<event>
 5   0  0.8407500E-08  0.2903850E+04  0.7818609E-02  0.8271733E-01
       -3   -1    0    0    0  501  0.00000000000E+00  0.00000000000E+00  0.19798917865E+04  0.19798917891E+04  0.10100000352E+00 0. -1.
        3   -1    0    0  501    0  0.00000000000E+00  0.00000000000E+00 -0.10647484527E+04  0.10647484575E+04  0.10100000352E+00 0.  1.
    10030    2    1    2    0    0  0.00000000000E+00  0.00000000000E+00  0.91514333377E+03  0.30446402466E+04  0.29038503594E+04 0.  0.
        4    1    3    3  502    0 -0.34547092024E+03 -0.12584029411E+04  0.11249520277E+04  0.17229181049E+04  0.12699999809E+01 0. -1.
       -4    1    3    3    0  502  0.34547092024E+03  0.12584029411E+04 -0.20980869390E+03  0.13217221417E+04  0.12699999809E+01 0.  1.
</event>
<event>
 5   0  0.2534588E-07  0.2901520E+04  0.7818609E-02  0.8272425E-01
        2   -1    0    0  501    0  0.00000000000E+00  0.00000000000E+00  0.18534314875E+04  0.18534314875E+04  0.25500000920E-02 0.  1.
       -2   -1    0    0    0  501  0.00000000000E+00  0.00000000000E+00 -0.11355716247E+04  0.11355716247E+04  0.25500000920E-02 0. -1.
    10030    2    1    2    0    0  0.00000000000E+00  0.00000000000E+00  0.71785986276E+03  0.29890031122E+04  0.29015197436E+04 0.  0.
        3    1    3    3  502    0  0.13512831036E+03 -0.14410599703E+04  0.25699861181E+03  0.14700210185E+04  0.10100000352E+00 0. -1.
       -3    1    3    3    0  502 -0.13512831036E+03  0.14410599703E+04  0.46086125095E+03  0.15189820937E+04  0.10100000352E+00 0.  1.
</event>
<event>
 5   0  0.2608591E-07  0.2898789E+04  0.7818609E-02  0.8273238E-01
        2   -1    0    0  501    0  0.00000000000E+00  0.00000000000E+00  0.14433292171E+04  0.14433292171E+04  0.25500000920E-02 0. -1.
       -2   -1    0    0    0  501  0.00000000000E+00  0.00000000000E+00 -0.14554855495E+04  0.14554855495E+04  0.25500000920E-02 0.  1.
    10030    2    1    2    0    0  0.00000000000E+00  0.00000000000E+00 -0.12156332406E+02  0.28988147667E+04  0.28987892774E+04 0.  0.
        2    1    3    3  502    0  0.90764476430E+03 -0.10522961102E+04  0.40574907881E+03  0.14476803641E+04  0.25500000920E-02 0.  1.
       -2    1    3    3    0  502 -0.90764476430E+03  0.10522961102E+04 -0.41790541121E+03  0.14511344026E+04  0.25500000920E-02 0. -1.
</event>
<event>
 5   0  0.2678723E-07  0.2900613E+04  0.7818609E-02  0.8272695E-01
       -2   -1    0    0    0  501  0.00000000000E+00  0.00000000000E+00  0.17392764489E+04  0.17392764489E+04  0.25500000920E-02 0. -1.
        2   -1    0    0  501    0  0.00000000000E+00  0.00000000000E+00 -0.12093470273E+04  0.12093470273E+04  0.25500000920E-02 0.  1.
    10030    2    1    2    0    0  0.00000000000E+00  0.00000000000E+00  0.52992942163E+03  0.29486234762E+04  0.29006129029E+04 0.  0.
        5    1    3    3  502    0  0.10136473312E+04  0.98733717764E+03  0.58811166309E+03  0.15323880164E+04  0.46999998093E+01 0.  1.
       -5    1    3    3    0  502 -0.10136473312E+04 -0.98733717764E+03 -0.58182241468E+02  0.14162354598E+04  0.46999998093E+01 0. -1.
</event>
<event>
 5   0  0.9443352E-08  0.2899672E+04  0.7818609E-02  0.8272975E-01
       -1   -1    0    0    0  501  0.00000000000E+00  0.00000000000E+00  0.13257488592E+04  0.13257488592E+04  0.50400001928E-02 0.  1.
        1   -1    0    0  501    0  0.00000000000E+00  0.00000000000E+00 -0.15855370967E+04  0.15855370967E+04  0.50400001928E-02 0. -1.
    10030    2    1    2    0    0  0.00000000000E+00  0.00000000000E+00 -0.25978823744E+03  0.29112859559E+04  0.28996717036E+04 0.  0.
        4    1    3    3  502    0 -0.12608080947E+04  0.69705157341E+03 -0.29334803232E+03  0.14702287675E+04  0.12699999809E+01 0. -1.
       -4    1    3    3    0  502  0.12608080947E+04 -0.69705157341E+03  0.33559794880E+02  0.14410571885E+04  0.12699999809E+01 0.  1.
</event>
<event>
 5   0  0.9421924E-08  0.2901958E+04  0.7818609E-02  0.8272295E-01
       -1   -1    0    0    0  501  0.00000000000E+00  0.00000000000E+00  0.11222784006E+04  0.11222784006E+04  0.50400001928E-02 0. -1.
        1   -1    0    0  501    0  0.00000000000E+00  0.00000000000E+00 -0.18759512268E+04  0.18759512268E+04  0.50400001928E-02 0.  1.
    10030    2    1    2    0    0  0.00000000000E+00  0.00000000000E+00 -0.75367282616E+03  0.29982296274E+04  0.29019576444E+04 0.  0.
        1    1    3    3  502    0 -0.58166374978E+03 -0.10882383111E+04 -0.11655381603E+04  0.16973728355E+04  0.50400001928E-02 0.  1.
       -1    1    3    3    0  502  0.58166374978E+03  0.10882383111E+04  0.41186533417E+03  0.13008567919E+04  0.50400001928E-02 0. -1.
</event>
<event>
 5   0  0.2608591E-07  0.2899724E+04  0.7818609E-02  0.8272959E-01
       -2   -1    0    0    0  501  0.00000000000E+00  0.00000000000E+00  0.91950380109E+03  0.91950380109E+03  0.25500000920E-02 0. -1.
        2   -1    0    0  501    0  0.00000000000E+00  0.00000000000E+00 -0.22861247176E+04  0.22861247176E+04  0.25500000920E-02 0.  1.
    10030    2    1    2    0    0  0.00000000000E+00  0.00000000000E+00 -0.13666209165E+04  0.32056285187E+04  0.28997243784E+04 0.  0.
        2    1    3    3  502    0 -0.13255191757E+04  0.56226940537E+03 -0.49520614906E+03  0.15226217848E+04  0.25500000920E-02 0. -1.
       -2    1    3    3    0  502  0.13255191757E+04 -0.56226940537E+03 -0.87141476749E+03  0.16830067339E+04  0.25500000920E-02 0.  1.
</event>
<event>
 5   0  0.9443352E-08  0.2902307E+04  0.7818609E-02  0.8272191E-01
       -1   -1    0    0    0  501  0.00000000000E+00  0.00000000000E+00  0.11890133380E+04  0.11890133380E+04  0.50400001928E-02 0. -1.
        1   -1    0    0  501    0  0.00000000000E+00  0.00000000000E+00 -0.17710878820E+04  0.17710878820E+04  0.50400001928E-02 0.  1.
    10030    2    1    2    0    0  0.00000000000E+00  0.00000000000E+00 -0.58207454401E+03  0.29601012201E+04  0.29023074369E+04 0.  0.
        4    1    3    3  502    0  0.29062913905E+03 -0.19350899452E+03 -0.17276073266E+04  0.17625378621E+04  0.12699999809E+01 0.  1.
       -4    1    3    3    0  502 -0.29062913905E+03  0.19350899452E+03  0.11455327826E+04  0.11975633580E+04  0.12699999809E+01 0. -1.
</event>
<event>
 5   0  0.2492232E-07  0.2900660E+04  0.7818609E-02  0.8272681E-01
       -2   -1    0    0    0  501  0.00000000000E+00  0.00000000000E+00  0.15538301937E+04  0.15538301937E+04  0.25500000920E-02 0.  1.
        2   -1    0    0  501    0  0.00000000000E+00  0.00000000000E+00 -0.13537237466E+04  0.13537237466E+04  0.25500000920E-02 0. -1.
    10030    2    1    2    0    0  0.00000000000E+00  0.00000000000E+00  0.20010644706E+03  0.29075539403E+04  0.29006598086E+04 0.  0.
        4    1    3    3  502    0  0.12031732898E+04  0.20849947751E+03  0.88444567338E+03  0.15077611745E+04  0.12699999809E+01 0.  1.
       -4    1    3    3    0  502 -0.12031732898E+04 -0.20849947751E+03 -0.68433922631E+03  0.13997927657E+04  0.12699999809E+01 0. -1.
</event>
<event>
 5   0  0.9388076E-08  0.2899953E+04  0.7818609E-02  0.8272891E-01
       -1   -1    0    0    0  501  0.00000000000E+00  0.00000000000E+00  0.15887381474E+04  0.15887381474E+04  0.50400001928E-02 0. -1.
        1   -1    0    0  501    0  0.00000000000E+00  0.00000000000E+00 -0.13233343641E+04  0.13233343641E+04  0.50400001928E-02 0.  1.
    10030    2    1    2    0    0  0.00000000000E+00  0.00000000000E+00  0.26540378330E+03  0.29120725115E+04  0.28999529555E+04 0.  0.
        5    1    3    3  502    0  0.67927351452E+03 -0.25820557077E+03 -0.11272637837E+04  0.13412040681E+04  0.46999998093E+01 0.  1.
       -5    1    3    3    0  502 -0.67927351452E+03  0.25820557077E+03  0.13926675670E+04  0.15708684434E+04  0.46999998093E+01 0. -1.
</event>
<event>
 5   0  0.2534588E-07  0.2895303E+04  0.7818609E-02  0.8274276E-01
       -2   -1    0    0    0  501  0.00000000000E+00  0.00000000000E+00  0.13274777858E+04  0.13274777858E+04  0.25500000920E-02 0. -1.
        2   -1    0    0  501    0  0.00000000000E+00  0.00000000000E+00 -0.15787047816E+04  0.15787047816E+04  0.25500000920E-02 0.  1.
    10030    2    1    2    0    0  0.00000000000E+00  0.00000000000E+00 -0.25122699573E+03  0.29061825674E+04  0.28953034576E+04 0.  0.
        3    1    3    3  502    0  0.11058393126E+04 -0.81560474788E+03  0.33173418458E+03  0.14135555417E+04  0.10100000352E+00 0. -1.
       -3    1    3    3    0  502 -0.11058393126E+04  0.81560474788E+03 -0.58296118031E+03  0.14926270257E+04  0.10100000352E+00 0.  1.
</event>
<event>
 5   0  0.2546841E-07  0.2898373E+04  0.7818609E-02  0.8273362E-01
        2   -1    0    0  501    0  0.00000000000E+00  0.00000000000E+00  0.85448815437E+03  0.85448815437E+03  0.25500000920E-02 0.  1.
       -2   -1    0    0    0  501  0.00000000000E+00  0.00000000000E+00 -0.24577771466E+04  0.24577771466E+04  0.25500000920E-02 0. -1.
    10030    2    1    2    0    0  0.00000000000E+00  0.00000000000E+00 -0.16032889923E+04  0.33122653010E+04  0.28983729628E+04 0.  0.
        1    1    3    3  502    0 -0.11096105248E+04  0.35956180417E+03 -0.17844680033E+04  0.21318645039E+04  0.50400001928E-02 0. -1.
       -1    1    3    3    0  502  0.11096105248E+04 -0.35956180417E+03  0.18117901107E+03  0.11804007972E+04  0.50400001928E-02 0.  1.
</event>
<event>
 5   0  0.9763851E-08  0.2899856E+04  0.7818609E-02  0.8272920E-01
       -1   -1    0    0    0  501  0.00000000000E+00  0.00000000000E+00  0.17550998781E+04  0.17550998781E+04  0.50400001928E-02 0. -1.
        1   -1    0    0  501    0  0.00000000000E+00  0.00000000000E+00 -0.11978189581E+04  0.11978189581E+04  0.50400001928E-02 0.  1.
    10030    2    1    2    0    0  0.00000000000E+00  0.00000000000E+00  0.55728091992E+03  0.29529188362E+04  0.28998564843E+04 0.  0.
        3    1    3    3  502    0  0.93853353135E+03 -0.54622419688E+03 -0.69971359284E+03  0.12918224278E+04  0.10100000352E+00 0.  1.
       -3    1    3    3    0  502 -0.93853353135E+03  0.54622419688E+03  0.12569945128E+04  0.16610964084E+04  0.10100000352E+00 0. -1.
</event>
<event>
 5   0  0.9443352E-08  0.2900555E+04  0.7818609E-02  0.8272712E-01
        1   -1    0    0  501    0  0.00000000000E+00  0.00000000000E+00  0.98961521724E+03  0.98961521726E+03  0.50400001928E-02 0.  1.
       -1   -1    0    0    0  501  0.00000000000E+00  0.00000000000E+00 -0.21253762371E+04  0.21253762371E+04  0.50400001928E-02 0. -1.
    10030    2    1    2    0    0  0.00000000000E+00  0.00000000000E+00 -0.11357610198E+04  0.31149914543E+04  0.29005548894E+04 0.  0.
        4    1    3    3  502    0  0.14830931095E+03 -0.48044190414E+03  0.89301218871E+03  0.10248377711E+04  0.12699999809E+01 0.  1.
       -4    1    3    3    0  502 -0.14830931095E+03  0.48044190414E+03 -0.20287732086E+04  0.20901536833E+04  0.12699999809E+01 0. -1.
</event>
<event>
 5   0  0.9443352E-08  0.2909475E+04  0.7818609E-02  0.8270064E-01
        1   -1    0    0  501    0  0.00000000000E+00  0.00000000000E+00  0.11981650188E+04  0.11981650189E+04  0.50400001928E-02 0.  1.
       -1   -1    0    0    0  501  0.00000000000E+00  0.00000000000E+00 -0.17662515590E+04  0.17662515590E+04  0.50400001928E-02 0. -1.
    10030    2    1    2    0    0  0.00000000000E+00  0.00000000000E+00 -0.56808654017E+03  0.29644165779E+04  0.29094747516E+04 0.  0.
        4    1    3    3  502    0  0.22051527258E+03  0.97443378153E+03 -0.13614188024E+04  0.16886713560E+04  0.12699999809E+01 0. -1.
       -4    1    3    3    0  502 -0.22051527258E+03 -0.97443378153E+03  0.79333226223E+03  0.12757452219E+04  0.12699999809E+01 0.  1.
</event>
<event>
 5   0  0.9443352E-08  0.2898448E+04  0.7818609E-02  0.8273339E-01
        1   -1    0    0  501    0  0.00000000000E+00  0.00000000000E+00  0.13724364677E+04  0.13724364677E+04  0.50400001928E-02 0.  1.
       -1   -1    0    0    0  501  0.00000000000E+00  0.00000000000E+00 -0.15303075392E+04  0.15303075393E+04  0.50400001928E-02 0. -1.
    10030    2    1    2    0    0  0.00000000000E+00  0.00000000000E+00 -0.15787107151E+03  0.29027440070E+04  0.28984477734E+04 0.  0.
        4    1    3    3  502    0  0.11289145623E+04  0.83526289782E+02 -0.98516549408E+03  0.15006589865E+04  0.12699999809E+01 0. -1.
       -4    1    3    3    0  502 -0.11289145623E+04 -0.83526289782E+02  0.82729442257E+03  0.14020850205E+04  0.12699999809E+01 0.  1.
</event>
<event>
 5   0  0.9763851E-08  0.2888824E+04  0.7818609E-02  0.8276211E-01
       -1   -1    0    0    0  501  0.00000000000E+00  0.00000000000E+00  0.18073002113E+04  0.18073002113E+04  0.50400001928E-02 0. -1.
        1   -1    0    0  501    0  0.00000000000E+00  0.00000000000E+00 -0.11543878036E+04  0.11543878036E+04  0.50400001928E-02 0.  1.
    10030    2    1    2    0    0  0.00000000000E+00  0.00000000000E+00  0.65291240769E+03  0.29616880149E+04  0.28888235123E+04 0.  0.
        3    1    3    3  502    0  0.12915290472E+04  0.43362552404E+03  0.81839970499E+03  0.15892943284E+04  0.10100000352E+00 0. -1.
       -3    1    3    3    0  502 -0.12915290472E+04 -0.43362552404E+03 -0.16548729730E+03  0.13723936865E+04  0.10100000352E+00 0.  1.
</event>
<event>
 5   0  0.2678723E-07  0.2899343E+04  0.7818609E-02  0.8273073E-01
       -2   -1    0    0    0  501  0.00000000000E+00  0.00000000000E+00  0.14000854845E+04  0.14000854845E+04  0.25500000920E-02 0. -1.
        2   -1    0    0  501    0  0.00000000000E+00  0.00000000000E+00 -0.15010135134E+04  0.15010135134E+04  0.25500000920E-02 0.  1.
    10030    2    1    2    0    0  0.00000000000E+00  0.00000000000E+00 -0.10092802896E+03  0.29010989979E+04  0.28993428443E+04 0.  0.
        5    1    3    3  502    0  0.12318074372E+04 -0.40198607942E+03 -0.70092143039E+03  0.14731786422E+04  0.46999998093E+01 0.  1.
       -5    1    3    3    0  502 -0.12318074372E+04  0.40198607942E+03  0.59999340143E+03  0.14279203557E+04  0.46999998093E+01 0. -1.
</event>
<event>
 5   0  0.2608591E-07  0.2899776E+04  0.7818609E-02  0.8272944E-01
        2   -1    0    0  501    0  0.00000000000E+00  0.00000000000E+00  0.32279989361E+04  0.32279989361E+04  0.25500000920E-02 0. -1.
       -2   -1    0    0    0  501  0.00000000000E+00  0.00000000000E+00 -0.65123149397E+03  0.65123149397E+03  0.25500000920E-02 0.  1.
    10030    2    1    2    0    0  0.00000000000E+00  0.00000000000E+00  0.25767674421E+04  0.38792304301E+04  0.28997755566E+04 0.  0.
        2    1    3    3  502    0  0.40266535524E+03 -0.99428432887E+03 -0.16496035176E+02  0.10728526619E+04  0.25500000920E-02 0.  1.
       -2    1    3    3    0  502 -0.40266535524E+03  0.99428432887E+03  0.25932634773E+04  0.28063777682E+04  0.25500000920E-02 0. -1.
</event>
<event>
 5   0  0.9395744E-08  0.2900312E+04  0.7818609E-02  0.8272785E-01
       -1   -1    0    0    0  501  0.00000000000E+00  0.00000000000E+00  0.21859255458E+04  0.21859255458E+04  0.50400001928E-02 0.  1.
        1   -1    0    0  501    0  0.00000000000E+00  0.00000000000E+00 -0.96204183606E+03  0.96204183607E+03  0.50400001928E-02 0. -1.
    10030    2    1    2    0    0  0.00000000000E+00  0.00000000000E+00  0.12238837097E+04  0.31479673818E+04  0.29003115871E+04 0.  0.
        2    1    3    3  502    0  0.69847099011E+02 -0.14409057447E+04  0.45145154407E+03  0.15115874037E+04  0.25500000920E-02 0. -1.
       -2    1    3    3    0  502 -0.69847099011E+02  0.14409057447E+04  0.77243216564E+03  0.16363799781E+04  0.25500000920E-02 0.  1.
</event>
<event>
 5   0  0.9421924E-08  0.2899824E+04  0.7818609E-02  0.8272930E-01
        1   -1    0    0  501    0  0.00000000000E+00  0.00000000000E+00  0.22862507790E+04  0.22862507790E+04  0.50400001928E-02 0. -1.
       -1   -1    0    0    0  501  0.00000000000E+00  0.00000000000E+00 -0.91951640541E+03  0.91951640542E+03  0.50400001928E-02 0.  1.
    10030    2    1    2    0    0  0.00000000000E+00  0.00000000000E+00  0.13667343736E+04  0.32057671844E+04  0.28998242003E+04 0.  0.
        1    1    3    3  502    0 -0.12556781913E+04 -0.23409312543E+03  0.14418410393E+04  0.19262483989E+04  0.50400001928E-02 0.  1.
       -1    1    3    3    0  502  0.12556781913E+04  0.23409312543E+03 -0.75106665739E+02  0.12795187856E+04  0.50400001928E-02 0. -1.
</event>
<event>
 5   0  0.9763851E-08  0.2901450E+04  0.7818609E-02  0.8272446E-01
       -1   -1    0    0    0  501  0.00000000000E+00  0.00000000000E+00  0.14317151323E+04  0.14317151323E+04  0.50400001928E-02 0. -1.
        1   -1    0    0  501    0  0.00000000000E+00  0.00000000000E+00 -0.14699868428E+04  0.14699868428E+04  0.50400001928E-02 0.  1.
    10030    2    1    2    0    0  0.00000000000E+00  0.00000000000E+00 -0.38271710551E+02  0.29017019751E+04  0.29014495736E+04 0.  0.
        3    1    3    3  502    0 -0.11088730723E+04  0.48014701913E+03  0.78371772830E+03  0.14402618298E+04  0.10100000352E+00 0.  1.
       -3    1    3    3    0  502  0.11088730723E+04 -0.48014701913E+03 -0.82198943886E+03  0.14614401453E+04  0.10100000352E+00 0. -1.
</event>
<event>
 5   0  0.9421924E-08  0.2899955E+04  0.7818609E-02  0.8272891E-01
        1   -1    0    0  501    0  0.00000000000E+00  0.00000000000E+00  0.12450601925E+04  0.12450601925E+04  0.50400001928E-02 0.  1.
       -1   -1    0    0    0  501  0.00000000000E+00  0.00000000000E+00 -0.16886207470E+04  0.16886207470E+04  0.50400001928E-02 0. -1.
    10030    2    1    2    0    0  0.00000000000E+00  0.00000000000E+00 -0.44356055451E+03  0.29336809396E+04  0.28999548082E+04 0.  0.
        1    1    3    3  502    0 -0.73350677875E+03 -0.50104368574E+03  0.93756588536E+03  0.12915520736E+04  0.50400001928E-02 0.  1.
       -1    1    3    3    0  502  0.73350677875E+03  0.50104368574E+03 -0.13811264399E+04  0.16421288660E+04  0.50400001928E-02 0. -1.
</event>
<event>
 5   0  0.9443352E-08  0.2900928E+04  0.7818609E-02  0.8272602E-01
       -1   -1    0    0    0  501  0.00000000000E+00  0.00000000000E+00  0.16596262302E+04  0.16596262302E+04  0.50400001928E-02 0.  1.
        1   -1    0    0  501    0  0.00000000000E+00  0.00000000000E+00 -0.12676620636E+04  0.12676620636E+04  0.50400001928E-02 0. -1.
    10030    2    1    2    0    0  0.00000000000E+00  0.00000000000E+00  0.39196416657E+03  0.29272882938E+04  0.29009275839E+04 0.  0.
        4    1    3    3  502    0  0.40741266759E+03 -0.90659596168E+03 -0.86999894231E+03  0.13209091914E+04  0.12699999809E+01 0. -1.
       -4    1    3    3    0  502 -0.40741266759E+03  0.90659596168E+03  0.12619631089E+04  0.16063791024E+04  0.12699999809E+01 0.  1.
</event>
<event>
 5   0  0.9443352E-08  0.2897493E+04  0.7818609E-02  0.8273624E-01
        1   -1    0    0  501    0  0.00000000000E+00  0.00000000000E+00  0.11156180909E+04  0.11156180909E+04  0.50400001928E-02 0.  1.
       -1   -1    0    0    0  501  0.00000000000E+00  0.00000000000E+00 -0.18813490863E+04  0.18813490863E+04  0.50400001928E-02 0. -1.
    10030    2    1    2    0    0  0.00000000000E+00  0.00000000000E+00 -0.76573099540E+03  0.29969671772E+04  0.28974934519E+04 0.  0.
        4    1    3    3  502    0 -0.11085393983E+04 -0.62644517014E+03 -0.10976565287E+04  0.16811140998E+04  0.12699999809E+01 0. -1.
       -4    1    3    3    0  502  0.11085393983E+04  0.62644517014E+03  0.33192553326E+03  0.13158530774E+04  0.12699999809E+01 0.  1.
</event>
<event>
 5   0  0.9763851E-08  0.2902021E+04  0.7818609E-02  0.8272276E-01
        1   -1    0    0  501    0  0.00000000000E+00  0.00000000000E+00  0.10346068440E+04  0.10346068441E+04  0.50400001928E-02 0. -1.
       -1   -1    0    0    0  501  0.00000000000E+00  0.00000000000E+00 -0.20350062648E+04  0.20350062648E+04  0.50400001928E-02 0.  1.
    10030    2    1    2    0    0  0.00000000000E+00  0.00000000000E+00 -0.10003994208E+04  0.30696131089E+04  0.29020209574E+04 0.  0.
        3    1    3    3  502    0 -0.10218512517E+04  0.92647174721E+03 -0.97665894281E+03  0.16900865598E+04  0.10100000352E+00 0.  1.
       -3    1    3    3    0  502  0.10218512517E+04 -0.92647174721E+03 -0.23740477952E+02  0.13795265490E+04  0.10100000352E+00 0. -1.
</event>
<event>
 5   0  0.2608591E-07  0.2899123E+04  0.7818609E-02  0.8273138E-01
       -2   -1    0    0    0  501  0.00000000000E+00  0.00000000000E+00  0.88723743324E+03  0.88723743324E+03  0.25500000920E-02 0. -1.
        2   -1    0    0  501    0  0.00000000000E+00  0.00000000000E+00 -0.23682825282E+04  0.23682825282E+04  0.25500000920E-02 0.  1.
    10030    2    1    2    0    0  0.00000000000E+00  0.00000000000E+00 -0.14810450950E+04  0.32555199615E+04  0.28991232547E+04 0.  0.
        2    1    3    3  502    0  0.74790395373E+03 -0.38127518490E+03 -0.20675313822E+04  0.22314607563E+04  0.25500000920E-02 0.  1.
       -2    1    3    3    0  502 -0.74790395373E+03  0.38127518490E+03  0.58648628718E+03  0.10240592052E+04  0.25500000920E-02 0. -1.
</event>
<event>
 5   0  0.8407500E-08  0.2899840E+04  0.7818609E-02  0.8272925E-01
       -3   -1    0    0    0  501  0.00000000000E+00  0.00000000000E+00  0.97340650743E+03  0.97340651267E+03  0.10100000352E+00 0.  1.
        3   -1    0    0  501    0  0.00000000000E+00  0.00000000000E+00 -0.21597027350E+04  0.21597027374E+04  0.10100000352E+00 0. -1.
    10030    2    1    2    0    0  0.00000000000E+00  0.00000000000E+00 -0.11862962276E+04  0.31331092501E+04  0.28998404841E+04 0.  0.
        4    1    3    3  502    0 -0.57291208940E+03  0.11804640591E+04 -0.12596533247E+04  0.18189149975E+04  0.12699999809E+01 0. -1.
       -4    1    3    3    0  502  0.57291208940E+03 -0.11804640591E+04  0.73357097039E+02  0.13141942526E+04  0.12699999809E+01 0.  1.
</event>
<event>
 5   0  0.2546841E-07  0.2900592E+04  0.7818609E-02  0.8272701E-01
       -2   -1    0    0    0  501  0.00000000000E+00  0.00000000000E+00  0.97110238938E+03  0.97110238939E+03  0.25500000920E-02 0.  1.
        2   -1    0    0  501    0  0.00000000000E+00  0.00000000000E+00 -0.21659487987E+04  0.21659487987E+04  0.25500000920E-02 0. -1.
    10030    2    1    2    0    0  0.00000000000E+00  0.00000000000E+00 -0.11948464093E+04  0.31370511881E+04  0.29005917008E+04 0.  0.
        1    1    3    3  502    0 -0.80768506361E+03  0.12028579678E+04 -0.52787205469E+03  0.15420348112E+04  0.50400001928E-02 0. -1.
       -1    1    3    3    0  502  0.80768506361E+03 -0.12028579678E+04 -0.66697435460E+03  0.15950163769E+04  0.50400001928E-02 0.  1.
</event>
<event>
 5   0  0.9763851E-08  0.2900469E+04  0.7818609E-02  0.8272738E-01
        1   -1    0    0  501    0  0.00000000000E+00  0.00000000000E+00  0.19424332407E+04  0.19424332407E+04  0.50400001928E-02 0. -1.
       -1   -1    0    0    0  501  0.00000000000E+00  0.00000000000E+00 -0.10827555628E+04  0.10827555628E+04  0.50400001928E-02 0.  1.
    10030    2    1    2    0    0  0.00000000000E+00  0.00000000000E+00  0.85967767789E+03  0.30251888035E+04  0.29004692012E+04 0.  0.
        3    1    3    3  502    0 -0.73925431701E+03  0.43701255604E+03 -0.78904531795E+03  0.11662201522E+04  0.10100000352E+00 0.  1.
       -3    1    3    3    0  502  0.73925431701E+03 -0.43701255604E+03  0.16487229958E+04  0.18589686513E+04  0.10100000352E+00 0. -1.
</event>
<event>
 5   0  0.2546841E-07  0.2901089E+04  0.7818609E-02  0.8272554E-01
        2   -1    0    0  501    0  0.00000000000E+00  0.00000000000E+00  0.18818026754E+04  0.18818026754E+04  0.25500000920E-02 0.  1.
       -2   -1    0    0    0  501  0.00000000000E+00  0.00000000000E+00 -0.11181187681E+04  0.11181187681E+04  0.25500000920E-02 0. -1.
    10030    2    1    2    0    0  0.00000000000E+00  0.00000000000E+00  0.76368390730E+03  0.29999214434E+04  0.29010886847E+04 0.  0.
        1    1    3    3  502    0  0.71879215221E+03 -0.60425178646E+03 -0.76139739276E+03  0.12089286039E+04  0.50400001928E-02 0. -1.
       -1    1    3    3    0  502 -0.71879215221E+03  0.60425178646E+03  0.15250813001E+04  0.17909928396E+04  0.50400001928E-02 0.  1.
</event>
<event>
 5   0  0.9421924E-08  0.2900827E+04  0.7818609E-02  0.8272631E-01
        1   -1    0    0  501    0  0.00000000000E+00  0.00000000000E+00  0.25758084952E+04  0.25758084952E+04  0.50400001928E-02 0. -1.
       -1   -1    0    0    0  501  0.00000000000E+00  0.00000000000E+00 -0.81671433964E+03  0.81671433966E+03  0.50400001928E-02 0.  1.
    10030    2    1    2    0    0  0.00000000000E+00  0.00000000000E+00  0.17590941555E+04  0.33925228348E+04  0.29008272849E+04 0.  0.
        1    1    3    3  502    0 -0.10295967166E+04  0.64203172075E+03 -0.49765900502E+02  0.12143931712E+04  0.50400001928E-02 0. -1.
       -1    1    3    3    0  502  0.10295967166E+04 -0.64203172075E+03  0.18088600560E+04  0.21781296637E+04  0.50400001928E-02 0.  1.
</event>
<event>
 5   0  0.2678723E-07  0.2901352E+04  0.7818609E-02  0.8272475E-01
       -2   -1    0    0    0  501  0.00000000000E+00  0.00000000000E+00  0.17310839198E+04  0.17310839198E+04  0.25500000920E-02 0. -1.
        2   -1    0    0  501    0  0.00000000000E+00  0.00000000000E+00 -0.12156899586E+04  0.12156899586E+04  0.25500000920E-02 0.  1.
    10030    2    1    2    0    0  0.00000000000E+00  0.00000000000E+00  0.51539396122E+03  0.29467738784E+04  0.29013523321E+04 0.  0.
        5    1    3    3  502    0  0.37536838565E+03 -0.11019871691E+03 -0.11610953427E+04  0.12252386164E+04  0.46999998093E+01 0.  1.
       -5    1    3    3    0  502 -0.37536838565E+03  0.11019871691E+03  0.16764893039E+04  0.17215352620E+04  0.46999998093E+01 0. -1.
</event>
<event>
 5   0  0.9395744E-08  0.2899764E+04  0.7818609E-02  0.8272948E-01
       -1   -1    0    0    0  501  0.00000000000E+00  0.00000000000E+00  0.75424020076E+03  0.75424020077E+03  0.50400001928E-02 0.  1.
        1   -1    0    0  501    0  0.00000000000E+00  0.00000000000E+00 -0.27871199875E+04  0.27871199875E+04  0.50400001928E-02 0. -1.
    10030    2    1    2    0    0  0.00000000000E+00  0.00000000000E+00 -0.20328797868E+04  0.35413601883E+04  0.28997640862E+04 0.  0.
        2    1    3    3  502    0 -0.21395830599E+03 -0.11709946640E+04 -0.20273223749E+04  0.23509663272E+04  0.25500000920E-02 0. -1.
       -2    1    3    3    0  502  0.21395830599E+03  0.11709946640E+04 -0.55574118392E+01  0.11903938611E+04  0.25500000920E-02 0.  1.
</event>
<event>
 5   0  0.2534588E-07  0.2900282E+04  0.7818609E-02  0.8272794E-01
        2   -1    0    0  501    0  0.00000000000E+00  0.00000000000E+00  0.12274441164E+04  0.12274441164E+04  0.25500000920E-02 0.  1.
       -2   -1    0    0    0  501  0.00000000000E+00  0.00000000000E+00 -0.17132420646E+04  0.17132420646E+04  0.25500000920E-02 0. -1.
    10030    2    1    2    0    0  0.00000000000E+00  0.00000000000E+00 -0.48579794820E+03  0.29406861810E+04  0.29002819809E+04 0.  0.
        3    1    3    3  502    0 -0.12738980870E+04 -0.52203716870E+03  0.21904624560E+03  0.13940302757E+04  0.10100000352E+00 0.  1.
       -3    1    3    3    0  502  0.12738980870E+04  0.52203716870E+03 -0.70484419379E+03  0.15466559053E+04  0.10100000352E+00 0. -1.
</event>
<event>
 5   0  0.2608591E-07  0.2885540E+04  0.7818609E-02  0.8277193E-01
        2   -1    0    0  501    0  0.00000000000E+00  0.00000000000E+00  0.17501057451E+04  0.17501057451E+04  0.25500000920E-02 0.  1.
       -2   -1    0    0    0  501  0.00000000000E+00  0.00000000000E+00 -0.11894057730E+04  0.11894057730E+04  0.25500000920E-02 0. -1.
    10030    2    1    2    0    0  0.00000000000E+00  0.00000000000E+00  0.56069997211E+03  0.29395115181E+04  0.28855404185E+04 0.  0.
        2    1    3    3  502    0 -0.12403700301E+03 -0.27692562434E+03 -0.11565329382E+04  0.11956761337E+04  0.25500000920E-02 0. -1.
       -2    1    3    3    0  502  0.12403700301E+03  0.27692562434E+03  0.17172329103E+04  0.17438353844E+04  0.25500000920E-02 0.  1.
</event>
<event>
 5   0  0.9395744E-08  0.2899046E+04  0.7818609E-02  0.8273161E-01
        1   -1    0    0  501    0  0.00000000000E+00  0.00000000000E+00  0.21600169172E+04  0.21600169172E+04  0.50400001928E-02 0. -1.
       -1   -1    0    0    0  501  0.00000000000E+00  0.00000000000E+00 -0.97273175711E+03  0.97273175712E+03  0.50400001928E-02 0.  1.
    10030    2    1    2    0    0  0.00000000000E+00  0.00000000000E+00  0.11872851601E+04  0.31327486743E+04  0.28990460854E+04 0.  0.
        2    1    3    3  502    0 -0.12929161316E+04  0.60933602357E+02  0.12987560263E+04  0.18336063491E+04  0.25500000920E-02 0. -1.
       -2    1    3    3    0  502  0.12929161316E+04 -0.60933602357E+02 -0.11147086623E+03  0.12991423253E+04  0.25500000920E-02 0.  1.
</event>
<event>
 5   0  0.2678723E-07  0.2895617E+04  0.7818609E-02  0.8274183E-01
        2   -1    0    0  501    0  0.00000000000E+00  0.00000000000E+00  0.23877530581E+04  0.23877530581E+04  0.25500000920E-02 0.  1.
       -2   -1    0    0    0  501  0.00000000000E+00  0.00000000000E+00 -0.87787509908E+03  0.87787509908E+03  0.25500000920E-02 0. -1.
    10030    2    1    2    0    0  0.00000000000E+00  0.00000000000E+00  0.15098779590E+04  0.32656281571E+04  0.28956166545E+04 0.  0.
        5    1    3    3  502    0  0.10786584332E+04  0.40225100246E+03 -0.23521172784E+03  0.11750134175E+04  0.46999998093E+01 0. -1.
       -5    1    3    3    0  502 -0.10786584332E+04 -0.40225100246E+03  0.17450896868E+04  0.20906147396E+04  0.46999998093E+01 0.  1.
</event>
<event>
 5   0  0.2678723E-07  0.2900862E+04  0.7818609E-02  0.8272621E-01
       -2   -1    0    0    0  501  0.00000000000E+00  0.00000000000E+00  0.10507353653E+04  0.10507353653E+04  0.25500000920E-02 0.  1.
        2   -1    0    0  501    0  0.00000000000E+00  0.00000000000E+00 -0.20021698169E+04  0.20021698169E+04  0.25500000920E-02 0. -1.
    10030    2    1    2    0    0  0.00000000000E+00  0.00000000000E+00 -0.95143445157E+03  0.30529051822E+04  0.29008623780E+04 0.  0.
        5    1    3    3  502    0 -0.13432084214E+04 -0.44499719932E+03 -0.81100148443E+03  0.16309435516E+04  0.46999998093E+01 0. -1.
       -5    1    3    3    0  502  0.13432084214E+04  0.44499719932E+03 -0.14043296714E+03  0.14219616306E+04  0.46999998093E+01 0.  1.
</event>
<event>
 5   0  0.2534588E-07  0.2897774E+04  0.7818609E-02  0.8273540E-01
       -2   -1    0    0    0  501  0.00000000000E+00  0.00000000000E+00  0.10766631651E+04  0.10766631651E+04  0.25500000920E-02 0. -1.
        2   -1    0    0  501    0  0.00000000000E+00  0.00000000000E+00 -0.19497957657E+04  0.19497957657E+04  0.25500000920E-02 0.  1.
    10030    2    1    2    0    0  0.00000000000E+00  0.00000000000E+00 -0.87313260059E+03  0.30264589308E+04  0.28977738217E+04 0.  0.
        3    1    3    3  502    0  0.54190454944E+03  0.63893178223E+03 -0.16711694822E+04  0.18694121567E+04  0.10100000352E+00 0.  1.
       -3    1    3    3    0  502 -0.54190454944E+03 -0.63893178223E+03  0.79803688161E+03  0.11570467742E+04  0.10100000352E+00 0. -1.
</event>
<event>
 5   0  0.2546841E-07  0.2900240E+04  0.7818609E-02  0.8272806E-01
       -2   -1    0    0    0  501  0.00000000000E+00  0.00000000000E+00  0.12479691332E+04  0.12479691332E+04  0.25500000920E-02 0. -1.
        2   -1    0    0  501    0  0.00000000000E+00  0.00000000000E+00 -0.16850166118E+04  0.16850166118E+04  0.25500000920E-02 0.  1.
    10030    2    1    2    0    0  0.00000000000E+00  0.00000000000E+00 -0.43704747860E+03  0.29329857450E+04  0.29002404869E+04 0.  0.
        1    1    3    3  502    0  0.79958074920E+03  0.11344745222E+04  0.20632289702E+03  0.14031860012E+04  0.50400001928E-02 0. -1.
       -1    1    3    3    0  502 -0.79958074920E+03 -0.11344745222E+04 -0.64337037562E+03  0.15297997439E+04  0.50400001928E-02 0.  1.
</event>
<event>
 5   0  0.9388076E-08  0.2900669E+04  0.7818609E-02  0.8272678E-01
        1   -1    0    0  501    0  0.00000000000E+00  0.00000000000E+00  0.14874669537E+04  0.14874669537E+04  0.50400001928E-02 0.  1.
       -1   -1    0    0    0  501  0.00000000000E+00  0.00000000000E+00 -0.14141293350E+04  0.14141293350E+04  0.50400001928E-02 0. -1.
    10030    2    1    2    0    0  0.00000000000E+00  0.00000000000E+00  0.73337618692E+02  0.29015962887E+04  0.29006693394E+04 0.  0.
        5    1    3    3  502    0  0.60280550932E+03  0.10033957200E+04 -0.81991734505E+03  0.14291479965E+04  0.46999998093E+01 0. -1.
       -5    1    3    3    0  502 -0.60280550932E+03 -0.10033957200E+04  0.89325496374E+03  0.14724482922E+04  0.46999998093E+01 0.  1.
</event>
<event>
 5   0  0.9421924E-08  0.2916965E+04  0.7818609E-02  0.8267848E-01
       -1   -1    0    0    0  501  0.00000000000E+00  0.00000000000E+00  0.71200952040E+03  0.71200952042E+03  0.50400001928E-02 0.  1.
        1   -1    0    0  501    0  0.00000000000E+00  0.00000000000E+00 -0.29875595807E+04  0.29875595807E+04  0.50400001928E-02 0. -1.
    10030    2    1    2    0    0  0.00000000000E+00  0.00000000000E+00 -0.22755500603E+04  0.36995691011E+04  0.29169647679E+04 0.  0.
        1    1    3    3  502    0 -0.60972910422E+02 -0.67556579481E+03 -0.27753308008E+04  0.28570208072E+04  0.50400001928E-02 0. -1.
       -1    1    3    3    0  502  0.60972910422E+02  0.67556579481E+03  0.49978074052E+03  0.84254829390E+03  0.50400001928E-02 0.  1.
</event>
<event>
 5   0  0.2608591E-07  0.2901332E+04  0.7818609E-02  0.8272481E-01
        2   -1    0    0  501    0  0.00000000000E+00  0.00000000000E+00  0.18769983358E+04  0.18769983358E+04  0.25500000920E-02 0.  1.
       -2   -1    0    0    0  501  0.00000000000E+00  0.00000000000E+00 -0.11211687819E+04  0.11211687819E+04  0.25500000920E-02 0. -1.
    10030    2    1    2    0    0  0.00000000000E+00  0.00000000000E+00  0.75582955392E+03  0.29981671177E+04  0.29013320650E+04 0.  0.
        2    1    3    3  502    0  0.16473097290E+03  0.88898330786E+03 -0.79441123610E+03  0.12035434463E+04  0.25500000920E-02 0. -1.
       -2    1    3    3    0  502 -0.16473097290E+03 -0.88898330786E+03  0.15502407900E+04  0.17946236714E+04  0.25500000920E-02 0.  1.
</event>
<event>
 5   0  0.9395744E-08  0.2899592E+04  0.7818609E-02  0.8272999E-01
        1   -1    0    0  501    0  0.00000000000E+00  0.00000000000E+00  0.10376474095E+04  0.10376474095E+04  0.50400001928E-02 0.  1.
       -1   -1    0    0    0  501  0.00000000000E+00  0.00000000000E+00 -0.20256478518E+04  0.20256478518E+04  0.50400001928E-02 0. -1.
    10030    2    1    2    0    0  0.00000000000E+00  0.00000000000E+00 -0.98800044234E+03  0.30632952613E+04  0.28995918650E+04 0.  0.
        2    1    3    3  502    0  0.60657365932E+03  0.63964540749E+03  0.72199572760E+03  0.11394541159E+04  0.25500000920E-02 0.  1.
       -2    1    3    3    0  502 -0.60657365932E+03 -0.63964540749E+03 -0.17099961699E+04  0.19238411454E+04  0.25500000920E-02 0. -1.
</event>
<event>
 5   0  0.2546841E-07  0.2900891E+04  0.7818609E-02  0.8272612E-01
        2   -1    0    0  501    0  0.00000000000E+00  0.00000000000E+00  0.16787172949E+04  0.16787172949E+04  0.25500000920E-02 0. -1.
       -2   -1    0    0    0  501  0.00000000000E+00  0.00000000000E+00 -0.12532144838E+04  0.12532144838E+04  0.25500000920E-02 0.  1.
    10030    2    1    2    0    0  0.00000000000E+00  0.00000000000E+00  0.42550281119E+03  0.29319317787E+04  0.29008914686E+04 0.  0.
        1    1    3    3  502    0 -0.77918266803E+03  0.11279695662E+04 -0.26597481275E+03  0.13964897327E+04  0.50400001928E-02 0.  1.
       -1    1    3    3    0  502  0.77918266803E+03 -0.11279695662E+04  0.69147762394E+03  0.15354420461E+04  0.50400001928E-02 0. -1.
</event>
<event>
 5   0  0.2678723E-07  0.2900473E+04  0.7818609E-02  0.8272737E-01
       -2   -1    0    0    0  501  0.00000000000E+00  0.00000000000E+00  0.11653889805E+04  0.11653889805E+04  0.25500000920E-02 0. -1.
        2   -1    0    0  501    0  0.00000000000E+00  0.00000000000E+00 -0.18047070359E+04  0.18047070359E+04  0.25500000920E-02 0.  1.
    10030    2    1    2    0    0  0.00000000000E+00  0.00000000000E+00 -0.63931805541E+03  0.29700960165E+04  0.29004728530E+04 0.  0.
        5    1    3    3  502    0  0.78444697860E+03  0.41690244746E+03 -0.14934727531E+04  0.17377133444E+04  0.46999998093E+01 0.  1.
       -5    1    3    3    0  502 -0.78444697860E+03 -0.41690244746E+03  0.85415469769E+03  0.12323826721E+04  0.46999998093E+01 0. -1.
</event>
<event>
 5   0  0.9388076E-08  0.2887811E+04  0.7818609E-02  0.8276513E-01
       -1   -1    0    0    0  501  0.00000000000E+00  0.00000000000E+00  0.13675300172E+04  0.13675300172E+04  0.50400001928E-02 0. -1.
        1   -1    0    0  501    0  0.00000000000E+00  0.00000000000E+00 -0.15245464603E+04  0.15245464603E+04  0.50400001928E-02 0.  1.
    10030    2    1    2    0    0  0.00000000000E+00  0.00000000000E+00 -0.15701644310E+03  0.28920764775E+04  0.28878109683E+04 0.  0.
        5    1    3    3  502    0  0.82213083387E+03  0.75073258842E+03 -0.99929133392E+03  0.14960293404E+04  0.46999998093E+01 0.  1.
       -5    1    3    3    0  502 -0.82213083387E+03 -0.75073258842E+03  0.84227489082E+03  0.13960471371E+04  0.46999998093E+01 0. -1.
</event>
<event>
 5   0  0.9388076E-08  0.2900247E+04  0.7818609E-02  0.8272804E-01
        1   -1    0    0  501    0  0.00000000000E+00  0.00000000000E+00  0.14737772660E+04  0.14737772660E+04  0.50400001928E-02 0.  1.
       -1   -1    0    0    0  501  0.00000000000E+00  0.00000000000E+00 -0.14268497859E+04  0.14268497859E+04  0.50400001928E-02 0. -1.
    10030    2    1    2    0    0  0.00000000000E+00  0.00000000000E+00  0.46927480170E+02  0.29006270519E+04  0.29002474215E+04 0.  0.
        5    1    3    3  502    0 -0.63459910174E+03  0.11430078731E+04 -0.60403664296E+03  0.14401615791E+04  0.46999998093E+01 0. -1.
       -5    1    3    3    0  502  0.63459910174E+03 -0.11430078731E+04  0.65096412313E+03  0.14604654729E+04  0.46999998093E+01 0.  1.
</event>
<event>
 5   0  0.2546841E-07  0.2899925E+04  0.7818609E-02  0.8272900E-01
        2   -1    0    0  501    0  0.00000000000E+00  0.00000000000E+00  0.86991625096E+03  0.86991625096E+03  0.25500000920E-02 0.  1.
       -2   -1    0    0    0  501  0.00000000000E+00  0.00000000000E+00 -0.24167748559E+04  0.24167748560E+04  0.25500000920E-02 0. -1.
    10030    2    1    2    0    0  0.00000000000E+00  0.00000000000E+00 -0.15468586050E+04  0.32866911069E+04  0.28999253246E+04 0.  0.
        1    1    3    3  502    0  0.40386375832E+03  0.96206057589E+03 -0.19145516325E+04  0.21804069438E+04  0.50400001928E-02 0. -1.
       -1    1    3    3    0  502 -0.40386375832E+03 -0.96206057589E+03  0.36769302755E+03  0.11062841631E+04  0.50400001928E-02 0.  1.
</event>
<event>
 5   0  0.2492232E-07  0.2898849E+04  0.7818609E-02  0.8273220E-01
       -2   -1    0    0    0  501  0.00000000000E+00  0.00000000000E+00  0.11260698615E+04  0.11260698615E+04  0.25500000920E-02 0.  1.
        2   -1    0    0  501    0  0.00000000000E+00  0.00000000000E+00 -0.18656319161E+04  0.18656319161E+04  0.25500000920E-02 0. -1.
    10030    2    1    2    0    0  0.00000000000E+00  0.00000000000E+00 -0.73956205458E+03  0.29917017775E+04  0.28988493395E+04 0.  0.
        4    1    3    3  502    0 -0.12915023375E+04  0.44375662665E+03  0.13150558490E+03  0.13719305971E+04  0.12699999809E+01 0.  1.
       -4    1    3    3    0  502  0.12915023375E+04 -0.44375662665E+03 -0.87106763949E+03  0.16197711804E+04  0.12699999809E+01 0. -1.
</event>
<event>
 5   0  0.9395744E-08  0.2902835E+04  0.7818609E-02  0.8272034E-01
        1   -1    0    0  501    0  0.00000000000E+00  0.00000000000E+00  0.13920444011E+04  0.13920444011E+04  0.50400001928E-02 0.  1.
       -1   -1    0    0    0  501  0.00000000000E+00  0.00000000000E+00 -0.15133233480E+04  0.15133233480E+04  0.50400001928E-02 0. -1.
    10030    2    1    2    0    0  0.00000000000E+00  0.00000000000E+00 -0.12127894691E+03  0.29053677491E+04  0.29028353682E+04 0.  0.
        2    1    3    3  502    0 -0.27276130045E+03  0.77100196186E+03 -0.12607562201E+04  0.15027804227E+04  0.25500000920E-02 0. -1.
       -2    1    3    3    0  502  0.27276130045E+03 -0.77100196186E+03  0.11394772732E+04  0.14025873265E+04  0.25500000920E-02 0.  1.
</event>
<event>
 5   0  0.9443352E-08  0.2899764E+04  0.7818609E-02  0.8272948E-01
        1   -1    0    0  501    0  0.00000000000E+00  0.00000000000E+00  0.18338063360E+04  0.18338063360E+04  0.50400001928E-02 0. -1.
       -1   -1    0    0    0  501  0.00000000000E+00  0.00000000000E+00 -0.11463359300E+04  0.11463359300E+04  0.50400001928E-02 0.  1.
    10030    2    1    2    0    0  0.00000000000E+00  0.00000000000E+00  0.68747040598E+03  0.29801422660E+04  0.28997641915E+04 0.  0.
        4    1    3    3  502    0 -0.66793546967E+03  0.76924483870E+02  0.16639044720E+04  0.17946127362E+04  0.12699999809E+01 0. -1.
       -4    1    3    3    0  502  0.66793546967E+03 -0.76924483870E+02 -0.97643406603E+03  0.11855295298E+04  0.12699999809E+01 0.  1.
</event>
<event>
 5   0  0.2534588E-07  0.2896497E+04  0.7818609E-02  0.8273920E-01
       -2   -1    0    0    0  501  0.00000000000E+00  0.00000000000E+00  0.11300574142E+04  0.11300574142E+04  0.25500000920E-02 0.  1.
        2   -1    0    0  501    0  0.00000000000E+00  0.00000000000E+00 -0.18560334106E+04  0.18560334106E+04  0.25500000920E-02 0. -1.
    10030    2    1    2    0    0  0.00000000000E+00  0.00000000000E+00 -0.72597599642E+03  0.29860908248E+04  0.28964974135E+04 0.  0.
        3    1    3    3  502    0  0.11894357071E+02 -0.14371610771E+04 -0.17899956859E+03  0.14483142935E+04  0.10100000352E+00 0. -1.
       -3    1    3    3    0  502 -0.11894357071E+02  0.14371610771E+04 -0.54697642784E+03  0.15377765312E+04  0.10100000352E+00 0.  1.
</event>
<event>
 5   0  0.9421924E-08  0.2902204E+04  0.7818609E-02  0.8272222E-01
       -1   -1    0    0    0  501  0.00000000000E+00  0.00000000000E+00  0.10859053042E+04  0.10859053042E+04  0.50400001928E-02 0. -1.
        1   -1    0    0  501    0  0.00000000000E+00  0.00000000000E+00 -0.19391165395E+04  0.19391165396E+04  0.50400001928E-02 0.  1.
    10030    2    1    2    0    0  0.00000000000E+00  0.00000000000E+00 -0.85321123532E+03  0.30250218438E+04  0.29022039459E+04 0.  0.
        1    1    3    3  502    0 -0.46052989782E+03  0.13022178428E+04 -0.89021825601E+03  0.16432734527E+04  0.50400001928E-02 0. -1.
       -1    1    3    3    0  502  0.46052989782E+03 -0.13022178428E+04  0.37007020694E+02  0.13817483911E+04  0.50400001928E-02 0.  1.
</event>
<event>
 5   0  0.2678723E-07  0.2899578E+04  0.7818609E-02  0.8273003E-01
        2   -1    0    0  501    0  0.00000000000E+00  0.00000000000E+00  0.12229579762E+04  0.12229579762E+04  0.25500000920E-02 0. -1.
       -2   -1    0    0    0  501  0.00000000000E+00  0.00000000000E+00 -0.17186917761E+04  0.17186917761E+04  0.25500000920E-02 0.  1.
    10030    2    1    2    0    0  0.00000000000E+00  0.00000000000E+00 -0.49573379989E+03  0.29416497523E+04  0.28995777735E+04 0.  0.
        5    1    3    3  502    0  0.92902893704E+03 -0.46150284505E+03  0.77963965641E+03  0.12976670319E+04  0.46999998093E+01 0. -1.
       -5    1    3    3    0  502 -0.92902893704E+03  0.46150284505E+03 -0.12753734563E+04  0.16439827204E+04  0.46999998093E+01 0.  1.
</event>
<event>
 5   0  0.9395744E-08  0.2899100E+04  0.7818609E-02  0.8273145E-01
        1   -1    0    0  501    0  0.00000000000E+00  0.00000000000E+00  0.15927625274E+04  0.15927625274E+04  0.50400001928E-02 0.  1.
       -1   -1    0    0    0  501  0.00000000000E+00  0.00000000000E+00 -0.13192144498E+04  0.13192144498E+04  0.50400001928E-02 0. -1.
    10030    2    1    2    0    0  0.00000000000E+00  0.00000000000E+00  0.27354807754E+03  0.29119769772E+04  0.28991000958E+04 0.  0.
        2    1    3    3  502    0 -0.76638968710E+03 -0.77661231605E+03 -0.82177887277E+03  0.13659430287E+04  0.25500000920E-02 0. -1.
       -2    1    3    3    0  502  0.76638968710E+03  0.77661231605E+03  0.10953269503E+04  0.15460339485E+04  0.25500000920E-02 0.  1.
</event>
<event>
 5   0  0.2546841E-07  0.2903650E+04  0.7818609E-02  0.8271792E-01
       -2   -1    0    0    0  501  0.00000000000E+00  0.00000000000E+00  0.92494948092E+03  0.92494948093E+03  0.25500000920E-02 0.  1.
        2   -1    0    0  501    0  0.00000000000E+00  0.00000000000E+00 -0.22788219796E+04  0.22788219796E+04  0.25500000920E-02 0. -1.
    10030    2    1    2    0    0  0.00000000000E+00  0.00000000000E+00 -0.13538724987E+04  0.32037714605E+04  0.29036495706E+04 0.  0.
        1    1    3    3  502    0 -0.11653498274E+04 -0.59257837284E+03  0.19672885611E+02  0.13075076943E+04  0.50400001928E-02 0.  1.
       -1    1    3    3    0  502  0.11653498274E+04  0.59257837284E+03 -0.13735453843E+04  0.18962637662E+04  0.50400001928E-02 0. -1.
</event>
<event>
 5   0  0.2608591E-07  0.2898118E+04  0.7818609E-02  0.8273438E-01
       -2   -1    0    0    0  501  0.00000000000E+00  0.00000000000E+00  0.15280794212E+04  0.15280794212E+04  0.25500000920E-02 0. -1.
        2   -1    0    0  501    0  0.00000000000E+00  0.00000000000E+00 -0.13741245278E+04  0.13741245278E+04  0.25500000920E-02 0.  1.
    10030    2    1    2    0    0  0.00000000000E+00  0.00000000000E+00  0.15395489335E+03  0.29022039490E+04  0.28981176050E+04 0.  0.
        2    1    3    3  502    0 -0.50846351715E+03 -0.87453555825E+03 -0.96199390812E+03  0.13959870595E+04  0.25500000920E-02 0.  1.
       -2    1    3    3    0  502  0.50846351715E+03  0.87453555825E+03  0.11159488015E+04  0.15062168896E+04  0.25500000920E-02 0. -1.
</event>
<event>
 5   0  0.9443352E-08  0.2900032E+04  0.7818609E-02  0.8272868E-01
        1   -1    0    0  501    0  0.00000000000E+00  0.00000000000E+00  0.93754791672E+03  0.93754791673E+03  0.50400001928E-02 0.  1.
       -1   -1    0    0    0  501  0.00000000000E+00  0.00000000000E+00 -0.22426021551E+04  0.22426021551E+04  0.50400001928E-02 0. -1.
    10030    2    1    2    0    0  0.00000000000E+00  0.00000000000E+00 -0.13050542384E+04  0.31801500719E+04  0.29000323989E+04 0.  0.
        4    1    3    3  502    0 -0.27714858998E+03  0.15941354104E+03  0.89841164185E+03  0.95360846741E+03  0.12699999809E+01 0.  1.
       -4    1    3    3    0  502  0.27714858998E+03 -0.15941354104E+03 -0.22034658803E+04  0.22265416045E+04  0.12699999809E+01 0. -1.
</event>
<event>
 5   0  0.2492232E-07  0.2900349E+04  0.7818609E-02  0.8272774E-01
        2   -1    0    0  501    0  0.00000000000E+00  0.00000000000E+00  0.24318548919E+04  0.24318548919E+04  0.25500000920E-02 0.  1.
       -2   -1    0    0    0  501  0.00000000000E+00  0.00000000000E+00 -0.86477444031E+03  0.86477444031E+03  0.25500000920E-02 0. -1.
    10030    2    1    2    0    0  0.00000000000E+00  0.00000000000E+00  0.15670804516E+04  0.32966293322E+04  0.29003489122E+04 0.  0.
        4    1    3    3  502    0  0.69266311167E+03  0.50224576534E+03 -0.54732494821E+03  0.10156767236E+04  0.12699999809E+01 0. -1.
       -4    1    3    3    0  502 -0.69266311167E+03 -0.50224576534E+03  0.21144053998E+04  0.22809526086E+04  0.12699999809E+01 0.  1.
</event>
<event>
 5   0  0.2678723E-07  0.2902482E+04  0.7818609E-02  0.8272139E-01
        2   -1    0    0  501    0  0.00000000000E+00  0.00000000000E+00  0.21240255774E+04  0.21240255774E+04  0.25500000920E-02 0.  1.
       -2   -1    0    0    0  501  0.00000000000E+00  0.00000000000E+00 -0.99156096392E+03  0.99156096392E+03  0.25500000920E-02 0. -1.
    10030    2    1    2    0    0  0.00000000000E+00  0.00000000000E+00  0.11324646135E+04  0.31155865413E+04  0.29024822817E+04 0.  0.
        5    1    3    3  502    0  0.12035667851E+04 -0.44664806954E+03  0.12926866371E+04  0.18218475062E+04  0.46999998093E+01 0.  1.
       -5    1    3    3    0  502 -0.12035667851E+04  0.44664806954E+03 -0.16022202360E+03  0.12937390351E+04  0.46999998093E+01 0. -1.
</event>
<event>
 5   0  0.9421924E-08  0.2900749E+04  0.7818609E-02  0.8272655E-01
        1   -1    0    0  501    0  0.00000000000E+00  0.00000000000E+00  0.15320368750E+04  0.15320368750E+04  0.50400001928E-02 0. -1.
       -1   -1    0    0    0  501  0.00000000000E+00  0.00000000000E+00 -0.13730649598E+04  0.13730649598E+04  0.50400001928E-02 0.  1.
    10030    2    1    2    0    0  0.00000000000E+00  0.00000000000E+00  0.15897191518E+03  0.29051018348E+04  0.29007489724E+04 0.  0.
        1    1    3    3  502    0  0.79032025743E+03 -0.37105204331E+03  0.12393691206E+04  0.15160216177E+04  0.50400001928E-02 0. -1.
       -1    1    3    3    0  502 -0.79032025743E+03  0.37105204331E+03 -0.10803972054E+04  0.13890802171E+04  0.50400001928E-02 0.  1.
</event>
<event>
 5   0  0.2492232E-07  0.2899728E+04  0.7818609E-02  0.8272958E-01
       -2   -1    0    0    0  501  0.00000000000E+00  0.00000000000E+00  0.11333468951E+04  0.11333468951E+04  0.25500000920E-02 0.  1.
        2   -1    0    0  501    0  0.00000000000E+00  0.00000000000E+00 -0.18547766572E+04  0.18547766572E+04  0.25500000920E-02 0. -1.
    10030    2    1    2    0    0  0.00000000000E+00  0.00000000000E+00 -0.72142976210E+03  0.29881235522E+04  0.28997278254E+04 0.  0.
        4    1    3    3  502    0 -0.92202282520E+03  0.86211300860E+03  0.37428751513E+03  0.13166084029E+04  0.12699999809E+01 0.  1.
       -4    1    3    3    0  502  0.92202282520E+03 -0.86211300860E+03 -0.10957172772E+04  0.16715151493E+04  0.12699999809E+01 0. -1.
</event>
<event>
 5   0  0.9763851E-08  0.2904055E+04  0.7818609E-02  0.8271672E-01
       -1   -1    0    0    0  501  0.00000000000E+00  0.00000000000E+00  0.84718712576E+03  0.84718712577E+03  0.50400001928E-02 0.  1.
        1   -1    0    0  501    0  0.00000000000E+00  0.00000000000E+00 -0.24886878426E+04  0.24886878426E+04  0.50400001928E-02 0. -1.
    10030    2    1    2    0    0  0.00000000000E+00  0.00000000000E+00 -0.16415007168E+04  0.33358749683E+04  0.29040553027E+04 0.  0.
        3    1    3    3  502    0  0.13046457962E+04 -0.20333994376E+03 -0.12682375831E+03  0.13264735437E+04  0.10100000352E+00 0.  1.
       -3    1    3    3    0  502 -0.13046457962E+04  0.20333994376E+03 -0.15146769585E+04  0.20094014246E+04  0.10100000352E+00 0. -1.
</event>
<event>
 5   0  0.9395744E-08  0.2899727E+04  0.7818609E-02  0.8272959E-01
        1   -1    0    0  501    0  0.00000000000E+00  0.00000000000E+00  0.16014180432E+04  0.16014180432E+04  0.50400001928E-02 0.  1.
       -1   -1    0    0    0  501  0.00000000000E+00  0.00000000000E+00 -0.13126521101E+04  0.13126521101E+04  0.50400001928E-02 0. -1.
    10030    2    1    2    0    0  0.00000000000E+00  0.00000000000E+00  0.28876593308E+03  0.29140701533E+04  0.28997274173E+04 0.  0.
        2    1    3    3  502    0 -0.91406786650E+03  0.97480535853E+03  0.70960534599E+03  0.15130450418E+04  0.25500000920E-02 0. -1.
       -2    1    3    3    0  502  0.91406786650E+03 -0.97480535853E+03 -0.42083941292E+03  0.14010251115E+04  0.25500000920E-02 0.  1.
</event>
<event>
 5   0  0.9395744E-08  0.2900911E+04  0.7818609E-02  0.8272606E-01
        1   -1    0    0  501    0  0.00000000000E+00  0.00000000000E+00  0.12640535497E+04  0.12640535497E+04  0.50400001928E-02 0.  1.
       -1   -1    0    0    0  501  0.00000000000E+00  0.00000000000E+00 -0.16643455315E+04  0.16643455315E+04  0.50400001928E-02 0. -1.
    10030    2    1    2    0    0  0.00000000000E+00  0.00000000000E+00 -0.40029198184E+03  0.29283990812E+04  0.29009114961E+04 0.  0.
        2    1    3    3  502    0 -0.42156224177E+03 -0.51436868872E+03 -0.15013642191E+04  0.16420671088E+04  0.25500000920E-02 0. -1.
       -2    1    3    3    0  502  0.42156224177E+03  0.51436868872E+03  0.11010722372E+04  0.12863319724E+04  0.25500000920E-02 0.  1.
</event>
<event>
 5   0  0.9421924E-08  0.2900106E+04  0.7818609E-02  0.8272846E-01
        1   -1    0    0  501    0  0.00000000000E+00  0.00000000000E+00  0.12874057478E+04  0.12874057478E+04  0.50400001928E-02 0. -1.
       -1   -1    0    0    0  501  0.00000000000E+00  0.00000000000E+00 -0.16332484340E+04  0.16332484340E+04  0.50400001928E-02 0.  1.
    10030    2    1    2    0    0  0.00000000000E+00  0.00000000000E+00 -0.34584268617E+03  0.29206541819E+04  0.29001058061E+04 0.  0.
        1    1    3    3  502    0  0.14312610638E+04 -0.85182168653E+02 -0.39099471870E+03  0.14861497585E+04  0.50400001928E-02 0. -1.
       -1    1    3    3    0  502 -0.14312610638E+04  0.85182168653E+02  0.45152032529E+02  0.14345044234E+04  0.50400001928E-02 0.  1.
</event>
<event>
 5   0  0.9388076E-08  0.2899656E+04  0.7818609E-02  0.8272980E-01
        1   -1    0    0  501    0  0.00000000000E+00  0.00000000000E+00  0.15643207252E+04  0.15643207252E+04  0.50400001928E-02 0. -1.
       -1   -1    0    0    0  501  0.00000000000E+00  0.00000000000E+00 -0.13437151100E+04  0.13437151100E+04  0.50400001928E-02 0.  1.
    10030    2    1    2    0    0  0.00000000000E+00  0.00000000000E+00  0.22060561523E+03  0.29080358352E+04  0.28996561143E+04 0.  0.
        5    1    3    3  502    0  0.30583879482E+03  0.36676276005E+03  0.14831733748E+04  0.15581648309E+04  0.46999998093E+01 0. -1.
       -5    1    3    3    0  502 -0.30583879482E+03 -0.36676276005E+03 -0.12625677596E+04  0.13498710043E+04  0.46999998093E+01 0.  1.
</event>
<event>
 5   0  0.9395744E-08  0.2898214E+04  0.7818609E-02  0.8273409E-01
       -1   -1    0    0    0  501  0.00000000000E+00  0.00000000000E+00  0.14358008628E+04  0.14358008628E+04  0.50400001928E-02 0.  1.
        1   -1    0    0  501    0  0.00000000000E+00  0.00000000000E+00 -0.14625364952E+04  0.14625364952E+04  0.50400001928E-02 0. -1.
    10030    2    1    2    0    0  0.00000000000E+00  0.00000000000E+00 -0.26735632386E+02  0.28983373580E+04  0.28982140444E+04 0.  0.
        2    1    3    3  502    0 -0.10205068193E+04  0.84491209138E+03  0.57368403519E+03  0.14437534355E+04  0.25500000920E-02 0. -1.
       -2    1    3    3    0  502  0.10205068193E+04 -0.84491209138E+03 -0.60041966758E+03  0.14545839225E+04  0.25500000920E-02 0.  1.
</event>
<event>
 5   0  0.2492232E-07  0.2899838E+04  0.7818609E-02  0.8272926E-01
        2   -1    0    0  501    0  0.00000000000E+00  0.00000000000E+00  0.14421981718E+04  0.14421981718E+04  0.25500000920E-02 0.  1.
       -2   -1    0    0    0  501  0.00000000000E+00  0.00000000000E+00 -0.14576808467E+04  0.14576808467E+04  0.25500000920E-02 0. -1.
    10030    2    1    2    0    0  0.00000000000E+00  0.00000000000E+00 -0.15482674837E+02  0.28998790185E+04  0.28998376866E+04 0.  0.
        4    1    3    3  502    0 -0.32611422661E+03 -0.40709181236E+03  0.13451226539E+04  0.14427164654E+04  0.12699999809E+01 0.  1.
       -4    1    3    3    0  502  0.32611422661E+03  0.40709181236E+03 -0.13606053288E+04  0.14571625531E+04  0.12699999809E+01 0. -1.
</event>
<event>
 5   0  0.2492232E-07  0.2901658E+04  0.7818609E-02  0.8272384E-01
        2   -1    0    0  501    0  0.00000000000E+00  0.00000000000E+00  0.13761684490E+04  0.13761684490E+04  0.25500000920E-02 0. -1.
       -2   -1    0    0    0  501  0.00000000000E+00  0.00000000000E+00 -0.15295398551E+04  0.15295398551E+04  0.25500000920E-02 0.  1.
    10030    2    1    2    0    0  0.00000000000E+00  0.00000000000E+00 -0.15337140619E+03  0.29057083041E+04  0.29016577952E+04 0.  0.
        4    1    3    3  502    0 -0.82772197057E+03  0.16548655324E+03 -0.12583301064E+04  0.15152246465E+04  0.12699999809E+01 0.  1.
       -4    1    3    3    0  502  0.82772197057E+03 -0.16548655324E+03  0.11049587002E+04  0.13904836576E+04  0.12699999809E+01 0. -1.
</event>
<event>
 5   0  0.2546841E-07  0.2899828E+04  0.7818609E-02  0.8272929E-01
        2   -1    0    0  501    0  0.00000000000E+00  0.00000000000E+00  0.26301019696E+04  0.26301019696E+04  0.25500000920E-02 0.  1.
       -2   -1    0    0    0  501  0.00000000000E+00  0.00000000000E+00 -0.79930359386E+03  0.79930359386E+03  0.25500000920E-02 0. -1.
    10030    2    1    2    0    0  0.00000000000E+00  0.00000000000E+00  0.18307983757E+04  0.34294055634E+04  0.28998275511E+04 0.  0.
        1    1    3    3  502    0 -0.27635421384E+03  0.32229093777E+03 -0.72414883805E+03  0.83942518413E+03  0.50400001928E-02 0. -1.
       -1    1    3    3    0  502  0.27635421384E+03 -0.32229093777E+03  0.25549472138E+04  0.25899803793E+04  0.50400001928E-02 0.  1.
</event>
<event>
 5   0  0.9443352E-08  0.2900517E+04  0.7818609E-02  0.8272724E-01
       -1   -1    0    0    0  501  0.00000000000E+00  0.00000000000E+00  0.18241649364E+04  0.18241649364E+04  0.50400001928E-02 0.  1.
        1   -1    0    0  501    0  0.00000000000E+00  0.00000000000E+00 -0.11529933737E+04  0.11529933737E+04  0.50400001928E-02 0. -1.
    10030    2    1    2    0    0  0.00000000000E+00  0.00000000000E+00  0.67117156273E+03  0.29771583101E+04  0.29005172533E+04 0.  0.
        4    1    3    3  502    0  0.53367821587E+03 -0.11186000817E+03  0.17149410401E+04  0.17995414648E+04  0.12699999809E+01 0.  1.
       -4    1    3    3    0  502 -0.53367821587E+03  0.11186000817E+03 -0.10437694774E+04  0.11776168453E+04  0.12699999809E+01 0. -1.
</event>
<event>
 5   0  0.9443352E-08  0.2901462E+04  0.7818609E-02  0.8272443E-01
       -1   -1    0    0    0  501  0.00000000000E+00  0.00000000000E+00  0.15268502505E+04  0.15268502505E+04  0.50400001928E-02 0. -1.
        1   -1    0    0  501    0  0.00000000000E+00  0.00000000000E+00 -0.13784067542E+04  0.13784067542E+04  0.50400001928E-02 0.  1.
    10030    2    1    2    0    0  0.00000000000E+00  0.00000000000E+00  0.14844349630E+03  0.29052570048E+04  0.29014621818E+04 0.  0.
        4    1    3    3  502    0  0.36692954580E+03  0.67215973766E+03 -0.11595354977E+04  0.13895899351E+04  0.12699999809E+01 0.  1.
       -4    1    3    3    0  502 -0.36692954580E+03 -0.67215973766E+03  0.13079789940E+04  0.15156670697E+04  0.12699999809E+01 0. -1.
</event>
<event>
 5   0  0.2678723E-07  0.2900646E+04  0.7818609E-02  0.8272685E-01
       -2   -1    0    0    0  501  0.00000000000E+00  0.00000000000E+00  0.12701089871E+04  0.12701089871E+04  0.25500000920E-02 0.  1.
        2   -1    0    0  501    0  0.00000000000E+00  0.00000000000E+00 -0.16561073175E+04  0.16561073175E+04  0.25500000920E-02 0. -1.
    10030    2    1    2    0    0  0.00000000000E+00  0.00000000000E+00 -0.38599833041E+03  0.29262163046E+04  0.29006459885E+04 0.  0.
        5    1    3    3  502    0 -0.65029623409E+03 -0.28360402060E+03  0.10831017636E+04  0.12947771827E+04  0.46999998093E+01 0.  1.
       -5    1    3    3    0  502  0.65029623409E+03  0.28360402060E+03 -0.14691000940E+04  0.16314391220E+04  0.46999998093E+01 0. -1.
</event>
<event>
 5   0  0.9388076E-08  0.2900706E+04  0.7818609E-02  0.8272667E-01
       -1   -1    0    0    0  501  0.00000000000E+00  0.00000000000E+00  0.12750253500E+04  0.12750253500E+04  0.50400001928E-02 0. -1.
        1   -1    0    0  501    0  0.00000000000E+00  0.00000000000E+00 -0.16497903522E+04  0.16497903522E+04  0.50400001928E-02 0.  1.
    10030    2    1    2    0    0  0.00000000000E+00  0.00000000000E+00 -0.37476500213E+03  0.29248157022E+04  0.29007064803E+04 0.  0.
        5    1    3    3  502    0  0.10594881545E+04  0.74753044065E+03 -0.84254101386E+03  0.15463551854E+04  0.46999998093E+01 0.  1.
       -5    1    3    3    0  502 -0.10594881545E+04 -0.74753044065E+03  0.46777601172E+03  0.13784605168E+04  0.46999998093E+01 0. -1.
</event>
<event>
 5   0  0.8407500E-08  0.2900193E+04  0.7818609E-02  0.8272820E-01
        3   -1    0    0  501    0  0.00000000000E+00  0.00000000000E+00  0.20885361178E+04  0.20885361202E+04  0.10100000352E+00 0. -1.
       -3   -1    0    0    0  501  0.00000000000E+00  0.00000000000E+00 -0.10068199362E+04  0.10068199412E+04  0.10100000352E+00 0.  1.
    10030    2    1    2    0    0  0.00000000000E+00  0.00000000000E+00  0.10817161816E+04  0.30953560615E+04  0.29001929677E+04 0.  0.
        4    1    3    3  502    0 -0.24346649320E+03  0.60370009428E+03  0.19238362898E+04  0.20309794238E+04  0.12699999809E+01 0. -1.
       -4    1    3    3    0  502  0.24346649320E+03 -0.60370009428E+03 -0.84212010822E+03  0.10643766376E+04  0.12699999809E+01 0.  1.
</event>
<event>
 5   0  0.2608591E-07  0.2899487E+04  0.7818609E-02  0.8273030E-01
       -2   -1    0    0    0  501  0.00000000000E+00  0.00000000000E+00  0.14932878922E+04  0.14932878922E+04  0.25500000920E-02 0.  1.
        2   -1    0    0  501    0  0.00000000000E+00  0.00000000000E+00 -0.14074687011E+04  0.14074687011E+04  0.25500000920E-02 0. -1.
    10030    2    1    2    0    0  0.00000000000E+00  0.00000000000E+00  0.85819191160E+02  0.29007565933E+04  0.28994868304E+04 0.  0.
        2    1    3    3  502    0  0.96738602185E+03  0.56898378371E+03  0.96101388941E+03  0.14775405094E+04  0.25500000920E-02 0.  1.
       -2    1    3    3    0  502 -0.96738602185E+03 -0.56898378371E+03 -0.87519469825E+03  0.14232160838E+04  0.25500000920E-02 0. -1.
</event>
<event>
 5   0  0.9763851E-08  0.2899416E+04  0.7818609E-02  0.8273051E-01
        1   -1    0    0  501    0  0.00000000000E+00  0.00000000000E+00  0.13874046942E+04  0.13874046942E+04  0.50400001928E-02 0. -1.
       -1   -1    0    0    0  501  0.00000000000E+00  0.00000000000E+00 -0.15148088935E+04  0.15148088936E+04  0.50400001928E-02 0.  1.
    10030    2    1    2    0    0  0.00000000000E+00  0.00000000000E+00 -0.12740419931E+03  0.29022135878E+04  0.28994157824E+04 0.  0.
        3    1    3    3  502    0 -0.86574092775E+03 -0.51362449482E+03  0.98053776101E+03  0.14052657352E+04  0.10100000352E+00 0. -1.
       -3    1    3    3    0  502  0.86574092775E+03  0.51362449482E+03 -0.11079419603E+04  0.14969478526E+04  0.10100000352E+00 0.  1.
</event>
<event>
 5   0  0.2534588E-07  0.2897723E+04  0.7818609E-02  0.8273555E-01
        2   -1    0    0  501    0  0.00000000000E+00  0.00000000000E+00  0.24380133973E+04  0.24380133973E+04  0.25500000920E-02 0.  1.
       -2   -1    0    0    0  501  0.00000000000E+00  0.00000000000E+00 -0.86102870756E+03  0.86102870756E+03  0.25500000920E-02 0. -1.
    10030    2    1    2    0    0  0.00000000000E+00  0.00000000000E+00  0.15769846897E+04  0.32990421048E+04  0.28977229160E+04 0.  0.
        3    1    3    3  502    0 -0.92659727338E+03 -0.24153479249E+02 -0.47929885380E+03  0.10435005027E+04  0.10100000352E+00 0. -1.
       -3    1    3    3    0  502  0.92659727338E+03  0.24153479249E+02  0.20562835435E+04  0.22555416022E+04  0.10100000352E+00 0.  1.
</event>
<event>
 5   0  0.2492232E-07  0.2898538E+04  0.7818609E-02  0.8273313E-01
       -2   -1    0    0    0  501  0.00000000000E+00  0.00000000000E+00  0.13201560748E+04  0.13201560748E+04  0.25500000920E-02 0. -1.
        2   -1    0    0  501    0  0.00000000000E+00  0.00000000000E+00 -0.15910093175E+04  0.15910093175E+04  0.25500000920E-02 0.  1.
    10030    2    1    2    0    0  0.00000000000E+00  0.00000000000E+00 -0.27085324270E+03  0.29111653923E+04  0.28985379870E+04 0.  0.
        4    1    3    3  502    0 -0.71084794532E+03  0.11936134905E+04  0.27911965667E+03  0.14170135362E+04  0.12699999809E+01 0.  1.
       -4    1    3    3    0  502  0.71084794532E+03 -0.11936134905E+04 -0.54997289937E+03  0.14941518561E+04  0.12699999809E+01 0. -1.
</event>
<event>
 5   0  0.2492232E-07  0.2900375E+04  0.7818609E-02  0.8272766E-01
        2   -1    0    0  501    0  0.00000000000E+00  0.00000000000E+00  0.19328126858E+04  0.19328126858E+04  0.25500000920E-02 0.  1.
       -2   -1    0    0    0  501  0.00000000000E+00  0.00000000000E+00 -0.10880741539E+04  0.10880741539E+04  0.25500000920E-02 0. -1.
    10030    2    1    2    0    0  0.00000000000E+00  0.00000000000E+00  0.84473853191E+03  0.30208868398E+04  0.29003748226E+04 0.  0.
        4    1    3    3  502    0 -0.10491854196E+04 -0.66488331619E+03 -0.35718243509E+03  0.12924553275E+04  0.12699999809E+01 0. -1.
       -4    1    3    3    0  502  0.10491854196E+04  0.66488331619E+03  0.12019209670E+04  0.17284315123E+04  0.12699999809E+01 0.  1.
</event>
<event>
 5   0  0.9395744E-08  0.2898241E+04  0.7818609E-02  0.8273401E-01
        1   -1    0    0  501    0  0.00000000000E+00  0.00000000000E+00  0.11994494292E+04  0.11994494292E+04  0.50400001928E-02 0.  1.
       -1   -1    0    0    0  501  0.00000000000E+00  0.00000000000E+00 -0.17507616915E+04  0.17507616915E+04  0.50400001928E-02 0. -1.
    10030    2    1    2    0    0  0.00000000000E+00  0.00000000000E+00 -0.55131226228E+03  0.29502111206E+04  0.28982409227E+04 0.  0.
        2    1    3    3  502    0 -0.13786298944E+04 -0.62371752118E+02 -0.72566883281E+03  0.15592003964E+04  0.25500000920E-02 0. -1.
       -2    1    3    3    0  502  0.13786298944E+04  0.62371752118E+02  0.17435657053E+03  0.13910107242E+04  0.25500000920E-02 0.  1.
</event>
<event>
 5   0  0.2546841E-07  0.2897147E+04  0.7818609E-02  0.8273727E-01
        2   -1    0    0  501    0  0.00000000000E+00  0.00000000000E+00  0.13996850705E+04  0.13996850705E+04  0.25500000920E-02 0.  1.
       -2   -1    0    0    0  501  0.00000000000E+00  0.00000000000E+00 -0.14991691380E+04  0.14991691380E+04  0.25500000920E-02 0. -1.
    10030    2    1    2    0    0  0.00000000000E+00  0.00000000000E+00 -0.99484067489E+02  0.28988542084E+04  0.28971466380E+04 0.  0.
        1    1    3    3  502    0 -0.13941621784E+04  0.34433300709E+03  0.14039960131E+03  0.14429017456E+04  0.50400001928E-02 0. -1.
       -1    1    3    3    0  502  0.13941621784E+04 -0.34433300709E+03 -0.23988366880E+03  0.14559524628E+04  0.50400001928E-02 0.  1.
</event>
<event>
 5   0  0.9421924E-08  0.2902273E+04  0.7818609E-02  0.8272202E-01
        1   -1    0    0  501    0  0.00000000000E+00  0.00000000000E+00  0.17538145360E+04  0.17538145360E+04  0.50400001928E-02 0.  1.
       -1   -1    0    0    0  501  0.00000000000E+00  0.00000000000E+00 -0.12006954244E+04  0.12006954244E+04  0.50400001928E-02 0. -1.
    10030    2    1    2    0    0  0.00000000000E+00  0.00000000000E+00  0.55311911159E+03  0.29545099604E+04  0.29022729635E+04 0.  0.
        1    1    3    3  502    0  0.11788957123E+04 -0.45494005498E+03 -0.44974630083E+03  0.13412819574E+04  0.50400001928E-02 0. -1.
       -1    1    3    3    0  502 -0.11788957123E+04  0.45494005498E+03  0.10028654124E+04  0.16132280030E+04  0.50400001928E-02 0.  1.
</event>
<event>
 5   0  0.9388076E-08  0.2899819E+04  0.7818609E-02  0.8272931E-01
       -1   -1    0    0    0  501  0.00000000000E+00  0.00000000000E+00  0.12511475201E+04  0.12511475201E+04  0.50400001928E-02 0. -1.
        1   -1    0    0  501    0  0.00000000000E+00  0.00000000000E+00 -0.16802473246E+04  0.16802473246E+04  0.50400001928E-02 0.  1.
    10030    2    1    2    0    0  0.00000000000E+00  0.00000000000E+00 -0.42909980448E+03  0.29313948447E+04  0.28998188036E+04 0.  0.
        5    1    3    3  502    0  0.66729993043E+03  0.10793629031E+04 -0.92354400705E+03  0.15694805181E+04  0.46999998093E+01 0.  1.
       -5    1    3    3    0  502 -0.66729993043E+03 -0.10793629031E+04  0.49444420257E+03  0.13619143266E+04  0.46999998093E+01 0. -1.
</event>
<event>
 5   0  0.2546841E-07  0.2899512E+04  0.7818609E-02  0.8273023E-01
        2   -1    0    0  501    0  0.00000000000E+00  0.00000000000E+00  0.98738397320E+03  0.98738397320E+03  0.25500000920E-02 0.  1.
       -2   -1    0    0    0  501  0.00000000000E+00  0.00000000000E+00 -0.21286468493E+04  0.21286468493E+04  0.25500000920E-02 0. -1.
    10030    2    1    2    0    0  0.00000000000E+00  0.00000000000E+00 -0.11412628761E+04  0.31160308225E+04  0.28995115338E+04 0.  0.
        1    1    3    3  502    0 -0.80962732610E+03  0.44796687272E+03  0.62878466414E+03  0.11187228790E+04  0.50400001928E-02 0.  1.
       -1    1    3    3    0  502  0.80962732610E+03 -0.44796687272E+03 -0.17700475402E+04  0.19973079434E+04  0.50400001928E-02 0. -1.
</event>
<event>
 5   0  0.9388076E-08  0.2899554E+04  0.7818609E-02  0.8273010E-01
       -1   -1    0    0    0  501  0.00000000000E+00  0.00000000000E+00  0.11961820725E+04  0.11961820725E+04  0.50400001928E-02 0. -1.
        1   -1    0    0  501    0  0.00000000000E+00  0.00000000000E+00 -0.17571350916E+04  0.17571350917E+04  0.50400001928E-02 0.  1.
    10030    2    1    2    0    0  0.00000000000E+00  0.00000000000E+00 -0.56095301914E+03  0.29533171642E+04  0.28995541006E+04 0.  0.
        5    1    3    3  502    0  0.10017546886E+04 -0.10361065802E+04 -0.12006957670E+03  0.14461908916E+04  0.46999998093E+01 0.  1.
       -5    1    3    3    0  502 -0.10017546886E+04  0.10361065802E+04 -0.44088344244E+03  0.15071262726E+04  0.46999998093E+01 0. -1.
</event>
<event>
 5   0  0.9388076E-08  0.2898755E+04  0.7818609E-02  0.8273248E-01
        1   -1    0    0  501    0  0.00000000000E+00  0.00000000000E+00  0.12061782336E+04  0.12061782337E+04  0.50400001928E-02 0.  1.
       -1   -1    0    0    0  501  0.00000000000E+00  0.00000000000E+00 -0.17416123593E+04  0.17416123593E+04  0.50400001928E-02 0. -1.
    10030    2    1    2    0    0  0.00000000000E+00  0.00000000000E+00 -0.53543412567E+03  0.29477905930E+04  0.28987548494E+04 0.  0.
        5    1    3    3  502    0 -0.55876945005E+03 -0.90525193410E+03 -0.12687306270E+04  0.16557185318E+04  0.46999998093E+01 0. -1.
       -5    1    3    3    0  502  0.55876945005E+03  0.90525193410E+03  0.73329650134E+03  0.12920720612E+04  0.46999998093E+01 0.  1.
</event>
<event>
 5   0  0.9443352E-08  0.2901875E+04  0.7818609E-02  0.8272320E-01
       -1   -1    0    0    0  501  0.00000000000E+00  0.00000000000E+00  0.10608506296E+04  0.10608506296E+04  0.50400001928E-02 0. -1.
        1   -1    0    0  501    0  0.00000000000E+00  0.00000000000E+00 -0.19844641698E+04  0.19844641698E+04  0.50400001928E-02 0.  1.
    10030    2    1    2    0    0  0.00000000000E+00  0.00000000000E+00 -0.92361354018E+03  0.30453147994E+04  0.29018752998E+04 0.  0.
        4    1    3    3  502    0 -0.36168859777E+03 -0.12790830353E+04 -0.10722344605E+04  0.17077940168E+04  0.12699999809E+01 0.  1.
       -4    1    3    3    0  502  0.36168859777E+03  0.12790830353E+04  0.14862092027E+03  0.13375207825E+04  0.12699999809E+01 0. -1.
</event>
<event>
 5   0  0.2678723E-07  0.2897859E+04  0.7818609E-02  0.8273515E-01
       -2   -1    0    0    0  501  0.00000000000E+00  0.00000000000E+00  0.18320270912E+04  0.18320270912E+04  0.25500000920E-02 0. -1.
        2   -1    0    0  501    0  0.00000000000E+00  0.00000000000E+00 -0.11459422178E+04  0.11459422178E+04  0.25500000920E-02 0.  1.
    10030    2    1    2    0    0  0.00000000000E+00  0.00000000000E+00  0.68608487339E+03  0.29779693091E+04  0.28978593396E+04 0.  0.
        5    1    3    3  502    0  0.79352312075E+03 -0.10977764882E+04  0.87163838851E+03  0.16107661939E+04  0.46999998093E+01 0. -1.
       -5    1    3    3    0  502 -0.79352312075E+03  0.10977764882E+04 -0.18555351511E+03  0.13672031152E+04  0.46999998093E+01 0.  1.
</event>
<event>
 5   0  0.2546841E-07  0.2899553E+04  0.7818609E-02  0.8273011E-01
       -2   -1    0    0    0  501  0.00000000000E+00  0.00000000000E+00  0.20393067685E+04  0.20393067685E+04  0.25500000920E-02 0. -1.
        2   -1    0    0  501    0  0.00000000000E+00  0.00000000000E+00 -0.10306697402E+04  0.10306697402E+04  0.25500000920E-02 0.  1.
    10030    2    1    2    0    0  0.00000000000E+00  0.00000000000E+00  0.10086370283E+04  0.30699765088E+04  0.28995529155E+04 0.  0.
        1    1    3    3  502    0 -0.67517379532E+03 -0.79988506641E+03  0.15663588010E+04  0.18839202921E+04  0.50400001928E-02 0. -1.
       -1    1    3    3    0  502  0.67517379532E+03  0.79988506641E+03 -0.55772177273E+03  0.11860562167E+04  0.50400001928E-02 0.  1.
</event>
<event>
 5   0  0.9395744E-08  0.2901304E+04  0.7818609E-02  0.8272490E-01
        1   -1    0    0  501    0  0.00000000000E+00  0.00000000000E+00  0.29343367297E+04  0.29343367297E+04  0.50400001928E-02 0. -1.
       -1   -1    0    0    0  501  0.00000000000E+00  0.00000000000E+00 -0.71716091141E+03  0.71716091143E+03  0.50400001928E-02 0.  1.
    10030    2    1    2    0    0  0.00000000000E+00  0.00000000000E+00  0.22171758182E+04  0.36514976411E+04  0.29013042608E+04 0.  0.
        2    1    3    3  502    0  0.29513546016E+02  0.45743275526E+03 -0.62361736824E+03  0.77396020374E+03  0.25500000920E-02 0.  1.
       -2    1    3    3    0  502 -0.29513546016E+02 -0.45743275526E+03  0.28407931865E+04  0.28775374374E+04  0.25500000920E-02 0. -1.
</event>
<event>
 5   0  0.9388076E-08  0.2899234E+04  0.7818609E-02  0.8273106E-01
       -1   -1    0    0    0  501  0.00000000000E+00  0.00000000000E+00  0.73210721635E+03  0.73210721637E+03  0.50400001928E-02 0.  1.
        1   -1    0    0  501    0  0.00000000000E+00  0.00000000000E+00 -0.28703292346E+04  0.28703292346E+04  0.50400001928E-02 0. -1.
    10030    2    1    2    0    0  0.00000000000E+00  0.00000000000E+00 -0.21382220183E+04  0.36024364510E+04  0.28992335167E+04 0.  0.
        5    1    3    3  502    0 -0.15463051437E+03  0.30277793675E+03 -0.28200816764E+04  0.28405048541E+04  0.46999998093E+01 0. -1.
       -5    1    3    3    0  502  0.15463051437E+03 -0.30277793675E+03  0.68185965810E+03  0.76193159687E+03  0.46999998093E+01 0.  1.
</event>
<event>
 5   0  0.2534588E-07  0.2900393E+04  0.7818609E-02  0.8272761E-01
       -2   -1    0    0    0  501  0.00000000000E+00  0.00000000000E+00  0.88754824883E+03  0.88754824883E+03  0.25500000920E-02 0. -1.
        2   -1    0    0  501    0  0.00000000000E+00  0.00000000000E+00 -0.23695268474E+04  0.23695268474E+04  0.25500000920E-02 0.  1.
    10030    2    1    2    0    0  0.00000000000E+00  0.00000000000E+00 -0.14819785986E+04  0.32570750963E+04  0.29003926658E+04 0.  0.
        3    1    3    3  502    0  0.11588495702E+04 -0.86918168288E+03 -0.81765065458E+03  0.16634186867E+04  0.10100000352E+00 0.  1.
       -3    1    3    3    0  502 -0.11588495702E+04  0.86918168288E+03 -0.66432794402E+03  0.15936564095E+04  0.10100000352E+00 0. -1.
</event>
<event>
 5   0  0.2546841E-07  0.2905624E+04  0.7818609E-02  0.8271206E-01
        2   -1    0    0  501    0  0.00000000000E+00  0.00000000000E+00  0.25072733218E+04  0.25072733218E+04  0.25500000920E-02 0.  1.
       -2   -1    0    0    0  501  0.00000000000E+00  0.00000000000E+00 -0.84181579902E+03  0.84181579903E+03  0.25500000920E-02 0. -1.
    10030    2    1    2    0    0  0.00000000000E+00  0.00000000000E+00  0.16654575228E+04  0.33490891208E+04  0.29056237160E+04 0.  0.
        1    1    3    3  502    0  0.19151371806E+01  0.11624920802E+03 -0.83644495120E+03  0.84448665029E+03  0.50400001928E-02 0. -1.
       -1    1    3    3    0  502 -0.19151371806E+01 -0.11624920802E+03  0.25019024740E+04  0.25046024706E+04  0.50400001928E-02 0.  1.
</event>
<event>
 5   0  0.8407500E-08  0.2899280E+04  0.7818609E-02  0.8273092E-01
       -3   -1    0    0    0  501  0.00000000000E+00  0.00000000000E+00  0.11471950176E+04  0.11471950220E+04  0.10100000352E+00 0. -1.
        3   -1    0    0  501    0  0.00000000000E+00  0.00000000000E+00 -0.18318217007E+04  0.18318217035E+04  0.10100000352E+00 0.  1.
    10030    2    1    2    0    0  0.00000000000E+00  0.00000000000E+00 -0.68462668313E+03  0.29790167255E+04  0.28992804203E+04 0.  0.
        3    1    3    3  502    0 -0.79262296524E+02 -0.72587628720E+02  0.11430955447E+04  0.11481371478E+04  0.10100000352E+00 0. -1.
       -3    1    3    3    0  502  0.79262296524E+02  0.72587628720E+02 -0.18277222279E+04  0.18308795777E+04  0.10100000352E+00 0.  1.
</event>
<event>
 5   0  0.9395744E-08  0.2891628E+04  0.7818609E-02  0.8275373E-01
       -1   -1    0    0    0  501  0.00000000000E+00  0.00000000000E+00  0.90656208874E+03  0.90656208875E+03  0.50400001928E-02 0.  1.
        1   -1    0    0  501    0  0.00000000000E+00  0.00000000000E+00 -0.23058296410E+04  0.23058296410E+04  0.50400001928E-02 0. -1.
    10030    2    1    2    0    0  0.00000000000E+00  0.00000000000E+00 -0.13992675523E+04  0.32123917298E+04  0.28916277324E+04 0.  0.
        2    1    3    3  502    0  0.92185919585E+03  0.69945423997E+03 -0.16625705266E+04  0.20256360401E+04  0.25500000920E-02 0. -1.
       -2    1    3    3    0  502 -0.92185919585E+03 -0.69945423997E+03  0.26330297435E+03  0.11867556897E+04  0.25500000920E-02 0.  1.
</event>
<event>
 5   0  0.9388076E-08  0.2899494E+04  0.7818609E-02  0.8273028E-01
        1   -1    0    0  501    0  0.00000000000E+00  0.00000000000E+00  0.15967402259E+04  0.15967402259E+04  0.50400001928E-02 0.  1.
       -1   -1    0    0    0  501  0.00000000000E+00  0.00000000000E+00 -0.13162856584E+04  0.13162856584E+04  0.50400001928E-02 0. -1.
    10030    2    1    2    0    0  0.00000000000E+00  0.00000000000E+00  0.28045456756E+03  0.29130258843E+04  0.28994939279E+04 0.  0.
        5    1    3    3  502    0 -0.99757474228E+03 -0.82700814730E+03 -0.51291934538E+03  0.13936305777E+04  0.46999998093E+01 0. -1.
       -5    1    3    3    0  502  0.99757474228E+03  0.82700814730E+03  0.79337391294E+03  0.15193953066E+04  0.46999998093E+01 0.  1.
</event>
<event>
 5   0  0.9395744E-08  0.2900398E+04  0.7818609E-02  0.8272759E-01
        1   -1    0    0  501    0  0.00000000000E+00  0.00000000000E+00  0.18068721489E+04  0.18068721489E+04  0.50400001928E-02 0. -1.
       -1   -1    0    0    0  501  0.00000000000E+00  0.00000000000E+00 -0.11639324168E+04  0.11639324168E+04  0.50400001928E-02 0.  1.
    10030    2    1    2    0    0  0.00000000000E+00  0.00000000000E+00  0.64293973208E+03  0.29708045657E+04  0.29003979500E+04 0.  0.
        2    1    3    3  502    0 -0.13432509247E+04 -0.54561724390E+03  0.28818734033E+03  0.14781992987E+04  0.25500000920E-02 0. -1.
       -2    1    3    3    0  502  0.13432509247E+04  0.54561724390E+03  0.35475239175E+03  0.14926052670E+04  0.25500000920E-02 0.  1.
</event>
<event>
 5   0  0.9388076E-08  0.2899677E+04  0.7818609E-02  0.8272974E-01
       -1   -1    0    0    0  501  0.00000000000E+00  0.00000000000E+00  0.15223045036E+04  0.15223045036E+04  0.50400001928E-02 0.  1.
        1   -1    0    0  501    0  0.00000000000E+00  0.00000000000E+00 -0.13808222457E+04  0.13808222457E+04  0.50400001928E-02 0. -1.
    10030    2    1    2    0    0  0.00000000000E+00  0.00000000000E+00  0.14148225788E+03  0.29031267493E+04  0.28996771705E+04 0.  0.
        5    1    3    3  502    0 -0.19761206220E+03  0.13294105110E+04 -0.47362161663E+03  0.14250341608E+04  0.46999998093E+01 0. -1.
       -5    1    3    3    0  502  0.19761206220E+03 -0.13294105110E+04  0.61510387451E+03  0.14780925885E+04  0.46999998093E+01 0.  1.
</event>
<event>
 5   0  0.9395744E-08  0.2895821E+04  0.7818609E-02  0.8274122E-01
        1   -1    0    0  501    0  0.00000000000E+00  0.00000000000E+00  0.12868275940E+04  0.12868275940E+04  0.50400001928E-02 0. -1.
       -1   -1    0    0    0  501  0.00000000000E+00  0.00000000000E+00 -0.16291569569E+04  0.16291569569E+04  0.50400001928E-02 0.  1.
    10030    2    1    2    0    0  0.00000000000E+00  0.00000000000E+00 -0.34232936289E+03  0.29159845510E+04  0.28958205243E+04 0.  0.
        2    1    3    3  502    0  0.11294814855E+04  0.46361001285E+03  0.61257451011E+03  0.13659832358E+04  0.25500000920E-02 0. -1.
       -2    1    3    3    0  502 -0.11294814855E+04 -0.46361001285E+03 -0.95490387299E+03  0.15500013151E+04  0.25500000920E-02 0.  1.
</event>
<event>
 5   0  0.2534588E-07  0.2897030E+04  0.7818609E-02  0.8273762E-01
       -2   -1    0    0    0  501  0.00000000000E+00  0.00000000000E+00  0.17277120205E+04  0.17277120205E+04  0.25500000920E-02 0. -1.
        2   -1    0    0  501    0  0.00000000000E+00  0.00000000000E+00 -0.12144362693E+04  0.12144362694E+04  0.25500000920E-02 0.  1.
    10030    2    1    2    0    0  0.00000000000E+00  0.00000000000E+00  0.51327575114E+03  0.29421482898E+04  0.28970303006E+04 0.  0.
        3    1    3    3  502    0 -0.10880267051E+04 -0.91264977195E+03  0.54650268093E+03  0.15216428318E+04  0.10100000352E+00 0.  1.
       -3    1    3    3    0  502  0.10880267051E+04  0.91264977195E+03 -0.33226929786E+02  0.14205054580E+04  0.10100000352E+00 0. -1.
</event>
<event>
 5   0  0.2608591E-07  0.2897706E+04  0.7818609E-02  0.8273560E-01
        2   -1    0    0  501    0  0.00000000000E+00  0.00000000000E+00  0.17588471848E+04  0.17588471848E+04  0.25500000920E-02 0.  1.
       -2   -1    0    0    0  501  0.00000000000E+00  0.00000000000E+00 -0.11934945434E+04  0.11934945434E+04  0.25500000920E-02 0. -1.
    10030    2    1    2    0    0  0.00000000000E+00  0.00000000000E+00  0.56535264140E+03  0.29523417282E+04  0.28977056564E+04 0.  0.
        2    1    3    3  502    0 -0.30785301400E+03 -0.29546149517E+03  0.16933778638E+04  0.17463102711E+04  0.25500000920E-02 0.  1.
       -2    1    3    3    0  502  0.30785301400E+03  0.29546149517E+03 -0.11280252224E+04  0.12060314572E+04  0.25500000920E-02 0. -1.
</event>
<event>
 5   0  0.2546841E-07  0.2902141E+04  0.7818609E-02  0.8272241E-01
       -2   -1    0    0    0  501  0.00000000000E+00  0.00000000000E+00  0.16164474409E+04  0.16164474409E+04  0.25500000920E-02 0. -1.
        2   -1    0    0  501    0  0.00000000000E+00  0.00000000000E+00 -0.13026127273E+04  0.13026127273E+04  0.25500000920E-02 0.  1.
    10030    2    1    2    0    0  0.00000000000E+00  0.00000000000E+00  0.31383471352E+03  0.29190601682E+04  0.29021405959E+04 0.  0.
        1    1    3    3  502    0  0.11431261006E+04 -0.21002365437E+03 -0.71691556204E+03  0.13655823448E+04  0.50400001928E-02 0.  1.
       -1    1    3    3    0  502 -0.11431261006E+04  0.21002365437E+03  0.10307502756E+04  0.15534778234E+04  0.50400001928E-02 0. -1.
</event>
<event>
 5   0  0.9395744E-08  0.2901705E+04  0.7818609E-02  0.8272370E-01
       -1   -1    0    0    0  501  0.00000000000E+00  0.00000000000E+00  0.69828792179E+03  0.69828792180E+03  0.50400001928E-02 0. -1.
        1   -1    0    0  501    0  0.00000000000E+00  0.00000000000E+00 -0.30144774154E+04  0.30144774154E+04  0.50400001928E-02 0.  1.
    10030    2    1    2    0    0  0.00000000000E+00  0.00000000000E+00 -0.23161894936E+04  0.37127653372E+04  0.29017051330E+04 0.  0.
        2    1    3    3  502    0 -0.11951529389E+04  0.78838243144E+03 -0.85792513542E+03  0.16691234058E+04  0.25500000920E-02 0. -1.
       -2    1    3    3    0  502  0.11951529389E+04 -0.78838243144E+03 -0.14582643582E+04  0.20436419315E+04  0.25500000920E-02 0.  1.
</event>
<event>
 5   0  0.2492232E-07  0.2902763E+04  0.7818609E-02  0.8272056E-01
       -2   -1    0    0    0  501  0.00000000000E+00  0.00000000000E+00  0.22221182408E+04  0.22221182408E+04  0.25500000920E-02 0. -1.
        2   -1    0    0  501    0  0.00000000000E+00  0.00000000000E+00 -0.94797311268E+03  0.94797311269E+03  0.25500000920E-02 0.  1.
    10030    2    1    2    0    0  0.00000000000E+00  0.00000000000E+00  0.12741451281E+04  0.31700913535E+04  0.29027630599E+04 0.  0.
        4    1    3    3  502    0  0.13617738616E+04  0.11866944987E+03  0.10429584192E+03  0.13709083573E+04  0.12699999809E+01 0.  1.
       -4    1    3    3    0  502 -0.13617738616E+04 -0.11866944987E+03  0.11698492862E+04  0.17991829962E+04  0.12699999809E+01 0. -1.
</event>
<event>
 5   0  0.9421924E-08  0.2900086E+04  0.7818609E-02  0.8272852E-01
       -1   -1    0    0    0  501  0.00000000000E+00  0.00000000000E+00  0.16428966880E+04  0.16428966880E+04  0.50400001928E-02 0.  1.
        1   -1    0    0  501    0  0.00000000000E+00  0.00000000000E+00 -0.12798275725E+04  0.12798275725E+04  0.50400001928E-02 0. -1.
    10030    2    1    2    0    0  0.00000000000E+00  0.00000000000E+00  0.36306911554E+03  0.29227242605E+04  0.29000858470E+04 0.  0.
        1    1    3    3  502    0  0.61401471586E+03  0.20069931153E+03  0.14898711603E+04  0.16238874220E+04  0.50400001928E-02 0.  1.
       -1    1    3    3    0  502 -0.61401471586E+03 -0.20069931153E+03 -0.11268020448E+04  0.12988368385E+04  0.50400001928E-02 0. -1.
</event>
<event>
 5   0  0.9443352E-08  0.2899770E+04  0.7818609E-02  0.8272946E-01
        1   -1    0    0  501    0  0.00000000000E+00  0.00000000000E+00  0.24270212785E+04  0.24270212785E+04  0.50400001928E-02 0.  1.
       -1   -1    0    0    0  501  0.00000000000E+00  0.00000000000E+00 -0.86615088762E+03  0.86615088764E+03  0.50400001928E-02 0. -1.
    10030    2    1    2    0    0  0.00000000000E+00  0.00000000000E+00  0.15608703909E+04  0.32931721661E+04  0.28997700838E+04 0.  0.
        4    1    3    3  502    0 -0.10194304638E+04  0.10246556320E+04  0.90995789969E+03  0.17079761786E+04  0.12699999809E+01 0. -1.
       -4    1    3    3    0  502  0.10194304638E+04 -0.10246556320E+04  0.65091249116E+03  0.15851959875E+04  0.12699999809E+01 0.  1.
</event>
<event>
 5   0  0.2534588E-07  0.2897972E+04  0.7818609E-02  0.8273481E-01
       -2   -1    0    0    0  501  0.00000000000E+00  0.00000000000E+00  0.12713479514E+04  0.12713479514E+04  0.25500000920E-02 0.  1.
        2   -1    0    0  501    0  0.00000000000E+00  0.00000000000E+00 -0.16514448575E+04  0.16514448575E+04  0.25500000920E-02 0. -1.
    10030    2    1    2    0    0  0.00000000000E+00  0.00000000000E+00 -0.38009690616E+03  0.29227928089E+04  0.28979724197E+04 0.  0.
        3    1    3    3  502    0 -0.56371265901E+03 -0.86679460707E+03  0.83375960853E+03  0.13282544740E+04  0.10100000352E+00 0.  1.
       -3    1    3    3    0  502  0.56371265901E+03  0.86679460707E+03 -0.12138565147E+04  0.15945383348E+04  0.10100000352E+00 0. -1.
</event>
<event>
 5   0  0.9388076E-08  0.2900594E+04  0.7818609E-02  0.8272701E-01
        1   -1    0    0  501    0  0.00000000000E+00  0.00000000000E+00  0.16762765876E+04  0.16762765876E+04  0.50400001928E-02 0.  1.
       -1   -1    0    0    0  501  0.00000000000E+00  0.00000000000E+00 -0.12547822281E+04  0.12547822282E+04  0.50400001928E-02 0. -1.
    10030    2    1    2    0    0  0.00000000000E+00  0.00000000000E+00  0.42149435944E+03  0.29310588157E+04  0.29005944712E+04 0.  0.
        5    1    3    3  502    0 -0.36594256591E+02  0.44018247746E+03 -0.11851519677E+04  0.12647952521E+04  0.46999998093E+01 0. -1.
       -5    1    3    3    0  502  0.36594256591E+02 -0.44018247746E+03  0.16066463271E+04  0.16662635637E+04  0.46999998093E+01 0.  1.
</event>
<event>
 5   0  0.2534588E-07  0.2892753E+04  0.7818609E-02  0.8275037E-01
       -2   -1    0    0    0  501  0.00000000000E+00  0.00000000000E+00  0.12985656283E+04  0.12985656283E+04  0.25500000920E-02 0.  1.
        2   -1    0    0  501    0  0.00000000000E+00  0.00000000000E+00 -0.16110121961E+04  0.16110121961E+04  0.25500000920E-02 0. -1.
    10030    2    1    2    0    0  0.00000000000E+00  0.00000000000E+00 -0.31244656780E+03  0.29095778245E+04  0.28927530587E+04 0.  0.
        3    1    3    3  502    0  0.97923108185E+03  0.93081476854E+03  0.36320594807E+03  0.13990097269E+04  0.10100000352E+00 0.  1.
       -3    1    3    3    0  502 -0.97923108185E+03 -0.93081476854E+03 -0.67565251587E+03  0.15105680976E+04  0.10100000352E+00 0. -1.
</event>
<event>
 5   0  0.9443352E-08  0.2896487E+04  0.7818609E-02  0.8273923E-01
        1   -1    0    0  501    0  0.00000000000E+00  0.00000000000E+00  0.16570412786E+04  0.16570412786E+04  0.50400001928E-02 0.  1.
       -1   -1    0    0    0  501  0.00000000000E+00  0.00000000000E+00 -0.12657555371E+04  0.12657555371E+04  0.50400001928E-02 0. -1.
    10030    2    1    2    0    0  0.00000000000E+00  0.00000000000E+00  0.39128574154E+03  0.29227968157E+04  0.28964869574E+04 0.  0.
        4    1    3    3  502    0 -0.41671756927E+03  0.76188787295E+03  0.13651704501E+04  0.16179674392E+04  0.12699999809E+01 0.  1.
       -4    1    3    3    0  502  0.41671756927E+03 -0.76188787295E+03 -0.97388470854E+03  0.13048293766E+04  0.12699999809E+01 0. -1.
</event>
<event>
 5   0  0.9388076E-08  0.2900222E+04  0.7818609E-02  0.8272811E-01
       -1   -1    0    0    0  501  0.00000000000E+00  0.00000000000E+00  0.10319922792E+04  0.10319922792E+04  0.50400001928E-02 0.  1.
        1   -1    0    0  501    0  0.00000000000E+00  0.00000000000E+00 -0.20376339461E+04  0.20376339461E+04  0.50400001928E-02 0. -1.
    10030    2    1    2    0    0  0.00000000000E+00  0.00000000000E+00 -0.10056416669E+04  0.30696262254E+04  0.29002224054E+04 0.  0.
        5    1    3    3  502    0 -0.55850080334E+03 -0.12987725032E+04 -0.84425834127E+03  0.16466716125E+04  0.46999998093E+01 0. -1.
       -5    1    3    3    0  502  0.55850080334E+03  0.12987725032E+04 -0.16138332568E+03  0.14229546129E+04  0.46999998093E+01 0.  1.
</event>
<event>
 5   0  0.2678723E-07  0.2900521E+04  0.7818609E-02  0.8272722E-01
       -2   -1    0    0    0  501  0.00000000000E+00  0.00000000000E+00  0.15649751838E+04  0.15649751838E+04  0.25500000920E-02 0.  1.
        2   -1    0    0  501    0  0.00000000000E+00  0.00000000000E+00 -0.13439545167E+04  0.13439545167E+04  0.25500000920E-02 0. -1.
    10030    2    1    2    0    0  0.00000000000E+00  0.00000000000E+00  0.22102066710E+03  0.29089297005E+04  0.29005209648E+04 0.  0.
        5    1    3    3  502    0  0.21299267029E+02  0.23081136480E+03 -0.13252494893E+04  0.13453757259E+04  0.46999998093E+01 0. -1.
       -5    1    3    3    0  502 -0.21299267029E+02 -0.23081136480E+03  0.15462701564E+04  0.15635539746E+04  0.46999998093E+01 0.  1.
</event>
<event>
 5   0  0.9421924E-08  0.2899512E+04  0.7818609E-02  0.8273023E-01
       -1   -1    0    0    0  501  0.00000000000E+00  0.00000000000E+00  0.10171005209E+04  0.10171005210E+04  0.50400001928E-02 0. -1.
        1   -1    0    0  501    0  0.00000000000E+00  0.00000000000E+00 -0.20664544371E+04  0.20664544371E+04  0.50400001928E-02 0.  1.
    10030    2    1    2    0    0  0.00000000000E+00  0.00000000000E+00 -0.10493539161E+04  0.30835549580E+04  0.28995116033E+04 0.  0.
        1    1    3    3  502    0 -0.13715883899E+04 -0.21513048704E+03 -0.96861337323E+03  0.16928519441E+04  0.50400001928E-02 0. -1.
       -1    1    3    3    0  502  0.13715883899E+04  0.21513048704E+03 -0.80740542892E+02  0.13907030140E+04  0.50400001928E-02 0.  1.
</event>
<event>
 5   0  0.2678723E-07  0.2903419E+04  0.7818609E-02  0.8271861E-01
       -2   -1    0    0    0  501  0.00000000000E+00  0.00000000000E+00  0.20580897959E+04  0.20580897959E+04  0.25500000920E-02 0. -1.
        2   -1    0    0  501    0  0.00000000000E+00  0.00000000000E+00 -0.10239888971E+04  0.10239888971E+04  0.25500000920E-02 0.  1.
    10030    2    1    2    0    0  0.00000000000E+00  0.00000000000E+00  0.10341008988E+04  0.30820786930E+04  0.29034194325E+04 0.  0.
        5    1    3    3  502    0 -0.68658905937E+03 -0.71547530157E+03 -0.60844081683E+03  0.11634138392E+04  0.46999998093E+01 0.  1.
       -5    1    3    3    0  502  0.68658905937E+03  0.71547530157E+03  0.16425417156E+04  0.19186648538E+04  0.46999998093E+01 0. -1.
</event>
<event>
 5   0  0.9395744E-08  0.2906314E+04  0.7818609E-02  0.8271001E-01
       -1   -1    0    0    0  501  0.00000000000E+00  0.00000000000E+00  0.13392923308E+04  0.13392923308E+04  0.50400001928E-02 0. -1.
        1   -1    0    0  501    0  0.00000000000E+00  0.00000000000E+00 -0.15767027418E+04  0.15767027418E+04  0.50400001928E-02 0.  1.
    10030    2    1    2    0    0  0.00000000000E+00  0.00000000000E+00 -0.23741041106E+03  0.29159950726E+04  0.29063144290E+04 0.  0.
        2    1    3    3  502    0 -0.11048408937E+04 -0.22564082312E+03 -0.10383162461E+04  0.15328691426E+04  0.25500000920E-02 0.  1.
       -2    1    3    3    0  502  0.11048408937E+04  0.22564082312E+03  0.80090583506E+03  0.13831259300E+04  0.25500000920E-02 0. -1.
</event>
<event>
 5   0  0.9763851E-08  0.2919999E+04  0.7818609E-02  0.8266952E-01
        1   -1    0    0  501    0  0.00000000000E+00  0.00000000000E+00  0.21265911436E+04  0.21265911436E+04  0.50400001928E-02 0. -1.
       -1   -1    0    0    0  501  0.00000000000E+00  0.00000000000E+00 -0.10023543589E+04  0.10023543589E+04  0.50400001928E-02 0.  1.
    10030    2    1    2    0    0  0.00000000000E+00  0.00000000000E+00  0.11242367846E+04  0.31289455025E+04  0.29199985633E+04 0.  0.
        3    1    3    3  502    0  0.52745800025E+03  0.13456856675E+04  0.78306723776E+03  0.16438601421E+04  0.10100000352E+00 0.  1.
       -3    1    3    3    0  502 -0.52745800025E+03 -0.13456856675E+04  0.34116954688E+03  0.14850853604E+04  0.10100000352E+00 0. -1.
</event>
<event>
 5   0  0.9388076E-08  0.2899758E+04  0.7818609E-02  0.8272949E-01
        1   -1    0    0  501    0  0.00000000000E+00  0.00000000000E+00  0.16738223314E+04  0.16738223314E+04  0.50400001928E-02 0.  1.
       -1   -1    0    0    0  501  0.00000000000E+00  0.00000000000E+00 -0.12558976795E+04  0.12558976795E+04  0.50400001928E-02 0. -1.
    10030    2    1    2    0    0  0.00000000000E+00  0.00000000000E+00  0.41792465186E+03  0.29297200109E+04  0.28997583223E+04 0.  0.
        5    1    3    3  502    0  0.60744383974E+03  0.52818491557E+02 -0.11200568659E+04  0.12752753759E+04  0.46999998093E+01 0. -1.
       -5    1    3    3    0  502 -0.60744383974E+03 -0.52818491557E+02  0.15379815178E+04  0.16544446351E+04  0.46999998093E+01 0.  1.
</event>
<event>
 5   0  0.2608591E-07  0.2899182E+04  0.7818609E-02  0.8273121E-01
        2   -1    0    0  501    0  0.00000000000E+00  0.00000000000E+00  0.14787034553E+04  0.14787034553E+04  0.25500000920E-02 0.  1.
       -2   -1    0    0    0  501  0.00000000000E+00  0.00000000000E+00 -0.14210519659E+04  0.14210519659E+04  0.25500000920E-02 0. -1.
    10030    2    1    2    0    0  0.00000000000E+00  0.00000000000E+00  0.57651489400E+02  0.28997554212E+04  0.28991822654E+04 0.  0.
        2    1    3    3  502    0 -0.83452328403E+03 -0.11781628369E+04 -0.10088285306E+03  0.14472989090E+04  0.25500000920E-02 0. -1.
       -2    1    3    3    0  502  0.83452328403E+03  0.11781628369E+04  0.15853434246E+03  0.14524565122E+04  0.25500000920E-02 0.  1.
</event>
<event>
 5   0  0.2546841E-07  0.2900196E+04  0.7818609E-02  0.8272819E-01
       -2   -1    0    0    0  501  0.00000000000E+00  0.00000000000E+00  0.13334155174E+04  0.13334155174E+04  0.25500000920E-02 0.  1.
        2   -1    0    0  501    0  0.00000000000E+00  0.00000000000E+00 -0.15769912409E+04  0.15769912409E+04  0.25500000920E-02 0. -1.
    10030    2    1    2    0    0  0.00000000000E+00  0.00000000000E+00 -0.24357572347E+03  0.29104067584E+04  0.29001962634E+04 0.  0.
        1    1    3    3  502    0 -0.55882336175E+03  0.32132237285E+03 -0.14253039713E+04  0.15642963362E+04  0.50400001928E-02 0. -1.
       -1    1    3    3    0  502  0.55882336175E+03 -0.32132237285E+03  0.11817282478E+04  0.13461104221E+04  0.50400001928E-02 0.  1.
</event>
<event>
 5   0  0.9421924E-08  0.2897882E+04  0.7818609E-02  0.8273508E-01
       -1   -1    0    0    0  501  0.00000000000E+00  0.00000000000E+00  0.16799652589E+04  0.16799652589E+04  0.50400001928E-02 0. -1.
        1   -1    0    0  501    0  0.00000000000E+00  0.00000000000E+00 -0.12496868046E+04  0.12496868046E+04  0.50400001928E-02 0.  1.
    10030    2    1    2    0    0  0.00000000000E+00  0.00000000000E+00  0.43027845430E+03  0.29296520634E+04  0.28978822724E+04 0.  0.
        1    1    3    3  502    0 -0.24444170976E+03 -0.13886803628E+04  0.55233068625E+03  0.15143493938E+04  0.50400001928E-02 0. -1.
       -1    1    3    3    0  502  0.24444170976E+03  0.13886803628E+04 -0.12205223195E+03  0.14153026697E+04  0.50400001928E-02 0.  1.
</event>
<event>
 5   0  0.9763851E-08  0.2898335E+04  0.7818609E-02  0.8273373E-01
       -1   -1    0    0    0  501  0.00000000000E+00  0.00000000000E+00  0.26430272726E+04  0.26430272726E+04  0.50400001928E-02 0. -1.
        1   -1    0    0  501    0  0.00000000000E+00  0.00000000000E+00 -0.79457593857E+03  0.79457593859E+03  0.50400001928E-02 0.  1.
    10030    2    1    2    0    0  0.00000000000E+00  0.00000000000E+00  0.18484513341E+04  0.34376032112E+04  0.28983346086E+04 0.  0.
        3    1    3    3  502    0  0.10591806467E+02  0.32128745866E+03 -0.75175443409E+03  0.81760171039E+03  0.10100000352E+00 0.  1.
       -3    1    3    3    0  502 -0.10591806467E+02 -0.32128745866E+03  0.26002057682E+04  0.26200015008E+04  0.10100000352E+00 0. -1.
</event>
<event>
 5   0  0.9763851E-08  0.2898088E+04  0.7818609E-02  0.8273447E-01
       -1   -1    0    0    0  501  0.00000000000E+00  0.00000000000E+00  0.85010488168E+03  0.85010488169E+03  0.50400001928E-02 0. -1.
        1   -1    0    0  501    0  0.00000000000E+00  0.00000000000E+00 -0.24699644108E+04  0.24699644108E+04  0.50400001928E-02 0.  1.
    10030    2    1    2    0    0  0.00000000000E+00  0.00000000000E+00 -0.16198595291E+04  0.33200692925E+04  0.28980881996E+04 0.  0.
        3    1    3    3  502    0 -0.26538640266E+03  0.48678759854E+03 -0.23436471699E+04  0.24083343157E+04  0.10100000352E+00 0.  1.
       -3    1    3    3    0  502  0.26538640266E+03 -0.48678759854E+03  0.72378764079E+03  0.91173497683E+03  0.10100000352E+00 0. -1.
</event>
<event>
 5   0  0.9443352E-08  0.2900373E+04  0.7818609E-02  0.8272766E-01
       -1   -1    0    0    0  501  0.00000000000E+00  0.00000000000E+00  0.13097601072E+04  0.13097601072E+04  0.50400001928E-02 0.  1.
        1   -1    0    0  501    0  0.00000000000E+00  0.00000000000E+00 -0.16056688574E+04  0.16056688574E+04  0.50400001928E-02 0. -1.
    10030    2    1    2    0    0  0.00000000000E+00  0.00000000000E+00 -0.29590875015E+03  0.29154289646E+04  0.29003730897E+04 0.  0.
        4    1    3    3  502    0  0.14238380970E+04  0.14590547128E+03 -0.38248090326E+03  0.14815183385E+04  0.12699999809E+01 0.  1.
       -4    1    3    3    0  502 -0.14238380970E+04 -0.14590547128E+03  0.86572153117E+02  0.14339106261E+04  0.12699999809E+01 0. -1.
</event>
<event>
 5   0  0.2546841E-07  0.2906942E+04  0.7818609E-02  0.8270815E-01
        2   -1    0    0  501    0  0.00000000000E+00  0.00000000000E+00  0.23912401688E+04  0.23912401688E+04  0.25500000920E-02 0. -1.
       -2   -1    0    0    0  501  0.00000000000E+00  0.00000000000E+00 -0.88346564084E+03  0.88346564085E+03  0.25500000920E-02 0.  1.
    10030    2    1    2    0    0  0.00000000000E+00  0.00000000000E+00  0.15077745280E+04  0.32747058097E+04  0.29069423993E+04 0.  0.
        1    1    3    3  502    0 -0.29223942206E+03  0.16626255122E+03  0.23468293241E+04  0.23707920601E+04  0.50400001928E-02 0. -1.
       -1    1    3    3    0  502  0.29223942206E+03 -0.16626255122E+03 -0.83905479612E+03  0.90391374957E+03  0.50400001928E-02 0.  1.
</event>
<event>
 5   0  0.2534588E-07  0.2900947E+04  0.7818609E-02  0.8272596E-01
       -2   -1    0    0    0  501  0.00000000000E+00  0.00000000000E+00  0.12768701012E+04  0.12768701012E+04  0.25500000920E-02 0. -1.
        2   -1    0    0  501    0  0.00000000000E+00  0.00000000000E+00 -0.16476802683E+04  0.16476802683E+04  0.25500000920E-02 0.  1.
    10030    2    1    2    0    0  0.00000000000E+00  0.00000000000E+00 -0.37081016714E+03  0.29245503695E+04  0.29009472045E+04 0.  0.
        3    1    3    3  502    0  0.13974479690E+04 -0.12203187384E+03 -0.55735283364E+03  0.15094352572E+04  0.10100000352E+00 0.  1.
       -3    1    3    3    0  502 -0.13974479690E+04  0.12203187384E+03  0.18654266651E+03  0.14151151123E+04  0.10100000352E+00 0. -1.
</event>
<event>
 5   0  0.9763851E-08  0.2898328E+04  0.7818609E-02  0.8273375E-01
       -1   -1    0    0    0  501  0.00000000000E+00  0.00000000000E+00  0.13964673470E+04  0.13964673470E+04  0.50400001928E-02 0.  1.
        1   -1    0    0  501    0  0.00000000000E+00  0.00000000000E+00 -0.15038494018E+04  0.15038494018E+04  0.50400001928E-02 0. -1.
    10030    2    1    2    0    0  0.00000000000E+00  0.00000000000E+00 -0.10738205477E+03  0.29003167488E+04  0.28983281970E+04 0.  0.
        3    1    3    3  502    0  0.18875645603E+03  0.88111062993E+03 -0.11894109602E+04  0.14922075541E+04  0.10100000352E+00 0.  1.
       -3    1    3    3    0  502 -0.18875645603E+03 -0.88111062993E+03  0.10820289055E+04  0.14081091947E+04  0.10100000352E+00 0. -1.
</event>
<event>
 5   0  0.2492232E-07  0.2898582E+04  0.7818609E-02  0.8273299E-01
        2   -1    0    0  501    0  0.00000000000E+00  0.00000000000E+00  0.19840110283E+04  0.19840110283E+04  0.25500000920E-02 0.  1.
       -2   -1    0    0    0  501  0.00000000000E+00  0.00000000000E+00 -0.10586859483E+04  0.10586859483E+04  0.25500000920E-02 0. -1.
    10030    2    1    2    0    0  0.00000000000E+00  0.00000000000E+00  0.92532508003E+03  0.30426969766E+04  0.28985821340E+04 0.  0.
        4    1    3    3  502    0  0.13546792097E+04 -0.48307247006E+03  0.65023124792E+03  0.15783906555E+04  0.12699999809E+01 0.  1.
       -4    1    3    3    0  502 -0.13546792097E+04  0.48307247006E+03  0.27509383211E+03  0.14643063211E+04  0.12699999809E+01 0. -1.
</event>
<event>
 5   0  0.9763851E-08  0.2899089E+04  0.7818609E-02  0.8273149E-01
        1   -1    0    0  501    0  0.00000000000E+00  0.00000000000E+00  0.75509673643E+03  0.75509673644E+03  0.50400001928E-02 0. -1.
       -1   -1    0    0    0  501  0.00000000000E+00  0.00000000000E+00 -0.27826627634E+04  0.27826627634E+04  0.50400001928E-02 0.  1.
    10030    2    1    2    0    0  0.00000000000E+00  0.00000000000E+00 -0.20275660270E+04  0.35377594999E+04  0.28990892165E+04 0.  0.
        3    1    3    3  502    0 -0.10402469915E+04 -0.38487706591E+03 -0.21526151066E+04  0.24215689060E+04  0.10100000352E+00 0.  1.
       -3    1    3    3    0  502  0.10402469915E+04  0.38487706591E+03  0.12504907965E+03  0.11161905938E+04  0.10100000352E+00 0. -1.
</event>
<event>
 5   0  0.9763851E-08  0.2900726E+04  0.7818609E-02  0.8272662E-01
       -1   -1    0    0    0  501  0.00000000000E+00  0.00000000000E+00  0.11124926571E+04  0.11124926571E+04  0.50400001928E-02 0.  1.
        1   -1    0    0  501    0  0.00000000000E+00  0.00000000000E+00 -0.18908460242E+04  0.18908460242E+04  0.50400001928E-02 0. -1.
    10030    2    1    2    0    0  0.00000000000E+00  0.00000000000E+00 -0.77835336705E+03  0.30033386813E+04  0.29007256455E+04 0.  0.
        3    1    3    3  502    0 -0.11742224021E+04  0.82063094929E+03 -0.62372716922E+03  0.15624560782E+04  0.10100000352E+00 0. -1.
       -3    1    3    3    0  502  0.11742224021E+04 -0.82063094929E+03 -0.15462619783E+03  0.14408826031E+04  0.10100000352E+00 0.  1.
</event>
<event>
 5   0  0.2534588E-07  0.2900286E+04  0.7818609E-02  0.8272792E-01
        2   -1    0    0  501    0  0.00000000000E+00  0.00000000000E+00  0.21484543272E+04  0.21484543272E+04  0.25500000920E-02 0. -1.
       -2   -1    0    0    0  501  0.00000000000E+00  0.00000000000E+00 -0.97880347774E+03  0.97880347775E+03  0.25500000920E-02 0.  1.
    10030    2    1    2    0    0  0.00000000000E+00  0.00000000000E+00  0.11696508495E+04  0.31272578050E+04  0.29002858944E+04 0.  0.
        3    1    3    3  502    0 -0.57008826345E+03 -0.12094225097E+03  0.20166320423E+04  0.20991504140E+04  0.10100000352E+00 0. -1.
       -3    1    3    3    0  502  0.57008826345E+03  0.12094225097E+03 -0.84698119284E+03  0.10281073910E+04  0.10100000352E+00 0.  1.
</event>
<event>
 5   0  0.9443352E-08  0.2899770E+04  0.7818609E-02  0.8272946E-01
       -1   -1    0    0    0  501  0.00000000000E+00  0.00000000000E+00  0.15724231555E+04  0.15724231555E+04  0.50400001928E-02 0. -1.
        1   -1    0    0  501    0  0.00000000000E+00  0.00000000000E+00 -0.13368963321E+04  0.13368963321E+04  0.50400001928E-02 0.  1.
    10030    2    1    2    0    0  0.00000000000E+00  0.00000000000E+00  0.23552682341E+03  0.29093194875E+04  0.28997701626E+04 0.  0.
        4    1    3    3  502    0 -0.70032250126E+02 -0.13210459259E+04  0.71309618603E+03  0.15028554946E+04  0.12699999809E+01 0.  1.
       -4    1    3    3    0  502  0.70032250126E+02  0.13210459259E+04 -0.47756936262E+03  0.14064639929E+04  0.12699999809E+01 0. -1.
</event>
<event>
 5   0  0.9763851E-08  0.2906575E+04  0.7818609E-02  0.8270924E-01
       -1   -1    0    0    0  501  0.00000000000E+00  0.00000000000E+00  0.11403901724E+04  0.11403901724E+04  0.50400001928E-02 0.  1.
        1   -1    0    0  501    0  0.00000000000E+00  0.00000000000E+00 -0.18520372173E+04  0.18520372173E+04  0.50400001928E-02 0. -1.
    10030    2    1    2    0    0  0.00000000000E+00  0.00000000000E+00 -0.71164704489E+03  0.29924273898E+04  0.29065753330E+04 0.  0.
        3    1    3    3  502    0 -0.56008828159E+03  0.80293460414E+03  0.74997905786E+03  0.12332361733E+04  0.10100000352E+00 0.  1.
       -3    1    3    3    0  502  0.56008828159E+03 -0.80293460414E+03 -0.14616261027E+04  0.17591912165E+04  0.10100000352E+00 0. -1.
</event>
<event>
 5   0  0.2608591E-07  0.2890681E+04  0.7818609E-02  0.8275656E-01
       -2   -1    0    0    0  501  0.00000000000E+00  0.00000000000E+00  0.10058287786E+04  0.10058287786E+04  0.25500000920E-02 0. -1.
        2   -1    0    0  501    0  0.00000000000E+00  0.00000000000E+00 -0.20769027827E+04  0.20769027827E+04  0.25500000920E-02 0.  1.
    10030    2    1    2    0    0  0.00000000000E+00  0.00000000000E+00 -0.10710740041E+04  0.30827315614E+04  0.28906806045E+04 0.  0.
        2    1    3    3  502    0  0.32164028825E+03 -0.55370453206E+03 -0.19173737338E+04  0.20214755054E+04  0.25500000920E-02 0.  1.
       -2    1    3    3    0  502 -0.32164028825E+03  0.55370453206E+03  0.84629972970E+03  0.10612560560E+04  0.25500000920E-02 0. -1.
</event>
<event>
 5   0  0.9421924E-08  0.2901168E+04  0.7818609E-02  0.8272530E-01
        1   -1    0    0  501    0  0.00000000000E+00  0.00000000000E+00  0.18109161845E+04  0.18109161845E+04  0.50400001928E-02 0.  1.
       -1   -1    0    0    0  501  0.00000000000E+00  0.00000000000E+00 -0.11619501705E+04  0.11619501705E+04  0.50400001928E-02 0. -1.
    10030    2    1    2    0    0  0.00000000000E+00  0.00000000000E+00  0.64896601397E+03  0.29728663550E+04  0.29011682953E+04 0.  0.
        1    1    3    3  502    0  0.10910066925E+04 -0.74965858274E+03 -0.28339824022E+03  0.13537348915E+04  0.50400001928E-02 0. -1.
       -1    1    3    3    0  502 -0.10910066925E+04  0.74965858274E+03  0.93236425419E+03  0.16191314636E+04  0.50400001928E-02 0.  1.
</event>
<event>
 5   0  0.2546841E-07  0.2899283E+04  0.7818609E-02  0.8273091E-01
       -2   -1    0    0    0  501  0.00000000000E+00  0.00000000000E+00  0.10002085071E+04  0.10002085071E+04  0.25500000920E-02 0.  1.
        2   -1    0    0  501    0  0.00000000000E+00  0.00000000000E+00 -0.21010229535E+04  0.21010229535E+04  0.25500000920E-02 0. -1.
    10030    2    1    2    0    0  0.00000000000E+00  0.00000000000E+00 -0.11008144464E+04  0.31012314606E+04  0.28992833816E+04 0.  0.
        1    1    3    3  502    0  0.34990782012E+03  0.12772143831E+04  0.80370634933E+02  0.13267145518E+04  0.50400001928E-02 0. -1.
       -1    1    3    3    0  502 -0.34990782012E+03 -0.12772143831E+04 -0.11811850813E+04  0.17745169087E+04  0.50400001928E-02 0.  1.
</event>
<event>
 5   0  0.9395744E-08  0.2899376E+04  0.7818609E-02  0.8273063E-01
       -1   -1    0    0    0  501  0.00000000000E+00  0.00000000000E+00  0.77581548965E+03  0.77581548967E+03  0.50400001928E-02 0.  1.
        1   -1    0    0  501    0  0.00000000000E+00  0.00000000000E+00 -0.27088846646E+04  0.27088846646E+04  0.50400001928E-02 0. -1.
    10030    2    1    2    0    0  0.00000000000E+00  0.00000000000E+00 -0.19330691750E+04  0.34847001543E+04  0.28993755759E+04 0.  0.
        2    1    3    3  502    0 -0.97466489217E+03  0.10748112263E+03  0.31676146127E+03  0.10304667229E+04  0.25500000920E-02 0.  1.
       -2    1    3    3    0  502  0.97466489217E+03 -0.10748112263E+03 -0.22498306363E+04  0.24542334314E+04  0.25500000920E-02 0. -1.
</event>
<event>
 5   0  0.9443352E-08  0.2900793E+04  0.7818609E-02  0.8272641E-01
        1   -1    0    0  501    0  0.00000000000E+00  0.00000000000E+00  0.18708042963E+04  0.18708042963E+04  0.50400001928E-02 0. -1.
       -1   -1    0    0    0  501  0.00000000000E+00  0.00000000000E+00 -0.11244631288E+04  0.11244631288E+04  0.50400001928E-02 0.  1.
    10030    2    1    2    0    0  0.00000000000E+00  0.00000000000E+00  0.74634116748E+03  0.29952674251E+04  0.29007933069E+04 0.  0.
        4    1    3    3  502    0  0.46113269464E+03 -0.13727528921E+04  0.28957095872E+03  0.14768029042E+04  0.12699999809E+01 0. -1.
       -4    1    3    3    0  502 -0.46113269464E+03  0.13727528921E+04  0.45677020877E+03  0.15184645209E+04  0.12699999809E+01 0.  1.
</event>
<event>
 5   0  0.2534588E-07  0.2912707E+04  0.7818609E-02  0.8269107E-01
       -2   -1    0    0    0  501  0.00000000000E+00  0.00000000000E+00  0.16468867352E+04  0.16468867352E+04  0.25500000920E-02 0.  1.
        2   -1    0    0  501    0  0.00000000000E+00  0.00000000000E+00 -0.12878634664E+04  0.12878634665E+04  0.25500000920E-02 0. -1.
    10030    2    1    2    0    0  0.00000000000E+00  0.00000000000E+00  0.35902326872E+03  0.29347502016E+04  0.29127068233E+04 0.  0.
        3    1    3    3  502    0  0.66230066566E+03 -0.12666106302E+04  0.46094720088E+03  0.15018045787E+04  0.10100000352E+00 0.  1.
       -3    1    3    3    0  502 -0.66230066566E+03  0.12666106302E+04 -0.10192393216E+03  0.14329456230E+04  0.10100000352E+00 0. -1.
</event>
<event>
 5   0  0.9763851E-08  0.2900190E+04  0.7818609E-02  0.8272821E-01
       -1   -1    0    0    0  501  0.00000000000E+00  0.00000000000E+00  0.11235180062E+04  0.11235180062E+04  0.50400001928E-02 0.  1.
        1   -1    0    0  501    0  0.00000000000E+00  0.00000000000E+00 -0.18715987451E+04  0.18715987451E+04  0.50400001928E-02 0. -1.
    10030    2    1    2    0    0  0.00000000000E+00  0.00000000000E+00 -0.74808073888E+03  0.29951167513E+04  0.29001895734E+04 0.  0.
        3    1    3    3  502    0 -0.40589946441E+03 -0.12608668714E+04  0.23538948691E+03  0.13453430281E+04  0.10100000352E+00 0.  1.
       -3    1    3    3    0  502  0.40589946441E+03  0.12608668714E+04 -0.98347022580E+03  0.16497737232E+04  0.10100000352E+00 0. -1.
</event>
<event>
 5   0  0.2608591E-07  0.2900882E+04  0.7818609E-02  0.8272615E-01
       -2   -1    0    0    0  501  0.00000000000E+00  0.00000000000E+00  0.16633438892E+04  0.16633438892E+04  0.25500000920E-02 0.  1.
        2   -1    0    0  501    0  0.00000000000E+00  0.00000000000E+00 -0.12647893981E+04  0.12647893981E+04  0.25500000920E-02 0. -1.
    10030    2    1    2    0    0  0.00000000000E+00  0.00000000000E+00  0.39855449114E+03  0.29281332873E+04  0.29008824288E+04 0.  0.
        2    1    3    3  502    0  0.37554795606E+03  0.12168359595E+04 -0.50154587848E+03  0.13686761077E+04  0.25500000920E-02 0. -1.
       -2    1    3    3    0  502 -0.37554795606E+03 -0.12168359595E+04  0.90010036962E+03  0.15594571796E+04  0.25500000920E-02 0.  1.
</event>
<event>
 5   0  0.2534588E-07  0.2899986E+04  0.7818609E-02  0.8272882E-01
       -2   -1    0    0    0  501  0.00000000000E+00  0.00000000000E+00  0.11149278955E+04  0.11149278955E+04  0.25500000920E-02 0.  1.
        2   -1    0    0  501    0  0.00000000000E+00  0.00000000000E+00 -0.18857544039E+04  0.18857544039E+04  0.25500000920E-02 0. -1.
    10030    2    1    2    0    0  0.00000000000E+00  0.00000000000E+00 -0.77082650837E+03  0.30006822994E+04  0.28999863372E+04 0.  0.
        3    1    3    3  502    0 -0.78502702949E+03 -0.75719490112E+03 -0.13740305512E+04  0.17543008639E+04  0.10100000352E+00 0.  1.
       -3    1    3    3    0  502  0.78502702949E+03  0.75719490112E+03  0.60320404280E+03  0.12463814355E+04  0.10100000352E+00 0. -1.
</event>
<event>
 5   0  0.2608591E-07  0.2899736E+04  0.7818609E-02  0.8272956E-01
       -2   -1    0    0    0  501  0.00000000000E+00  0.00000000000E+00  0.16854562014E+04  0.16854562014E+04  0.25500000920E-02 0. -1.
        2   -1    0    0  501    0  0.00000000000E+00  0.00000000000E+00 -0.12472093942E+04  0.12472093942E+04  0.25500000920E-02 0.  1.
    10030    2    1    2    0    0  0.00000000000E+00  0.00000000000E+00  0.43824680727E+03  0.29326655956E+04  0.28997357175E+04 0.  0.
        2    1    3    3  502    0 -0.27568773414E+03 -0.12909096166E+04 -0.38740826637E+03  0.13756949261E+04  0.25500000920E-02 0.  1.
       -2    1    3    3    0  502  0.27568773414E+03  0.12909096166E+04  0.82565507364E+03  0.15569706695E+04  0.25500000920E-02 0. -1.
</event>
<event>
 5   0  0.2492232E-07  0.2902850E+04  0.7818609E-02  0.8272030E-01
       -2   -1    0    0    0  501  0.00000000000E+00  0.00000000000E+00  0.96141362202E+03  0.96141362202E+03  0.25500000920E-02 0. -1.
        2   -1    0    0  501    0  0.00000000000E+00  0.00000000000E+00 -0.21911840088E+04  0.21911840088E+04  0.25500000920E-02 0.  1.
    10030    2    1    2    0    0  0.00000000000E+00  0.00000000000E+00 -0.12297703868E+04  0.31525976308E+04  0.29028497408E+04 0.  0.
        4    1    3    3  502    0 -0.27250988517E+02  0.72020306632E+03  0.75334594433E+03  0.10425769985E+04  0.12699999809E+01 0. -1.
       -4    1    3    3    0  502  0.27250988517E+02 -0.72020306632E+03 -0.19831163311E+04  0.21100206323E+04  0.12699999809E+01 0.  1.
</event>
<event>
 5   0  0.9388076E-08  0.2899580E+04  0.7818609E-02  0.8273003E-01
        1   -1    0    0  501    0  0.00000000000E+00  0.00000000000E+00  0.14266754948E+04  0.14266754948E+04  0.50400001928E-02 0.  1.
       -1   -1    0    0    0  501  0.00000000000E+00  0.00000000000E+00 -0.14732786766E+04  0.14732786766E+04  0.50400001928E-02 0. -1.
    10030    2    1    2    0    0  0.00000000000E+00  0.00000000000E+00 -0.46603181856E+02  0.28999541714E+04  0.28995796833E+04 0.  0.
        5    1    3    3  502    0 -0.13840513347E+04 -0.23077405698E+03  0.34145598981E+03  0.14441153159E+04  0.46999998093E+01 0.  1.
       -5    1    3    3    0  502  0.13840513347E+04  0.23077405698E+03 -0.38805917167E+03  0.14558388555E+04  0.46999998093E+01 0. -1.
</event>
<event>
 5   0  0.9421924E-08  0.2899440E+04  0.7818609E-02  0.8273044E-01
       -1   -1    0    0    0  501  0.00000000000E+00  0.00000000000E+00  0.20960999463E+04  0.20960999463E+04  0.50400001928E-02 0.  1.
        1   -1    0    0  501    0  0.00000000000E+00  0.00000000000E+00 -0.10026661907E+04  0.10026661907E+04  0.50400001928E-02 0. -1.
    10030    2    1    2    0    0  0.00000000000E+00  0.00000000000E+00  0.10934337556E+04  0.30987661370E+04  0.28994403243E+04 0.  0.
        1    1    3    3  502    0 -0.12508059658E+04  0.36255857418E+03  0.12274707460E+04  0.17895945675E+04  0.50400001928E-02 0.  1.
       -1    1    3    3    0  502  0.12508059658E+04 -0.36255857418E+03 -0.13403699040E+03  0.13091715695E+04  0.50400001928E-02 0. -1.
</event>
<event>
 5   0  0.2608591E-07  0.2900977E+04  0.7818609E-02  0.8272587E-01
        2   -1    0    0  501    0  0.00000000000E+00  0.00000000000E+00  0.18086655853E+04  0.18086655853E+04  0.25500000920E-02 0.  1.
       -2   -1    0    0    0  501  0.00000000000E+00  0.00000000000E+00 -0.11632426984E+04  0.11632426984E+04  0.25500000920E-02 0. -1.
    10030    2    1    2    0    0  0.00000000000E+00  0.00000000000E+00  0.64542288685E+03  0.29719082837E+04  0.29009771016E+04 0.  0.
        2    1    3    3  502    0  0.70280961828E+03  0.11726358415E+04  0.81922762262E+03  0.15937848268E+04  0.25500000920E-02 0. -1.
       -2    1    3    3    0  502 -0.70280961828E+03 -0.11726358415E+04 -0.17380473576E+03  0.13781234569E+04  0.25500000920E-02 0.  1.
</event>
<event>
 5   0  0.2608591E-07  0.2904574E+04  0.7818609E-02  0.8271518E-01
        2   -1    0    0  501    0  0.00000000000E+00  0.00000000000E+00  0.27995210951E+04  0.27995210951E+04  0.25500000920E-02 0.  1.
       -2   -1    0    0    0  501  0.00000000000E+00  0.00000000000E+00 -0.75339205875E+03  0.75339205875E+03  0.25500000920E-02 0. -1.
    10030    2    1    2    0    0  0.00000000000E+00  0.00000000000E+00  0.20461290363E+04  0.35529131538E+04  0.29045736082E+04 0.  0.
        2    1    3    3  502    0 -0.51959492840E+03 -0.79777021694E+03 -0.31841673315E+03  0.10038951263E+04  0.25500000920E-02 0. -1.
       -2    1    3    3    0  502  0.51959492840E+03  0.79777021694E+03  0.23645457695E+04  0.25490180275E+04  0.25500000920E-02 0.  1.
</event>
<event>
 5   0  0.2534588E-07  0.2896728E+04  0.7818609E-02  0.8273852E-01
        2   -1    0    0  501    0  0.00000000000E+00  0.00000000000E+00  0.17668996281E+04  0.17668996281E+04  0.25500000920E-02 0.  1.
       -2   -1    0    0    0  501  0.00000000000E+00  0.00000000000E+00 -0.11872536402E+04  0.11872536402E+04  0.25500000920E-02 0. -1.
    10030    2    1    2    0    0  0.00000000000E+00  0.00000000000E+00  0.57964598795E+03  0.29541532683E+04  0.28967278197E+04 0.  0.
        3    1    3    3  502    0  0.14881969614E+03  0.39208552002E+03  0.17036244592E+04  0.17544841593E+04  0.10100000352E+00 0.  1.
       -3    1    3    3    0  502 -0.14881969614E+03 -0.39208552002E+03 -0.11239784713E+04  0.11996691090E+04  0.10100000352E+00 0. -1.
</event>
<event>
 5   0  0.9395744E-08  0.2904619E+04  0.7818609E-02  0.8271505E-01
       -1   -1    0    0    0  501  0.00000000000E+00  0.00000000000E+00  0.15474288141E+04  0.15474288141E+04  0.50400001928E-02 0.  1.
        1   -1    0    0  501    0  0.00000000000E+00  0.00000000000E+00 -0.13630368485E+04  0.13630368485E+04  0.50400001928E-02 0. -1.
    10030    2    1    2    0    0  0.00000000000E+00  0.00000000000E+00  0.18439196564E+03  0.29104656626E+04  0.29046187317E+04 0.  0.
        2    1    3    3  502    0  0.78188069416E+03 -0.66591973953E+03  0.11211105943E+04  0.15204195092E+04  0.25500000920E-02 0.  1.
       -2    1    3    3    0  502 -0.78188069416E+03  0.66591973953E+03 -0.93671862864E+03  0.13900461534E+04  0.25500000920E-02 0. -1.
</event>
<event>
 5   0  0.9421924E-08  0.2899635E+04  0.7818609E-02  0.8272986E-01
       -1   -1    0    0    0  501  0.00000000000E+00  0.00000000000E+00  0.17462361451E+04  0.17462361451E+04  0.50400001928E-02 0.  1.
        1   -1    0    0  501    0  0.00000000000E+00  0.00000000000E+00 -0.12037154746E+04  0.12037154747E+04  0.50400001928E-02 0. -1.
    10030    2    1    2    0    0  0.00000000000E+00  0.00000000000E+00  0.54252067046E+03  0.29499516198E+04  0.28996354738E+04 0.  0.
        1    1    3    3  502    0  0.81236562726E+03 -0.12008195967E+04  0.27951620094E+03  0.14764941323E+04  0.50400001928E-02 0. -1.
       -1    1    3    3    0  502 -0.81236562726E+03  0.12008195967E+04  0.26300446953E+03  0.14734574874E+04  0.50400001928E-02 0.  1.
</event>
<event>
 5   0  0.2608591E-07  0.2899930E+04  0.7818609E-02  0.8272898E-01
       -2   -1    0    0    0  501  0.00000000000E+00  0.00000000000E+00  0.92427216382E+03  0.92427216382E+03  0.25500000920E-02 0. -1.
        2   -1    0    0  501    0  0.00000000000E+00  0.00000000000E+00 -0.22746536317E+04  0.22746536317E+04  0.25500000920E-02 0.  1.
    10030    2    1    2    0    0  0.00000000000E+00  0.00000000000E+00 -0.13503814679E+04  0.31989257955E+04  0.28999303675E+04 0.  0.
        2    1    3    3  502    0  0.13020300916E+04  0.62727647509E+03 -0.54635448160E+03  0.15450764885E+04  0.25500000920E-02 0.  1.
       -2    1    3    3    0  502 -0.13020300916E+04 -0.62727647509E+03 -0.80402698628E+03  0.16538493070E+04  0.25500000920E-02 0. -1.
</event>
<event>
 5   0  0.2678723E-07  0.2901333E+04  0.7818609E-02  0.8272481E-01
        2   -1    0    0  501    0  0.00000000000E+00  0.00000000000E+00  0.20719692561E+04  0.20719692561E+04  0.25500000920E-02 0.  1.
       -2   -1    0    0    0  501  0.00000000000E+00  0.00000000000E+00 -0.10156681323E+04  0.10156681323E+04  0.25500000920E-02 0. -1.
    10030    2    1    2    0    0  0.00000000000E+00  0.00000000000E+00  0.10563011238E+04  0.30876373884E+04  0.29013328968E+04 0.  0.
        5    1    3    3  502    0 -0.92927919565E+03 -0.12565656744E+03 -0.64974748776E+03  0.11408519993E+04  0.46999998093E+01 0. -1.
       -5    1    3    3    0  502  0.92927919565E+03  0.12565656744E+03  0.17060486116E+04  0.19467853891E+04  0.46999998093E+01 0.  1.
</event>
<event>
 5   0  0.9395744E-08  0.2900510E+04  0.7818609E-02  0.8272726E-01
       -1   -1    0    0    0  501  0.00000000000E+00  0.00000000000E+00  0.15264019163E+04  0.15264019163E+04  0.50400001928E-02 0.  1.
        1   -1    0    0  501    0  0.00000000000E+00  0.00000000000E+00 -0.13779070974E+04  0.13779070974E+04  0.50400001928E-02 0. -1.
    10030    2    1    2    0    0  0.00000000000E+00  0.00000000000E+00  0.14849481886E+03  0.29043090137E+04  0.29005103233E+04 0.  0.
        2    1    3    3  502    0  0.11424131221E+04 -0.31207552439E+03  0.91244656870E+03  0.14950109080E+04  0.25500000920E-02 0.  1.
       -2    1    3    3    0  502 -0.11424131221E+04  0.31207552439E+03 -0.76395174983E+03  0.14092981056E+04  0.25500000920E-02 0. -1.
</event>
<event>
 5   0  0.9388076E-08  0.2900429E+04  0.7818609E-02  0.8272750E-01
       -1   -1    0    0    0  501  0.00000000000E+00  0.00000000000E+00  0.89835464424E+03  0.89835464425E+03  0.50400001928E-02 0.  1.
        1   -1    0    0  501    0  0.00000000000E+00  0.00000000000E+00 -0.23410827305E+04  0.23410827305E+04  0.50400001928E-02 0. -1.
    10030    2    1    2    0    0  0.00000000000E+00  0.00000000000E+00 -0.14427280863E+04  0.32394373748E+04  0.29004293086E+04 0.  0.
        5    1    3    3  502    0 -0.14327791764E+03  0.11058050536E+03  0.88568282650E+03  0.90399821294E+03  0.46999998093E+01 0.  1.
       -5    1    3    3    0  502  0.14327791764E+03 -0.11058050536E+03 -0.23284109128E+04  0.23354391618E+04  0.46999998093E+01 0. -1.
</event>
<event>
 5   0  0.2492232E-07  0.2900378E+04  0.7818609E-02  0.8272765E-01
       -2   -1    0    0    0  501  0.00000000000E+00  0.00000000000E+00  0.10287400461E+04  0.10287400461E+04  0.25500000920E-02 0.  1.
        2   -1    0    0  501    0  0.00000000000E+00  0.00000000000E+00 -0.20442944664E+04  0.20442944664E+04  0.25500000920E-02 0. -1.
    10030    2    1    2    0    0  0.00000000000E+00  0.00000000000E+00 -0.10155544203E+04  0.30730345126E+04  0.29003776193E+04 0.  0.
        4    1    3    3  502    0 -0.83608227738E+03 -0.52785967527E+03 -0.16317655993E+04  0.19079648832E+04  0.12699999809E+01 0. -1.
       -4    1    3    3    0  502  0.83608227738E+03  0.52785967527E+03  0.61621117900E+03  0.11650696294E+04  0.12699999809E+01 0.  1.
</event>
<event>
 5   0  0.9763851E-08  0.2901177E+04  0.7818609E-02  0.8272527E-01
       -1   -1    0    0    0  501  0.00000000000E+00  0.00000000000E+00  0.13214903556E+04  0.13214903557E+04  0.50400001928E-02 0. -1.
        1   -1    0    0  501    0  0.00000000000E+00  0.00000000000E+00 -0.15922985344E+04  0.15922985344E+04  0.50400001928E-02 0.  1.
    10030    2    1    2    0    0  0.00000000000E+00  0.00000000000E+00 -0.27080817876E+03  0.29137888901E+04  0.29011771105E+04 0.  0.
        3    1    3    3  502    0 -0.23768552986E+03 -0.61223736684E+03 -0.14344245573E+04  0.15776256923E+04  0.10100000352E+00 0.  1.
       -3    1    3    3    0  502  0.23768552986E+03  0.61223736684E+03  0.11636163785E+04  0.13361631977E+04  0.10100000352E+00 0. -1.
</event>
<event>
 5   0  0.9395744E-08  0.2900660E+04  0.7818609E-02  0.8272681E-01
       -1   -1    0    0    0  501  0.00000000000E+00  0.00000000000E+00  0.10122013766E+04  0.10122013766E+04  0.50400001928E-02 0.  1.
        1   -1    0    0  501    0  0.00000000000E+00  0.00000000000E+00 -0.20781015201E+04  0.20781015201E+04  0.50400001928E-02 0. -1.
    10030    2    1    2    0    0  0.00000000000E+00  0.00000000000E+00 -0.10659001435E+04  0.30903028968E+04  0.29006600762E+04 0.  0.
        2    1    3    3  502    0  0.23418253569E+03  0.11636549290E+04  0.35491611554E+03  0.12389106920E+04  0.25500000920E-02 0.  1.
       -2    1    3    3    0  502 -0.23418253569E+03 -0.11636549290E+04 -0.14208162590E+04  0.18513922047E+04  0.25500000920E-02 0. -1.
</event>
<event>
 5   0  0.2608591E-07  0.2899572E+04  0.7818609E-02  0.8273005E-01
        2   -1    0    0  501    0  0.00000000000E+00  0.00000000000E+00  0.17004872438E+04  0.17004872438E+04  0.25500000920E-02 0.  1.
       -2   -1    0    0    0  501  0.00000000000E+00  0.00000000000E+00 -0.12360453039E+04  0.12360453039E+04  0.25500000920E-02 0. -1.
    10030    2    1    2    0    0  0.00000000000E+00  0.00000000000E+00  0.46444193988E+03  0.29365325477E+04  0.28995718801E+04 0.  0.
        2    1    3    3  502    0  0.10680594662E+04  0.87200576103E+03  0.68596573422E+03  0.15400305384E+04  0.25500000920E-02 0.  1.
       -2    1    3    3    0  502 -0.10680594662E+04 -0.87200576103E+03 -0.22152379435E+03  0.13965020093E+04  0.25500000920E-02 0. -1.
</event>
<event>
 5   0  0.2678723E-07  0.2900272E+04  0.7818609E-02  0.8272797E-01
       -2   -1    0    0    0  501  0.00000000000E+00  0.00000000000E+00  0.11803399337E+04  0.11803399337E+04  0.25500000920E-02 0.  1.
        2   -1    0    0  501    0  0.00000000000E+00  0.00000000000E+00 -0.17816002797E+04  0.17816002797E+04  0.25500000920E-02 0. -1.
    10030    2    1    2    0    0  0.00000000000E+00  0.00000000000E+00 -0.60126034598E+03  0.29619402134E+04  0.29002716811E+04 0.  0.
        5    1    3    3  502    0 -0.85380675668E+03 -0.10277996819E+04  0.27483473038E+03  0.13641533575E+04  0.46999998093E+01 0.  1.
       -5    1    3    3    0  502  0.85380675668E+03  0.10277996819E+04 -0.87609507636E+03  0.15977868558E+04  0.46999998093E+01 0. -1.
</event>
<event>
 5   0  0.9443352E-08  0.2899946E+04  0.7818609E-02  0.8272894E-01
       -1   -1    0    0    0  501  0.00000000000E+00  0.00000000000E+00  0.14799830255E+04  0.14799830255E+04  0.50400001928E-02 0. -1.
        1   -1    0    0  501    0  0.00000000000E+00  0.00000000000E+00 -0.14205710602E+04  0.14205710603E+04  0.50400001928E-02 0.  1.
    10030    2    1    2    0    0  0.00000000000E+00  0.00000000000E+00  0.59411965217E+02  0.29005540857E+04  0.28999455551E+04 0.  0.
        4    1    3    3  502    0  0.96621292184E+03 -0.92283949114E+03  0.59304642312E+03  0.14618159288E+04  0.12699999809E+01 0. -1.
       -4    1    3    3    0  502 -0.96621292184E+03  0.92283949114E+03 -0.53363445790E+03  0.14387381570E+04  0.12699999809E+01 0.  1.
</event>
<event>
 5   0  0.2678723E-07  0.2902445E+04  0.7818609E-02  0.8272150E-01
        2   -1    0    0  501    0  0.00000000000E+00  0.00000000000E+00  0.16527002216E+04  0.16527002216E+04  0.25500000920E-02 0.  1.
       -2   -1    0    0    0  501  0.00000000000E+00  0.00000000000E+00 -0.12743062643E+04  0.12743062643E+04  0.25500000920E-02 0. -1.
    10030    2    1    2    0    0  0.00000000000E+00  0.00000000000E+00  0.37839395729E+03  0.29270064859E+04  0.29024446560E+04 0.  0.
        5    1    3    3  502    0 -0.63561633711E+01 -0.10942167879E+04  0.11505073749E+04  0.15877783502E+04  0.46999998093E+01 0.  1.
       -5    1    3    3    0  502  0.63561633711E+01  0.10942167879E+04 -0.77211341763E+03  0.13392281357E+04  0.46999998093E+01 0. -1.
</event>
<event>
 5   0  0.9763851E-08  0.2901399E+04  0.7818609E-02  0.8272461E-01
        1   -1    0    0  501    0  0.00000000000E+00  0.00000000000E+00  0.12803548053E+04  0.12803548053E+04  0.50400001928E-02 0.  1.
       -1   -1    0    0    0  501  0.00000000000E+00  0.00000000000E+00 -0.16437073939E+04  0.16437073939E+04  0.50400001928E-02 0. -1.
    10030    2    1    2    0    0  0.00000000000E+00  0.00000000000E+00 -0.36335258853E+03  0.29240621992E+04  0.29013987388E+04 0.  0.
        3    1    3    3  502    0  0.59895207776E+03  0.12224390403E+04 -0.68701885951E+03  0.15248264564E+04  0.10100000352E+00 0. -1.
       -3    1    3    3    0  502 -0.59895207776E+03 -0.12224390403E+04  0.32366627099E+03  0.13992357428E+04  0.10100000352E+00 0.  1.
</event>
<event>
 5   0  0.2608591E-07  0.2899646E+04  0.7818609E-02  0.8272983E-01
        2   -1    0    0  501    0  0.00000000000E+00  0.00000000000E+00  0.18354292656E+04  0.18354292656E+04  0.25500000920E-02 0.  1.
       -2   -1    0    0    0  501  0.00000000000E+00  0.00000000000E+00 -0.11452286075E+04  0.11452286075E+04  0.25500000920E-02 0. -1.
    10030    2    1    2    0    0  0.00000000000E+00  0.00000000000E+00  0.69020065810E+03  0.29806578732E+04  0.28996455660E+04 0.  0.
        2    1    3    3  502    0 -0.82337596237E+03 -0.11853182797E+04  0.20319004154E+03  0.14574682132E+04  0.25500000920E-02 0. -1.
       -2    1    3    3    0  502  0.82337596237E+03  0.11853182797E+04  0.48701061656E+03  0.15231896599E+04  0.25500000920E-02 0.  1.
</event>
<event>
 5   0  0.2534588E-07  0.2899420E+04  0.7818609E-02  0.8273050E-01
        2   -1    0    0  501    0  0.00000000000E+00  0.00000000000E+00  0.22098733144E+04  0.22098733144E+04  0.25500000920E-02 0. -1.
       -2   -1    0    0    0  501  0.00000000000E+00  0.00000000000E+00 -0.95103176825E+03  0.95103176825E+03  0.25500000920E-02 0.  1.
    10030    2    1    2    0    0  0.00000000000E+00  0.00000000000E+00  0.12588415461E+04  0.31609050826E+04  0.28994204426E+04 0.  0.
        3    1    3    3  502    0 -0.89583195788E+03  0.43866406676E+02  0.18710935781E+04  0.20749530951E+04  0.10100000352E+00 0. -1.
       -3    1    3    3    0  502  0.89583195788E+03 -0.43866406676E+02 -0.61225203201E+03  0.10859519876E+04  0.10100000352E+00 0.  1.
</event>
<event>
 5   0  0.2546841E-07  0.2902897E+04  0.7818609E-02  0.8272016E-01
        2   -1    0    0  501    0  0.00000000000E+00  0.00000000000E+00  0.26525035526E+04  0.26525035526E+04  0.25500000920E-02 0.  1.
       -2   -1    0    0    0  501  0.00000000000E+00  0.00000000000E+00 -0.79423207276E+03  0.79423207276E+03  0.25500000920E-02 0. -1.
    10030    2    1    2    0    0  0.00000000000E+00  0.00000000000E+00  0.18582714798E+04  0.34467356253E+04  0.29028974454E+04 0.  0.
        1    1    3    3  502    0  0.11172529671E+04 -0.73464441536E+03  0.15994819932E+04  0.20847779872E+04  0.50400001928E-02 0. -1.
       -1    1    3    3    0  502 -0.11172529671E+04  0.73464441536E+03  0.25878948660E+03  0.13619576381E+04  0.50400001928E-02 0.  1.
</event>
<event>
 5   0  0.9421924E-08  0.2899530E+04  0.7818609E-02  0.8273017E-01
        1   -1    0    0  501    0  0.00000000000E+00  0.00000000000E+00  0.17569651453E+04  0.17569651453E+04  0.50400001928E-02 0.  1.
       -1   -1    0    0    0  501  0.00000000000E+00  0.00000000000E+00 -0.11962779505E+04  0.11962779505E+04  0.50400001928E-02 0. -1.
    10030    2    1    2    0    0  0.00000000000E+00  0.00000000000E+00  0.56068719480E+03  0.29532430959E+04  0.28995300745E+04 0.  0.
        1    1    3    3  502    0 -0.11288372858E+04 -0.38655160862E+02 -0.64536642127E+03  0.13008711147E+04  0.50400001928E-02 0. -1.
       -1    1    3    3    0  502  0.11288372858E+04  0.38655160862E+02  0.12060536161E+04  0.16523719812E+04  0.50400001928E-02 0.  1.
</event>
<event>
 5   0  0.2534588E-07  0.2900564E+04  0.7818609E-02  0.8272710E-01
        2   -1    0    0  501    0  0.00000000000E+00  0.00000000000E+00  0.16249687558E+04  0.16249687558E+04  0.25500000920E-02 0.  1.
       -2   -1    0    0    0  501  0.00000000000E+00  0.00000000000E+00 -0.12943746290E+04  0.12943746290E+04  0.25500000920E-02 0. -1.
    10030    2    1    2    0    0  0.00000000000E+00  0.00000000000E+00  0.33059412685E+03  0.29193433848E+04  0.29005643109E+04 0.  0.
        3    1    3    3  502    0 -0.93848275377E+03  0.53637632377E+03  0.11384431356E+04  0.15698733143E+04  0.10100000352E+00 0.  1.
       -3    1    3    3    0  502  0.93848275377E+03 -0.53637632377E+03 -0.80784900878E+03  0.13494700704E+04  0.10100000352E+00 0. -1.
</event>
<event>
 5   0  0.9443352E-08  0.2900102E+04  0.7818609E-02  0.8272847E-01
       -1   -1    0    0    0  501  0.00000000000E+00  0.00000000000E+00  0.95919097265E+03  0.95919097266E+03  0.50400001928E-02 0.  1.
        1   -1    0    0  501    0  0.00000000000E+00  0.00000000000E+00 -0.21921061157E+04  0.21921061157E+04  0.50400001928E-02 0. -1.
    10030    2    1    2    0    0  0.00000000000E+00  0.00000000000E+00 -0.12329151431E+04  0.31512970884E+04  0.29001023412E+04 0.  0.
        4    1    3    3  502    0  0.11417778289E+04  0.36515521219E+03 -0.15030001414E+04  0.19224999291E+04  0.12699999809E+01 0. -1.
       -4    1    3    3    0  502 -0.11417778289E+04 -0.36515521219E+03  0.27008499832E+03  0.12287971593E+04  0.12699999809E+01 0.  1.
</event>
<event>
 5   0  0.2678723E-07  0.2903936E+04  0.7818609E-02  0.8271708E-01
        2   -1    0    0  501    0  0.00000000000E+00  0.00000000000E+00  0.11312506072E+04  0.11312506072E+04  0.25500000920E-02 0. -1.
       -2   -1    0    0    0  501  0.00000000000E+00  0.00000000000E+00 -0.18636104070E+04  0.18636104070E+04  0.25500000920E-02 0.  1.
    10030    2    1    2    0    0  0.00000000000E+00  0.00000000000E+00 -0.73235979978E+03  0.29948610141E+04  0.29039355395E+04 0.  0.
        5    1    3    3  502    0 -0.11206168049E+04  0.60747740368E+03 -0.10832026145E+04  0.16727704007E+04  0.46999998093E+01 0.  1.
       -5    1    3    3    0  502  0.11206168049E+04 -0.60747740368E+03  0.35084281475E+03  0.13220906134E+04  0.46999998093E+01 0. -1.
</event>
<event>
 5   0  0.9443352E-08  0.2899830E+04  0.7818609E-02  0.8272928E-01
       -1   -1    0    0    0  501  0.00000000000E+00  0.00000000000E+00  0.15733024363E+04  0.15733024363E+04  0.50400001928E-02 0.  1.
        1   -1    0    0  501    0  0.00000000000E+00  0.00000000000E+00 -0.13362047302E+04  0.13362047302E+04  0.50400001928E-02 0. -1.
    10030    2    1    2    0    0  0.00000000000E+00  0.00000000000E+00  0.23709770612E+03  0.29095071666E+04  0.28998304485E+04 0.  0.
        4    1    3    3  502    0  0.85934242130E+02  0.56970522646E+03  0.14535164582E+04  0.15635409960E+04  0.12699999809E+01 0.  1.
       -4    1    3    3    0  502 -0.85934242130E+02 -0.56970522646E+03 -0.12164187521E+04  0.13459661706E+04  0.12699999809E+01 0. -1.
</event>
<event>
 5   0  0.9388076E-08  0.2899419E+04  0.7818609E-02  0.8273050E-01
       -1   -1    0    0    0  501  0.00000000000E+00  0.00000000000E+00  0.16494377874E+04  0.16494377875E+04  0.50400001928E-02 0. -1.
        1   -1    0    0  501    0  0.00000000000E+00  0.00000000000E+00 -0.12741660109E+04  0.12741660109E+04  0.50400001928E-02 0.  1.
    10030    2    1    2    0    0  0.00000000000E+00  0.00000000000E+00  0.37527177659E+03  0.29236037983E+04  0.28994189527E+04 0.  0.
        5    1    3    3  502    0  0.42114518863E+03  0.64919898309E+03  0.14237540837E+04  0.16204691822E+04  0.46999998093E+01 0. -1.
       -5    1    3    3    0  502 -0.42114518863E+03 -0.64919898309E+03 -0.10484823071E+04  0.13031346162E+04  0.46999998093E+01 0.  1.
</event>
<event>
 5   0  0.2546841E-07  0.2899832E+04  0.7818609E-02  0.8272927E-01
       -2   -1    0    0    0  501  0.00000000000E+00  0.00000000000E+00  0.14240629931E+04  0.14240629931E+04  0.25500000920E-02 0. -1.
        2   -1    0    0  501    0  0.00000000000E+00  0.00000000000E+00 -0.14762386579E+04  0.14762386580E+04  0.25500000920E-02 0.  1.
    10030    2    1    2    0    0  0.00000000000E+00  0.00000000000E+00 -0.52175664835E+02  0.29003016511E+04  0.28998322998E+04 0.  0.
        1    1    3    3  502    0  0.12935429027E+04  0.17505307635E+03 -0.65734767147E+03  0.14615070242E+04  0.50400001928E-02 0. -1.
       -1    1    3    3    0  502 -0.12935429027E+04 -0.17505307635E+03  0.60517200664E+03  0.14387946269E+04  0.50400001928E-02 0.  1.
</event>
<event>
 5   0  0.2492232E-07  0.2904529E+04  0.7818609E-02  0.8271531E-01
        2   -1    0    0  501    0  0.00000000000E+00  0.00000000000E+00  0.13682989942E+04  0.13682989942E+04  0.25500000920E-02 0.  1.
       -2   -1    0    0    0  501  0.00000000000E+00  0.00000000000E+00 -0.15413822866E+04  0.15413822866E+04  0.25500000920E-02 0. -1.
    10030    2    1    2    0    0  0.00000000000E+00  0.00000000000E+00 -0.17308329245E+03  0.29096812808E+04  0.29045287620E+04 0.  0.
        4    1    3    3  502    0 -0.90805702880E+03 -0.11277184478E+04  0.26591212667E+02  0.14481108972E+04  0.12699999809E+01 0. -1.
       -4    1    3    3    0  502  0.90805702880E+03  0.11277184478E+04 -0.19967450511E+03  0.14615703835E+04  0.12699999809E+01 0.  1.
</event>
<event>
 5   0  0.2534588E-07  0.2900522E+04  0.7818609E-02  0.8272722E-01
       -2   -1    0    0    0  501  0.00000000000E+00  0.00000000000E+00  0.15172346881E+04  0.15172346881E+04  0.25500000920E-02 0.  1.
        2   -1    0    0  501    0  0.00000000000E+00  0.00000000000E+00 -0.13862434488E+04  0.13862434488E+04  0.25500000920E-02 0. -1.
    10030    2    1    2    0    0  0.00000000000E+00  0.00000000000E+00  0.13099123929E+03  0.29034781368E+04  0.29005217783E+04 0.  0.
        3    1    3    3  502    0 -0.11663566278E+03 -0.14270204061E+04  0.29652409477E+03  0.14621619836E+04  0.10100000352E+00 0. -1.
       -3    1    3    3    0  502  0.11663566278E+03  0.14270204061E+04 -0.16553285549E+03  0.14413161533E+04  0.10100000352E+00 0.  1.
</event>
<event>
 5   0  0.9443352E-08  0.2899321E+04  0.7818609E-02  0.8273079E-01
       -1   -1    0    0    0  501  0.00000000000E+00  0.00000000000E+00  0.31845470330E+04  0.31845470330E+04  0.50400001928E-02 0. -1.
        1   -1    0    0  501    0  0.00000000000E+00  0.00000000000E+00 -0.65991044359E+03  0.65991044361E+03  0.50400001928E-02 0.  1.
    10030    2    1    2    0    0  0.00000000000E+00  0.00000000000E+00  0.25246365894E+04  0.38444574766E+04  0.28993211931E+04 0.  0.
        4    1    3    3  502    0 -0.31052747787E+02 -0.32734824633E+03  0.31344448565E+04  0.31516451766E+04  0.12699999809E+01 0. -1.
       -4    1    3    3    0  502  0.31052747787E+02  0.32734824633E+03 -0.60980826712E+03  0.69281230003E+03  0.12699999809E+01 0.  1.
</event>
<event>
 5   0  0.9395744E-08  0.2899315E+04  0.7818609E-02  0.8273081E-01
        1   -1    0    0  501    0  0.00000000000E+00  0.00000000000E+00  0.17900196281E+04  0.17900196281E+04  0.50400001928E-02 0. -1.
       -1   -1    0    0    0  501  0.00000000000E+00  0.00000000000E+00 -0.11740136770E+04  0.11740136770E+04  0.50400001928E-02 0.  1.
    10030    2    1    2    0    0  0.00000000000E+00  0.00000000000E+00  0.61600595116E+03  0.29640333051E+04  0.28993154540E+04 0.  0.
        2    1    3    3  502    0  0.12963938789E+04  0.20355649340E+03 -0.32172996606E+03  0.13511411867E+04  0.25500000920E-02 0.  1.
       -2    1    3    3    0  502 -0.12963938789E+04 -0.20355649340E+03  0.93773591722E+03  0.16128921184E+04  0.25500000920E-02 0. -1.
</event>
<event>
 5   0  0.2678723E-07  0.2901291E+04  0.7818609E-02  0.8272493E-01
       -2   -1    0    0    0  501  0.00000000000E+00  0.00000000000E+00  0.15325381413E+04  0.15325381413E+04  0.25500000920E-02 0.  1.
        2   -1    0    0  501    0  0.00000000000E+00  0.00000000000E+00 -0.13731293203E+04  0.13731293203E+04  0.25500000920E-02 0. -1.
    10030    2    1    2    0    0  0.00000000000E+00  0.00000000000E+00  0.15940882098E+03  0.29056674617E+04  0.29012914755E+04 0.  0.
        5    1    3    3  502    0  0.55462086392E+03 -0.12780925838E+04  0.48432616770E+03  0.14750318241E+04  0.46999998093E+01 0.  1.
       -5    1    3    3    0  502 -0.55462086392E+03  0.12780925838E+04 -0.32491734672E+03  0.14306356376E+04  0.46999998093E+01 0. -1.
</event>
<event>
 5   0  0.9421924E-08  0.2901143E+04  0.7818609E-02  0.8272538E-01
       -1   -1    0    0    0  501  0.00000000000E+00  0.00000000000E+00  0.12572977284E+04  0.12572977284E+04  0.50400001928E-02 0. -1.
        1   -1    0    0  501    0  0.00000000000E+00  0.00000000000E+00 -0.16735551472E+04  0.16735551472E+04  0.50400001928E-02 0.  1.
    10030    2    1    2    0    0  0.00000000000E+00  0.00000000000E+00 -0.41625741884E+03  0.29308528756E+04  0.29011425921E+04 0.  0.
        1    1    3    3  502    0  0.82432241819E+03 -0.99484698340E+03  0.45811662960E+03  0.13708022526E+04  0.50400001928E-02 0. -1.
       -1    1    3    3    0  502 -0.82432241819E+03  0.99484698340E+03 -0.87437404844E+03  0.15600506229E+04  0.50400001928E-02 0.  1.
</event>
<event>
 5   0  0.2534588E-07  0.2899228E+04  0.7818609E-02  0.8273107E-01
        2   -1    0    0  501    0  0.00000000000E+00  0.00000000000E+00  0.11248240092E+04  0.11248240092E+04  0.25500000920E-02 0.  1.
       -2   -1    0    0    0  501  0.00000000000E+00  0.00000000000E+00 -0.18681864446E+04  0.18681864446E+04  0.25500000920E-02 0. -1.
    10030    2    1    2    0    0  0.00000000000E+00  0.00000000000E+00 -0.74336243534E+03  0.29930104538E+04  0.28992281501E+04 0.  0.
        3    1    3    3  502    0 -0.13759055103E+03  0.41498076770E+02  0.11174517071E+04  0.11266550394E+04  0.10100000352E+00 0.  1.
       -3    1    3    3    0  502  0.13759055103E+03 -0.41498076770E+02 -0.18608141424E+04  0.18663554144E+04  0.10100000352E+00 0. -1.
</event>
<event>
 5   0  0.9395744E-08  0.2899893E+04  0.7818609E-02  0.8272909E-01
       -1   -1    0    0    0  501  0.00000000000E+00  0.00000000000E+00  0.13717926109E+04  0.13717926109E+04  0.50400001928E-02 0.  1.
        1   -1    0    0  501    0  0.00000000000E+00  0.00000000000E+00 -0.15325526905E+04  0.15325526905E+04  0.50400001928E-02 0. -1.
    10030    2    1    2    0    0  0.00000000000E+00  0.00000000000E+00 -0.16076007955E+03  0.29043453014E+04  0.28998927267E+04 0.  0.
        2    1    3    3  502    0 -0.17232617955E+03 -0.17590766890E+03  0.13506962085E+04  0.13729603300E+04  0.25500000920E-02 0.  1.
       -2    1    3    3    0  502  0.17232617955E+03  0.17590766890E+03 -0.15114562880E+04  0.15313849714E+04  0.25500000920E-02 0. -1.
</event>
<event>
 5   0  0.9443352E-08  0.2900206E+04  0.7818609E-02  0.8272816E-01
       -1   -1    0    0    0  501  0.00000000000E+00  0.00000000000E+00  0.28157952168E+04  0.28157952168E+04  0.50400001928E-02 0.  1.
        1   -1    0    0  501    0  0.00000000000E+00  0.00000000000E+00 -0.74678677347E+03  0.74678677348E+03  0.50400001928E-02 0. -1.
    10030    2    1    2    0    0  0.00000000000E+00  0.00000000000E+00  0.20690084433E+04  0.35625819903E+04  0.29002059408E+04 0.  0.
        4    1    3    3  502    0 -0.86836042678E+02 -0.84190175159E+03 -0.41189900554E+03  0.94127650630E+03  0.12699999809E+01 0. -1.
       -4    1    3    3    0  502  0.86836042678E+02  0.84190175159E+03  0.24809074489E+04  0.26213054840E+04  0.12699999809E+01 0.  1.
</event>
<event>
 5   0  0.8407500E-08  0.2899595E+04  0.7818609E-02  0.8272998E-01
        3   -1    0    0  501    0  0.00000000000E+00  0.00000000000E+00  0.12748856848E+04  0.12748856888E+04  0.10100000352E+00 0.  1.
       -3   -1    0    0    0  501  0.00000000000E+00  0.00000000000E+00 -0.16487063170E+04  0.16487063201E+04  0.10100000352E+00 0. -1.
    10030    2    1    2    0    0  0.00000000000E+00  0.00000000000E+00 -0.37382063222E+03  0.29235920089E+04  0.28995945181E+04 0.  0.
        5    1    3    3  502    0  0.45295898391E+03  0.20387057461E+03  0.11864028727E+04  0.12861994086E+04  0.46999998093E+01 0.  1.
       -5    1    3    3    0  502 -0.45295898391E+03 -0.20387057461E+03 -0.15602235049E+04  0.16373926003E+04  0.46999998093E+01 0. -1.
</event>
<event>
 5   0  0.2492232E-07  0.2904108E+04  0.7818609E-02  0.8271656E-01
        2   -1    0    0  501    0  0.00000000000E+00  0.00000000000E+00  0.12411835450E+04  0.12411835450E+04  0.25500000920E-02 0. -1.
       -2   -1    0    0    0  501  0.00000000000E+00  0.00000000000E+00 -0.16987502106E+04  0.16987502106E+04  0.25500000920E-02 0.  1.
    10030    2    1    2    0    0  0.00000000000E+00  0.00000000000E+00 -0.45756666554E+03  0.29399337556E+04  0.29041079928E+04 0.  0.
        4    1    3    3  502    0  0.90362284099E+03 -0.80162354537E+03  0.58696412144E+03  0.13430052271E+04  0.12699999809E+01 0. -1.
       -4    1    3    3    0  502 -0.90362284099E+03  0.80162354537E+03 -0.10445307870E+04  0.15969285285E+04  0.12699999809E+01 0.  1.
</event>
<event>
 5   0  0.9388076E-08  0.2907315E+04  0.7818609E-02  0.8270704E-01
        1   -1    0    0  501    0  0.00000000000E+00  0.00000000000E+00  0.15224904672E+04  0.15224904672E+04  0.50400001928E-02 0.  1.
       -1   -1    0    0    0  501  0.00000000000E+00  0.00000000000E+00 -0.13879365327E+04  0.13879365327E+04  0.50400001928E-02 0. -1.
    10030    2    1    2    0    0  0.00000000000E+00  0.00000000000E+00  0.13455393454E+03  0.29104269999E+04  0.29073150088E+04 0.  0.
        5    1    3    3  502    0  0.12668508728E+04  0.15821349495E+03 -0.62856087256E+03  0.14230437464E+04  0.46999998093E+01 0. -1.
       -5    1    3    3    0  502 -0.12668508728E+04 -0.15821349495E+03  0.76311480710E+03  0.14873832534E+04  0.46999998093E+01 0.  1.
</event>
<event>
 5   0  0.2608591E-07  0.2909007E+04  0.7818609E-02  0.8270203E-01
        2   -1    0    0  501    0  0.00000000000E+00  0.00000000000E+00  0.82001471826E+03  0.82001471827E+03  0.25500000920E-02 0. -1.
       -2   -1    0    0    0  501  0.00000000000E+00  0.00000000000E+00 -0.25799301333E+04  0.25799301333E+04  0.25500000920E-02 0.  1.
    10030    2    1    2    0    0  0.00000000000E+00  0.00000000000E+00 -0.17599154150E+04  0.33999448516E+04  0.29090071718E+04 0.  0.
        2    1    3    3  502    0 -0.66180991460E+03  0.10538069521E+04 -0.17600920143E+04  0.21555568548E+04  0.25500000920E-02 0.  1.
       -2    1    3    3    0  502  0.66180991460E+03 -0.10538069521E+04  0.17659928522E+00  0.12443879968E+04  0.25500000920E-02 0. -1.
</event>
<event>
 5   0  0.9443352E-08  0.2897714E+04  0.7818609E-02  0.8273558E-01
       -1   -1    0    0    0  501  0.00000000000E+00  0.00000000000E+00  0.14764434019E+04  0.14764434019E+04  0.50400001928E-02 0.  1.
        1   -1    0    0  501    0  0.00000000000E+00  0.00000000000E+00 -0.14217857894E+04  0.14217857894E+04  0.50400001928E-02 0. -1.
    10030    2    1    2    0    0  0.00000000000E+00  0.00000000000E+00  0.54657612493E+02  0.28982291913E+04  0.28977137524E+04 0.  0.
        4    1    3    3  502    0  0.12326721871E+04  0.27248463531E+03 -0.68375197131E+03  0.14357043458E+04  0.12699999809E+01 0. -1.
       -4    1    3    3    0  502 -0.12326721871E+04 -0.27248463531E+03  0.73840958380E+03  0.14625248455E+04  0.12699999809E+01 0.  1.
</event>
<event>
 5   0  0.9421924E-08  0.2900679E+04  0.7818609E-02  0.8272675E-01
        1   -1    0    0  501    0  0.00000000000E+00  0.00000000000E+00  0.11125072857E+04  0.11125072857E+04  0.50400001928E-02 0.  1.
       -1   -1    0    0    0  501  0.00000000000E+00  0.00000000000E+00 -0.18907607019E+04  0.18907607019E+04  0.50400001928E-02 0. -1.
    10030    2    1    2    0    0  0.00000000000E+00  0.00000000000E+00 -0.77825341616E+03  0.30032679876E+04  0.29006792697E+04 0.  0.
        1    1    3    3  502    0  0.35431418483E+03 -0.13760900465E+04 -0.68978045748E+03  0.15795440599E+04  0.50400001928E-02 0. -1.
       -1    1    3    3    0  502 -0.35431418483E+03  0.13760900465E+04 -0.88472958685E+02  0.14237239276E+04  0.50400001928E-02 0.  1.
</event>
<event>
 5   0  0.2608591E-07  0.2899695E+04  0.7818609E-02  0.8272968E-01
       -2   -1    0    0    0  501  0.00000000000E+00  0.00000000000E+00  0.20508377144E+04  0.20508377144E+04  0.25500000920E-02 0. -1.
        2   -1    0    0  501    0  0.00000000000E+00  0.00000000000E+00 -0.10249750500E+04  0.10249750500E+04  0.25500000920E-02 0.  1.
    10030    2    1    2    0    0  0.00000000000E+00  0.00000000000E+00  0.10258626645E+04  0.30758127644E+04  0.28996948039E+04 0.  0.
        2    1    3    3  502    0 -0.26646124542E+03  0.10702298962E+04  0.15111876489E+04  0.18708505382E+04  0.25500000920E-02 0. -1.
       -2    1    3    3    0  502  0.26646124542E+03 -0.10702298962E+04 -0.48532498446E+03  0.12049622262E+04  0.25500000920E-02 0.  1.
</event>
<event>
 5   0  0.2546841E-07  0.2900152E+04  0.7818609E-02  0.8272832E-01
       -2   -1    0    0    0  501  0.00000000000E+00  0.00000000000E+00  0.10036993423E+04  0.10036993423E+04  0.25500000920E-02 0. -1.
        2   -1    0    0  501    0  0.00000000000E+00  0.00000000000E+00 -0.20949699388E+04  0.20949699388E+04  0.25500000920E-02 0.  1.
    10030    2    1    2    0    0  0.00000000000E+00  0.00000000000E+00 -0.10912705965E+04  0.30986692810E+04  0.29001516854E+04 0.  0.
        1    1    3    3  502    0  0.11465999396E+03  0.48535764335E+03 -0.20004560752E+04  0.20616846182E+04  0.50400001928E-02 0.  1.
       -1    1    3    3    0  502 -0.11465999396E+03 -0.48535764335E+03  0.90918547870E+03  0.10369846628E+04  0.50400001928E-02 0. -1.
</event>
<event>
 5   0  0.9395744E-08  0.2910129E+04  0.7818609E-02  0.8269870E-01
        1   -1    0    0  501    0  0.00000000000E+00  0.00000000000E+00  0.20585808742E+04  0.20585808742E+04  0.50400001928E-02 0.  1.
       -1   -1    0    0    0  501  0.00000000000E+00  0.00000000000E+00 -0.10284815186E+04  0.10284815186E+04  0.50400001928E-02 0. -1.
    10030    2    1    2    0    0  0.00000000000E+00  0.00000000000E+00  0.10300993556E+04  0.30870623928E+04  0.29101287831E+04 0.  0.
        2    1    3    3  502    0  0.13398005838E+04 -0.53072515598E+03  0.30162702618E+03  0.14723157469E+04  0.25500000920E-02 0. -1.
       -2    1    3    3    0  502 -0.13398005838E+04  0.53072515598E+03  0.72847232946E+03  0.16147466459E+04  0.25500000920E-02 0.  1.
</event>
<event>
 5   0  0.9421924E-08  0.2914695E+04  0.7818609E-02  0.8268519E-01
       -1   -1    0    0    0  501  0.00000000000E+00  0.00000000000E+00  0.17737105415E+04  0.17737105415E+04  0.50400001928E-02 0.  1.
        1   -1    0    0  501    0  0.00000000000E+00  0.00000000000E+00 -0.11974119114E+04  0.11974119114E+04  0.50400001928E-02 0. -1.
    10030    2    1    2    0    0  0.00000000000E+00  0.00000000000E+00  0.57629863012E+03  0.29711224529E+04  0.29146952704E+04 0.  0.
        1    1    3    3  502    0  0.18936221399E+03 -0.85506889800E+03  0.14755440444E+04  0.17158761888E+04  0.50400001928E-02 0.  1.
       -1    1    3    3    0  502 -0.18936221399E+03  0.85506889800E+03 -0.89924541425E+03  0.12552462641E+04  0.50400001928E-02 0. -1.
</event>
<event>
 5   0  0.9421924E-08  0.2900612E+04  0.7818609E-02  0.8272695E-01
       -1   -1    0    0    0  501  0.00000000000E+00  0.00000000000E+00  0.23924148069E+04  0.23924148069E+04  0.50400001928E-02 0.  1.
        1   -1    0    0  501    0  0.00000000000E+00  0.00000000000E+00 -0.87919015719E+03  0.87919015721E+03  0.50400001928E-02 0. -1.
    10030    2    1    2    0    0  0.00000000000E+00  0.00000000000E+00  0.15132246497E+04  0.32716049641E+04  0.29006120390E+04 0.  0.
        1    1    3    3  502    0  0.23273683326E+03  0.50586877885E+03 -0.75381507189E+03  0.93718024819E+03  0.50400001928E-02 0. -1.
       -1    1    3    3    0  502 -0.23273683326E+03 -0.50586877885E+03  0.22670397216E+04  0.23344247159E+04  0.50400001928E-02 0.  1.
</event>
<event>
 5   0  0.2492232E-07  0.2899600E+04  0.7818609E-02  0.8272996E-01
        2   -1    0    0  501    0  0.00000000000E+00  0.00000000000E+00  0.82701055856E+03  0.82701055857E+03  0.25500000920E-02 0.  1.
       -2   -1    0    0    0  501  0.00000000000E+00  0.00000000000E+00 -0.25415884742E+04  0.25415884742E+04  0.25500000920E-02 0. -1.
    10030    2    1    2    0    0  0.00000000000E+00  0.00000000000E+00 -0.17145779156E+04  0.33685990327E+04  0.28996003198E+04 0.  0.
        4    1    3    3  502    0 -0.10377562917E+04  0.66046705221E+03 -0.17487078212E+04  0.21380213995E+04  0.12699999809E+01 0. -1.
       -4    1    3    3    0  502  0.10377562917E+04 -0.66046705221E+03  0.34129905595E+02  0.12305776332E+04  0.12699999809E+01 0.  1.
</event>
<event>
 5   0  0.9763851E-08  0.2901029E+04  0.7818609E-02  0.8272571E-01
        1   -1    0    0  501    0  0.00000000000E+00  0.00000000000E+00  0.15044487678E+04  0.15044487678E+04  0.50400001928E-02 0. -1.
       -1   -1    0    0    0  501  0.00000000000E+00  0.00000000000E+00 -0.13985139528E+04  0.13985139528E+04  0.50400001928E-02 0.  1.
    10030    2    1    2    0    0  0.00000000000E+00  0.00000000000E+00  0.10593481499E+03  0.29029627207E+04  0.29010291920E+04 0.  0.
        3    1    3    3  502    0  0.45153637603E+03  0.41420918637E+03  0.13685825240E+04  0.14994907416E+04  0.10100000352E+00 0. -1.
       -3    1    3    3    0  502 -0.45153637603E+03 -0.41420918637E+03 -0.12626477090E+04  0.14034719791E+04  0.10100000352E+00 0.  1.
</event>
<event>
 5   0  0.9421924E-08  0.2902270E+04  0.7818609E-02  0.8272203E-01
       -1   -1    0    0    0  501  0.00000000000E+00  0.00000000000E+00  0.15740829173E+04  0.15740829173E+04  0.50400001928E-02 0.  1.
        1   -1    0    0  501    0  0.00000000000E+00  0.00000000000E+00 -0.13377898688E+04  0.13377898688E+04  0.50400001928E-02 0. -1.
    10030    2    1    2    0    0  0.00000000000E+00  0.00000000000E+00  0.23629304848E+03  0.29118727861E+04  0.29022695804E+04 0.  0.
        1    1    3    3  502    0  0.96337691007E+03 -0.10760067351E+04  0.25970417635E+03  0.14674235326E+04  0.50400001928E-02 0.  1.
       -1    1    3    3    0  502 -0.96337691007E+03  0.10760067351E+04 -0.23411127871E+02  0.14444492535E+04  0.50400001928E-02 0. -1.
</event>
<event>
 5   0  0.9421924E-08  0.2899432E+04  0.7818609E-02  0.8273047E-01
        1   -1    0    0  501    0  0.00000000000E+00  0.00000000000E+00  0.14398798576E+04  0.14398798576E+04  0.50400001928E-02 0.  1.
       -1   -1    0    0    0  501  0.00000000000E+00  0.00000000000E+00 -0.14596188967E+04  0.14596188967E+04  0.50400001928E-02 0. -1.
    10030    2    1    2    0    0  0.00000000000E+00  0.00000000000E+00 -0.19739039110E+02  0.28994987544E+04  0.28994315645E+04 0.  0.
        1    1    3    3  502    0 -0.27314670010E+03 -0.13435380580E+04  0.46128067308E+03  0.14465419083E+04  0.50400001928E-02 0.  1.
       -1    1    3    3    0  502  0.27314670010E+03  0.13435380580E+04 -0.48101971219E+03  0.14529568461E+04  0.50400001928E-02 0. -1.
</event>
<event>
 5   0  0.2492232E-07  0.2898230E+04  0.7818609E-02  0.8273404E-01
        2   -1    0    0  501    0  0.00000000000E+00  0.00000000000E+00  0.20281796532E+04  0.20281796532E+04  0.25500000920E-02 0. -1.
       -2   -1    0    0    0  501  0.00000000000E+00  0.00000000000E+00 -0.10353786735E+04  0.10353786735E+04  0.25500000920E-02 0.  1.
    10030    2    1    2    0    0  0.00000000000E+00  0.00000000000E+00  0.99280097963E+03  0.30635583267E+04  0.28982297762E+04 0.  0.
        4    1    3    3  502    0 -0.71977757872E+03 -0.19104774051E+03  0.18104364104E+04  0.19576160530E+04  0.12699999809E+01 0. -1.
       -4    1    3    3    0  502  0.71977757872E+03  0.19104774051E+03 -0.81763543081E+03  0.11059422736E+04  0.12699999809E+01 0.  1.
</event>
<event>
 5   0  0.2534588E-07  0.2901975E+04  0.7818609E-02  0.8272290E-01
       -2   -1    0    0    0  501  0.00000000000E+00  0.00000000000E+00  0.91201004460E+03  0.91201004460E+03  0.25500000920E-02 0. -1.
        2   -1    0    0  501    0  0.00000000000E+00  0.00000000000E+00 -0.23084883404E+04  0.23084883404E+04  0.25500000920E-02 0.  1.
    10030    2    1    2    0    0  0.00000000000E+00  0.00000000000E+00 -0.13964782958E+04  0.32204983850E+04  0.29019748823E+04 0.  0.
        3    1    3    3  502    0  0.75947930253E+02  0.10614908151E+04 -0.17928222545E+04  0.20848842858E+04  0.10100000352E+00 0.  1.
       -3    1    3    3    0  502 -0.75947930253E+02 -0.10614908151E+04  0.39634395868E+03  0.11356140993E+04  0.10100000352E+00 0. -1.
</event>
<event>
 5   0  0.2678723E-07  0.2899915E+04  0.7818609E-02  0.8272903E-01
        2   -1    0    0  501    0  0.00000000000E+00  0.00000000000E+00  0.23461628109E+04  0.23461628109E+04  0.25500000920E-02 0.  1.
       -2   -1    0    0    0  501  0.00000000000E+00  0.00000000000E+00 -0.89609145375E+03  0.89609145375E+03  0.25500000920E-02 0. -1.
    10030    2    1    2    0    0  0.00000000000E+00  0.00000000000E+00  0.14500713571E+04  0.32422542646E+04  0.28999147877E+04 0.  0.
        5    1    3    3  502    0  0.17609854031E+03 -0.14229350436E+04  0.96638859645E+03  0.17290702252E+04  0.46999998093E+01 0. -1.
       -5    1    3    3    0  502 -0.17609854031E+03  0.14229350436E+04  0.48368276069E+03  0.15131840395E+04  0.46999998093E+01 0.  1.
</event>
<event>
 5   0  0.2534588E-07  0.2899191E+04  0.7818609E-02  0.8273118E-01
        2   -1    0    0  501    0  0.00000000000E+00  0.00000000000E+00  0.19078858354E+04  0.19078858354E+04  0.25500000920E-02 0. -1.
       -2   -1    0    0    0  501  0.00000000000E+00  0.00000000000E+00 -0.11013906914E+04  0.11013906914E+04  0.25500000920E-02 0.  1.
    10030    2    1    2    0    0  0.00000000000E+00  0.00000000000E+00  0.80649514402E+03  0.30092765268E+04  0.28991914041E+04 0.  0.
        3    1    3    3  502    0 -0.11341456190E+04  0.89506436608E+03  0.52562775952E+03  0.15374365211E+04  0.10100000352E+00 0.  1.
       -3    1    3    3    0  502  0.11341456190E+04 -0.89506436608E+03  0.28086738450E+03  0.14718400057E+04  0.10100000352E+00 0. -1.
</event>
<event>
 5   0  0.9388076E-08  0.2901200E+04  0.7818609E-02  0.8272520E-01
        1   -1    0    0  501    0  0.00000000000E+00  0.00000000000E+00  0.23716604499E+04  0.23716604499E+04  0.50400001928E-02 0.  1.
       -1   -1    0    0    0  501  0.00000000000E+00  0.00000000000E+00 -0.88724358235E+03  0.88724358236E+03  0.50400001928E-02 0. -1.
    10030    2    1    2    0    0  0.00000000000E+00  0.00000000000E+00  0.14844168675E+04  0.32589040323E+04  0.29012001060E+04 0.  0.
        5    1    3    3  502    0  0.65807836832E+03 -0.12925903292E+04  0.72085028754E+03  0.16197234717E+04  0.46999998093E+01 0. -1.
       -5    1    3    3    0  502 -0.65807836832E+03  0.12925903292E+04  0.76356658000E+03  0.16391805605E+04  0.46999998093E+01 0.  1.
</event>
<event>
 5   0  0.2678723E-07  0.2897353E+04  0.7818609E-02  0.8273665E-01
       -2   -1    0    0    0  501  0.00000000000E+00  0.00000000000E+00  0.10307084768E+04  0.10307084768E+04  0.25500000920E-02 0.  1.
        2   -1    0    0  501    0  0.00000000000E+00  0.00000000000E+00 -0.20361371417E+04  0.20361371417E+04  0.25500000920E-02 0. -1.
    10030    2    1    2    0    0  0.00000000000E+00  0.00000000000E+00 -0.10054286649E+04  0.30668456186E+04  0.28973531452E+04 0.  0.
        5    1    3    3  502    0 -0.13589356268E+04  0.82117353025E+02 -0.10268503519E+04  0.17052545360E+04  0.46999998093E+01 0. -1.
       -5    1    3    3    0  502  0.13589356268E+04 -0.82117353025E+02  0.21421687046E+02  0.13615910825E+04  0.46999998093E+01 0.  1.
</event>
<event>
 5   0  0.2608591E-07  0.2907739E+04  0.7818609E-02  0.8270579E-01
        2   -1    0    0  501    0  0.00000000000E+00  0.00000000000E+00  0.19225378102E+04  0.19225378102E+04  0.25500000920E-02 0. -1.
       -2   -1    0    0    0  501  0.00000000000E+00  0.00000000000E+00 -0.10994510034E+04  0.10994510034E+04  0.25500000920E-02 0.  1.
    10030    2    1    2    0    0  0.00000000000E+00  0.00000000000E+00  0.82308680673E+03  0.30219888136E+04  0.29077387259E+04 0.  0.
        2    1    3    3  502    0 -0.68307021221E+02  0.23448575636E+03 -0.10779783760E+04  0.11052994157E+04  0.25500000920E-02 0.  1.
       -2    1    3    3    0  502  0.68307021221E+02 -0.23448575636E+03  0.19010651828E+04  0.19166893979E+04  0.25500000920E-02 0. -1.
</event>
<event>
 5   0  0.2678723E-07  0.2902174E+04  0.7818609E-02  0.8272231E-01
       -2   -1    0    0    0  501  0.00000000000E+00  0.00000000000E+00  0.85274953486E+03  0.85274953487E+03  0.25500000920E-02 0. -1.
        2   -1    0    0  501    0  0.00000000000E+00  0.00000000000E+00 -0.24692518358E+04  0.24692518358E+04  0.25500000920E-02 0.  1.
    10030    2    1    2    0    0  0.00000000000E+00  0.00000000000E+00 -0.16165023010E+04  0.33220013707E+04  0.29021739124E+04 0.  0.
        5    1    3    3  502    0  0.12578239650E+04  0.74682761060E+02 -0.16320344944E+04  0.20618577358E+04  0.46999998093E+01 0.  1.
       -5    1    3    3    0  502 -0.12578239650E+04 -0.74682761060E+02  0.15532193408E+02  0.12601436349E+04  0.46999998093E+01 0. -1.
</event>
<event>
 5   0  0.9421924E-08  0.2900669E+04  0.7818609E-02  0.8272678E-01
       -1   -1    0    0    0  501  0.00000000000E+00  0.00000000000E+00  0.15623681056E+04  0.15623681056E+04  0.50400001928E-02 0.  1.
        1   -1    0    0  501    0  0.00000000000E+00  0.00000000000E+00 -0.13463345424E+04  0.13463345424E+04  0.50400001928E-02 0. -1.
    10030    2    1    2    0    0  0.00000000000E+00  0.00000000000E+00  0.21603356327E+03  0.29087026480E+04  0.29006689908E+04 0.  0.
        1    1    3    3  502    0  0.78994816247E+03 -0.54340359738E+03 -0.98319032889E+03  0.13733057897E+04  0.50400001928E-02 0. -1.
       -1    1    3    3    0  502 -0.78994816247E+03  0.54340359738E+03  0.11992238922E+04  0.15353968583E+04  0.50400001928E-02 0.  1.
</event>
<event>
 5   0  0.2608591E-07  0.2900077E+04  0.7818609E-02  0.8272855E-01
        2   -1    0    0  501    0  0.00000000000E+00  0.00000000000E+00  0.28577040605E+04  0.28577040605E+04  0.25500000920E-02 0. -1.
       -2   -1    0    0    0  501  0.00000000000E+00  0.00000000000E+00 -0.73576933371E+03  0.73576933372E+03  0.25500000920E-02 0.  1.
    10030    2    1    2    0    0  0.00000000000E+00  0.00000000000E+00  0.21219347268E+04  0.35934733942E+04  0.29000765594E+04 0.  0.
        2    1    3    3  502    0  0.69638877953E+03 -0.46293820705E+03 -0.40689966828E+03  0.92996583585E+03  0.25500000920E-02 0.  1.
       -2    1    3    3    0  502 -0.69638877953E+03  0.46293820705E+03  0.25288343951E+04  0.26635075584E+04  0.25500000920E-02 0. -1.
</event>
<event>
 5   0  0.9388076E-08  0.2899798E+04  0.7818609E-02  0.8272938E-01
       -1   -1    0    0    0  501  0.00000000000E+00  0.00000000000E+00  0.86252879679E+03  0.86252879681E+03  0.50400001928E-02 0.  1.
        1   -1    0    0  501    0  0.00000000000E+00  0.00000000000E+00 -0.24372604811E+04  0.24372604811E+04  0.50400001928E-02 0. -1.
    10030    2    1    2    0    0  0.00000000000E+00  0.00000000000E+00 -0.15747316843E+04  0.32997892779E+04  0.28997981656E+04 0.  0.
        5    1    3    3  502    0 -0.37151981576E+03 -0.12093676074E+04 -0.15932861976E+04  0.20344974763E+04  0.46999998093E+01 0. -1.
       -5    1    3    3    0  502  0.37151981576E+03  0.12093676074E+04  0.18554513333E+02  0.12652918016E+04  0.46999998093E+01 0.  1.
</event>
<event>
 5   0  0.9763851E-08  0.2898498E+04  0.7818609E-02  0.8273324E-01
        1   -1    0    0  501    0  0.00000000000E+00  0.00000000000E+00  0.26738144243E+04  0.26738144243E+04  0.50400001928E-02 0.  1.
       -1   -1    0    0    0  501  0.00000000000E+00  0.00000000000E+00 -0.78551563816E+03  0.78551563818E+03  0.50400001928E-02 0. -1.
    10030    2    1    2    0    0  0.00000000000E+00  0.00000000000E+00  0.18882987861E+04  0.34593300625E+04  0.28984982621E+04 0.  0.
        3    1    3    3  502    0  0.73917467099E+03  0.18524425544E+03  0.24154033983E+04  0.25327590124E+04  0.10100000352E+00 0.  1.
       -3    1    3    3    0  502 -0.73917467099E+03 -0.18524425544E+03 -0.52710461215E+03  0.92657105004E+03  0.10100000352E+00 0. -1.
</event>
<event>
 5   0  0.2492232E-07  0.2900233E+04  0.7818609E-02  0.8272808E-01
       -2   -1    0    0    0  501  0.00000000000E+00  0.00000000000E+00  0.10489720600E+04  0.10489720600E+04  0.25500000920E-02 0.  1.
        2   -1    0    0  501    0  0.00000000000E+00  0.00000000000E+00 -0.20046648510E+04  0.20046648510E+04  0.25500000920E-02 0. -1.
    10030    2    1    2    0    0  0.00000000000E+00  0.00000000000E+00 -0.95569279104E+03  0.30536369110E+04  0.29002326930E+04 0.  0.
        4    1    3    3  502    0  0.97160810219E+03 -0.37364483596E+03  0.58510867368E+03  0.11941467835E+04  0.12699999809E+01 0.  1.
       -4    1    3    3    0  502 -0.97160810219E+03  0.37364483596E+03 -0.15408014647E+04  0.18594901275E+04  0.12699999809E+01 0. -1.
</event>
<event>
 5   0  0.9388076E-08  0.2904311E+04  0.7818609E-02  0.8271596E-01
        1   -1    0    0  501    0  0.00000000000E+00  0.00000000000E+00  0.18679657115E+04  0.18679657115E+04  0.50400001928E-02 0. -1.
       -1   -1    0    0    0  501  0.00000000000E+00  0.00000000000E+00 -0.11289047974E+04  0.11289047974E+04  0.50400001928E-02 0.  1.
    10030    2    1    2    0    0  0.00000000000E+00  0.00000000000E+00  0.73906091408E+03  0.29968705088E+04  0.29043109014E+04 0.  0.
        5    1    3    3  502    0 -0.48502144914E+03  0.13148110910E+04  0.76212855222E+03  0.15952542215E+04  0.46999998093E+01 0. -1.
       -5    1    3    3    0  502  0.48502144914E+03 -0.13148110910E+04 -0.23067638140E+02  0.14016162874E+04  0.46999998093E+01 0.  1.
</event>
<event>
 5   0  0.9421924E-08  0.2895869E+04  0.7818609E-02  0.8274108E-01
       -1   -1    0    0    0  501  0.00000000000E+00  0.00000000000E+00  0.13771073976E+04  0.13771073976E+04  0.50400001928E-02 0. -1.
        1   -1    0    0  501    0  0.00000000000E+00  0.00000000000E+00 -0.15224047508E+04  0.15224047508E+04  0.50400001928E-02 0.  1.
    10030    2    1    2    0    0  0.00000000000E+00  0.00000000000E+00 -0.14529735321E+03  0.28995121484E+04  0.28958693648E+04 0.  0.
        1    1    3    3  502    0  0.10428980960E+04 -0.48190723280E+03 -0.95503123053E+03  0.14939731159E+04  0.50400001928E-02 0. -1.
       -1    1    3    3    0  502 -0.10428980960E+04  0.48190723280E+03  0.80973387733E+03  0.14055390325E+04  0.50400001928E-02 0.  1.
</event>
<event>
 5   0  0.9388076E-08  0.2900727E+04  0.7818609E-02  0.8272661E-01
       -1   -1    0    0    0  501  0.00000000000E+00  0.00000000000E+00  0.27077413217E+04  0.27077413217E+04  0.50400001928E-02 0. -1.
        1   -1    0    0  501    0  0.00000000000E+00  0.00000000000E+00 -0.77686670830E+03  0.77686670831E+03  0.50400001928E-02 0.  1.
    10030    2    1    2    0    0  0.00000000000E+00  0.00000000000E+00  0.19308746134E+04  0.34846080300E+04  0.29007268658E+04 0.  0.
        5    1    3    3  502    0  0.37329489584E+03  0.12667916973E+02 -0.71809059612E+03  0.80943545117E+03  0.46999998093E+01 0.  1.
       -5    1    3    3    0  502 -0.37329489584E+03 -0.12667916973E+02  0.26489652095E+04  0.26751725789E+04  0.46999998093E+01 0. -1.
</event>
<event>
 5   0  0.2678723E-07  0.2900258E+04  0.7818609E-02  0.8272801E-01
        2   -1    0    0  501    0  0.00000000000E+00  0.00000000000E+00  0.13966591074E+04  0.13966591074E+04  0.25500000920E-02 0. -1.
       -2   -1    0    0    0  501  0.00000000000E+00  0.00000000000E+00 -0.15056456960E+04  0.15056456960E+04  0.25500000920E-02 0.  1.
    10030    2    1    2    0    0  0.00000000000E+00  0.00000000000E+00 -0.10898658854E+03  0.29023048034E+04  0.29002577636E+04 0.  0.
        5    1    3    3  502    0  0.35091691998E+02 -0.14422975295E+04 -0.20087741244E+03  0.14566493797E+04  0.46999998093E+01 0. -1.
       -5    1    3    3    0  502 -0.35091691998E+02  0.14422975295E+04  0.91890823898E+02  0.14456554237E+04  0.46999998093E+01 0.  1.
</event>
<event>
 5   0  0.9421924E-08  0.2899683E+04  0.7818609E-02  0.8272972E-01
        1   -1    0    0  501    0  0.00000000000E+00  0.00000000000E+00  0.20473580801E+04  0.20473580801E+04  0.50400001928E-02 0.  1.
       -1   -1    0    0    0  501  0.00000000000E+00  0.00000000000E+00 -0.10267088459E+04  0.10267088459E+04  0.50400001928E-02 0. -1.
    10030    2    1    2    0    0  0.00000000000E+00  0.00000000000E+00  0.10206492342E+04  0.30740669260E+04  0.28996831907E+04 0.  0.
        1    1    3    3  502    0 -0.56592571555E+03 -0.10632467446E+04  0.13658738441E+04  0.18210922309E+04  0.50400001928E-02 0.  1.
       -1    1    3    3    0  502  0.56592571555E+03  0.10632467446E+04 -0.34522460989E+03  0.12529746951E+04  0.50400001928E-02 0. -1.
</event>
<event>
 5   0  0.8407500E-08  0.2899922E+04  0.7818609E-02  0.8272901E-01
        3   -1    0    0  501    0  0.00000000000E+00  0.00000000000E+00  0.20206384245E+04  0.20206384270E+04  0.10100000352E+00 0. -1.
       -3   -1    0    0    0  501  0.00000000000E+00  0.00000000000E+00 -0.10404564053E+04  0.10404564102E+04  0.10100000352E+00 0.  1.
    10030    2    1    2    0    0  0.00000000000E+00  0.00000000000E+00  0.98018201924E+03  0.30610948372E+04  0.28999215182E+04 0.  0.
        1    1    3    3  502    0 -0.36060810909E+02 -0.70085062453E+03  0.18294259885E+04  0.19594109899E+04  0.50400001928E-02 0. -1.
       -1    1    3    3    0  502  0.36060810909E+02  0.70085062453E+03 -0.84924396928E+03  0.11016838473E+04  0.50400001928E-02 0.  1.
</event>
<event>
 5   0  0.2678723E-07  0.2900994E+04  0.7818609E-02  0.8272582E-01
       -2   -1    0    0    0  501  0.00000000000E+00  0.00000000000E+00  0.94826633055E+03  0.94826633055E+03  0.25500000920E-02 0. -1.
        2   -1    0    0  501    0  0.00000000000E+00  0.00000000000E+00 -0.22187246481E+04  0.22187246481E+04  0.25500000920E-02 0.  1.
    10030    2    1    2    0    0  0.00000000000E+00  0.00000000000E+00 -0.12704583175E+04  0.31669909787E+04  0.29009942300E+04 0.  0.
        5    1    3    3  502    0 -0.19585074438E+03  0.55290571301E+03  0.81300477402E+03  0.10025273533E+04  0.46999998093E+01 0. -1.
       -5    1    3    3    0  502  0.19585074438E+03 -0.55290571301E+03 -0.20834630916E+04  0.21644636253E+04  0.46999998093E+01 0.  1.
</event>
<event>
 5   0  0.9388076E-08  0.2899098E+04  0.7818609E-02  0.8273146E-01
        1   -1    0    0  501    0  0.00000000000E+00  0.00000000000E+00  0.23554184901E+04  0.23554184901E+04  0.50400001928E-02 0. -1.
       -1   -1    0    0    0  501  0.00000000000E+00  0.00000000000E+00 -0.89206720438E+03  0.89206720439E+03  0.50400001928E-02 0.  1.
    10030    2    1    2    0    0  0.00000000000E+00  0.00000000000E+00  0.14633512857E+04  0.32474856945E+04  0.28990975062E+04 0.  0.
        5    1    3    3  502    0 -0.13988129223E+04 -0.28548810661E+03  0.10128106161E+04  0.17504252296E+04  0.46999998093E+01 0.  1.
       -5    1    3    3    0  502  0.13988129223E+04  0.28548810661E+03  0.45054066969E+03  0.14970604649E+04  0.46999998093E+01 0. -1.
</event>
<event>
 5   0  0.2492232E-07  0.2914660E+04  0.7818609E-02  0.8268529E-01
        2   -1    0    0  501    0  0.00000000000E+00  0.00000000000E+00  0.94416760071E+03  0.94416760071E+03  0.25500000920E-02 0.  1.
       -2   -1    0    0    0  501  0.00000000000E+00  0.00000000000E+00 -0.22493994274E+04  0.22493994274E+04  0.25500000920E-02 0. -1.
    10030    2    1    2    0    0  0.00000000000E+00  0.00000000000E+00 -0.13052318267E+04  0.31935670281E+04  0.29146595413E+04 0.  0.
        4    1    3    3  502    0 -0.29689636737E+03  0.10025072188E+04 -0.17649666767E+04  0.20514085794E+04  0.12699999809E+01 0. -1.
       -4    1    3    3    0  502  0.29689636737E+03 -0.10025072188E+04  0.45973485001E+03  0.11421584487E+04  0.12699999809E+01 0.  1.
</event>
<event>
 5   0  0.9443352E-08  0.2900686E+04  0.7818609E-02  0.8272673E-01
       -1   -1    0    0    0  501  0.00000000000E+00  0.00000000000E+00  0.20840813681E+04  0.20840813681E+04  0.50400001928E-02 0.  1.
        1   -1    0    0  501    0  0.00000000000E+00  0.00000000000E+00 -0.10093154529E+04  0.10093154529E+04  0.50400001928E-02 0. -1.
    10030    2    1    2    0    0  0.00000000000E+00  0.00000000000E+00  0.10747659152E+04  0.30933968210E+04  0.29006864911E+04 0.  0.
        4    1    3    3  502    0 -0.16157169816E+03 -0.89451060261E+02  0.20714901354E+04  0.20797066860E+04  0.12699999809E+01 0.  1.
       -4    1    3    3    0  502  0.16157169816E+03  0.89451060261E+02 -0.99672422020E+03  0.10136901350E+04  0.12699999809E+01 0. -1.
</event>
<event>
 5   0  0.9395744E-08  0.2899209E+04  0.7818609E-02  0.8273113E-01
        1   -1    0    0  501    0  0.00000000000E+00  0.00000000000E+00  0.82067179329E+03  0.82067179331E+03  0.50400001928E-02 0.  1.
       -1   -1    0    0    0  501  0.00000000000E+00  0.00000000000E+00 -0.25605276537E+04  0.25605276537E+04  0.50400001928E-02 0. -1.
    10030    2    1    2    0    0  0.00000000000E+00  0.00000000000E+00 -0.17398558604E+04  0.33811994470E+04  0.28992087344E+04 0.  0.
        2    1    3    3  502    0 -0.86706390169E+03  0.98956290932E+03 -0.15796345704E+04  0.20557918029E+04  0.25500000920E-02 0. -1.
       -2    1    3    3    0  502  0.86706390169E+03 -0.98956290932E+03 -0.16022129001E+03  0.13254076440E+04  0.25500000920E-02 0.  1.
</event>
<event>
 5   0  0.9763851E-08  0.2902385E+04  0.7818609E-02  0.8272168E-01
       -1   -1    0    0    0  501  0.00000000000E+00  0.00000000000E+00  0.17814106134E+04  0.17814106134E+04  0.50400001928E-02 0.  1.
        1   -1    0    0  501    0  0.00000000000E+00  0.00000000000E+00 -0.11821862784E+04  0.11821862784E+04  0.50400001928E-02 0. -1.
    10030    2    1    2    0    0  0.00000000000E+00  0.00000000000E+00  0.59922433500E+03  0.29635968919E+04  0.29023846633E+04 0.  0.
        3    1    3    3  502    0  0.97292375505E+02 -0.61127984080E+03  0.16398609262E+04  0.17527899810E+04  0.10100000352E+00 0.  1.
       -3    1    3    3    0  502 -0.97292375505E+02  0.61127984080E+03 -0.10406365912E+04  0.12108069108E+04  0.10100000352E+00 0. -1.
</event>
<event>
 5   0  0.2534588E-07  0.2900303E+04  0.7818609E-02  0.8272787E-01
       -2   -1    0    0    0  501  0.00000000000E+00  0.00000000000E+00  0.21654257740E+04  0.21654257740E+04  0.25500000920E-02 0.  1.
        2   -1    0    0  501    0  0.00000000000E+00  0.00000000000E+00 -0.97114335026E+03  0.97114335027E+03  0.25500000920E-02 0. -1.
    10030    2    1    2    0    0  0.00000000000E+00  0.00000000000E+00  0.11942824237E+04  0.31365691243E+04  0.29003026331E+04 0.  0.
        3    1    3    3  502    0  0.12086114241E+04  0.32699320963E+02 -0.26879105308E+03  0.12385715403E+04  0.10100000352E+00 0. -1.
       -3    1    3    3    0  502 -0.12086114241E+04 -0.32699320963E+02  0.14630734768E+04  0.18979975840E+04  0.10100000352E+00 0.  1.
</event>
<event>
 5   0  0.9395744E-08  0.2900658E+04  0.7818609E-02  0.8272682E-01
        1   -1    0    0  501    0  0.00000000000E+00  0.00000000000E+00  0.15088845518E+04  0.15088845518E+04  0.50400001928E-02 0. -1.
       -1   -1    0    0    0  501  0.00000000000E+00  0.00000000000E+00 -0.13940455310E+04  0.13940455310E+04  0.50400001928E-02 0.  1.
    10030    2    1    2    0    0  0.00000000000E+00  0.00000000000E+00  0.11483902085E+03  0.29029300828E+04  0.29006576952E+04 0.  0.
        2    1    3    3  502    0 -0.22476974717E+03  0.30839800769E+03  0.14577379496E+04  0.15068612080E+04  0.25500000920E-02 0. -1.
       -2    1    3    3    0  502  0.22476974717E+03 -0.30839800769E+03 -0.13428989287E+04  0.13960688748E+04  0.25500000920E-02 0.  1.
</event>
<event>
 5   0  0.9395744E-08  0.2887952E+04  0.7818609E-02  0.8276471E-01
        1   -1    0    0  501    0  0.00000000000E+00  0.00000000000E+00  0.15103342393E+04  0.15103342393E+04  0.50400001928E-02 0.  1.
       -1   -1    0    0    0  501  0.00000000000E+00  0.00000000000E+00 -0.13805331274E+04  0.13805331274E+04  0.50400001928E-02 0. -1.
    10030    2    1    2    0    0  0.00000000000E+00  0.00000000000E+00  0.12980111190E+03  0.28908673667E+04  0.28879518353E+04 0.  0.
        2    1    3    3  502    0  0.14036650123E+04  0.28803682556E+02  0.40282295435E+03  0.14606065354E+04  0.25500000920E-02 0. -1.
       -2    1    3    3    0  502 -0.14036650123E+04 -0.28803682556E+02 -0.27302184245E+03  0.14302608312E+04  0.25500000920E-02 0.  1.
</event>
<event>
 5   0  0.2678723E-07  0.2898474E+04  0.7818609E-02  0.8273332E-01
        2   -1    0    0  501    0  0.00000000000E+00  0.00000000000E+00  0.98419487522E+03  0.98419487522E+03  0.25500000920E-02 0.  1.
       -2   -1    0    0    0  501  0.00000000000E+00  0.00000000000E+00 -0.21340166269E+04  0.21340166269E+04  0.25500000920E-02 0. -1.
    10030    2    1    2    0    0  0.00000000000E+00  0.00000000000E+00 -0.11498217517E+04  0.31182115021E+04  0.28984742385E+04 0.  0.
        5    1    3    3  502    0  0.76266111133E+03 -0.43204619737E+03  0.66668461415E+03  0.11012748758E+04  0.46999998093E+01 0.  1.
       -5    1    3    3    0  502 -0.76266111133E+03  0.43204619737E+03 -0.18165063659E+04  0.20169366263E+04  0.46999998093E+01 0. -1.
</event>
<event>
 5   0  0.2492232E-07  0.2899804E+04  0.7818609E-02  0.8272936E-01
        2   -1    0    0  501    0  0.00000000000E+00  0.00000000000E+00  0.27878166866E+04  0.27878166866E+04  0.25500000920E-02 0. -1.
       -2   -1    0    0    0  501  0.00000000000E+00  0.00000000000E+00 -0.75407260375E+03  0.75407260376E+03  0.25500000920E-02 0.  1.
    10030    2    1    2    0    0  0.00000000000E+00  0.00000000000E+00  0.20337440828E+04  0.35418892904E+04  0.28998042607E+04 0.  0.
        4    1    3    3  502    0 -0.12484679904E+04 -0.71009616877E+03  0.12590273368E+04  0.19099896177E+04  0.12699999809E+01 0.  1.
       -4    1    3    3    0  502  0.12484679904E+04  0.71009616877E+03  0.77471674600E+03  0.16318996726E+04  0.12699999809E+01 0. -1.
</event>
<event>
 5   0  0.9395744E-08  0.2899406E+04  0.7818609E-02  0.8273054E-01
       -1   -1    0    0    0  501  0.00000000000E+00  0.00000000000E+00  0.13967908006E+04  0.13967908006E+04  0.50400001928E-02 0. -1.
        1   -1    0    0  501    0  0.00000000000E+00  0.00000000000E+00 -0.15046200827E+04  0.15046200827E+04  0.50400001928E-02 0.  1.
    10030    2    1    2    0    0  0.00000000000E+00  0.00000000000E+00 -0.10782928211E+03  0.29014108834E+04  0.28994064841E+04 0.  0.
        2    1    3    3  502    0  0.54326591995E+03 -0.92963169002E+03  0.91747088107E+03  0.14146044523E+04  0.25500000920E-02 0. -1.
       -2    1    3    3    0  502 -0.54326591995E+03  0.92963169002E+03 -0.10253001632E+04  0.14868064311E+04  0.25500000920E-02 0.  1.
</event>
<event>
 5   0  0.9763851E-08  0.2899096E+04  0.7818609E-02  0.8273147E-01
       -1   -1    0    0    0  501  0.00000000000E+00  0.00000000000E+00  0.11084345523E+04  0.11084345523E+04  0.50400001928E-02 0. -1.
        1   -1    0    0  501    0  0.00000000000E+00  0.00000000000E+00 -0.18956367997E+04  0.18956367997E+04  0.50400001928E-02 0.  1.
    10030    2    1    2    0    0  0.00000000000E+00  0.00000000000E+00 -0.78720224740E+03  0.30040713520E+04  0.28990959469E+04 0.  0.
        3    1    3    3  502    0 -0.93413394491E+02  0.14434177118E+04 -0.29525087946E+03  0.14762634741E+04  0.10100000352E+00 0. -1.
       -3    1    3    3    0  502  0.93413394491E+02 -0.14434177118E+04 -0.49195136793E+03  0.15278078779E+04  0.10100000352E+00 0.  1.
</event>
<event>
 5   0  0.9763851E-08  0.2899400E+04  0.7818609E-02  0.8273056E-01
        1   -1    0    0  501    0  0.00000000000E+00  0.00000000000E+00  0.28292631125E+04  0.28292631126E+04  0.50400001928E-02 0.  1.
       -1   -1    0    0    0  501  0.00000000000E+00  0.00000000000E+00 -0.74281902773E+03  0.74281902774E+03  0.50400001928E-02 0. -1.
    10030    2    1    2    0    0  0.00000000000E+00  0.00000000000E+00  0.20864440848E+04  0.35720821403E+04  0.28994002652E+04 0.  0.
        3    1    3    3  502    0 -0.12985300139E+04  0.63596660880E+03  0.91402718237E+03  0.17105786813E+04  0.10100000352E+00 0.  1.
       -3    1    3    3    0  502  0.12985300139E+04 -0.63596660880E+03  0.11724169025E+04  0.18615034590E+04  0.10100000352E+00 0. -1.
</event>
<event>
 5   0  0.2608591E-07  0.2901985E+04  0.7818609E-02  0.8272287E-01
       -2   -1    0    0    0  501  0.00000000000E+00  0.00000000000E+00  0.12346235967E+04  0.12346235967E+04  0.25500000920E-02 0. -1.
        2   -1    0    0  501    0  0.00000000000E+00  0.00000000000E+00 -0.17052807164E+04  0.17052807164E+04  0.25500000920E-02 0.  1.
    10030    2    1    2    0    0  0.00000000000E+00  0.00000000000E+00 -0.47065711967E+03  0.29399043131E+04  0.29019853973E+04 0.  0.
        2    1    3    3  502    0 -0.71363756743E+03 -0.12544687449E+04 -0.38698229293E+03  0.14942308070E+04  0.25500000920E-02 0. -1.
       -2    1    3    3    0  502  0.71363756743E+03  0.12544687449E+04 -0.83674826740E+02  0.14456735061E+04  0.25500000920E-02 0.  1.
</event>
<event>
 5   0  0.9421924E-08  0.2900248E+04  0.7818609E-02  0.8272804E-01
       -1   -1    0    0    0  501  0.00000000000E+00  0.00000000000E+00  0.13310912910E+04  0.13310912910E+04  0.50400001928E-02 0. -1.
        1   -1    0    0  501    0  0.00000000000E+00  0.00000000000E+00 -0.15798010662E+04  0.15798010662E+04  0.50400001928E-02 0.  1.
    10030    2    1    2    0    0  0.00000000000E+00  0.00000000000E+00 -0.24870977518E+03  0.29108923572E+04  0.29002478796E+04 0.  0.
        1    1    3    3  502    0  0.41925275133E+02  0.19146332079E+03  0.13177356579E+04  0.13322324107E+04  0.50400001928E-02 0. -1.
       -1    1    3    3    0  502 -0.41925275133E+02 -0.19146332079E+03 -0.15664454331E+04  0.15786599465E+04  0.50400001928E-02 0.  1.
</event>
<event>
 5   0  0.2678723E-07  0.2899069E+04  0.7818609E-02  0.8273155E-01
       -2   -1    0    0    0  501  0.00000000000E+00  0.00000000000E+00  0.78072515198E+03  0.78072515199E+03  0.25500000920E-02 0. -1.
        2   -1    0    0  501    0  0.00000000000E+00  0.00000000000E+00 -0.26912799249E+04  0.26912799249E+04  0.25500000920E-02 0.  1.
    10030    2    1    2    0    0  0.00000000000E+00  0.00000000000E+00 -0.19105547729E+04  0.34720050769E+04  0.28990687666E+04 0.  0.
        5    1    3    3  502    0  0.11079155043E+04  0.28079796566E+03  0.11242875490E+03  0.11484714089E+04  0.46999998093E+01 0. -1.
       -5    1    3    3    0  502 -0.11079155043E+04 -0.28079796566E+03 -0.20229835278E+04  0.23235336679E+04  0.46999998093E+01 0.  1.
</event>
<event>
 5   0  0.9763851E-08  0.2901329E+04  0.7818609E-02  0.8272482E-01
        1   -1    0    0  501    0  0.00000000000E+00  0.00000000000E+00  0.15627414574E+04  0.15627414574E+04  0.50400001928E-02 0. -1.
       -1   -1    0    0    0  501  0.00000000000E+00  0.00000000000E+00 -0.13466258082E+04  0.13466258082E+04  0.50400001928E-02 0.  1.
    10030    2    1    2    0    0  0.00000000000E+00  0.00000000000E+00  0.21611564920E+03  0.29093672656E+04  0.29013293354E+04 0.  0.
        3    1    3    3  502    0  0.10006581330E+04 -0.11809120185E+03 -0.93846451707E+03  0.13769451300E+04  0.10100000352E+00 0.  1.
       -3    1    3    3    0  502 -0.10006581330E+04  0.11809120185E+03  0.11545801663E+04  0.15324221356E+04  0.10100000352E+00 0. -1.
</event>
<event>
 5   0  0.2608591E-07  0.2900882E+04  0.7818609E-02  0.8272615E-01
       -2   -1    0    0    0  501  0.00000000000E+00  0.00000000000E+00  0.12317368506E+04  0.12317368506E+04  0.25500000920E-02 0.  1.
        2   -1    0    0  501    0  0.00000000000E+00  0.00000000000E+00 -0.17079772314E+04  0.17079772315E+04  0.25500000920E-02 0. -1.
    10030    2    1    2    0    0  0.00000000000E+00  0.00000000000E+00 -0.47624038084E+03  0.29397140821E+04  0.29008815874E+04 0.  0.
        2    1    3    3  502    0 -0.50739829124E+03  0.11280690663E+04 -0.10057466449E+04  0.15942142761E+04  0.25500000920E-02 0. -1.
       -2    1    3    3    0  502  0.50739829124E+03 -0.11280690663E+04  0.52950626408E+03  0.13454998060E+04  0.25500000920E-02 0.  1.
</event>
<event>
 5   0  0.2678723E-07  0.2900675E+04  0.7818609E-02  0.8272677E-01
        2   -1    0    0  501    0  0.00000000000E+00  0.00000000000E+00  0.13183286656E+04  0.13183286656E+04  0.25500000920E-02 0.  1.
       -2   -1    0    0    0  501  0.00000000000E+00  0.00000000000E+00 -0.15955644974E+04  0.15955644974E+04  0.25500000920E-02 0. -1.
    10030    2    1    2    0    0  0.00000000000E+00  0.00000000000E+00 -0.27723583181E+03  0.29138931629E+04  0.29006746902E+04 0.  0.
        5    1    3    3  502    0 -0.25050818100E+02  0.84492961534E+03  0.10452783233E+04  0.13443074282E+04  0.46999998093E+01 0.  1.
       -5    1    3    3    0  502  0.25050818100E+02 -0.84492961534E+03 -0.13225141551E+04  0.15695857347E+04  0.46999998093E+01 0. -1.
</event>
<event>
 5   0  0.9421924E-08  0.2899412E+04  0.7818609E-02  0.8273052E-01
       -1   -1    0    0    0  501  0.00000000000E+00  0.00000000000E+00  0.11918372236E+04  0.11918372236E+04  0.50400001928E-02 0.  1.
        1   -1    0    0  501    0  0.00000000000E+00  0.00000000000E+00 -0.17633679174E+04  0.17633679174E+04  0.50400001928E-02 0. -1.
    10030    2    1    2    0    0  0.00000000000E+00  0.00000000000E+00 -0.57153069380E+03  0.29552051409E+04  0.28994120250E+04 0.  0.
        1    1    3    3  502    0  0.34505679637E+03 -0.66351160991E+03  0.98004065244E+03  0.12327982518E+04  0.50400001928E-02 0.  1.
       -1    1    3    3    0  502 -0.34505679637E+03  0.66351160991E+03 -0.15515713462E+04  0.17224068891E+04  0.50400001928E-02 0. -1.
</event>
<event>
 5   0  0.9443352E-08  0.2893206E+04  0.7818609E-02  0.8274902E-01
        1   -1    0    0  501    0  0.00000000000E+00  0.00000000000E+00  0.15796218501E+04  0.15796218501E+04  0.50400001928E-02 0.  1.
       -1   -1    0    0    0  501  0.00000000000E+00  0.00000000000E+00 -0.13247856704E+04  0.13247856704E+04  0.50400001928E-02 0. -1.
    10030    2    1    2    0    0  0.00000000000E+00  0.00000000000E+00  0.25483617963E+03  0.29044075205E+04  0.28932061051E+04 0.  0.
        4    1    3    3  502    0 -0.66557284873E+03 -0.68584897458E+03  0.12175703310E+04  0.15478550180E+04  0.12699999809E+01 0.  1.
       -4    1    3    3    0  502  0.66557284873E+03  0.68584897458E+03 -0.96273415138E+03  0.13565525025E+04  0.12699999809E+01 0. -1.
</event>
<event>
 5   0  0.2534588E-07  0.2900831E+04  0.7818609E-02  0.8272630E-01
       -2   -1    0    0    0  501  0.00000000000E+00  0.00000000000E+00  0.21879913416E+04  0.21879913416E+04  0.25500000920E-02 0. -1.
        2   -1    0    0  501    0  0.00000000000E+00  0.00000000000E+00 -0.96147764347E+03  0.96147764347E+03  0.25500000920E-02 0.  1.
    10030    2    1    2    0    0  0.00000000000E+00  0.00000000000E+00  0.12265136981E+04  0.31494689850E+04  0.29008307493E+04 0.  0.
        3    1    3    3  502    0 -0.47853908151E+02  0.71807519026E+03  0.19804717827E+04  0.21071759461E+04  0.10100000352E+00 0. -1.
       -3    1    3    3    0  502  0.47853908151E+02 -0.71807519026E+03 -0.75395808465E+03  0.10422930389E+04  0.10100000352E+00 0.  1.
</event>
<event>
 5   0  0.9388076E-08  0.2900848E+04  0.7818609E-02  0.8272625E-01
        1   -1    0    0  501    0  0.00000000000E+00  0.00000000000E+00  0.11886360917E+04  0.11886360917E+04  0.50400001928E-02 0. -1.
       -1   -1    0    0    0  501  0.00000000000E+00  0.00000000000E+00 -0.17698682041E+04  0.17698682041E+04  0.50400001928E-02 0.  1.
    10030    2    1    2    0    0  0.00000000000E+00  0.00000000000E+00 -0.58123211237E+03  0.29585042958E+04  0.29008476175E+04 0.  0.
        5    1    3    3  502    0  0.32092886892E+03 -0.92441655412E+03  0.80125415363E+03  0.12647417180E+04  0.46999998093E+01 0. -1.
       -5    1    3    3    0  502 -0.32092886892E+03  0.92441655412E+03 -0.13824862660E+04  0.16937625779E+04  0.46999998093E+01 0.  1.
</event>
<event>
 5   0  0.2546841E-07  0.2902001E+04  0.7818609E-02  0.8272282E-01
        2   -1    0    0  501    0  0.00000000000E+00  0.00000000000E+00  0.17506548438E+04  0.17506548438E+04  0.25500000920E-02 0.  1.
       -2   -1    0    0    0  501  0.00000000000E+00  0.00000000000E+00 -0.12026367396E+04  0.12026367396E+04  0.25500000920E-02 0. -1.
    10030    2    1    2    0    0  0.00000000000E+00  0.00000000000E+00  0.54801810412E+03  0.29532915834E+04  0.29020005744E+04 0.  0.
        1    1    3    3  502    0  0.32542283505E+03  0.10201031403E+04  0.12705463188E+04  0.16615650413E+04  0.50400001928E-02 0.  1.
       -1    1    3    3    0  502 -0.32542283505E+03 -0.10201031403E+04 -0.72252821467E+03  0.12917265420E+04  0.50400001928E-02 0. -1.
</event>
<event>
 5   0  0.9421924E-08  0.2900539E+04  0.7818609E-02  0.8272717E-01
       -1   -1    0    0    0  501  0.00000000000E+00  0.00000000000E+00  0.27395758292E+04  0.27395758292E+04  0.50400001928E-02 0. -1.
        1   -1    0    0  501    0  0.00000000000E+00  0.00000000000E+00 -0.76773982182E+03  0.76773982184E+03  0.50400001928E-02 0.  1.
    10030    2    1    2    0    0  0.00000000000E+00  0.00000000000E+00  0.19718360073E+04  0.35073156510E+04  0.29005388872E+04 0.  0.
        1    1    3    3  502    0  0.76121523271E+03 -0.87167962058E+03 -0.71008923688E+02  0.11594465312E+04  0.50400001928E-02 0.  1.
       -1    1    3    3    0  502 -0.76121523271E+03  0.87167962058E+03  0.20428449310E+04  0.23478691198E+04  0.50400001928E-02 0. -1.
</event>
<event>
 5   0  0.2608591E-07  0.2899128E+04  0.7818609E-02  0.8273137E-01
        2   -1    0    0  501    0  0.00000000000E+00  0.00000000000E+00  0.14142436944E+04  0.14142436944E+04  0.25500000920E-02 0.  1.
       -2   -1    0    0    0  501  0.00000000000E+00  0.00000000000E+00 -0.14857661581E+04  0.14857661581E+04  0.25500000920E-02 0. -1.
    10030    2    1    2    0    0  0.00000000000E+00  0.00000000000E+00 -0.71522463768E+02  0.29000098525E+04  0.28991277450E+04 0.  0.
        2    1    3    3  502    0  0.68092377504E+03  0.50789142838E+03 -0.12106928064E+04  0.14789820695E+04  0.25500000920E-02 0. -1.
       -2    1    3    3    0  502 -0.68092377504E+03 -0.50789142838E+03  0.11391703427E+04  0.14210277830E+04  0.25500000920E-02 0.  1.
</event>
<event>
 5   0  0.9763851E-08  0.2899719E+04  0.7818609E-02  0.8272961E-01
       -1   -1    0    0    0  501  0.00000000000E+00  0.00000000000E+00  0.11132639874E+04  0.11132639874E+04  0.50400001928E-02 0. -1.
        1   -1    0    0  501    0  0.00000000000E+00  0.00000000000E+00 -0.18882244604E+04  0.18882244604E+04  0.50400001928E-02 0.  1.
    10030    2    1    2    0    0  0.00000000000E+00  0.00000000000E+00 -0.77496047301E+03  0.30014884478E+04  0.28997188084E+04 0.  0.
        3    1    3    3  502    0 -0.16450832294E+03  0.77654393710E+03  0.86836463058E+03  0.11764950558E+04  0.10100000352E+00 0. -1.
       -3    1    3    3    0  502  0.16450832294E+03 -0.77654393710E+03 -0.16433251036E+04  0.18249933920E+04  0.10100000352E+00 0.  1.
</event>
<event>
 5   0  0.2492232E-07  0.2900540E+04  0.7818609E-02  0.8272717E-01
       -2   -1    0    0    0  501  0.00000000000E+00  0.00000000000E+00  0.98544892417E+03  0.98544892417E+03  0.25500000920E-02 0. -1.
        2   -1    0    0  501    0  0.00000000000E+00  0.00000000000E+00 -0.21343404794E+04  0.21343404794E+04  0.25500000920E-02 0.  1.
    10030    2    1    2    0    0  0.00000000000E+00  0.00000000000E+00 -0.11488915553E+04  0.31197894036E+04  0.29005403147E+04 0.  0.
        4    1    3    3  502    0 -0.75162111850E+03  0.12104927058E+04 -0.86516343087E+03  0.16669541900E+04  0.12699999809E+01 0.  1.
       -4    1    3    3    0  502  0.75162111850E+03 -0.12104927058E+04 -0.28372812438E+03  0.14528352136E+04  0.12699999809E+01 0. -1.
</event>
<event>
 5   0  0.2546841E-07  0.2908204E+04  0.7818609E-02  0.8270441E-01
       -2   -1    0    0    0  501  0.00000000000E+00  0.00000000000E+00  0.20687882367E+04  0.20687882367E+04  0.25500000920E-02 0.  1.
        2   -1    0    0  501    0  0.00000000000E+00  0.00000000000E+00 -0.10220536661E+04  0.10220536661E+04  0.25500000920E-02 0. -1.
    10030    2    1    2    0    0  0.00000000000E+00  0.00000000000E+00  0.10467345706E+04  0.30908419028E+04  0.29082039831E+04 0.  0.
        1    1    3    3  502    0 -0.13095544960E+04 -0.49295236216E+03  0.10295247760E+03  0.14030446258E+04  0.50400001928E-02 0.  1.
       -1    1    3    3    0  502  0.13095544960E+04  0.49295236216E+03  0.94378209295E+03  0.16877972770E+04  0.50400001928E-02 0. -1.
</event>
<event>
 5   0  0.9763851E-08  0.2900021E+04  0.7818609E-02  0.8272871E-01
        1   -1    0    0  501    0  0.00000000000E+00  0.00000000000E+00  0.10241165635E+04  0.10241165635E+04  0.50400001928E-02 0.  1.
       -1   -1    0    0    0  501  0.00000000000E+00  0.00000000000E+00 -0.20530189386E+04  0.20530189386E+04  0.50400001928E-02 0. -1.
    10030    2    1    2    0    0  0.00000000000E+00  0.00000000000E+00 -0.10289023751E+04  0.30771355021E+04  0.29000211725E+04 0.  0.
        3    1    3    3  502    0  0.47925845965E+02 -0.89072925128E+03  0.69853502617E+03  0.11329813232E+04  0.10100000352E+00 0.  1.
       -3    1    3    3    0  502 -0.47925845965E+02  0.89072925128E+03 -0.17274374013E+04  0.19441541789E+04  0.10100000352E+00 0. -1.
</event>
<event>
 5   0  0.9388076E-08  0.2900805E+04  0.7818609E-02  0.8272638E-01
        1   -1    0    0  501    0  0.00000000000E+00  0.00000000000E+00  0.13574547649E+04  0.13574547649E+04  0.50400001928E-02 0. -1.
       -1   -1    0    0    0  501  0.00000000000E+00  0.00000000000E+00 -0.15497140731E+04  0.15497140731E+04  0.50400001928E-02 0.  1.
    10030    2    1    2    0    0  0.00000000000E+00  0.00000000000E+00 -0.19225930816E+03  0.29071688380E+04  0.29008045455E+04 0.  0.
        5    1    3    3  502    0  0.12752700068E+04  0.59499212812E+03 -0.44806307914E+03  0.14768587731E+04  0.46999998093E+01 0.  1.
       -5    1    3    3    0  502 -0.12752700068E+04 -0.59499212812E+03  0.25580377097E+03  0.14303100650E+04  0.46999998093E+01 0. -1.
</event>
<event>
 5   0  0.9763851E-08  0.2897748E+04  0.7818609E-02  0.8273548E-01
       -1   -1    0    0    0  501  0.00000000000E+00  0.00000000000E+00  0.13518820792E+04  0.13518820792E+04  0.50400001928E-02 0. -1.
        1   -1    0    0  501    0  0.00000000000E+00  0.00000000000E+00 -0.15528248033E+04  0.15528248033E+04  0.50400001928E-02 0.  1.
    10030    2    1    2    0    0  0.00000000000E+00  0.00000000000E+00 -0.20094272411E+03  0.29047068825E+04  0.28977481076E+04 0.  0.
        3    1    3    3  502    0  0.93444097462E+03 -0.11066782711E+04 -0.64062204676E+02  0.14498347172E+04  0.10100000352E+00 0. -1.
       -3    1    3    3    0  502 -0.93444097462E+03  0.11066782711E+04 -0.13688051944E+03  0.14548721654E+04  0.10100000352E+00 0.  1.
</event>
<event>
 5   0  0.8407500E-08  0.2906090E+04  0.7818609E-02  0.8271068E-01
       -3   -1    0    0    0  501  0.00000000000E+00  0.00000000000E+00  0.80502140091E+03  0.80502140724E+03  0.10100000352E+00 0. -1.
        3   -1    0    0  501    0  0.00000000000E+00  0.00000000000E+00 -0.26227119202E+04  0.26227119222E+04  0.10100000352E+00 0.  1.
    10030    2    1    2    0    0  0.00000000000E+00  0.00000000000E+00 -0.18176905193E+04  0.34277333294E+04  0.29060896327E+04 0.  0.
        4    1    3    3  502    0 -0.72086652016E+03  0.12110096984E+04 -0.13261026837E+04  0.19351338377E+04  0.12699999809E+01 0.  1.
       -4    1    3    3    0  502  0.72086652016E+03 -0.12110096984E+04 -0.49158783563E+03  0.14925994917E+04  0.12699999809E+01 0. -1.
</event>
<event>
 5   0  0.2608591E-07  0.2899850E+04  0.7818609E-02  0.8272922E-01
       -2   -1    0    0    0  501  0.00000000000E+00  0.00000000000E+00  0.12893906394E+04  0.12893906394E+04  0.25500000920E-02 0.  1.
        2   -1    0    0  501    0  0.00000000000E+00  0.00000000000E+00 -0.16304466826E+04  0.16304466826E+04  0.25500000920E-02 0. -1.
    10030    2    1    2    0    0  0.00000000000E+00  0.00000000000E+00 -0.34105604319E+03  0.29198373220E+04  0.28998501276E+04 0.  0.
        2    1    3    3  502    0  0.12858599137E+04  0.30805918171E+03  0.42850659805E+03  0.13899475104E+04  0.25500000920E-02 0.  1.
       -2    1    3    3    0  502 -0.12858599137E+04 -0.30805918171E+03 -0.76956264124E+03  0.15298898117E+04  0.25500000920E-02 0. -1.
</event>
<event>
 5   0  0.9763851E-08  0.2899703E+04  0.7818609E-02  0.8272966E-01
       -1   -1    0    0    0  501  0.00000000000E+00  0.00000000000E+00  0.13857748607E+04  0.13857748607E+04  0.50400001928E-02 0. -1.
        1   -1    0    0  501    0  0.00000000000E+00  0.00000000000E+00 -0.15168913155E+04  0.15168913155E+04  0.50400001928E-02 0.  1.
    10030    2    1    2    0    0  0.00000000000E+00  0.00000000000E+00 -0.13111645475E+03  0.29026661762E+04  0.28997033307E+04 0.  0.
        3    1    3    3  502    0  0.93033993180E+03  0.73064687660E+03  0.77356590884E+03  0.14134289768E+04  0.10100000352E+00 0. -1.
       -3    1    3    3    0  502 -0.93033993180E+03 -0.73064687660E+03 -0.90468236359E+03  0.14892371994E+04  0.10100000352E+00 0.  1.
</event>
<event>
 5   0  0.2546841E-07  0.2899585E+04  0.7818609E-02  0.8273001E-01
       -2   -1    0    0    0  501  0.00000000000E+00  0.00000000000E+00  0.15916448947E+04  0.15916448947E+04  0.25500000920E-02 0.  1.
        2   -1    0    0  501    0  0.00000000000E+00  0.00000000000E+00 -0.13205826999E+04  0.13205826999E+04  0.25500000920E-02 0. -1.
    10030    2    1    2    0    0  0.00000000000E+00  0.00000000000E+00  0.27106219481E+03  0.29122275946E+04  0.28995852891E+04 0.  0.
        1    1    3    3  502    0  0.96795764276E+03  0.10004940278E+04  0.54222674392E+03  0.14939679179E+04  0.50400001928E-02 0. -1.
       -1    1    3    3    0  502 -0.96795764276E+03 -0.10004940278E+04 -0.27116454910E+03  0.14182596767E+04  0.50400001928E-02 0.  1.
</event>
<event>
 5   0  0.2492232E-07  0.2899868E+04  0.7818609E-02  0.8272917E-01
        2   -1    0    0  501    0  0.00000000000E+00  0.00000000000E+00  0.20660028119E+04  0.20660028119E+04  0.25500000920E-02 0.  1.
       -2   -1    0    0    0  501  0.00000000000E+00  0.00000000000E+00 -0.10175732912E+04  0.10175732912E+04  0.25500000920E-02 0. -1.
    10030    2    1    2    0    0  0.00000000000E+00  0.00000000000E+00  0.10484295208E+04  0.30835761031E+04  0.28998684666E+04 0.  0.
        4    1    3    3  502    0  0.78647016394E+03 -0.93338128118E+03 -0.30803724099E+03  0.12588186881E+04  0.12699999809E+01 0. -1.
       -4    1    3    3    0  502 -0.78647016394E+03  0.93338128118E+03  0.13564667617E+04  0.18247574150E+04  0.12699999809E+01 0.  1.
</event>
<event>
 5   0  0.9388076E-08  0.2901025E+04  0.7818609E-02  0.8272573E-01
        1   -1    0    0  501    0  0.00000000000E+00  0.00000000000E+00  0.27285071135E+04  0.27285071135E+04  0.50400001928E-02 0.  1.
       -1   -1    0    0    0  501  0.00000000000E+00  0.00000000000E+00 -0.77111279859E+03  0.77111279861E+03  0.50400001928E-02 0. -1.
    10030    2    1    2    0    0  0.00000000000E+00  0.00000000000E+00  0.19573943149E+04  0.34996199121E+04  0.29010251680E+04 0.  0.
        5    1    3    3  502    0 -0.93230659057E+03  0.66382338199E+03 -0.96304317064E+02  0.11485441536E+04  0.46999998093E+01 0. -1.
       -5    1    3    3    0  502  0.93230659057E+03 -0.66382338199E+03  0.20536986320E+04  0.23510757585E+04  0.46999998093E+01 0.  1.
</event>
<event>
 5   0  0.2534588E-07  0.2900387E+04  0.7818609E-02  0.8272762E-01
        2   -1    0    0  501    0  0.00000000000E+00  0.00000000000E+00  0.16681637797E+04  0.16681637797E+04  0.25500000920E-02 0.  1.
       -2   -1    0    0    0  501  0.00000000000E+00  0.00000000000E+00 -0.12607041288E+04  0.12607041288E+04  0.25500000920E-02 0. -1.
    10030    2    1    2    0    0  0.00000000000E+00  0.00000000000E+00  0.40745965098E+03  0.29288679085E+04  0.29003868463E+04 0.  0.
        3    1    3    3  502    0 -0.91715071889E+03 -0.38490721486E+03  0.12694327252E+04  0.16126929216E+04  0.10100000352E+00 0.  1.
       -3    1    3    3    0  502  0.91715071889E+03  0.38490721486E+03 -0.86197307426E+03  0.13161749869E+04  0.10100000352E+00 0. -1.
</event>
<event>
 5   0  0.2534588E-07  0.2901216E+04  0.7818609E-02  0.8272516E-01
       -2   -1    0    0    0  501  0.00000000000E+00  0.00000000000E+00  0.85847743331E+03  0.85847743332E+03  0.25500000920E-02 0. -1.
        2   -1    0    0  501    0  0.00000000000E+00  0.00000000000E+00 -0.24511578371E+04  0.24511578371E+04  0.25500000920E-02 0.  1.
    10030    2    1    2    0    0  0.00000000000E+00  0.00000000000E+00 -0.15926804038E+04  0.33096352704E+04  0.29012160820E+04 0.  0.
        3    1    3    3  502    0 -0.45008229889E+03  0.11788906301E+04 -0.16125379188E+04  0.20475926703E+04  0.10100000352E+00 0.  1.
       -3    1    3    3    0  502  0.45008229889E+03 -0.11788906301E+04  0.19857515022E+02  0.12620426002E+04  0.10100000352E+00 0. -1.
</event>
<event>
 5   0  0.9395744E-08  0.2898565E+04  0.7818609E-02  0.8273305E-01
        1   -1    0    0  501    0  0.00000000000E+00  0.00000000000E+00  0.21626132915E+04  0.21626132915E+04  0.50400001928E-02 0. -1.
       -1   -1    0    0    0  501  0.00000000000E+00  0.00000000000E+00 -0.97124160392E+03  0.97124160393E+03  0.50400001928E-02 0.  1.
    10030    2    1    2    0    0  0.00000000000E+00  0.00000000000E+00  0.11913716876E+04  0.31338548955E+04  0.28985651636E+04 0.  0.
        2    1    3    3  502    0 -0.86932799056E+03  0.11246819549E+04  0.29030551799E+03  0.14508335358E+04  0.25500000920E-02 0.  1.
       -2    1    3    3    0  502  0.86932799056E+03 -0.11246819549E+04  0.90106616960E+03  0.16830213596E+04  0.25500000920E-02 0. -1.
</event>
<event>
 5   0  0.9388076E-08  0.2900489E+04  0.7818609E-02  0.8272732E-01
        1   -1    0    0  501    0  0.00000000000E+00  0.00000000000E+00  0.16700546784E+04  0.16700546784E+04  0.50400001928E-02 0.  1.
       -1   -1    0    0    0  501  0.00000000000E+00  0.00000000000E+00 -0.12593652526E+04  0.12593652526E+04  0.50400001928E-02 0. -1.
    10030    2    1    2    0    0  0.00000000000E+00  0.00000000000E+00  0.41068942580E+03  0.29294199311E+04  0.29004888085E+04 0.  0.
        5    1    3    3  502    0 -0.11119440761E+04 -0.84660249845E+03 -0.18585759470E+03  0.14098654383E+04  0.46999998093E+01 0.  1.
       -5    1    3    3    0  502  0.11119440761E+04  0.84660249845E+03  0.59654702050E+03  0.15195544927E+04  0.46999998093E+01 0. -1.
</event>
<event>
 5   0  0.9421924E-08  0.2900188E+04  0.7818609E-02  0.8272822E-01
        1   -1    0    0  501    0  0.00000000000E+00  0.00000000000E+00  0.16866985728E+04  0.16866985728E+04  0.50400001928E-02 0. -1.
       -1   -1    0    0    0  501  0.00000000000E+00  0.00000000000E+00 -0.12466796459E+04  0.12466796459E+04  0.50400001928E-02 0.  1.
    10030    2    1    2    0    0  0.00000000000E+00  0.00000000000E+00  0.44001892695E+03  0.29333782187E+04  0.29001881176E+04 0.  0.
        1    1    3    3  502    0 -0.56925694834E+03 -0.10924988461E+04  0.99372493154E+03  0.15827496459E+04  0.50400001928E-02 0. -1.
       -1    1    3    3    0  502  0.56925694834E+03  0.10924988461E+04 -0.55370600459E+03  0.13506285728E+04  0.50400001928E-02 0.  1.
</event>
<event>
 5   0  0.2678723E-07  0.2900759E+04  0.7818609E-02  0.8272652E-01
       -2   -1    0    0    0  501  0.00000000000E+00  0.00000000000E+00  0.85768469247E+03  0.85768469248E+03  0.25500000920E-02 0.  1.
        2   -1    0    0  501    0  0.00000000000E+00  0.00000000000E+00 -0.24526508769E+04  0.24526508769E+04  0.25500000920E-02 0. -1.
    10030    2    1    2    0    0  0.00000000000E+00  0.00000000000E+00 -0.15949661844E+04  0.33103355694E+04  0.29007592889E+04 0.  0.
        5    1    3    3  502    0  0.65456418809E+03 -0.25360726274E+03 -0.22458621334E+04  0.23530171551E+04  0.46999998093E+01 0. -1.
       -5    1    3    3    0  502 -0.65456418809E+03  0.25360726274E+03  0.65089594892E+03  0.95731841430E+03  0.46999998093E+01 0.  1.
</event>
<event>
 5   0  0.2534588E-07  0.2899873E+04  0.7818609E-02  0.8272915E-01
       -2   -1    0    0    0  501  0.00000000000E+00  0.00000000000E+00  0.95498578234E+03  0.95498578235E+03  0.25500000920E-02 0. -1.
        2   -1    0    0  501    0  0.00000000000E+00  0.00000000000E+00 -0.22014110500E+04  0.22014110500E+04  0.25500000920E-02 0.  1.
    10030    2    1    2    0    0  0.00000000000E+00  0.00000000000E+00 -0.12464252676E+04  0.31563968323E+04  0.28998732757E+04 0.  0.
        3    1    3    3  502    0 -0.54194204739E+03  0.10588190493E+04  0.27930228330E+03  0.12218055236E+04  0.10100000352E+00 0. -1.
       -3    1    3    3    0  502  0.54194204739E+03 -0.10588190493E+04 -0.15257275509E+04  0.19345913087E+04  0.10100000352E+00 0.  1.
</event>
<event>
 5   0  0.2492232E-07  0.2903072E+04  0.7818609E-02  0.8271964E-01
       -2   -1    0    0    0  501  0.00000000000E+00  0.00000000000E+00  0.15173414220E+04  0.15173414220E+04  0.25500000920E-02 0. -1.
        2   -1    0    0  501    0  0.00000000000E+00  0.00000000000E+00 -0.13885840396E+04  0.13885840396E+04  0.25500000920E-02 0.  1.
    10030    2    1    2    0    0  0.00000000000E+00  0.00000000000E+00  0.12875738238E+03  0.29059254617E+04  0.29030715329E+04 0.  0.
        4    1    3    3  502    0 -0.33554062673E+03 -0.10056013504E+04  0.10568840118E+04  0.14969392157E+04  0.12699999809E+01 0. -1.
       -4    1    3    3    0  502  0.33554062673E+03  0.10056013504E+04 -0.92812662946E+03  0.14089862460E+04  0.12699999809E+01 0.  1.
</event>
<event>
 5   0  0.2534588E-07  0.2897663E+04  0.7818609E-02  0.8273573E-01
        2   -1    0    0  501    0  0.00000000000E+00  0.00000000000E+00  0.25145133507E+04  0.25145133507E+04  0.25500000920E-02 0.  1.
       -2   -1    0    0    0  501  0.00000000000E+00  0.00000000000E+00 -0.83479900693E+03  0.83479900693E+03  0.25500000920E-02 0. -1.
    10030    2    1    2    0    0  0.00000000000E+00  0.00000000000E+00  0.16797143438E+04  0.33493123576E+04  0.28976633677E+04 0.  0.
        3    1    3    3  502    0  0.72653240075E+03 -0.12491633304E+04  0.96028317810E+03  0.17350510505E+04  0.10100000352E+00 0. -1.
       -3    1    3    3    0  502 -0.72653240075E+03  0.12491633304E+04  0.71943116566E+03  0.16142613071E+04  0.10100000352E+00 0.  1.
</event>
<event>
 5   0  0.9388076E-08  0.2900934E+04  0.7818609E-02  0.8272600E-01
        1   -1    0    0  501    0  0.00000000000E+00  0.00000000000E+00  0.20462332592E+04  0.20462332592E+04  0.50400001928E-02 0.  1.
       -1   -1    0    0    0  501  0.00000000000E+00  0.00000000000E+00 -0.10281593607E+04  0.10281593607E+04  0.50400001928E-02 0. -1.
    10030    2    1    2    0    0  0.00000000000E+00  0.00000000000E+00  0.10180738985E+04  0.30743926199E+04  0.29009335598E+04 0.  0.
        5    1    3    3  502    0 -0.28558705743E+03  0.13998744616E+04  0.24382714775E+03  0.14493730519E+04  0.46999998093E+01 0. -1.
       -5    1    3    3    0  502  0.28558705743E+03 -0.13998744616E+04  0.77424675079E+03  0.16250195681E+04  0.46999998093E+01 0.  1.
</event>
<event>
 5   0  0.9443352E-08  0.2898969E+04  0.7818609E-02  0.8273184E-01
        1   -1    0    0  501    0  0.00000000000E+00  0.00000000000E+00  0.12081513956E+04  0.12081513956E+04  0.50400001928E-02 0. -1.
       -1   -1    0    0    0  501  0.00000000000E+00  0.00000000000E+00 -0.17390249425E+04  0.17390249425E+04  0.50400001928E-02 0.  1.
    10030    2    1    2    0    0  0.00000000000E+00  0.00000000000E+00 -0.53087354694E+03  0.29471763381E+04  0.28989690659E+04 0.  0.
        4    1    3    3  502    0 -0.11780639561E+04 -0.46741058302E+03  0.44960586874E+03  0.13447878598E+04  0.12699999809E+01 0. -1.
       -4    1    3    3    0  502  0.11780639561E+04  0.46741058302E+03 -0.98047941568E+03  0.16023884783E+04  0.12699999809E+01 0.  1.
</event>
<event>
 5   0  0.9388076E-08  0.2897062E+04  0.7818609E-02  0.8273752E-01
       -1   -1    0    0    0  501  0.00000000000E+00  0.00000000000E+00  0.12143722447E+04  0.12143722447E+04  0.50400001928E-02 0. -1.
        1   -1    0    0  501    0  0.00000000000E+00  0.00000000000E+00 -0.17278413113E+04  0.17278413113E+04  0.50400001928E-02 0.  1.
    10030    2    1    2    0    0  0.00000000000E+00  0.00000000000E+00 -0.51346906656E+03  0.29422135560E+04  0.28970623270E+04 0.  0.
        5    1    3    3  502    0 -0.53010856828E+03  0.10668389807E+04  0.58015937728E+03  0.13250537717E+04  0.46999998093E+01 0. -1.
       -5    1    3    3    0  502  0.53010856828E+03 -0.10668389807E+04 -0.10936284438E+04  0.16171597843E+04  0.46999998093E+01 0.  1.
</event>
<event>
 5   0  0.9443352E-08  0.2899460E+04  0.7818609E-02  0.8273038E-01
       -1   -1    0    0    0  501  0.00000000000E+00  0.00000000000E+00  0.12984107666E+04  0.12984107667E+04  0.50400001928E-02 0.  1.
        1   -1    0    0  501    0  0.00000000000E+00  0.00000000000E+00 -0.16186846304E+04  0.16186846304E+04  0.50400001928E-02 0. -1.
    10030    2    1    2    0    0  0.00000000000E+00  0.00000000000E+00 -0.32027386371E+03  0.29170953970E+04  0.28994603304E+04 0.  0.
        4    1    3    3  502    0 -0.15704532785E+03  0.93977630474E+02 -0.16070149644E+04  0.16174033939E+04  0.12699999809E+01 0. -1.
       -4    1    3    3    0  502  0.15704532785E+03 -0.93977630474E+02  0.12867411006E+04  0.12996920031E+04  0.12699999809E+01 0.  1.
</event>
<event>
 5   0  0.2534588E-07  0.2901460E+04  0.7818609E-02  0.8272443E-01
       -2   -1    0    0    0  501  0.00000000000E+00  0.00000000000E+00  0.14451973557E+04  0.14451973557E+04  0.25500000920E-02 0. -1.
        2   -1    0    0  501    0  0.00000000000E+00  0.00000000000E+00 -0.14562834999E+04  0.14562834999E+04  0.25500000920E-02 0.  1.
    10030    2    1    2    0    0  0.00000000000E+00  0.00000000000E+00 -0.11086144175E+02  0.29014808557E+04  0.29014596763E+04 0.  0.
        3    1    3    3  502    0 -0.27056516247E+03 -0.39422002576E+03  0.13641391923E+04  0.14455070674E+04  0.10100000352E+00 0. -1.
       -3    1    3    3    0  502  0.27056516247E+03  0.39422002576E+03 -0.13752253364E+04  0.14559737882E+04  0.10100000352E+00 0.  1.
</event>
<event>
 5   0  0.9763851E-08  0.2895667E+04  0.7818609E-02  0.8274168E-01
       -1   -1    0    0    0  501  0.00000000000E+00  0.00000000000E+00  0.17598147672E+04  0.17598147672E+04  0.50400001928E-02 0. -1.
        1   -1    0    0  501    0  0.00000000000E+00  0.00000000000E+00 -0.11911603516E+04  0.11911603516E+04  0.50400001928E-02 0.  1.
    10030    2    1    2    0    0  0.00000000000E+00  0.00000000000E+00  0.56865441560E+03  0.29509751188E+04  0.28956668157E+04 0.  0.
        3    1    3    3  502    0  0.76687588790E+02  0.73938267774E+03 -0.98184249349E+03  0.12314960100E+04  0.10100000352E+00 0.  1.
       -3    1    3    3    0  502 -0.76687588790E+02 -0.73938267774E+03  0.15504969091E+04  0.17194791088E+04  0.10100000352E+00 0. -1.
</event>
<event>
 5   0  0.8407500E-08  0.2903706E+04  0.7818609E-02  0.8271776E-01
       -4   -1    0    0    0  501  0.00000000000E+00  0.00000000000E+00  0.11943508378E+04  0.11943515130E+04  0.12699999809E+01 0.  1.
        4   -1    0    0  501    0  0.00000000000E+00  0.00000000000E+00 -0.17648714438E+04  0.17648719007E+04  0.12699999809E+01 0. -1.
    10030    2    1    2    0    0  0.00000000000E+00  0.00000000000E+00 -0.57052060598E+03  0.29592234138E+04  0.29037061578E+04 0.  0.
        1    1    3    3  502    0 -0.33169755461E+03 -0.11643657652E+04  0.53137586118E+03  0.13221691302E+04  0.50400001928E-02 0.  1.
       -1    1    3    3    0  502  0.33169755461E+03  0.11643657652E+04 -0.11018964672E+04  0.16370542836E+04  0.50400001928E-02 0. -1.
</event>
<event>
 5   0  0.2534588E-07  0.2897915E+04  0.7818609E-02  0.8273498E-01
       -2   -1    0    0    0  501  0.00000000000E+00  0.00000000000E+00  0.14618394713E+04  0.14618394714E+04  0.25500000920E-02 0.  1.
        2   -1    0    0  501    0  0.00000000000E+00  0.00000000000E+00 -0.14361886899E+04  0.14361886899E+04  0.25500000920E-02 0. -1.
    10030    2    1    2    0    0  0.00000000000E+00  0.00000000000E+00  0.25650781483E+02  0.28980281612E+04  0.28979146400E+04 0.  0.
        3    1    3    3  502    0  0.17946909097E+03 -0.10628695365E+04 -0.95549787983E+03  0.14404433397E+04  0.10100000352E+00 0. -1.
       -3    1    3    3    0  502 -0.17946909097E+03  0.10628695365E+04  0.98114866131E+03  0.14575848216E+04  0.10100000352E+00 0.  1.
</event>
<event>
 5   0  0.9763851E-08  0.2908492E+04  0.7818609E-02  0.8270355E-01
        1   -1    0    0  501    0  0.00000000000E+00  0.00000000000E+00  0.11745024740E+04  0.11745024740E+04  0.50400001928E-02 0. -1.
       -1   -1    0    0    0  501  0.00000000000E+00  0.00000000000E+00 -0.18006192824E+04  0.18006192824E+04  0.50400001928E-02 0.  1.
    10030    2    1    2    0    0  0.00000000000E+00  0.00000000000E+00 -0.62611680839E+03  0.29751217564E+04  0.29084922568E+04 0.  0.
        3    1    3    3  502    0 -0.12506259902E+04  0.18767791772E+03 -0.10475206183E+04  0.16421290522E+04  0.10100000352E+00 0.  1.
       -3    1    3    3    0  502  0.12506259902E+04 -0.18767791772E+03  0.42140380995E+03  0.13329927042E+04  0.10100000352E+00 0. -1.
</event>
<event>
 5   0  0.2492232E-07  0.2900708E+04  0.7818609E-02  0.8272667E-01
        2   -1    0    0  501    0  0.00000000000E+00  0.00000000000E+00  0.20814115552E+04  0.20814115552E+04  0.25500000920E-02 0.  1.
       -2   -1    0    0    0  501  0.00000000000E+00  0.00000000000E+00 -0.10106253153E+04  0.10106253153E+04  0.25500000920E-02 0. -1.
    10030    2    1    2    0    0  0.00000000000E+00  0.00000000000E+00  0.10707862399E+04  0.30920368704E+04  0.29007083336E+04 0.  0.
        4    1    3    3  502    0  0.35997151992E+03 -0.53394445112E+03  0.19206683424E+04  0.20257454594E+04  0.12699999809E+01 0.  1.
       -4    1    3    3    0  502 -0.35997151992E+03  0.53394445112E+03 -0.84988210254E+03  0.10662914110E+04  0.12699999809E+01 0. -1.
</event>
<event>
 5   0  0.8407500E-08  0.2898879E+04  0.7818609E-02  0.8273211E-01
        4   -1    0    0  501    0  0.00000000000E+00  0.00000000000E+00  0.13816862338E+04  0.13816868175E+04  0.12699999809E+01 0.  1.
       -4   -1    0    0    0  501  0.00000000000E+00  0.00000000000E+00 -0.15205136159E+04  0.15205141463E+04  0.12699999809E+01 0. -1.
    10030    2    1    2    0    0  0.00000000000E+00  0.00000000000E+00 -0.13882738216E+03  0.29022009638E+04  0.28988786439E+04 0.  0.
        5    1    3    3  502    0 -0.10054624290E+04 -0.94270129055E+03  0.37966682400E+03  0.14296186228E+04  0.46999998093E+01 0. -1.
       -5    1    3    3    0  502  0.10054624290E+04  0.94270129055E+03 -0.51849420616E+03  0.14725823410E+04  0.46999998093E+01 0.  1.
</event>
<event>
 5   0  0.9395744E-08  0.2899465E+04  0.7818609E-02  0.8273037E-01
        1   -1    0    0  501    0  0.00000000000E+00  0.00000000000E+00  0.13697651743E+04  0.13697651743E+04  0.50400001928E-02 0.  1.
       -1   -1    0    0    0  501  0.00000000000E+00  0.00000000000E+00 -0.15343680195E+04  0.15343680195E+04  0.50400001928E-02 0. -1.
    10030    2    1    2    0    0  0.00000000000E+00  0.00000000000E+00 -0.16460284522E+03  0.29041331938E+04  0.28994646938E+04 0.  0.
        2    1    3    3  502    0  0.90253449953E+03 -0.97526396586E+03 -0.66290324550E+03  0.14849744236E+04  0.25500000920E-02 0. -1.
       -2    1    3    3    0  502 -0.90253449953E+03  0.97526396586E+03  0.49830040028E+03  0.14191587701E+04  0.25500000920E-02 0.  1.
</event>
<event>
 5   0  0.9443352E-08  0.2898223E+04  0.7818609E-02  0.8273406E-01
        1   -1    0    0  501    0  0.00000000000E+00  0.00000000000E+00  0.19031448097E+04  0.19031448097E+04  0.50400001928E-02 0.  1.
       -1   -1    0    0    0  501  0.00000000000E+00  0.00000000000E+00 -0.11033969641E+04  0.11033969641E+04  0.50400001928E-02 0. -1.
    10030    2    1    2    0    0  0.00000000000E+00  0.00000000000E+00  0.79974784560E+03  0.30065417738E+04  0.28982230454E+04 0.  0.
        4    1    3    3  502    0 -0.46260412105E+03 -0.25886679062E+03  0.17989483035E+04  0.18754282710E+04  0.12699999809E+01 0.  1.
       -4    1    3    3    0  502  0.46260412105E+03  0.25886679062E+03 -0.99920045792E+03  0.11311135028E+04  0.12699999809E+01 0. -1.
</event>
<event>
 5   0  0.9763851E-08  0.2901992E+04  0.7818609E-02  0.8272285E-01
       -1   -1    0    0    0  501  0.00000000000E+00  0.00000000000E+00  0.11396439283E+04  0.11396439283E+04  0.50400001928E-02 0. -1.
        1   -1    0    0  501    0  0.00000000000E+00  0.00000000000E+00 -0.18474094416E+04  0.18474094416E+04  0.50400001928E-02 0.  1.
    10030    2    1    2    0    0  0.00000000000E+00  0.00000000000E+00 -0.70776551329E+03  0.29870533699E+04  0.29019916976E+04 0.  0.
        3    1    3    3  502    0 -0.13320169594E+04 -0.76852255140E+01 -0.94612670427E+03  0.16338555608E+04  0.10100000352E+00 0.  1.
       -3    1    3    3    0  502  0.13320169594E+04  0.76852255140E+01  0.23836119098E+03  0.13531978091E+04  0.10100000352E+00 0. -1.
</event>
<event>
 5   0  0.9388076E-08  0.2900305E+04  0.7818609E-02  0.8272787E-01
        1   -1    0    0  501    0  0.00000000000E+00  0.00000000000E+00  0.27709252070E+04  0.27709252070E+04  0.50400001928E-02 0.  1.
       -1   -1    0    0    0  501  0.00000000000E+00  0.00000000000E+00 -0.75893146707E+03  0.75893146709E+03  0.50400001928E-02 0. -1.
    10030    2    1    2    0    0  0.00000000000E+00  0.00000000000E+00  0.20119937400E+04  0.35298566741E+04  0.29003050409E+04 0.  0.
        5    1    3    3  502    0 -0.14486857875E+04  0.13022351525E+02  0.10835473405E+04  0.18091315656E+04  0.46999998093E+01 0.  1.
       -5    1    3    3    0  502  0.14486857875E+04 -0.13022351525E+02  0.92844639949E+03  0.17207251086E+04  0.46999998093E+01 0. -1.
</event>
<event>
 5   0  0.2534588E-07  0.2899898E+04  0.7818609E-02  0.8272908E-01
       -2   -1    0    0    0  501  0.00000000000E+00  0.00000000000E+00  0.31833132817E+04  0.31833132817E+04  0.25500000920E-02 0. -1.
        2   -1    0    0  501    0  0.00000000000E+00  0.00000000000E+00 -0.66042874349E+03  0.66042874349E+03  0.25500000920E-02 0.  1.
    10030    2    1    2    0    0  0.00000000000E+00  0.00000000000E+00  0.25228845382E+04  0.38437420252E+04  0.28998976470E+04 0.  0.
        3    1    3    3  502    0 -0.28416804270E+03 -0.99234198350E+03  0.26111231551E+04  0.28077496737E+04  0.10100000352E+00 0. -1.
       -3    1    3    3    0  502  0.28416804270E+03  0.99234198350E+03 -0.88238616878E+02  0.10359923515E+04  0.10100000352E+00 0.  1.
</event>
<event>
 5   0  0.9421924E-08  0.2895108E+04  0.7818609E-02  0.8274334E-01
        1   -1    0    0  501    0  0.00000000000E+00  0.00000000000E+00  0.21011109889E+04  0.21011109889E+04  0.50400001928E-02 0. -1.
       -1   -1    0    0    0  501  0.00000000000E+00  0.00000000000E+00 -0.99728804328E+03  0.99728804329E+03  0.50400001928E-02 0.  1.
    10030    2    1    2    0    0  0.00000000000E+00  0.00000000000E+00  0.11038229456E+04  0.30983990322E+04  0.28951081961E+04 0.  0.
        1    1    3    3  502    0  0.97418729321E+03  0.10193687337E+04  0.20140974030E+03  0.14243312048E+04  0.50400001928E-02 0. -1.
       -1    1    3    3    0  502 -0.97418729321E+03 -0.10193687337E+04  0.90241320527E+03  0.16740678273E+04  0.50400001928E-02 0.  1.
</event>
<event>
 5   0  0.2546841E-07  0.2899137E+04  0.7818609E-02  0.8273134E-01
       -2   -1    0    0    0  501  0.00000000000E+00  0.00000000000E+00  0.16383725391E+04  0.16383725391E+04  0.25500000920E-02 0.  1.
        2   -1    0    0  501    0  0.00000000000E+00  0.00000000000E+00 -0.12825215886E+04  0.12825215886E+04  0.25500000920E-02 0. -1.
    10030    2    1    2    0    0  0.00000000000E+00  0.00000000000E+00  0.35585095051E+03  0.29208941277E+04  0.28991365277E+04 0.  0.
        1    1    3    3  502    0 -0.13827520202E+04 -0.22405320287E+03 -0.19776059520E+03  0.14146774332E+04  0.50400001928E-02 0. -1.
       -1    1    3    3    0  502  0.13827520202E+04  0.22405320287E+03  0.55361154572E+03  0.15062166944E+04  0.50400001928E-02 0.  1.
</event>
<event>
 5   0  0.9763851E-08  0.2902185E+04  0.7818609E-02  0.8272228E-01
       -1   -1    0    0    0  501  0.00000000000E+00  0.00000000000E+00  0.10396228417E+04  0.10396228417E+04  0.50400001928E-02 0.  1.
        1   -1    0    0  501    0  0.00000000000E+00  0.00000000000E+00 -0.20254166888E+04  0.20254166888E+04  0.50400001928E-02 0. -1.
    10030    2    1    2    0    0  0.00000000000E+00  0.00000000000E+00 -0.98579384711E+03  0.30650395304E+04  0.29021850069E+04 0.  0.
        3    1    3    3  502    0 -0.66147540299E+03 -0.12520171687E+04 -0.15796917106E+03  0.14247985713E+04  0.10100000352E+00 0.  1.
       -3    1    3    3    0  502  0.66147540299E+03  0.12520171687E+04 -0.82782467605E+03  0.16402409591E+04  0.10100000352E+00 0. -1.
</event>
<event>
 5   0  0.9395744E-08  0.2899309E+04  0.7818609E-02  0.8273083E-01
        1   -1    0    0  501    0  0.00000000000E+00  0.00000000000E+00  0.16267514841E+04  0.16267514841E+04  0.50400001928E-02 0.  1.
       -1   -1    0    0    0  501  0.00000000000E+00  0.00000000000E+00 -0.12918372767E+04  0.12918372767E+04  0.50400001928E-02 0. -1.
    10030    2    1    2    0    0  0.00000000000E+00  0.00000000000E+00  0.33491420746E+03  0.29185887608E+04  0.28993090260E+04 0.  0.
        2    1    3    3  502    0 -0.88277354497E+03 -0.44347772035E+03 -0.90051081419E+03  0.13367428124E+04  0.25500000920E-02 0. -1.
       -2    1    3    3    0  502  0.88277354497E+03  0.44347772035E+03  0.12354250217E+04  0.15818459483E+04  0.25500000920E-02 0.  1.
</event>
<event>
 5   0  0.9388076E-08  0.2899996E+04  0.7818609E-02  0.8272879E-01
        1   -1    0    0  501    0  0.00000000000E+00  0.00000000000E+00  0.16500533189E+04  0.16500533189E+04  0.50400001928E-02 0.  1.
       -1   -1    0    0    0  501  0.00000000000E+00  0.00000000000E+00 -0.12741974993E+04  0.12741974993E+04  0.50400001928E-02 0. -1.
    10030    2    1    2    0    0  0.00000000000E+00  0.00000000000E+00  0.37585581962E+03  0.29242508182E+04  0.28999957329E+04 0.  0.
        5    1    3    3  502    0  0.11797260928E+04  0.72623655439E+03  0.61964253252E+03  0.15176139645E+04  0.46999998093E+01 0. -1.
       -5    1    3    3    0  502 -0.11797260928E+04 -0.72623655439E+03 -0.24378671290E+03  0.14066368538E+04  0.46999998093E+01 0.  1.
</event>
<event>
 5   0  0.2678723E-07  0.2900038E+04  0.7818609E-02  0.8272866E-01
        2   -1    0    0  501    0  0.00000000000E+00  0.00000000000E+00  0.21164217461E+04  0.21164217461E+04  0.25500000920E-02 0. -1.
       -2   -1    0    0    0  501  0.00000000000E+00  0.00000000000E+00 -0.99344825453E+03  0.99344825453E+03  0.25500000920E-02 0.  1.
    10030    2    1    2    0    0  0.00000000000E+00  0.00000000000E+00  0.11229734915E+04  0.31098700006E+04  0.29000382684E+04 0.  0.
        5    1    3    3  502    0  0.95796017625E+03 -0.14916096600E+02 -0.60566849618E+03  0.11334754547E+04  0.46999998093E+01 0.  1.
       -5    1    3    3    0  502 -0.95796017625E+03  0.14916096600E+02  0.17286419877E+04  0.19763945459E+04  0.46999998093E+01 0. -1.
</event>
<event>
 5   0  0.2678723E-07  0.2900688E+04  0.7818609E-02  0.8272673E-01
        2   -1    0    0  501    0  0.00000000000E+00  0.00000000000E+00  0.22255256687E+04  0.22255256687E+04  0.25500000920E-02 0.  1.
       -2   -1    0    0    0  501  0.00000000000E+00  0.00000000000E+00 -0.94516903585E+03  0.94516903586E+03  0.25500000920E-02 0. -1.
    10030    2    1    2    0    0  0.00000000000E+00  0.00000000000E+00  0.12803566329E+04  0.31706947046E+04  0.29006881601E+04 0.  0.
        5    1    3    3  502    0 -0.19407649002E+03 -0.13821438136E+04  0.10712035923E+04  0.17593994520E+04  0.46999998093E+01 0.  1.
       -5    1    3    3    0  502  0.19407649002E+03  0.13821438136E+04  0.20915304056E+03  0.14112952526E+04  0.46999998093E+01 0. -1.
</event>
<event>
 5   0  0.2678723E-07  0.2901215E+04  0.7818609E-02  0.8272516E-01
        2   -1    0    0  501    0  0.00000000000E+00  0.00000000000E+00  0.23283468159E+04  0.23283468159E+04  0.25500000920E-02 0.  1.
       -2   -1    0    0    0  501  0.00000000000E+00  0.00000000000E+00 -0.90375827539E+03  0.90375827540E+03  0.25500000920E-02 0. -1.
    10030    2    1    2    0    0  0.00000000000E+00  0.00000000000E+00  0.14245885405E+04  0.32321050913E+04  0.29012154025E+04 0.  0.
        5    1    3    3  502    0 -0.12211206600E+03 -0.60876314358E+03 -0.74823469062E+03  0.97230713454E+03  0.46999998093E+01 0. -1.
       -5    1    3    3    0  502  0.12211206600E+03  0.60876314358E+03  0.21728232312E+04  0.22597979568E+04  0.46999998093E+01 0.  1.
</event>
<event>
 5   0  0.9443352E-08  0.2900040E+04  0.7818609E-02  0.8272866E-01
       -1   -1    0    0    0  501  0.00000000000E+00  0.00000000000E+00  0.97657019503E+03  0.97657019505E+03  0.50400001928E-02 0. -1.
        1   -1    0    0  501    0  0.00000000000E+00  0.00000000000E+00 -0.21530024787E+04  0.21530024787E+04  0.50400001928E-02 0.  1.
    10030    2    1    2    0    0  0.00000000000E+00  0.00000000000E+00 -0.11764322837E+04  0.31295726738E+04  0.29000400346E+04 0.  0.
        4    1    3    3  502    0  0.21107327250E+03  0.12165171095E+04 -0.14087169520E+04  0.18732193859E+04  0.12699999809E+01 0.  1.
       -4    1    3    3    0  502 -0.21107327250E+03 -0.12165171095E+04  0.23228466829E+03  0.12563532879E+04  0.12699999809E+01 0. -1.
</event>
<event>
 5   0  0.2608591E-07  0.2900179E+04  0.7818609E-02  0.8272824E-01
        2   -1    0    0  501    0  0.00000000000E+00  0.00000000000E+00  0.13351333006E+04  0.13351333006E+04  0.25500000920E-02 0.  1.
       -2   -1    0    0    0  501  0.00000000000E+00  0.00000000000E+00 -0.15749437557E+04  0.15749437557E+04  0.25500000920E-02 0. -1.
    10030    2    1    2    0    0  0.00000000000E+00  0.00000000000E+00 -0.23981045503E+03  0.29100770563E+04  0.29001792047E+04 0.  0.
        2    1    3    3  502    0  0.50338293438E+03 -0.12168290754E+04  0.48936757641E+03  0.14048302397E+04  0.25500000920E-02 0. -1.
       -2    1    3    3    0  502 -0.50338293438E+03  0.12168290754E+04 -0.72917803144E+03  0.15052468166E+04  0.25500000920E-02 0.  1.
</event>
<event>
 5   0  0.2534588E-07  0.2899692E+04  0.7818609E-02  0.8272969E-01
       -2   -1    0    0    0  501  0.00000000000E+00  0.00000000000E+00  0.87099809057E+03  0.87099809057E+03  0.25500000920E-02 0. -1.
        2   -1    0    0  501    0  0.00000000000E+00  0.00000000000E+00 -0.24133852948E+04  0.24133852948E+04  0.25500000920E-02 0.  1.
    10030    2    1    2    0    0  0.00000000000E+00  0.00000000000E+00 -0.15423872042E+04  0.32843833854E+04  0.28996923862E+04 0.  0.
        3    1    3    3  502    0  0.87844340235E+03 -0.42344050901E+03 -0.19864178492E+04  0.22128760827E+04  0.10100000352E+00 0.  1.
       -3    1    3    3    0  502 -0.87844340235E+03  0.42344050901E+03  0.44403064494E+03  0.10715073027E+04  0.10100000352E+00 0. -1.
</event>
<event>
 5   0  0.9763851E-08  0.2900138E+04  0.7818609E-02  0.8272837E-01
        1   -1    0    0  501    0  0.00000000000E+00  0.00000000000E+00  0.23166034658E+04  0.23166034658E+04  0.50400001928E-02 0.  1.
       -1   -1    0    0    0  501  0.00000000000E+00  0.00000000000E+00 -0.90766486742E+03  0.90766486744E+03  0.50400001928E-02 0. -1.
    10030    2    1    2    0    0  0.00000000000E+00  0.00000000000E+00  0.14089385983E+04  0.32242683332E+04  0.29001376365E+04 0.  0.
        3    1    3    3  502    0 -0.13418824150E+04 -0.39676275693E+03  0.11272765845E+04  0.17968922085E+04  0.10100000352E+00 0.  1.
       -3    1    3    3    0  502  0.13418824150E+04  0.39676275693E+03  0.28166201386E+03  0.14273761247E+04  0.10100000352E+00 0. -1.
</event>
<event>
 5   0  0.2534588E-07  0.2900564E+04  0.7818609E-02  0.8272710E-01
       -2   -1    0    0    0  501  0.00000000000E+00  0.00000000000E+00  0.89304538622E+03  0.89304538622E+03  0.25500000920E-02 0. -1.
        2   -1    0    0  501    0  0.00000000000E+00  0.00000000000E+00 -0.23552189151E+04  0.23552189151E+04  0.25500000920E-02 0.  1.
    10030    2    1    2    0    0  0.00000000000E+00  0.00000000000E+00 -0.14621735289E+04  0.32482643013E+04  0.29005636595E+04 0.  0.
        3    1    3    3  502    0  0.71805417549E+03  0.12330689843E+04 -0.44066046014E+03  0.14933996687E+04  0.10100000352E+00 0. -1.
       -3    1    3    3    0  502 -0.71805417549E+03 -0.12330689843E+04 -0.10215130687E+04  0.17548646326E+04  0.10100000352E+00 0.  1.
</event>
<event>
 5   0  0.9421924E-08  0.2899921E+04  0.7818609E-02  0.8272901E-01
       -1   -1    0    0    0  501  0.00000000000E+00  0.00000000000E+00  0.89939280031E+03  0.89939280033E+03  0.50400001928E-02 0. -1.
        1   -1    0    0  501    0  0.00000000000E+00  0.00000000000E+00 -0.23375601358E+04  0.23375601359E+04  0.50400001928E-02 0.  1.
    10030    2    1    2    0    0  0.00000000000E+00  0.00000000000E+00 -0.14381673355E+04  0.32369529362E+04  0.28999205206E+04 0.  0.
        1    1    3    3  502    0  0.31315956375E+03  0.21445528327E+03 -0.22811254594E+04  0.23124863984E+04  0.50400001928E-02 0.  1.
       -1    1    3    3    0  502 -0.31315956375E+03 -0.21445528327E+03  0.84295812390E+03  0.92446653783E+03  0.50400001928E-02 0. -1.
</event>
<event>
 5   0  0.2678723E-07  0.2901237E+04  0.7818609E-02  0.8272510E-01
        2   -1    0    0  501    0  0.00000000000E+00  0.00000000000E+00  0.19977496247E+04  0.19977496247E+04  0.25500000920E-02 0.  1.
       -2   -1    0    0    0  501  0.00000000000E+00  0.00000000000E+00 -0.10533321689E+04  0.10533321689E+04  0.25500000920E-02 0. -1.
    10030    2    1    2    0    0  0.00000000000E+00  0.00000000000E+00  0.94441745576E+03  0.30510817936E+04  0.29012369397E+04 0.  0.
        5    1    3    3  502    0  0.44475435198E+03 -0.73341823317E+03  0.17024861888E+04  0.19063551745E+04  0.46999998093E+01 0.  1.
       -5    1    3    3    0  502 -0.44475435198E+03  0.73341823317E+03 -0.75806873304E+03  0.11447266190E+04  0.46999998093E+01 0. -1.
</event>
<event>
 5   0  0.9763851E-08  0.2899952E+04  0.7818609E-02  0.8272892E-01
        1   -1    0    0  501    0  0.00000000000E+00  0.00000000000E+00  0.16740844665E+04  0.16740844666E+04  0.50400001928E-02 0. -1.
       -1   -1    0    0    0  501  0.00000000000E+00  0.00000000000E+00 -0.12558690769E+04  0.12558690769E+04  0.50400001928E-02 0.  1.
    10030    2    1    2    0    0  0.00000000000E+00  0.00000000000E+00  0.41821538962E+03  0.29299535435E+04  0.28999523539E+04 0.  0.
        3    1    3    3  502    0 -0.90621919635E+03 -0.38595473100E+03  0.12841819698E+04  0.16184306065E+04  0.10100000352E+00 0. -1.
       -3    1    3    3    0  502  0.90621919635E+03  0.38595473100E+03 -0.86596658016E+03  0.13115229370E+04  0.10100000352E+00 0.  1.
</event>
<event>
 5   0  0.2608591E-07  0.2900289E+04  0.7818609E-02  0.8272791E-01
        2   -1    0    0  501    0  0.00000000000E+00  0.00000000000E+00  0.12547539106E+04  0.12547539106E+04  0.25500000920E-02 0.  1.
       -2   -1    0    0    0  501  0.00000000000E+00  0.00000000000E+00 -0.16759615068E+04  0.16759615068E+04  0.25500000920E-02 0. -1.
    10030    2    1    2    0    0  0.00000000000E+00  0.00000000000E+00 -0.42120759615E+03  0.29307154174E+04  0.29002891267E+04 0.  0.
        2    1    3    3  502    0 -0.11573927868E+04  0.85131163015E+03 -0.40921009928E+03  0.14939017571E+04  0.25500000920E-02 0. -1.
       -2    1    3    3    0  502  0.11573927868E+04 -0.85131163015E+03 -0.11997496868E+02  0.14368136603E+04  0.25500000920E-02 0.  1.
</event>
<event>
 5   0  0.9388076E-08  0.2898190E+04  0.7818609E-02  0.8273416E-01
       -1   -1    0    0    0  501  0.00000000000E+00  0.00000000000E+00  0.12478753843E+04  0.12478753843E+04  0.50400001928E-02 0.  1.
        1   -1    0    0  501    0  0.00000000000E+00  0.00000000000E+00 -0.16827613402E+04  0.16827613402E+04  0.50400001928E-02 0. -1.
    10030    2    1    2    0    0  0.00000000000E+00  0.00000000000E+00 -0.43488595582E+03  0.29306367245E+04  0.28981900932E+04 0.  0.
        5    1    3    3  502    0 -0.11748390634E+04 -0.29190598874E+03 -0.10228514076E+04  0.15848353300E+04  0.46999998093E+01 0. -1.
       -5    1    3    3    0  502  0.11748390634E+04  0.29190598874E+03  0.58796545180E+03  0.13458013945E+04  0.46999998093E+01 0.  1.
</event>
<event>
 5   0  0.9395744E-08  0.2900022E+04  0.7818609E-02  0.8272871E-01
       -1   -1    0    0    0  501  0.00000000000E+00  0.00000000000E+00  0.12296670830E+04  0.12296670830E+04  0.50400001928E-02 0.  1.
        1   -1    0    0  501    0  0.00000000000E+00  0.00000000000E+00 -0.17098378873E+04  0.17098378873E+04  0.50400001928E-02 0. -1.
    10030    2    1    2    0    0  0.00000000000E+00  0.00000000000E+00 -0.48017080426E+03  0.29395049703E+04  0.29000216326E+04 0.  0.
        2    1    3    3  502    0  0.28264711584E+03 -0.78585444439E+03  0.96141156457E+03  0.12734868654E+04  0.25500000920E-02 0.  1.
       -2    1    3    3    0  502 -0.28264711584E+03  0.78585444439E+03 -0.14415823688E+04  0.16660181049E+04  0.25500000920E-02 0. -1.
</event>
<event>
 5   0  0.9388076E-08  0.2899800E+04  0.7818609E-02  0.8272937E-01
       -1   -1    0    0    0  501  0.00000000000E+00  0.00000000000E+00  0.17699546339E+04  0.17699546339E+04  0.50400001928E-02 0.  1.
        1   -1    0    0  501    0  0.00000000000E+00  0.00000000000E+00 -0.11877200753E+04  0.11877200753E+04  0.50400001928E-02 0. -1.
    10030    2    1    2    0    0  0.00000000000E+00  0.00000000000E+00  0.58223455862E+03  0.29576747091E+04  0.28998004421E+04 0.  0.
        5    1    3    3  502    0 -0.12126493711E+03  0.10729707834E+04  0.12780114292E+04  0.16731129042E+04  0.46999998093E+01 0.  1.
       -5    1    3    3    0  502  0.12126493711E+03 -0.10729707834E+04 -0.69577687060E+03  0.12845618049E+04  0.46999998093E+01 0. -1.
</event>
<event>
 5   0  0.2678723E-07  0.2899974E+04  0.7818609E-02  0.8272885E-01
        2   -1    0    0  501    0  0.00000000000E+00  0.00000000000E+00  0.16769555022E+04  0.16769555022E+04  0.25500000920E-02 0. -1.
       -2   -1    0    0    0  501  0.00000000000E+00  0.00000000000E+00 -0.12537373284E+04  0.12537373284E+04  0.25500000920E-02 0.  1.
    10030    2    1    2    0    0  0.00000000000E+00  0.00000000000E+00  0.42321817389E+03  0.29306928306E+04  0.28999735938E+04 0.  0.
        5    1    3    3  502    0  0.49363705964E+02  0.26558369703E+03  0.16512937497E+04  0.16732497164E+04  0.46999998093E+01 0. -1.
       -5    1    3    3    0  502 -0.49363705964E+02 -0.26558369703E+03 -0.12280755758E+04  0.12574431142E+04  0.46999998093E+01 0.  1.
</event>
<event>
 5   0  0.9388076E-08  0.2899599E+04  0.7818609E-02  0.8272997E-01
        1   -1    0    0  501    0  0.00000000000E+00  0.00000000000E+00  0.19860562143E+04  0.19860562143E+04  0.50400001928E-02 0. -1.
       -1   -1    0    0    0  501  0.00000000000E+00  0.00000000000E+00 -0.10583381302E+04  0.10583381303E+04  0.50400001928E-02 0.  1.
    10030    2    1    2    0    0  0.00000000000E+00  0.00000000000E+00  0.92771808406E+03  0.30443943446E+04  0.28995992968E+04 0.  0.
        5    1    3    3  502    0  0.79572809217E+03 -0.24491123643E+03 -0.78231053526E+03  0.11424520007E+04  0.46999998093E+01 0.  1.
       -5    1    3    3    0  502 -0.79572809217E+03  0.24491123643E+03  0.17100286193E+04  0.19019423438E+04  0.46999998093E+01 0. -1.
</event>
<event>
 5   0  0.2546841E-07  0.2899600E+04  0.7818609E-02  0.8272997E-01
       -2   -1    0    0    0  501  0.00000000000E+00  0.00000000000E+00  0.10360871387E+04  0.10360871387E+04  0.25500000920E-02 0.  1.
        2   -1    0    0  501    0  0.00000000000E+00  0.00000000000E+00 -0.20287091787E+04  0.20287091787E+04  0.25500000920E-02 0. -1.
    10030    2    1    2    0    0  0.00000000000E+00  0.00000000000E+00 -0.99262204001E+03  0.30647963174E+04  0.28995996194E+04 0.  0.
        1    1    3    3  502    0 -0.95894252506E+03 -0.41691347805E+03  0.56516062443E+03  0.11886101741E+04  0.50400001928E-02 0.  1.
       -1    1    3    3    0  502  0.95894252506E+03  0.41691347805E+03 -0.15577826644E+04  0.18761861433E+04  0.50400001928E-02 0. -1.
</event>
<event>
 5   0  0.2678723E-07  0.2901830E+04  0.7818609E-02  0.8272333E-01
       -2   -1    0    0    0  501  0.00000000000E+00  0.00000000000E+00  0.15316225832E+04  0.15316225832E+04  0.25500000920E-02 0.  1.
        2   -1    0    0  501    0  0.00000000000E+00  0.00000000000E+00 -0.13744599921E+04  0.13744599921E+04  0.25500000920E-02 0. -1.
    10030    2    1    2    0    0  0.00000000000E+00  0.00000000000E+00  0.15716259115E+03  0.29060825753E+04  0.29018297424E+04 0.  0.
        5    1    3    3  502    0 -0.84920804216E+02 -0.14478822411E+04  0.11810236031E+03  0.14551786092E+04  0.46999998093E+01 0.  1.
       -5    1    3    3    0  502  0.84920804216E+02  0.14478822411E+04  0.39060230832E+02  0.14509039661E+04  0.46999998093E+01 0. -1.
</event>
<event>
 5   0  0.2678723E-07  0.2895558E+04  0.7818609E-02  0.8274200E-01
       -2   -1    0    0    0  501  0.00000000000E+00  0.00000000000E+00  0.88342718282E+03  0.88342718283E+03  0.25500000920E-02 0. -1.
        2   -1    0    0  501    0  0.00000000000E+00  0.00000000000E+00 -0.23726498875E+04  0.23726498875E+04  0.25500000920E-02 0.  1.
    10030    2    1    2    0    0  0.00000000000E+00  0.00000000000E+00 -0.14892227047E+04  0.32560770704E+04  0.28955575670E+04 0.  0.
        5    1    3    3  502    0  0.12692596629E+04  0.50692973289E+03 -0.20761505306E+03  0.13824340658E+04  0.46999998093E+01 0. -1.
       -5    1    3    3    0  502 -0.12692596629E+04 -0.50692973289E+03 -0.12816076517E+04  0.18736430046E+04  0.46999998093E+01 0.  1.
</event>
<event>
 5   0  0.9388076E-08  0.2900290E+04  0.7818609E-02  0.8272791E-01
        1   -1    0    0  501    0  0.00000000000E+00  0.00000000000E+00  0.97636994016E+03  0.97636994017E+03  0.50400001928E-02 0. -1.
       -1   -1    0    0    0  501  0.00000000000E+00  0.00000000000E+00 -0.21538160156E+04  0.21538160156E+04  0.50400001928E-02 0.  1.
    10030    2    1    2    0    0  0.00000000000E+00  0.00000000000E+00 -0.11774460755E+04  0.31301859558E+04  0.29002904781E+04 0.  0.
        5    1    3    3  502    0  0.10922311802E+03  0.14091555192E+04 -0.93886166021E+03  0.16968005993E+04  0.46999998093E+01 0.  1.
       -5    1    3    3    0  502 -0.10922311802E+03 -0.14091555192E+04 -0.23858441527E+03  0.14333853565E+04  0.46999998093E+01 0. -1.
</event>
<event>
 5   0  0.9388076E-08  0.2899358E+04  0.7818609E-02  0.8273069E-01
        1   -1    0    0  501    0  0.00000000000E+00  0.00000000000E+00  0.57173733510E+03  0.57173733512E+03  0.50400001928E-02 0. -1.
       -1   -1    0    0    0  501  0.00000000000E+00  0.00000000000E+00 -0.36757595607E+04  0.36757595607E+04  0.50400001928E-02 0.  1.
    10030    2    1    2    0    0  0.00000000000E+00  0.00000000000E+00 -0.31040222256E+04  0.42474968958E+04  0.28993578432E+04 0.  0.
        5    1    3    3  502    0 -0.14055677163E+04 -0.32116084383E+03 -0.17731306450E+04  0.22853400769E+04  0.46999998093E+01 0.  1.
       -5    1    3    3    0  502  0.14055677163E+04  0.32116084383E+03 -0.13308915806E+04  0.19621568189E+04  0.46999998093E+01 0. -1.
</event>
<event>
 5   0  0.2678723E-07  0.2900763E+04  0.7818609E-02  0.8272650E-01
        2   -1    0    0  501    0  0.00000000000E+00  0.00000000000E+00  0.10468616866E+04  0.10468616866E+04  0.25500000920E-02 0. -1.
       -2   -1    0    0    0  501  0.00000000000E+00  0.00000000000E+00 -0.20094407295E+04  0.20094407295E+04  0.25500000920E-02 0.  1.
    10030    2    1    2    0    0  0.00000000000E+00  0.00000000000E+00 -0.96257904293E+03  0.30563024160E+04  0.29007630107E+04 0.  0.
        5    1    3    3  502    0  0.18865549749E+03  0.93852996405E+03  0.66669965794E+03  0.11665932942E+04  0.46999998093E+01 0. -1.
       -5    1    3    3    0  502 -0.18865549749E+03 -0.93852996405E+03 -0.16292787009E+04  0.18897091219E+04  0.46999998093E+01 0.  1.
</event>
<event>
 5   0  0.9443352E-08  0.2899786E+04  0.7818609E-02  0.8272941E-01
        1   -1    0    0  501    0  0.00000000000E+00  0.00000000000E+00  0.88073707523E+03  0.88073707525E+03  0.50400001928E-02 0. -1.
       -1   -1    0    0    0  501  0.00000000000E+00  0.00000000000E+00 -0.23868522366E+04  0.23868522366E+04  0.50400001928E-02 0.  1.
    10030    2    1    2    0    0  0.00000000000E+00  0.00000000000E+00 -0.15061151614E+04  0.32675893119E+04  0.28997856872E+04 0.  0.
        4    1    3    3  502    0 -0.67597144754E+02 -0.93910480420E+03  0.48938077867E+03  0.10611231628E+04  0.12699999809E+01 0. -1.
       -4    1    3    3    0  502  0.67597144754E+02  0.93910480420E+03 -0.19954959401E+04  0.22064661491E+04  0.12699999809E+01 0.  1.
</event>
<event>
 5   0  0.2546841E-07  0.2900128E+04  0.7818609E-02  0.8272839E-01
       -2   -1    0    0    0  501  0.00000000000E+00  0.00000000000E+00  0.10629570771E+04  0.10629570771E+04  0.25500000920E-02 0. -1.
        2   -1    0    0  501    0  0.00000000000E+00  0.00000000000E+00 -0.19781474375E+04  0.19781474375E+04  0.25500000920E-02 0.  1.
    10030    2    1    2    0    0  0.00000000000E+00  0.00000000000E+00 -0.91519036035E+03  0.30411045146E+04  0.29001281477E+04 0.  0.
        1    1    3    3  502    0 -0.68656640915E+03 -0.10265544391E+04  0.33927860130E+03  0.12807409652E+04  0.50400001928E-02 0. -1.
       -1    1    3    3    0  502  0.68656640915E+03  0.10265544391E+04 -0.12544689616E+04  0.17603635495E+04  0.50400001928E-02 0.  1.
</event>
<event>
 5   0  0.9388076E-08  0.2898849E+04  0.7818609E-02  0.8273220E-01
        1   -1    0    0  501    0  0.00000000000E+00  0.00000000000E+00  0.19326270017E+04  0.19326270017E+04  0.50400001928E-02 0.  1.
       -1   -1    0    0    0  501  0.00000000000E+00  0.00000000000E+00 -0.10870343293E+04  0.10870343293E+04  0.50400001928E-02 0. -1.
    10030    2    1    2    0    0  0.00000000000E+00  0.00000000000E+00  0.84559267243E+03  0.30196613310E+04  0.28988493556E+04 0.  0.
        5    1    3    3  502    0 -0.11626855914E+03 -0.91201698564E+03 -0.74439967211E+03  0.11829819617E+04  0.46999998093E+01 0. -1.
       -5    1    3    3    0  502  0.11626855914E+03  0.91201698564E+03  0.15899923445E+04  0.18366793693E+04  0.46999998093E+01 0.  1.
</event>
<event>
 5   0  0.9421924E-08  0.2885612E+04  0.7818609E-02  0.8277171E-01
       -1   -1    0    0    0  501  0.00000000000E+00  0.00000000000E+00  0.15345480722E+04  0.15345480723E+04  0.50400001928E-02 0.  1.
        1   -1    0    0  501    0  0.00000000000E+00  0.00000000000E+00 -0.13565487577E+04  0.13565487578E+04  0.50400001928E-02 0. -1.
    10030    2    1    2    0    0  0.00000000000E+00  0.00000000000E+00  0.17799931450E+03  0.28910968300E+04  0.28856120884E+04 0.  0.
        1    1    3    3  502    0  0.13883183903E+04  0.12465673575E+03  0.46216164780E+03  0.14685232866E+04  0.50400001928E-02 0. -1.
       -1    1    3    3    0  502 -0.13883183903E+04 -0.12465673575E+03 -0.28416233330E+03  0.14225735434E+04  0.50400001928E-02 0.  1.
</event>
<event>
 5   0  0.9421924E-08  0.2900439E+04  0.7818609E-02  0.8272747E-01
       -1   -1    0    0    0  501  0.00000000000E+00  0.00000000000E+00  0.11182657996E+04  0.11182657996E+04  0.50400001928E-02 0. -1.
        1   -1    0    0  501    0  0.00000000000E+00  0.00000000000E+00 -0.18807125468E+04  0.18807125468E+04  0.50400001928E-02 0.  1.
    10030    2    1    2    0    0  0.00000000000E+00  0.00000000000E+00 -0.76244674716E+03  0.29989783464E+04  0.29004389460E+04 0.  0.
        1    1    3    3  502    0  0.32627838338E+03 -0.43163018507E+03  0.10099901550E+04  0.11457933118E+04  0.50400001928E-02 0. -1.
       -1    1    3    3    0  502 -0.32627838338E+03  0.43163018507E+03 -0.17724369022E+04  0.18531850346E+04  0.50400001928E-02 0.  1.
</event>
<event>
 5   0  0.9443352E-08  0.2899634E+04  0.7818609E-02  0.8272986E-01
       -1   -1    0    0    0  501  0.00000000000E+00  0.00000000000E+00  0.10296562531E+04  0.10296562531E+04  0.50400001928E-02 0. -1.
        1   -1    0    0  501    0  0.00000000000E+00  0.00000000000E+00 -0.20414287892E+04  0.20414287892E+04  0.50400001928E-02 0.  1.
    10030    2    1    2    0    0  0.00000000000E+00  0.00000000000E+00 -0.10117725361E+04  0.30710850423E+04  0.28996344032E+04 0.  0.
        4    1    3    3  502    0  0.50349867260E+03 -0.36575830271E+03 -0.18927695696E+04  0.19924528366E+04  0.12699999809E+01 0.  1.
       -4    1    3    3    0  502 -0.50349867260E+03  0.36575830271E+03  0.88099703350E+03  0.10786322057E+04  0.12699999809E+01 0. -1.
</event>
<event>
 5   0  0.2492232E-07  0.2899874E+04  0.7818609E-02  0.8272915E-01
       -2   -1    0    0    0  501  0.00000000000E+00  0.00000000000E+00  0.94225201618E+03  0.94225201618E+03  0.25500000920E-02 0. -1.
        2   -1    0    0  501    0  0.00000000000E+00  0.00000000000E+00 -0.22311625983E+04  0.22311625983E+04  0.25500000920E-02 0.  1.
    10030    2    1    2    0    0  0.00000000000E+00  0.00000000000E+00 -0.12889105821E+04  0.31734146144E+04  0.28998741053E+04 0.  0.
        4    1    3    3  502    0  0.13917065153E+04 -0.32808021669E+03 -0.90762293618E+03  0.16935951879E+04  0.12699999809E+01 0. -1.
       -4    1    3    3    0  502 -0.13917065153E+04  0.32808021669E+03 -0.38128764591E+03  0.14798194265E+04  0.12699999809E+01 0.  1.
</event>
<event>
 5   0  0.2534588E-07  0.2900781E+04  0.7818609E-02  0.8272645E-01
        2   -1    0    0  501    0  0.00000000000E+00  0.00000000000E+00  0.12400621663E+04  0.12400621663E+04  0.25500000920E-02 0.  1.
       -2   -1    0    0    0  501  0.00000000000E+00  0.00000000000E+00 -0.16963931853E+04  0.16963931853E+04  0.25500000920E-02 0. -1.
    10030    2    1    2    0    0  0.00000000000E+00  0.00000000000E+00 -0.45633101898E+03  0.29364553516E+04  0.29007812797E+04 0.  0.
        3    1    3    3  502    0  0.12887049141E+04 -0.57884496692E+03 -0.56054961687E+03  0.15198808291E+04  0.10100000352E+00 0.  1.
       -3    1    3    3    0  502 -0.12887049141E+04  0.57884496692E+03  0.10421859788E+03  0.14165745225E+04  0.10100000352E+00 0. -1.
</event>
<event>
 5   0  0.9421924E-08  0.2909775E+04  0.7818609E-02  0.8269975E-01
       -1   -1    0    0    0  501  0.00000000000E+00  0.00000000000E+00  0.16282908879E+04  0.16282908879E+04  0.50400001928E-02 0. -1.
        1   -1    0    0  501    0  0.00000000000E+00  0.00000000000E+00 -0.12999505713E+04  0.12999505713E+04  0.50400001928E-02 0.  1.
    10030    2    1    2    0    0  0.00000000000E+00  0.00000000000E+00  0.32834031664E+03  0.29282414592E+04  0.29097750222E+04 0.  0.
        1    1    3    3  502    0  0.11070924548E+04 -0.72822982079E+03 -0.44024559068E+03  0.13963482931E+04  0.50400001928E-02 0. -1.
       -1    1    3    3    0  502 -0.11070924548E+04  0.72822982079E+03  0.76858590732E+03  0.15318931661E+04  0.50400001928E-02 0.  1.
</event>
<event>
 5   0  0.2678723E-07  0.2896486E+04  0.7818609E-02  0.8273924E-01
       -2   -1    0    0    0  501  0.00000000000E+00  0.00000000000E+00  0.97947827903E+03  0.97947827904E+03  0.25500000920E-02 0.  1.
        2   -1    0    0  501    0  0.00000000000E+00  0.00000000000E+00 -0.21413515505E+04  0.21413515505E+04  0.25500000920E-02 0. -1.
    10030    2    1    2    0    0  0.00000000000E+00  0.00000000000E+00 -0.11618732714E+04  0.31208298295E+04  0.28964856854E+04 0.  0.
        5    1    3    3  502    0 -0.49075857549E+03 -0.15718865660E+03  0.87734578232E+03  0.10175018255E+04  0.46999998093E+01 0.  1.
       -5    1    3    3    0  502  0.49075857549E+03  0.15718865660E+03 -0.20392190537E+04  0.21033280040E+04  0.46999998093E+01 0. -1.
</event>
<event>
 5   0  0.2534588E-07  0.2900114E+04  0.7818609E-02  0.8272844E-01
        2   -1    0    0  501    0  0.00000000000E+00  0.00000000000E+00  0.92460520553E+03  0.92460520554E+03  0.25500000920E-02 0.  1.
       -2   -1    0    0    0  501  0.00000000000E+00  0.00000000000E+00 -0.22741215691E+04  0.22741215691E+04  0.25500000920E-02 0. -1.
    10030    2    1    2    0    0  0.00000000000E+00  0.00000000000E+00 -0.13495163636E+04  0.31987267747E+04  0.29001135432E+04 0.  0.
        3    1    3    3  502    0  0.75347806588E+02  0.10963661085E+04 -0.17181947822E+04  0.20395806568E+04  0.10100000352E+00 0. -1.
       -3    1    3    3    0  502 -0.75347806588E+02 -0.10963661085E+04  0.36867841861E+03  0.11591461178E+04  0.10100000352E+00 0.  1.
</event>
<event>
 5   0  0.2492232E-07  0.2900101E+04  0.7818609E-02  0.8272847E-01
        2   -1    0    0  501    0  0.00000000000E+00  0.00000000000E+00  0.22407342621E+04  0.22407342621E+04  0.25500000920E-02 0. -1.
       -2   -1    0    0    0  501  0.00000000000E+00  0.00000000000E+00 -0.93837411688E+03  0.93837411688E+03  0.25500000920E-02 0.  1.
    10030    2    1    2    0    0  0.00000000000E+00  0.00000000000E+00  0.13023601452E+04  0.31791083790E+04  0.29001014012E+04 0.  0.
        4    1    3    3  502    0  0.33486476516E+03  0.74750436195E+03 -0.66049262680E+03  0.10522116256E+04  0.12699999809E+01 0.  1.
       -4    1    3    3    0  502 -0.33486476516E+03 -0.74750436195E+03  0.19628527720E+04  0.21268967534E+04  0.12699999809E+01 0. -1.
</event>
<event>
 5   0  0.2608591E-07  0.2899811E+04  0.7818609E-02  0.8272934E-01
        2   -1    0    0  501    0  0.00000000000E+00  0.00000000000E+00  0.11730981805E+04  0.11730981805E+04  0.25500000920E-02 0.  1.
       -2   -1    0    0    0  501  0.00000000000E+00  0.00000000000E+00 -0.17920290306E+04  0.17920290306E+04  0.25500000920E-02 0. -1.
    10030    2    1    2    0    0  0.00000000000E+00  0.00000000000E+00 -0.61893085011E+03  0.29651272111E+04  0.28998110250E+04 0.  0.
        2    1    3    3  502    0 -0.15137228901E+03 -0.11290685247E+04 -0.12266170994E+04  0.16740068136E+04  0.25500000920E-02 0. -1.
       -2    1    3    3    0  502  0.15137228901E+03  0.11290685247E+04  0.60768624931E+03  0.12911203975E+04  0.25500000920E-02 0.  1.
</event>
<event>
 5   0  0.2608591E-07  0.2899155E+04  0.7818609E-02  0.8273129E-01
        2   -1    0    0  501    0  0.00000000000E+00  0.00000000000E+00  0.15311070512E+04  0.15311070512E+04  0.25500000920E-02 0. -1.
       -2   -1    0    0    0  501  0.00000000000E+00  0.00000000000E+00 -0.13723893776E+04  0.13723893776E+04  0.25500000920E-02 0.  1.
    10030    2    1    2    0    0  0.00000000000E+00  0.00000000000E+00  0.15871767360E+03  0.29034964288E+04  0.28991550859E+04 0.  0.
        2    1    3    3  502    0 -0.98171003859E+03 -0.35642502607E+03 -0.92737360706E+03  0.13967158645E+04  0.25500000920E-02 0.  1.
       -2    1    3    3    0  502  0.98171003859E+03  0.35642502607E+03  0.10860912807E+04  0.15067805643E+04  0.25500000920E-02 0. -1.
</event>
<event>
 5   0  0.2608591E-07  0.2899837E+04  0.7818609E-02  0.8272926E-01
        2   -1    0    0  501    0  0.00000000000E+00  0.00000000000E+00  0.17392308131E+04  0.17392308131E+04  0.25500000920E-02 0. -1.
       -2   -1    0    0    0  501  0.00000000000E+00  0.00000000000E+00 -0.12087316609E+04  0.12087316609E+04  0.25500000920E-02 0.  1.
    10030    2    1    2    0    0  0.00000000000E+00  0.00000000000E+00  0.53049915214E+03  0.29479624740E+04  0.28998367881E+04 0.  0.
        2    1    3    3  502    0  0.10577161058E+03 -0.42530283041E+03 -0.11397851080E+04  0.12211389043E+04  0.25500000920E-02 0.  1.
       -2    1    3    3    0  502 -0.10577161058E+03  0.42530283041E+03  0.16702842602E+04  0.17268235697E+04  0.25500000920E-02 0. -1.
</event>
<event>
 5   0  0.2534588E-07  0.2899807E+04  0.7818609E-02  0.8272935E-01
       -2   -1    0    0    0  501  0.00000000000E+00  0.00000000000E+00  0.11704121569E+04  0.11704121569E+04  0.25500000920E-02 0.  1.
        2   -1    0    0  501    0  0.00000000000E+00  0.00000000000E+00 -0.17961365562E+04  0.17961365562E+04  0.25500000920E-02 0. -1.
    10030    2    1    2    0    0  0.00000000000E+00  0.00000000000E+00 -0.62572439935E+03  0.29665487131E+04  0.28998069321E+04 0.  0.
        3    1    3    3  502    0 -0.11029055655E+04 -0.74951087829E+03 -0.89522053340E+03  0.16061092916E+04  0.10100000352E+00 0. -1.
       -3    1    3    3    0  502  0.11029055655E+04  0.74951087829E+03  0.26949613405E+03  0.13604394215E+04  0.10100000352E+00 0.  1.
</event>
<event>
 5   0  0.2492232E-07  0.2900217E+04  0.7818609E-02  0.8272813E-01
       -2   -1    0    0    0  501  0.00000000000E+00  0.00000000000E+00  0.14599615347E+04  0.14599615347E+04  0.25500000920E-02 0.  1.
        2   -1    0    0  501    0  0.00000000000E+00  0.00000000000E+00 -0.14403221087E+04  0.14403221087E+04  0.25500000920E-02 0. -1.
    10030    2    1    2    0    0  0.00000000000E+00  0.00000000000E+00  0.19639426035E+02  0.29002836434E+04  0.29002171480E+04 0.  0.
        4    1    3    3  502    0  0.61193264923E+03 -0.11706312377E+03 -0.12996559638E+04  0.14412746370E+04  0.12699999809E+01 0. -1.
       -4    1    3    3    0  502 -0.61193264923E+03  0.11706312377E+03  0.13192953899E+04  0.14590090064E+04  0.12699999809E+01 0.  1.
</event>
<event>
 5   0  0.2546841E-07  0.2899934E+04  0.7818609E-02  0.8272897E-01
        2   -1    0    0  501    0  0.00000000000E+00  0.00000000000E+00  0.16226153304E+04  0.16226153304E+04  0.25500000920E-02 0. -1.
       -2   -1    0    0    0  501  0.00000000000E+00  0.00000000000E+00 -0.12956887975E+04  0.12956887975E+04  0.25500000920E-02 0.  1.
    10030    2    1    2    0    0  0.00000000000E+00  0.00000000000E+00  0.32692653296E+03  0.29183041279E+04  0.28999341415E+04 0.  0.
        1    1    3    3  502    0 -0.30860411815E+03 -0.45855999717E+03  0.15124362406E+04  0.16102723853E+04  0.50400001928E-02 0. -1.
       -1    1    3    3    0  502  0.30860411815E+03  0.45855999717E+03 -0.11855097077E+04  0.13080317426E+04  0.50400001928E-02 0.  1.
</event>
<event>
 5   0  0.9421924E-08  0.2900572E+04  0.7818609E-02  0.8272707E-01
       -1   -1    0    0    0  501  0.00000000000E+00  0.00000000000E+00  0.11221607326E+04  0.11221607326E+04  0.50400001928E-02 0. -1.
        1   -1    0    0  501    0  0.00000000000E+00  0.00000000000E+00 -0.18743563219E+04  0.18743563219E+04  0.50400001928E-02 0.  1.
    10030    2    1    2    0    0  0.00000000000E+00  0.00000000000E+00 -0.75219558922E+03  0.29965170545E+04  0.29005717115E+04 0.  0.
        1    1    3    3  502    0 -0.21299915543E+03  0.82782611338E+03  0.83426432679E+03  0.11944294375E+04  0.50400001928E-02 0. -1.
       -1    1    3    3    0  502  0.21299915543E+03 -0.82782611338E+03 -0.15864599160E+04  0.18020876170E+04  0.50400001928E-02 0.  1.
</event>
<event>
 5   0  0.9763851E-08  0.2900393E+04  0.7818609E-02  0.8272761E-01
       -1   -1    0    0    0  501  0.00000000000E+00  0.00000000000E+00  0.95171916425E+03  0.95171916426E+03  0.50400001928E-02 0. -1.
        1   -1    0    0  501    0  0.00000000000E+00  0.00000000000E+00 -0.22097585450E+04  0.22097585450E+04  0.50400001928E-02 0.  1.
    10030    2    1    2    0    0  0.00000000000E+00  0.00000000000E+00 -0.12580393808E+04  0.31614777093E+04  0.29003927704E+04 0.  0.
        3    1    3    3  502    0 -0.37127734670E+03 -0.49662289117E+03 -0.20579769720E+04  0.21493604611E+04  0.10100000352E+00 0.  1.
       -3    1    3    3    0  502  0.37127734670E+03  0.49662289117E+03  0.79993759118E+03  0.10121172482E+04  0.10100000352E+00 0. -1.
</event>
<event>
 5   0  0.9421924E-08  0.2902321E+04  0.7818609E-02  0.8272187E-01
        1   -1    0    0  501    0  0.00000000000E+00  0.00000000000E+00  0.16920838905E+04  0.16920838905E+04  0.50400001928E-02 0. -1.
       -1   -1    0    0    0  501  0.00000000000E+00  0.00000000000E+00 -0.12445402303E+04  0.12445402303E+04  0.50400001928E-02 0.  1.
    10030    2    1    2    0    0  0.00000000000E+00  0.00000000000E+00  0.44754366019E+03  0.29366241208E+04  0.29023207781E+04 0.  0.
        1    1    3    3  502    0 -0.24843523020E+03  0.12034470058E+04 -0.55727251425E+03  0.13492803321E+04  0.50400001928E-02 0.  1.
       -1    1    3    3    0  502  0.24843523020E+03 -0.12034470058E+04  0.10048161744E+04  0.15873437888E+04  0.50400001928E-02 0. -1.
</event>
<event>
 5   0  0.2492232E-07  0.2900237E+04  0.7818609E-02  0.8272807E-01
        2   -1    0    0  501    0  0.00000000000E+00  0.00000000000E+00  0.13891478794E+04  0.13891478794E+04  0.25500000920E-02 0. -1.
       -2   -1    0    0    0  501  0.00000000000E+00  0.00000000000E+00 -0.15137651715E+04  0.15137651715E+04  0.25500000920E-02 0.  1.
    10030    2    1    2    0    0  0.00000000000E+00  0.00000000000E+00 -0.12461729202E+03  0.29029130509E+04  0.29002370095E+04 0.  0.
        4    1    3    3  502    0 -0.55887348149E+03  0.97634703096E+02  0.12734525866E+04  0.13941144884E+04  0.12699999809E+01 0. -1.
       -4    1    3    3    0  502  0.55887348149E+03 -0.97634703096E+02 -0.13980698787E+04  0.15087985625E+04  0.12699999809E+01 0.  1.
</event>
<event>
 5   0  0.2608591E-07  0.2899720E+04  0.7818609E-02  0.8272961E-01
       -2   -1    0    0    0  501  0.00000000000E+00  0.00000000000E+00  0.90341816975E+03  0.90341816975E+03  0.25500000920E-02 0. -1.
        2   -1    0    0  501    0  0.00000000000E+00  0.00000000000E+00 -0.23268224597E+04  0.23268224597E+04  0.25500000920E-02 0.  1.
    10030    2    1    2    0    0  0.00000000000E+00  0.00000000000E+00 -0.14234042899E+04  0.32302406294E+04  0.28997197712E+04 0.  0.
        2    1    3    3  502    0  0.83903947129E+03 -0.41808242764E+03  0.52040290166E+03  0.10721937002E+04  0.25500000920E-02 0. -1.
       -2    1    3    3    0  502 -0.83903947129E+03  0.41808242764E+03 -0.19438071916E+04  0.21580469292E+04  0.25500000920E-02 0.  1.
</event>
<event>
 5   0  0.2608591E-07  0.2898823E+04  0.7818609E-02  0.8273228E-01
        2   -1    0    0  501    0  0.00000000000E+00  0.00000000000E+00  0.14065112055E+04  0.14065112055E+04  0.25500000920E-02 0. -1.
       -2   -1    0    0    0  501  0.00000000000E+00  0.00000000000E+00 -0.14936206279E+04  0.14936206279E+04  0.25500000920E-02 0.  1.
    10030    2    1    2    0    0  0.00000000000E+00  0.00000000000E+00 -0.87109422477E+02  0.29001318334E+04  0.28988233130E+04 0.  0.
        2    1    3    3  502    0 -0.11128283269E+04  0.65337349764E+03  0.61667525051E+03  0.14302350076E+04  0.25500000920E-02 0. -1.
       -2    1    3    3    0  502  0.11128283269E+04 -0.65337349764E+03 -0.70378467298E+03  0.14698968258E+04  0.25500000920E-02 0.  1.
</event>
<event>
 5   0  0.2546841E-07  0.2899531E+04  0.7818609E-02  0.8273017E-01
        2   -1    0    0  501    0  0.00000000000E+00  0.00000000000E+00  0.15526954135E+04  0.15526954135E+04  0.25500000920E-02 0.  1.
       -2   -1    0    0    0  501  0.00000000000E+00  0.00000000000E+00 -0.13536587047E+04  0.13536587047E+04  0.25500000920E-02 0. -1.
    10030    2    1    2    0    0  0.00000000000E+00  0.00000000000E+00  0.19903670882E+03  0.29063541182E+04  0.28995307636E+04 0.  0.
        1    1    3    3  502    0 -0.10176717299E+04  0.37727483574E+03  0.10629397279E+04  0.15191553300E+04  0.50400001928E-02 0.  1.
       -1    1    3    3    0  502  0.10176717299E+04 -0.37727483574E+03 -0.86390301910E+03  0.13871987882E+04  0.50400001928E-02 0. -1.
</event>
<event>
 5   0  0.2678723E-07  0.2889290E+04  0.7818609E-02  0.8276071E-01
        2   -1    0    0  501    0  0.00000000000E+00  0.00000000000E+00  0.20130697935E+04  0.20130697935E+04  0.25500000920E-02 0.  1.
       -2   -1    0    0    0  501  0.00000000000E+00  0.00000000000E+00 -0.10367243836E+04  0.10367243836E+04  0.25500000920E-02 0. -1.
    10030    2    1    2    0    0  0.00000000000E+00  0.00000000000E+00  0.97634540989E+03  0.30497941770E+04  0.28892895602E+04 0.  0.
        5    1    3    3  502    0 -0.28732834931E+03 -0.10158200583E+04  0.15291245195E+04  0.18581420444E+04  0.46999998093E+01 0.  1.
       -5    1    3    3    0  502  0.28732834931E+03  0.10158200583E+04 -0.55277910959E+03  0.11916521326E+04  0.46999998093E+01 0. -1.
</event>
<event>
 5   0  0.9395744E-08  0.2906456E+04  0.7818609E-02  0.8270959E-01
        1   -1    0    0  501    0  0.00000000000E+00  0.00000000000E+00  0.18404970148E+04  0.18404970148E+04  0.50400001928E-02 0. -1.
       -1   -1    0    0    0  501  0.00000000000E+00  0.00000000000E+00 -0.11474460063E+04  0.11474460063E+04  0.50400001928E-02 0.  1.
    10030    2    1    2    0    0  0.00000000000E+00  0.00000000000E+00  0.69305100847E+03  0.29879430211E+04  0.29064555384E+04 0.  0.
        2    1    3    3  502    0  0.11723461933E+04 -0.58854731182E+03  0.98942864507E+03  0.16430923830E+04  0.25500000920E-02 0. -1.
       -2    1    3    3    0  502 -0.11723461933E+04  0.58854731182E+03 -0.29637763659E+03  0.13448506381E+04  0.25500000920E-02 0.  1.
</event>
<event>
 5   0  0.9763851E-08  0.2902643E+04  0.7818609E-02  0.8272091E-01
       -1   -1    0    0    0  501  0.00000000000E+00  0.00000000000E+00  0.13134774295E+04  0.13134774295E+04  0.50400001928E-02 0.  1.
        1   -1    0    0  501    0  0.00000000000E+00  0.00000000000E+00 -0.16036320197E+04  0.16036320197E+04  0.50400001928E-02 0. -1.
    10030    2    1    2    0    0  0.00000000000E+00  0.00000000000E+00 -0.29015459017E+03  0.29171094492E+04  0.29026432527E+04 0.  0.
        3    1    3    3  502    0 -0.48041910102E+03 -0.41653853694E+02  0.12306118778E+04  0.13217197737E+04  0.10100000352E+00 0.  1.
       -3    1    3    3    0  502  0.48041910102E+03  0.41653853694E+02 -0.15207664680E+04  0.15953896755E+04  0.10100000352E+00 0. -1.
</event>
<event>
 5   0  0.9421924E-08  0.2904152E+04  0.7818609E-02  0.8271643E-01
        1   -1    0    0  501    0  0.00000000000E+00  0.00000000000E+00  0.67443177123E+03  0.67443177125E+03  0.50400001928E-02 0.  1.
       -1   -1    0    0    0  501  0.00000000000E+00  0.00000000000E+00 -0.31263715029E+04  0.31263715029E+04  0.50400001928E-02 0. -1.
    10030    2    1    2    0    0  0.00000000000E+00  0.00000000000E+00 -0.24519397317E+04  0.38008032741E+04  0.29041516973E+04 0.  0.
        1    1    3    3  502    0 -0.36214175467E+03 -0.13736230241E+04 -0.83217493529E+03  0.16463602235E+04  0.50400001928E-02 0. -1.
       -1    1    3    3    0  502  0.36214175467E+03  0.13736230241E+04 -0.16197647964E+04  0.21544430506E+04  0.50400001928E-02 0.  1.
</event>
<event>
 5   0  0.9395744E-08  0.2901101E+04  0.7818609E-02  0.8272550E-01
       -1   -1    0    0    0  501  0.00000000000E+00  0.00000000000E+00  0.91168306620E+03  0.91168306621E+03  0.50400001928E-02 0. -1.
        1   -1    0    0  501    0  0.00000000000E+00  0.00000000000E+00 -0.23079250112E+04  0.23079250112E+04  0.50400001928E-02 0.  1.
    10030    2    1    2    0    0  0.00000000000E+00  0.00000000000E+00 -0.13962419450E+04  0.32196080774E+04  0.29011005848E+04 0.  0.
        2    1    3    3  502    0 -0.48657661754E+03  0.12606767010E+04 -0.11294179470E+03  0.13560303825E+04  0.25500000920E-02 0. -1.
       -2    1    3    3    0  502  0.48657661754E+03 -0.12606767010E+04 -0.12833001503E+04  0.18635776949E+04  0.25500000920E-02 0.  1.
</event>
<event>
 5   0  0.2534588E-07  0.2895556E+04  0.7818609E-02  0.8274201E-01
       -2   -1    0    0    0  501  0.00000000000E+00  0.00000000000E+00  0.12417782049E+04  0.12417782049E+04  0.25500000920E-02 0. -1.
        2   -1    0    0  501    0  0.00000000000E+00  0.00000000000E+00 -0.16879517645E+04  0.16879517645E+04  0.25500000920E-02 0.  1.
    10030    2    1    2    0    0  0.00000000000E+00  0.00000000000E+00 -0.44617355952E+03  0.29297299694E+04  0.28955563971E+04 0.  0.
        3    1    3    3  502    0 -0.35842750769E+03 -0.11554295050E+04 -0.10278187638E+04  0.15874189871E+04  0.10100000352E+00 0.  1.
       -3    1    3    3    0  502  0.35842750769E+03  0.11554295050E+04  0.58164520425E+03  0.13423109823E+04  0.10100000352E+00 0. -1.
</event>
<event>
 5   0  0.9395744E-08  0.2903031E+04  0.7818609E-02  0.8271976E-01
       -1   -1    0    0    0  501  0.00000000000E+00  0.00000000000E+00  0.11999865774E+04  0.11999865774E+04  0.50400001928E-02 0. -1.
        1   -1    0    0  501    0  0.00000000000E+00  0.00000000000E+00 -0.17557669294E+04  0.17557669294E+04  0.50400001928E-02 0.  1.
    10030    2    1    2    0    0  0.00000000000E+00  0.00000000000E+00 -0.55578035194E+03  0.29557535068E+04  0.29030306566E+04 0.  0.
        2    1    3    3  502    0  0.21270076828E+03 -0.13936526994E+04 -0.62969000907E+03  0.15440268686E+04  0.25500000920E-02 0.  1.
       -2    1    3    3    0  502 -0.21270076828E+03  0.13936526994E+04  0.73909657135E+02  0.14117266382E+04  0.25500000920E-02 0. -1.
</event>
<event>
 5   0  0.2678723E-07  0.2906292E+04  0.7818609E-02  0.8271008E-01
       -2   -1    0    0    0  501  0.00000000000E+00  0.00000000000E+00  0.15897264603E+04  0.15897264603E+04  0.25500000920E-02 0. -1.
        2   -1    0    0  501    0  0.00000000000E+00  0.00000000000E+00 -0.13282993604E+04  0.13282993604E+04  0.25500000920E-02 0.  1.
    10030    2    1    2    0    0  0.00000000000E+00  0.00000000000E+00  0.26142709986E+03  0.29180258207E+04  0.29062915480E+04 0.  0.
        5    1    3    3  502    0  0.39561929189E+03 -0.11980010330E+04  0.85465835224E+03  0.15238714146E+04  0.46999998093E+01 0. -1.
       -5    1    3    3    0  502 -0.39561929189E+03  0.11980010330E+04 -0.59323125238E+03  0.13941544061E+04  0.46999998093E+01 0.  1.
</event>
<event>
 5   0  0.2546841E-07  0.2898818E+04  0.7818609E-02  0.8273229E-01
        2   -1    0    0  501    0  0.00000000000E+00  0.00000000000E+00  0.11541948457E+04  0.11541948457E+04  0.25500000920E-02 0.  1.
       -2   -1    0    0    0  501  0.00000000000E+00  0.00000000000E+00 -0.18201313978E+04  0.18201313978E+04  0.25500000920E-02 0. -1.
    10030    2    1    2    0    0  0.00000000000E+00  0.00000000000E+00 -0.66593655217E+03  0.29743262435E+04  0.28988178817E+04 0.  0.
        1    1    3    3  502    0 -0.13432909992E+04  0.53995746804E+03 -0.26187046625E+03  0.14712446829E+04  0.50400001928E-02 0. -1.
       -1    1    3    3    0  502  0.13432909992E+04 -0.53995746804E+03 -0.40406608592E+03  0.15030815606E+04  0.50400001928E-02 0.  1.
</event>
<event>
 5   0  0.9388076E-08  0.2897401E+04  0.7818609E-02  0.8273651E-01
       -1   -1    0    0    0  501  0.00000000000E+00  0.00000000000E+00  0.11794536387E+04  0.11794536387E+04  0.50400001928E-02 0.  1.
        1   -1    0    0  501    0  0.00000000000E+00  0.00000000000E+00 -0.17794118328E+04  0.17794118328E+04  0.50400001928E-02 0. -1.
    10030    2    1    2    0    0  0.00000000000E+00  0.00000000000E+00 -0.59995819407E+03  0.29588654715E+04  0.28974014295E+04 0.  0.
        5    1    3    3  502    0 -0.69042949653E+02  0.74401544873E+02  0.11758101570E+04  0.11801924140E+04  0.46999998093E+01 0.  1.
       -5    1    3    3    0  502  0.69042949653E+02 -0.74401544873E+02 -0.17757683511E+04  0.17786730575E+04  0.46999998093E+01 0. -1.
</event>
<event>
 5   0  0.9763851E-08  0.2900433E+04  0.7818609E-02  0.8272749E-01
        1   -1    0    0  501    0  0.00000000000E+00  0.00000000000E+00  0.11584242702E+04  0.11584242702E+04  0.50400001928E-02 0. -1.
       -1   -1    0    0    0  501  0.00000000000E+00  0.00000000000E+00 -0.18155074081E+04  0.18155074081E+04  0.50400001928E-02 0.  1.
    10030    2    1    2    0    0  0.00000000000E+00  0.00000000000E+00 -0.65708313795E+03  0.29739316783E+04  0.29004329637E+04 0.  0.
        3    1    3    3  502    0 -0.72263629098E+03  0.41673585436E+03  0.88779758389E+03  0.12182185935E+04  0.10100000352E+00 0. -1.
       -3    1    3    3    0  502  0.72263629098E+03 -0.41673585436E+03 -0.15448807218E+04  0.17557130848E+04  0.10100000352E+00 0.  1.
</event>
<event>
 5   0  0.9421924E-08  0.2897083E+04  0.7818609E-02  0.8273746E-01
       -1   -1    0    0    0  501  0.00000000000E+00  0.00000000000E+00  0.13403588124E+04  0.13403588124E+04  0.50400001928E-02 0.  1.
        1   -1    0    0  501    0  0.00000000000E+00  0.00000000000E+00 -0.15654559647E+04  0.15654559647E+04  0.50400001928E-02 0. -1.
    10030    2    1    2    0    0  0.00000000000E+00  0.00000000000E+00 -0.22509715228E+03  0.29058147771E+04  0.28970831522E+04 0.  0.
        1    1    3    3  502    0  0.26201764176E+03 -0.19478840269E+03  0.13029727410E+04  0.13432549014E+04  0.50400001928E-02 0.  1.
       -1    1    3    3    0  502 -0.26201764176E+03  0.19478840269E+03 -0.15280698933E+04  0.15625598757E+04  0.50400001928E-02 0. -1.
</event>
<event>
 5   0  0.9388076E-08  0.2895152E+04  0.7818609E-02  0.8274321E-01
        1   -1    0    0  501    0  0.00000000000E+00  0.00000000000E+00  0.12866037230E+04  0.12866037230E+04  0.50400001928E-02 0. -1.
       -1   -1    0    0    0  501  0.00000000000E+00  0.00000000000E+00 -0.16286881111E+04  0.16286881111E+04  0.50400001928E-02 0.  1.
    10030    2    1    2    0    0  0.00000000000E+00  0.00000000000E+00 -0.34208438810E+03  0.29152918341E+04  0.28951519389E+04 0.  0.
        5    1    3    3  502    0 -0.43657673412E+03 -0.20272938209E+03  0.12036490359E+04  0.12963377410E+04  0.46999998093E+01 0. -1.
       -5    1    3    3    0  502  0.43657673412E+03  0.20272938209E+03 -0.15457334240E+04  0.16189540930E+04  0.46999998093E+01 0.  1.
</event>
<event>
 5   0  0.2608591E-07  0.2900444E+04  0.7818609E-02  0.8272745E-01
       -2   -1    0    0    0  501  0.00000000000E+00  0.00000000000E+00  0.11683573404E+04  0.11683573404E+04  0.25500000920E-02 0. -1.
        2   -1    0    0  501    0  0.00000000000E+00  0.00000000000E+00 -0.18000857962E+04  0.18000857962E+04  0.25500000920E-02 0.  1.
    10030    2    1    2    0    0  0.00000000000E+00  0.00000000000E+00 -0.63172845587E+03  0.29684431366E+04  0.29004437270E+04 0.  0.
        2    1    3    3  502    0 -0.56788431478E+03  0.10756736914E+04 -0.11240465063E+04  0.16562146702E+04  0.25500000920E-02 0.  1.
       -2    1    3    3    0  502  0.56788431478E+03 -0.10756736914E+04  0.49231805042E+03  0.13122284665E+04  0.25500000920E-02 0. -1.
</event>
<event>
 5   0  0.9395744E-08  0.2899526E+04  0.7818609E-02  0.8273019E-01
        1   -1    0    0  501    0  0.00000000000E+00  0.00000000000E+00  0.15437860060E+04  0.15437860060E+04  0.50400001928E-02 0. -1.
       -1   -1    0    0    0  501  0.00000000000E+00  0.00000000000E+00 -0.13614659701E+04  0.13614659701E+04  0.50400001928E-02 0.  1.
    10030    2    1    2    0    0  0.00000000000E+00  0.00000000000E+00  0.18232003597E+03  0.29052519761E+04  0.28995255559E+04 0.  0.
        2    1    3    3  502    0  0.17023196808E+03 -0.14358933664E+04 -0.14135248644E+02  0.14460181492E+04  0.25500000920E-02 0.  1.
       -2    1    3    3    0  502 -0.17023196808E+03  0.14358933664E+04  0.19645528462E+03  0.14592338269E+04  0.25500000920E-02 0. -1.
</event>
<event>
 5   0  0.2678723E-07  0.2899967E+04  0.7818609E-02  0.8272887E-01
       -2   -1    0    0    0  501  0.00000000000E+00  0.00000000000E+00  0.10997872182E+04  0.10997872182E+04  0.25500000920E-02 0. -1.
        2   -1    0    0  501    0  0.00000000000E+00  0.00000000000E+00 -0.19116897205E+04  0.19116897205E+04  0.25500000920E-02 0.  1.
    10030    2    1    2    0    0  0.00000000000E+00  0.00000000000E+00 -0.81190250224E+03  0.30114769387E+04  0.28999668410E+04 0.  0.
        5    1    3    3  502    0 -0.47677223238E+03  0.31739079559E+03 -0.17892308358E+04  0.18786744668E+04  0.46999998093E+01 0.  1.
       -5    1    3    3    0  502  0.47677223238E+03 -0.31739079559E+03  0.97732833354E+03  0.11328024719E+04  0.46999998093E+01 0. -1.
</event>
<event>
 5   0  0.9421924E-08  0.2899187E+04  0.7818609E-02  0.8273119E-01
        1   -1    0    0  501    0  0.00000000000E+00  0.00000000000E+00  0.12686460894E+04  0.12686460894E+04  0.50400001928E-02 0.  1.
       -1   -1    0    0    0  501  0.00000000000E+00  0.00000000000E+00 -0.16563500397E+04  0.16563500397E+04  0.50400001928E-02 0. -1.
    10030    2    1    2    0    0  0.00000000000E+00  0.00000000000E+00 -0.38770395028E+03  0.29249961291E+04  0.28991874728E+04 0.  0.
        1    1    3    3  502    0 -0.92074801701E+03 -0.10131637986E+04  0.28688132752E+03  0.13987775698E+04  0.50400001928E-02 0.  1.
       -1    1    3    3    0  502  0.92074801701E+03  0.10131637986E+04 -0.67458527780E+03  0.15262185593E+04  0.50400001928E-02 0. -1.
</event>
<event>
 5   0  0.2534588E-07  0.2899675E+04  0.7818609E-02  0.8272974E-01
       -2   -1    0    0    0  501  0.00000000000E+00  0.00000000000E+00  0.15826339065E+04  0.15826339065E+04  0.25500000920E-02 0.  1.
        2   -1    0    0  501    0  0.00000000000E+00  0.00000000000E+00 -0.13281842340E+04  0.13281842340E+04  0.25500000920E-02 0. -1.
    10030    2    1    2    0    0  0.00000000000E+00  0.00000000000E+00  0.25444967253E+03  0.29108181405E+04  0.28996754320E+04 0.  0.
        3    1    3    3  502    0  0.53606246696E+03 -0.10594355802E+04  0.96244533020E+03  0.15284200146E+04  0.10100000352E+00 0.  1.
       -3    1    3    3    0  502 -0.53606246696E+03  0.10594355802E+04 -0.70799565767E+03  0.13823981259E+04  0.10100000352E+00 0. -1.
</event>
<event>
 5   0  0.2678723E-07  0.2900329E+04  0.7818609E-02  0.8272780E-01
        2   -1    0    0  501    0  0.00000000000E+00  0.00000000000E+00  0.25638658545E+04  0.25638658545E+04  0.25500000920E-02 0.  1.
       -2   -1    0    0    0  501  0.00000000000E+00  0.00000000000E+00 -0.82023653677E+03  0.82023653677E+03  0.25500000920E-02 0. -1.
    10030    2    1    2    0    0  0.00000000000E+00  0.00000000000E+00  0.17436293177E+04  0.33841023912E+04  0.29003285671E+04 0.  0.
        5    1    3    3  502    0  0.25362698242E+03  0.59147681451E+03  0.23881079199E+04  0.24733081077E+04  0.46999998093E+01 0.  1.
       -5    1    3    3    0  502 -0.25362698242E+03 -0.59147681451E+03 -0.64447860220E+03  0.91079428358E+03  0.46999998093E+01 0. -1.
</event>
<event>
 5   0  0.2678723E-07  0.2904907E+04  0.7818609E-02  0.8271419E-01
       -2   -1    0    0    0  501  0.00000000000E+00  0.00000000000E+00  0.15718988058E+04  0.15718988058E+04  0.25500000920E-02 0.  1.
        2   -1    0    0  501    0  0.00000000000E+00  0.00000000000E+00 -0.13420843924E+04  0.13420843924E+04  0.25500000920E-02 0. -1.
    10030    2    1    2    0    0  0.00000000000E+00  0.00000000000E+00  0.22981441341E+03  0.29139831982E+04  0.29049067824E+04 0.  0.
        5    1    3    3  502    0 -0.53832968193E+02 -0.10062226619E+04  0.11642237454E+04  0.15397470745E+04  0.46999998093E+01 0.  1.
       -5    1    3    3    0  502  0.53832968193E+02  0.10062226619E+04 -0.93440933203E+03  0.13742361237E+04  0.46999998093E+01 0. -1.
</event>
<event>
 5   0  0.2534588E-07  0.2900577E+04  0.7818609E-02  0.8272706E-01
       -2   -1    0    0    0  501  0.00000000000E+00  0.00000000000E+00  0.14661357754E+04  0.14661357754E+04  0.25500000920E-02 0. -1.
        2   -1    0    0  501    0  0.00000000000E+00  0.00000000000E+00 -0.14346127946E+04  0.14346127946E+04  0.25500000920E-02 0.  1.
    10030    2    1    2    0    0  0.00000000000E+00  0.00000000000E+00  0.31522980880E+02  0.29007485700E+04  0.29005772819E+04 0.  0.
        3    1    3    3  502    0 -0.62784070859E+03  0.12801504630E+04  0.28104677017E+03  0.14532571901E+04  0.10100000352E+00 0. -1.
       -3    1    3    3    0  502  0.62784070859E+03 -0.12801504630E+04 -0.24952378929E+03  0.14474913799E+04  0.10100000352E+00 0.  1.
</event>
<event>
 5   0  0.9421924E-08  0.2899658E+04  0.7818609E-02  0.8272979E-01
       -1   -1    0    0    0  501  0.00000000000E+00  0.00000000000E+00  0.17566108850E+04  0.17566108850E+04  0.50400001928E-02 0.  1.
        1   -1    0    0  501    0  0.00000000000E+00  0.00000000000E+00 -0.11966246941E+04  0.11966246941E+04  0.50400001928E-02 0. -1.
    10030    2    1    2    0    0  0.00000000000E+00  0.00000000000E+00  0.55998619094E+03  0.29532355792E+04  0.28996578853E+04 0.  0.
        1    1    3    3  502    0 -0.71540532995E+03 -0.24194780159E+03  0.15404632837E+04  0.17156254409E+04  0.50400001928E-02 0.  1.
       -1    1    3    3    0  502  0.71540532995E+03  0.24194780159E+03 -0.98047709281E+03  0.12376101383E+04  0.50400001928E-02 0. -1.
</event>
<event>
 5   0  0.9443352E-08  0.2900383E+04  0.7818609E-02  0.8272763E-01
        1   -1    0    0  501    0  0.00000000000E+00  0.00000000000E+00  0.30561854010E+04  0.30561854010E+04  0.50400001928E-02 0. -1.
       -1   -1    0    0    0  501  0.00000000000E+00  0.00000000000E+00 -0.68813090242E+03  0.68813090244E+03  0.50400001928E-02 0.  1.
    10030    2    1    2    0    0  0.00000000000E+00  0.00000000000E+00  0.23680544986E+04  0.37443163034E+04  0.29003831595E+04 0.  0.
        4    1    3    3  502    0  0.12317499242E+04 -0.56829158162E+03  0.52210823861E+03  0.14535342525E+04  0.12699999809E+01 0.  1.
       -4    1    3    3    0  502 -0.12317499242E+04  0.56829158162E+03  0.18459462600E+04  0.22907820510E+04  0.12699999809E+01 0. -1.
</event>
<event>
 5   0  0.9388076E-08  0.2899978E+04  0.7818609E-02  0.8272884E-01
        1   -1    0    0  501    0  0.00000000000E+00  0.00000000000E+00  0.82440496014E+03  0.82440496015E+03  0.50400001928E-02 0. -1.
       -1   -1    0    0    0  501  0.00000000000E+00  0.00000000000E+00 -0.25502852363E+04  0.25502852363E+04  0.50400001928E-02 0.  1.
    10030    2    1    2    0    0  0.00000000000E+00  0.00000000000E+00 -0.17258802762E+04  0.33746901965E+04  0.28999777921E+04 0.  0.
        5    1    3    3  502    0 -0.31484948823E+03  0.13625679810E+04 -0.41719170523E+03  0.14593809345E+04  0.46999998093E+01 0. -1.
       -5    1    3    3    0  502  0.31484948823E+03 -0.13625679810E+04 -0.13086885710E+04  0.19153092619E+04  0.46999998093E+01 0.  1.
</event>
<event>
 5   0  0.2608591E-07  0.2900555E+04  0.7818609E-02  0.8272713E-01
       -2   -1    0    0    0  501  0.00000000000E+00  0.00000000000E+00  0.88965999214E+03  0.88965999215E+03  0.25500000920E-02 0. -1.
        2   -1    0    0  501    0  0.00000000000E+00  0.00000000000E+00 -0.23641662683E+04  0.23641662683E+04  0.25500000920E-02 0.  1.
    10030    2    1    2    0    0  0.00000000000E+00  0.00000000000E+00 -0.14745062762E+04  0.32538262605E+04  0.29005545288E+04 0.  0.
        2    1    3    3  502    0 -0.31006894054E+03  0.14104024020E+04 -0.58705636730E+03  0.15588498523E+04  0.25500000920E-02 0. -1.
       -2    1    3    3    0  502  0.31006894054E+03 -0.14104024020E+04 -0.88744990887E+03  0.16949764082E+04  0.25500000920E-02 0.  1.
</event>
<event>
 5   0  0.9763851E-08  0.2898305E+04  0.7818609E-02  0.8273382E-01
        1   -1    0    0  501    0  0.00000000000E+00  0.00000000000E+00  0.14507948137E+04  0.14507948137E+04  0.50400001928E-02 0.  1.
       -1   -1    0    0    0  501  0.00000000000E+00  0.00000000000E+00 -0.14475118096E+04  0.14475118096E+04  0.50400001928E-02 0. -1.
    10030    2    1    2    0    0  0.00000000000E+00  0.00000000000E+00  0.32830040338E+01  0.28983066233E+04  0.28983047639E+04 0.  0.
        3    1    3    3  502    0  0.64742109687E+03 -0.88211818260E+03  0.95177686582E+03  0.14502295602E+04  0.10100000352E+00 0.  1.
       -3    1    3    3    0  502 -0.64742109687E+03  0.88211818260E+03 -0.94849386178E+03  0.14480770631E+04  0.10100000352E+00 0. -1.
</event>
<event>
 5   0  0.9443352E-08  0.2900156E+04  0.7818609E-02  0.8272831E-01
       -1   -1    0    0    0  501  0.00000000000E+00  0.00000000000E+00  0.97137733672E+03  0.97137733673E+03  0.50400001928E-02 0.  1.
        1   -1    0    0  501    0  0.00000000000E+00  0.00000000000E+00 -0.21646857729E+04  0.21646857729E+04  0.50400001928E-02 0. -1.
    10030    2    1    2    0    0  0.00000000000E+00  0.00000000000E+00 -0.11933084362E+04  0.31360631096E+04  0.29001563413E+04 0.  0.
        4    1    3    3  502    0  0.12650986789E+04 -0.58237363476E+03 -0.10333498765E+04  0.17341993247E+04  0.12699999809E+01 0. -1.
       -4    1    3    3    0  502 -0.12650986789E+04  0.58237363476E+03 -0.15995855964E+03  0.14018637849E+04  0.12699999809E+01 0.  1.
</event>
<event>
 5   0  0.2492232E-07  0.2899862E+04  0.7818609E-02  0.8272918E-01
       -2   -1    0    0    0  501  0.00000000000E+00  0.00000000000E+00  0.14706984093E+04  0.14706984093E+04  0.25500000920E-02 0.  1.
        2   -1    0    0  501    0  0.00000000000E+00  0.00000000000E+00 -0.14294569783E+04  0.14294569783E+04  0.25500000920E-02 0. -1.
    10030    2    1    2    0    0  0.00000000000E+00  0.00000000000E+00  0.41241431019E+02  0.29001553876E+04  0.28998621375E+04 0.  0.
        4    1    3    3  502    0  0.21544966289E+03 -0.14338024575E+04  0.11109402084E+02  0.14499424389E+04  0.12699999809E+01 0. -1.
       -4    1    3    3    0  502 -0.21544966289E+03  0.14338024575E+04  0.30132028935E+02  0.14502129487E+04  0.12699999809E+01 0.  1.
</event>
<event>
 5   0  0.9443352E-08  0.2900041E+04  0.7818609E-02  0.8272865E-01
        1   -1    0    0  501    0  0.00000000000E+00  0.00000000000E+00  0.14343414745E+04  0.14343414745E+04  0.50400001928E-02 0.  1.
       -1   -1    0    0    0  501  0.00000000000E+00  0.00000000000E+00 -0.14658713954E+04  0.14658713954E+04  0.50400001928E-02 0. -1.
    10030    2    1    2    0    0  0.00000000000E+00  0.00000000000E+00 -0.31529920904E+02  0.29002128698E+04  0.29000414746E+04 0.  0.
        4    1    3    3  502    0  0.82813228771E+03 -0.59673003279E+02 -0.12046138237E+04  0.14630311106E+04  0.12699999809E+01 0. -1.
       -4    1    3    3    0  502 -0.82813228771E+03  0.59673003279E+02  0.11730839028E+04  0.14371817593E+04  0.12699999809E+01 0.  1.
</event>
<event>
 5   0  0.9443352E-08  0.2901559E+04  0.7818609E-02  0.8272414E-01
       -1   -1    0    0    0  501  0.00000000000E+00  0.00000000000E+00  0.94535652100E+03  0.94535652102E+03  0.50400001928E-02 0.  1.
        1   -1    0    0  501    0  0.00000000000E+00  0.00000000000E+00 -0.22264200830E+04  0.22264200831E+04  0.50400001928E-02 0. -1.
    10030    2    1    2    0    0  0.00000000000E+00  0.00000000000E+00 -0.12810635620E+04  0.31717766041E+04  0.29015587149E+04 0.  0.
        4    1    3    3  502    0 -0.65748607190E+03  0.12901103841E+04 -0.54223288111E+03  0.15461859035E+04  0.12699999809E+01 0.  1.
       -4    1    3    3    0  502  0.65748607190E+03 -0.12901103841E+04 -0.73883068094E+03  0.16255907006E+04  0.12699999809E+01 0. -1.
</event>
<event>
 5   0  0.9421924E-08  0.2899580E+04  0.7818609E-02  0.8273002E-01
       -1   -1    0    0    0  501  0.00000000000E+00  0.00000000000E+00  0.13497219990E+04  0.13497219990E+04  0.50400001928E-02 0.  1.
        1   -1    0    0  501    0  0.00000000000E+00  0.00000000000E+00 -0.15572771928E+04  0.15572771928E+04  0.50400001928E-02 0. -1.
    10030    2    1    2    0    0  0.00000000000E+00  0.00000000000E+00 -0.20755519383E+03  0.29069991918E+04  0.28995801666E+04 0.  0.
        1    1    3    3  502    0 -0.46994457960E+03 -0.13161850260E+04 -0.49038110759E+03  0.14811024817E+04  0.50400001928E-02 0. -1.
       -1    1    3    3    0  502  0.46994457960E+03  0.13161850260E+04  0.28282591376E+03  0.14258967101E+04  0.50400001928E-02 0.  1.
</event>
<event>
 5   0  0.2546841E-07  0.2899429E+04  0.7818609E-02  0.8273047E-01
       -2   -1    0    0    0  501  0.00000000000E+00  0.00000000000E+00  0.76530093190E+03  0.76530093190E+03  0.25500000920E-02 0.  1.
        2   -1    0    0  501    0  0.00000000000E+00  0.00000000000E+00 -0.27462044444E+04  0.27462044444E+04  0.25500000920E-02 0. -1.
    10030    2    1    2    0    0  0.00000000000E+00  0.00000000000E+00 -0.19809035126E+04  0.35115053763E+04  0.28994294753E+04 0.  0.
        1    1    3    3  502    0  0.10485906086E+03 -0.10991881638E+04  0.14725146104E+03  0.11139537849E+04  0.50400001928E-02 0.  1.
       -1    1    3    3    0  502 -0.10485906086E+03  0.10991881638E+04 -0.21281549736E+04  0.23975515915E+04  0.50400001928E-02 0. -1.
</event>
<event>
 5   0  0.9763851E-08  0.2898784E+04  0.7818609E-02  0.8273239E-01
        1   -1    0    0  501    0  0.00000000000E+00  0.00000000000E+00  0.24509967230E+04  0.24509967230E+04  0.50400001928E-02 0.  1.
       -1   -1    0    0    0  501  0.00000000000E+00  0.00000000000E+00 -0.85709500710E+03  0.85709500711E+03  0.50400001928E-02 0. -1.
    10030    2    1    2    0    0  0.00000000000E+00  0.00000000000E+00  0.15939017159E+04  0.33080917301E+04  0.28987839200E+04 0.  0.
        3    1    3    3  502    0  0.74732458543E+03 -0.17339496566E+03 -0.60638958689E+03  0.97788966217E+03  0.10100000352E+00 0. -1.
       -3    1    3    3    0  502 -0.74732458543E+03  0.17339496566E+03  0.22002913028E+04  0.23302020679E+04  0.10100000352E+00 0.  1.
</event>
<event>
 5   0  0.2608591E-07  0.2899844E+04  0.7818609E-02  0.8272924E-01
       -2   -1    0    0    0  501  0.00000000000E+00  0.00000000000E+00  0.10750048292E+04  0.10750048292E+04  0.25500000920E-02 0.  1.
        2   -1    0    0  501    0  0.00000000000E+00  0.00000000000E+00 -0.19555941263E+04  0.19555941263E+04  0.25500000920E-02 0. -1.
    10030    2    1    2    0    0  0.00000000000E+00  0.00000000000E+00 -0.88058929704E+03  0.30305989555E+04  0.28998435336E+04 0.  0.
        2    1    3    3  502    0  0.39756804880E+03  0.85891096548E+03 -0.15882230962E+04  0.18488485615E+04  0.25500000920E-02 0. -1.
       -2    1    3    3    0  502 -0.39756804880E+03 -0.85891096548E+03  0.70763379916E+03  0.11817503940E+04  0.25500000920E-02 0.  1.
</event>
<event>
 5   0  0.2534588E-07  0.2900211E+04  0.7818609E-02  0.8272815E-01
        2   -1    0    0  501    0  0.00000000000E+00  0.00000000000E+00  0.19379931392E+04  0.19379931392E+04  0.25500000920E-02 0.  1.
       -2   -1    0    0    0  501  0.00000000000E+00  0.00000000000E+00 -0.10850429112E+04  0.10850429112E+04  0.25500000920E-02 0. -1.
    10030    2    1    2    0    0  0.00000000000E+00  0.00000000000E+00  0.85295022801E+03  0.30230360503E+04  0.29002108320E+04 0.  0.
        3    1    3    3  502    0 -0.14602706300E+03  0.81606726829E+02 -0.10749517892E+04  0.10878901233E+04  0.10100000352E+00 0. -1.
       -3    1    3    3    0  502  0.14602706300E+03 -0.81606726829E+02  0.19279020172E+04  0.19351459271E+04  0.10100000352E+00 0.  1.
</event>
<event>
 5   0  0.9388076E-08  0.2899529E+04  0.7818609E-02  0.8273018E-01
       -1   -1    0    0    0  501  0.00000000000E+00  0.00000000000E+00  0.26412142643E+04  0.26412142643E+04  0.50400001928E-02 0.  1.
        1   -1    0    0  501    0  0.00000000000E+00  0.00000000000E+00 -0.79577686286E+03  0.79577686288E+03  0.50400001928E-02 0. -1.
    10030    2    1    2    0    0  0.00000000000E+00  0.00000000000E+00  0.18454374015E+04  0.34369911272E+04  0.28995290662E+04 0.  0.
        5    1    3    3  502    0  0.13771568006E+04  0.21096237495E+03  0.44749483038E+03  0.14633317090E+04  0.46999998093E+01 0. -1.
       -5    1    3    3    0  502 -0.13771568006E+04 -0.21096237495E+03  0.13979425711E+04  0.19736594182E+04  0.46999998093E+01 0.  1.
</event>
<event>
 5   0  0.2492232E-07  0.2900995E+04  0.7818609E-02  0.8272581E-01
       -2   -1    0    0    0  501  0.00000000000E+00  0.00000000000E+00  0.96110385046E+03  0.96110385047E+03  0.25500000920E-02 0. -1.
        2   -1    0    0  501    0  0.00000000000E+00  0.00000000000E+00 -0.21890903411E+04  0.21890903411E+04  0.25500000920E-02 0.  1.
    10030    2    1    2    0    0  0.00000000000E+00  0.00000000000E+00 -0.12279864907E+04  0.31501941916E+04  0.29009951092E+04 0.  0.
        4    1    3    3  502    0 -0.14235387654E+03  0.32389193975E+03 -0.21415174137E+04  0.21705457980E+04  0.12699999809E+01 0.  1.
       -4    1    3    3    0  502  0.14235387654E+03 -0.32389193975E+03  0.91353092308E+03  0.97964839362E+03  0.12699999809E+01 0. -1.
</event>
<event>
 5   0  0.2492232E-07  0.2897478E+04  0.7818609E-02  0.8273628E-01
        2   -1    0    0  501    0  0.00000000000E+00  0.00000000000E+00  0.15066895688E+04  0.15066895688E+04  0.25500000920E-02 0. -1.
       -2   -1    0    0    0  501  0.00000000000E+00  0.00000000000E+00 -0.13930174242E+04  0.13930174242E+04  0.25500000920E-02 0.  1.
    10030    2    1    2    0    0  0.00000000000E+00  0.00000000000E+00  0.11367214456E+03  0.28997069930E+04  0.28974780912E+04 0.  0.
        4    1    3    3  502    0 -0.14045012886E+04 -0.38032262004E+02  0.41033985598E+03  0.14637112874E+04  0.12699999809E+01 0. -1.
       -4    1    3    3    0  502  0.14045012886E+04  0.38032262004E+02 -0.29666771142E+03  0.14359957056E+04  0.12699999809E+01 0.  1.
</event>
<event>
 5   0  0.2608591E-07  0.2899994E+04  0.7818609E-02  0.8272879E-01
        2   -1    0    0  501    0  0.00000000000E+00  0.00000000000E+00  0.22190604740E+04  0.22190604740E+04  0.25500000920E-02 0.  1.
       -2   -1    0    0    0  501  0.00000000000E+00  0.00000000000E+00 -0.94746935025E+03  0.94746935025E+03  0.25500000920E-02 0. -1.
    10030    2    1    2    0    0  0.00000000000E+00  0.00000000000E+00  0.12715911237E+04  0.31665298242E+04  0.28999943348E+04 0.  0.
        2    1    3    3  502    0 -0.34011000373E+03  0.18004507469E+03  0.21622830282E+04  0.21962602162E+04  0.25500000920E-02 0.  1.
       -2    1    3    3    0  502  0.34011000373E+03 -0.18004507469E+03 -0.89069190444E+03  0.97026960799E+03  0.25500000920E-02 0. -1.
</event>
<event>
 5   0  0.9388076E-08  0.2899844E+04  0.7818609E-02  0.8272924E-01
       -1   -1    0    0    0  501  0.00000000000E+00  0.00000000000E+00  0.18504590956E+04  0.18504590956E+04  0.50400001928E-02 0.  1.
        1   -1    0    0  501    0  0.00000000000E+00  0.00000000000E+00 -0.11360822960E+04  0.11360822960E+04  0.50400001928E-02 0. -1.
    10030    2    1    2    0    0  0.00000000000E+00  0.00000000000E+00  0.71437679966E+03  0.29865413916E+04  0.28998440082E+04 0.  0.
        5    1    3    3  502    0  0.19854520334E+03  0.42987846066E+03  0.17685745869E+04  0.18308724281E+04  0.46999998093E+01 0.  1.
       -5    1    3    3    0  502 -0.19854520334E+03 -0.42987846066E+03 -0.10541977872E+04  0.11556689635E+04  0.46999998093E+01 0. -1.
</event>
<event>
 5   0  0.2534588E-07  0.2898775E+04  0.7818609E-02  0.8273242E-01
        2   -1    0    0  501    0  0.00000000000E+00  0.00000000000E+00  0.10606233275E+04  0.10606233275E+04  0.25500000920E-02 0.  1.
       -2   -1    0    0    0  501  0.00000000000E+00  0.00000000000E+00 -0.19806501926E+04  0.19806501926E+04  0.25500000920E-02 0. -1.
    10030    2    1    2    0    0  0.00000000000E+00  0.00000000000E+00 -0.92002686514E+03  0.30412735201E+04  0.28987747742E+04 0.  0.
        3    1    3    3  502    0  0.88089451108E+03  0.66086017918E+03  0.52865470912E+03  0.12215511155E+04  0.10100000352E+00 0.  1.
       -3    1    3    3    0  502 -0.88089451108E+03 -0.66086017918E+03 -0.14486815743E+04  0.18197224046E+04  0.10100000352E+00 0. -1.
</event>
<event>
 5   0  0.8407500E-08  0.2899646E+04  0.7818609E-02  0.8272983E-01
        3   -1    0    0  501    0  0.00000000000E+00  0.00000000000E+00  0.32686568587E+04  0.32686568603E+04  0.10100000352E+00 0.  1.
       -3   -1    0    0    0  501  0.00000000000E+00  0.00000000000E+00 -0.64307333239E+03  0.64307334033E+03  0.10100000352E+00 0. -1.
    10030    2    1    2    0    0  0.00000000000E+00  0.00000000000E+00  0.26255835263E+04  0.39117302006E+04  0.28996455488E+04 0.  0.
        5    1    3    3  502    0 -0.84023919768E+03 -0.38379777105E+03  0.28202535580E+04  0.29676851012E+04  0.46999998093E+01 0.  1.
       -5    1    3    3    0  502  0.84023919768E+03  0.38379777105E+03 -0.19467003173E+03  0.94404509937E+03  0.46999998093E+01 0. -1.
</event>
<event>
 5   0  0.9763851E-08  0.2895655E+04  0.7818609E-02  0.8274171E-01
        1   -1    0    0  501    0  0.00000000000E+00  0.00000000000E+00  0.10862365198E+04  0.10862365198E+04  0.50400001928E-02 0.  1.
       -1   -1    0    0    0  501  0.00000000000E+00  0.00000000000E+00 -0.19297866421E+04  0.19297866421E+04  0.50400001928E-02 0. -1.
    10030    2    1    2    0    0  0.00000000000E+00  0.00000000000E+00 -0.84355012230E+03  0.30160231619E+04  0.28956551771E+04 0.  0.
        3    1    3    3  502    0  0.13177722965E+04  0.34707624558E+03 -0.93120637542E+03  0.16504941895E+04  0.10100000352E+00 0. -1.
       -3    1    3    3    0  502 -0.13177722965E+04 -0.34707624558E+03  0.87656253126E+02  0.13655289725E+04  0.10100000352E+00 0.  1.
</event>
<event>
 5   0  0.2492232E-07  0.2900330E+04  0.7818609E-02  0.8272779E-01
        2   -1    0    0  501    0  0.00000000000E+00  0.00000000000E+00  0.15611398891E+04  0.15611398891E+04  0.25500000920E-02 0. -1.
       -2   -1    0    0    0  501  0.00000000000E+00  0.00000000000E+00 -0.13470783954E+04  0.13470783954E+04  0.25500000920E-02 0.  1.
    10030    2    1    2    0    0  0.00000000000E+00  0.00000000000E+00  0.21406149374E+03  0.29082182845E+04  0.29003295101E+04 0.  0.
        4    1    3    3  502    0  0.95233339070E+03 -0.56058574996E+03 -0.83455529355E+03  0.13848030261E+04  0.12699999809E+01 0.  1.
       -4    1    3    3    0  502 -0.95233339070E+03  0.56058574996E+03  0.10486167873E+04  0.15234152584E+04  0.12699999809E+01 0. -1.
</event>
<event>
 5   0  0.9443352E-08  0.2899672E+04  0.7818609E-02  0.8272975E-01
       -1   -1    0    0    0  501  0.00000000000E+00  0.00000000000E+00  0.10268809079E+04  0.10268809079E+04  0.50400001928E-02 0.  1.
        1   -1    0    0  501    0  0.00000000000E+00  0.00000000000E+00 -0.20469988418E+04  0.20469988418E+04  0.50400001928E-02 0. -1.
    10030    2    1    2    0    0  0.00000000000E+00  0.00000000000E+00 -0.10201179340E+04  0.30738797497E+04  0.28996717256E+04 0.  0.
        4    1    3    3  502    0 -0.18340883227E+03  0.30367058965E+03  0.98015952485E+03  0.10423861731E+04  0.12699999809E+01 0.  1.
       -4    1    3    3    0  502  0.18340883227E+03 -0.30367058965E+03 -0.20002774588E+04  0.20314935766E+04  0.12699999809E+01 0. -1.
</event>
<event>
 5   0  0.9763851E-08  0.2900052E+04  0.7818609E-02  0.8272862E-01
        1   -1    0    0  501    0  0.00000000000E+00  0.00000000000E+00  0.29301428427E+04  0.29301428427E+04  0.50400001928E-02 0.  1.
       -1   -1    0    0    0  501  0.00000000000E+00  0.00000000000E+00 -0.71756772486E+03  0.71756772487E+03  0.50400001928E-02 0. -1.
    10030    2    1    2    0    0  0.00000000000E+00  0.00000000000E+00  0.22125751178E+04  0.36477105676E+04  0.29000523672E+04 0.  0.
        3    1    3    3  502    0  0.64797933074E+03 -0.83369348626E+03  0.23563074346E+04  0.25820741234E+04  0.10100000352E+00 0.  1.
       -3    1    3    3    0  502 -0.64797933074E+03  0.83369348626E+03 -0.14373231676E+03  0.10656364442E+04  0.10100000352E+00 0. -1.
</event>
<event>
 5   0  0.2608591E-07  0.2898159E+04  0.7818609E-02  0.8273425E-01
        2   -1    0    0  501    0  0.00000000000E+00  0.00000000000E+00  0.19486797271E+04  0.19486797271E+04  0.25500000920E-02 0.  1.
       -2   -1    0    0    0  501  0.00000000000E+00  0.00000000000E+00 -0.10775665267E+04  0.10775665267E+04  0.25500000920E-02 0. -1.
    10030    2    1    2    0    0  0.00000000000E+00  0.00000000000E+00  0.87111320039E+03  0.30262462538E+04  0.28981594471E+04 0.  0.
        2    1    3    3  502    0  0.12722025553E+04  0.64322422071E+03  0.70703811068E+03  0.15912698168E+04  0.25500000920E-02 0.  1.
       -2    1    3    3    0  502 -0.12722025553E+04 -0.64322422071E+03  0.16407508971E+03  0.14349764371E+04  0.25500000920E-02 0. -1.
</event>
<event>
 5   0  0.9763851E-08  0.2899762E+04  0.7818609E-02  0.8272948E-01
       -1   -1    0    0    0  501  0.00000000000E+00  0.00000000000E+00  0.17238444604E+04  0.17238444604E+04  0.50400001928E-02 0.  1.
        1   -1    0    0  501    0  0.00000000000E+00  0.00000000000E+00 -0.12194570141E+04  0.12194570141E+04  0.50400001928E-02 0. -1.
    10030    2    1    2    0    0  0.00000000000E+00  0.00000000000E+00  0.50438744634E+03  0.29433014745E+04  0.28997615202E+04 0.  0.
        3    1    3    3  502    0 -0.15676315038E+03 -0.85845555082E+02 -0.12082326708E+04  0.12213805064E+04  0.10100000352E+00 0. -1.
       -3    1    3    3    0  502  0.15676315038E+03  0.85845555082E+02  0.17126201171E+04  0.17219209681E+04  0.10100000352E+00 0.  1.
</event>
<event>
 5   0  0.2492232E-07  0.2898568E+04  0.7818609E-02  0.8273304E-01
        2   -1    0    0  501    0  0.00000000000E+00  0.00000000000E+00  0.16193611998E+04  0.16193611998E+04  0.25500000920E-02 0. -1.
       -2   -1    0    0    0  501  0.00000000000E+00  0.00000000000E+00 -0.12970693745E+04  0.12970693745E+04  0.25500000920E-02 0.  1.
    10030    2    1    2    0    0  0.00000000000E+00  0.00000000000E+00  0.32229182528E+03  0.29164305742E+04  0.28985677970E+04 0.  0.
        4    1    3    3  502    0  0.91172239221E+03  0.92079221831E+03 -0.49195065347E+03  0.13860422389E+04  0.12699999809E+01 0.  1.
       -4    1    3    3    0  502 -0.91172239221E+03 -0.92079221831E+03  0.81424247876E+03  0.15303883353E+04  0.12699999809E+01 0. -1.
</event>
<event>
 5   0  0.2546841E-07  0.2898656E+04  0.7818609E-02  0.8273278E-01
        2   -1    0    0  501    0  0.00000000000E+00  0.00000000000E+00  0.17659722599E+04  0.17659722599E+04  0.25500000920E-02 0. -1.
       -2   -1    0    0    0  501  0.00000000000E+00  0.00000000000E+00 -0.11894588556E+04  0.11894588556E+04  0.25500000920E-02 0.  1.
    10030    2    1    2    0    0  0.00000000000E+00  0.00000000000E+00  0.57651340429E+03  0.29554311155E+04  0.28986557873E+04 0.  0.
        1    1    3    3  502    0  0.75356646662E+03 -0.64887993684E+03 -0.78673969960E+03  0.12680169348E+04  0.50400001928E-02 0.  1.
       -1    1    3    3    0  502 -0.75356646662E+03  0.64887993684E+03  0.13632531039E+04  0.16874141807E+04  0.50400001928E-02 0. -1.
</event>
<event>
 5   0  0.2534588E-07  0.2899279E+04  0.7818609E-02  0.8273092E-01
        2   -1    0    0  501    0  0.00000000000E+00  0.00000000000E+00  0.18822443287E+04  0.18822443287E+04  0.25500000920E-02 0.  1.
       -2   -1    0    0    0  501  0.00000000000E+00  0.00000000000E+00 -0.11164619058E+04  0.11164619058E+04  0.25500000920E-02 0. -1.
    10030    2    1    2    0    0  0.00000000000E+00  0.00000000000E+00  0.76578242290E+03  0.29987062345E+04  0.28992785933E+04 0.  0.
        3    1    3    3  502    0 -0.17359759864E+03 -0.94898575583E+03  0.15020067916E+04  0.17851427123E+04  0.10100000352E+00 0.  1.
       -3    1    3    3    0  502  0.17359759864E+03  0.94898575583E+03 -0.73622436873E+03  0.12135635222E+04  0.10100000352E+00 0. -1.
</event>
<event>
 5   0  0.2534588E-07  0.2898380E+04  0.7818609E-02  0.8273360E-01
       -2   -1    0    0    0  501  0.00000000000E+00  0.00000000000E+00  0.12354731075E+04  0.12354731075E+04  0.25500000920E-02 0. -1.
        2   -1    0    0  501    0  0.00000000000E+00  0.00000000000E+00 -0.16998768198E+04  0.16998768198E+04  0.25500000920E-02 0.  1.
    10030    2    1    2    0    0  0.00000000000E+00  0.00000000000E+00 -0.46440371232E+03  0.29353499273E+04  0.28983803042E+04 0.  0.
        3    1    3    3  502    0 -0.10915901674E+04 -0.56910229211E+03 -0.10066157371E+04  0.15901955115E+04  0.10100000352E+00 0.  1.
       -3    1    3    3    0  502  0.10915901674E+04  0.56910229211E+03  0.54221202473E+03  0.13451544158E+04  0.10100000352E+00 0. -1.
</event>
<event>
 5   0  0.2678723E-07  0.2899129E+04  0.7818609E-02  0.8273137E-01
        2   -1    0    0  501    0  0.00000000000E+00  0.00000000000E+00  0.29328340361E+04  0.29328340361E+04  0.25500000920E-02 0. -1.
       -2   -1    0    0    0  501  0.00000000000E+00  0.00000000000E+00 -0.71645295116E+03  0.71645295116E+03  0.25500000920E-02 0.  1.
    10030    2    1    2    0    0  0.00000000000E+00  0.00000000000E+00  0.22163810849E+04  0.36492869873E+04  0.28991292489E+04 0.  0.
        5    1    3    3  502    0 -0.27789972063E+03  0.13774832949E+04  0.15559369339E+04  0.20965806244E+04  0.46999998093E+01 0. -1.
       -5    1    3    3    0  502  0.27789972063E+03 -0.13774832949E+04  0.66044415102E+03  0.15527063628E+04  0.46999998093E+01 0.  1.
</event>
<event>
 5   0  0.9763851E-08  0.2901116E+04  0.7818609E-02  0.8272545E-01
        1   -1    0    0  501    0  0.00000000000E+00  0.00000000000E+00  0.14149086472E+04  0.14149086472E+04  0.50400001928E-02 0. -1.
       -1   -1    0    0    0  501  0.00000000000E+00  0.00000000000E+00 -0.14871059022E+04  0.14871059022E+04  0.50400001928E-02 0.  1.
    10030    2    1    2    0    0  0.00000000000E+00  0.00000000000E+00 -0.72197255026E+02  0.29020145494E+04  0.29011163371E+04 0.  0.
        3    1    3    3  502    0  0.12564603835E+04  0.17258922582E+03 -0.74033311284E+03  0.14685274476E+04  0.10100000352E+00 0.  1.
       -3    1    3    3    0  502 -0.12564603835E+04 -0.17258922582E+03  0.66813585782E+03  0.14334871018E+04  0.10100000352E+00 0. -1.
</event>
<event>
 5   0  0.9443352E-08  0.2899812E+04  0.7818609E-02  0.8272933E-01
       -1   -1    0    0    0  501  0.00000000000E+00  0.00000000000E+00  0.13130328793E+04  0.13130328794E+04  0.50400001928E-02 0.  1.
        1   -1    0    0  501    0  0.00000000000E+00  0.00000000000E+00 -0.16010475677E+04  0.16010475677E+04  0.50400001928E-02 0. -1.
    10030    2    1    2    0    0  0.00000000000E+00  0.00000000000E+00 -0.28801468836E+03  0.29140804471E+04  0.28998124752E+04 0.  0.
        4    1    3    3  502    0 -0.13689152929E+04  0.37798006570E+03  0.14971227193E+03  0.14280102893E+04  0.12699999809E+01 0.  1.
       -4    1    3    3    0  502  0.13689152929E+04 -0.37798006570E+03 -0.43772696029E+03  0.14860701578E+04  0.12699999809E+01 0. -1.
</event>
<event>
 5   0  0.2492232E-07  0.2900833E+04  0.7818609E-02  0.8272630E-01
       -2   -1    0    0    0  501  0.00000000000E+00  0.00000000000E+00  0.19001247459E+04  0.19001247459E+04  0.25500000920E-02 0.  1.
        2   -1    0    0  501    0  0.00000000000E+00  0.00000000000E+00 -0.11071419689E+04  0.11071419689E+04  0.25500000920E-02 0. -1.
    10030    2    1    2    0    0  0.00000000000E+00  0.00000000000E+00  0.79298277706E+03  0.30072667148E+04  0.29008328820E+04 0.  0.
        4    1    3    3  502    0  0.65289022739E+03 -0.89491588822E+02  0.17359632190E+04  0.18568371776E+04  0.12699999809E+01 0.  1.
       -4    1    3    3    0  502 -0.65289022739E+03  0.89491588822E+02 -0.94298044190E+03  0.11504295373E+04  0.12699999809E+01 0. -1.
</event>
<event>
 5   0  0.9763851E-08  0.2897588E+04  0.7818609E-02  0.8273595E-01
        1   -1    0    0  501    0  0.00000000000E+00  0.00000000000E+00  0.17192395525E+04  0.17192395525E+04  0.50400001928E-02 0. -1.
       -1   -1    0    0    0  501  0.00000000000E+00  0.00000000000E+00 -0.12208913433E+04  0.12208913434E+04  0.50400001928E-02 0.  1.
    10030    2    1    2    0    0  0.00000000000E+00  0.00000000000E+00  0.49834820916E+03  0.29401308959E+04  0.28975884365E+04 0.  0.
        3    1    3    3  502    0  0.17958157072E+03 -0.58726522037E+03  0.15806421194E+04  0.16957474751E+04  0.10100000352E+00 0. -1.
       -3    1    3    3    0  502 -0.17958157072E+03  0.58726522037E+03 -0.10822939102E+04  0.12443834208E+04  0.10100000352E+00 0.  1.
</event>
<event>
 5   0  0.9395744E-08  0.2900549E+04  0.7818609E-02  0.8272714E-01
       -1   -1    0    0    0  501  0.00000000000E+00  0.00000000000E+00  0.11876923604E+04  0.11876923604E+04  0.50400001928E-02 0.  1.
        1   -1    0    0  501    0  0.00000000000E+00  0.00000000000E+00 -0.17709097192E+04  0.17709097192E+04  0.50400001928E-02 0. -1.
    10030    2    1    2    0    0  0.00000000000E+00  0.00000000000E+00 -0.58321735880E+03  0.29586020797E+04  0.29005488753E+04 0.  0.
        2    1    3    3  502    0  0.49814503172E+03  0.30378506104E+03 -0.16459107480E+04  0.17462691735E+04  0.25500000920E-02 0. -1.
       -2    1    3    3    0  502 -0.49814503172E+03 -0.30378506104E+03  0.10626933892E+04  0.12123329062E+04  0.25500000920E-02 0.  1.
</event>
<event>
 5   0  0.9388076E-08  0.2901962E+04  0.7818609E-02  0.8272294E-01
        1   -1    0    0  501    0  0.00000000000E+00  0.00000000000E+00  0.28637246609E+04  0.28637246609E+04  0.50400001928E-02 0. -1.
       -1   -1    0    0    0  501  0.00000000000E+00  0.00000000000E+00 -0.73517764938E+03  0.73517764940E+03  0.50400001928E-02 0.  1.
    10030    2    1    2    0    0  0.00000000000E+00  0.00000000000E+00  0.21285470115E+04  0.35989023103E+04  0.29019623462E+04 0.  0.
        5    1    3    3  502    0 -0.23177294749E+03 -0.12873272829E+04  0.28544209590E+03  0.13388164596E+04  0.46999998093E+01 0.  1.
       -5    1    3    3    0  502  0.23177294749E+03  0.12873272829E+04  0.18431049156E+04  0.22600858506E+04  0.46999998093E+01 0. -1.
</event>
<event>
 5   0  0.9763851E-08  0.2896714E+04  0.7818609E-02  0.8273856E-01
       -1   -1    0    0    0  501  0.00000000000E+00  0.00000000000E+00  0.21439162638E+04  0.21439162638E+04  0.50400001928E-02 0. -1.
        1   -1    0    0  501    0  0.00000000000E+00  0.00000000000E+00 -0.97846048253E+03  0.97846048255E+03  0.50400001928E-02 0.  1.
    10030    2    1    2    0    0  0.00000000000E+00  0.00000000000E+00  0.11654557813E+04  0.31223767464E+04  0.28967135461E+04 0.  0.
        3    1    3    3  502    0  0.57589787147E+03  0.11976048030E+04  0.12036428908E+04  0.17929505964E+04  0.10100000352E+00 0. -1.
       -3    1    3    3    0  502 -0.57589787147E+03 -0.11976048030E+04 -0.38187109549E+02  0.13294261499E+04  0.10100000352E+00 0.  1.
</event>
<event>
 5   0  0.9388076E-08  0.2900257E+04  0.7818609E-02  0.8272801E-01
       -1   -1    0    0    0  501  0.00000000000E+00  0.00000000000E+00  0.13476412440E+04  0.13476412440E+04  0.50400001928E-02 0. -1.
        1   -1    0    0  501    0  0.00000000000E+00  0.00000000000E+00 -0.15604101637E+04  0.15604101637E+04  0.50400001928E-02 0.  1.
    10030    2    1    2    0    0  0.00000000000E+00  0.00000000000E+00 -0.21276891969E+03  0.29080514077E+04  0.29002572949E+04 0.  0.
        5    1    3    3  502    0 -0.73588451709E+03 -0.86655274910E+03 -0.10090322010E+04  0.15200683413E+04  0.46999998093E+01 0.  1.
       -5    1    3    3    0  502  0.73588451709E+03  0.86655274910E+03  0.79626328133E+03  0.13879830664E+04  0.46999998093E+01 0. -1.
</event>
<event>
 5   0  0.9395744E-08  0.2899338E+04  0.7818609E-02  0.8273075E-01
        1   -1    0    0  501    0  0.00000000000E+00  0.00000000000E+00  0.25898013641E+04  0.25898013641E+04  0.50400001928E-02 0. -1.
       -1   -1    0    0    0  501  0.00000000000E+00  0.00000000000E+00 -0.81146759084E+03  0.81146759085E+03  0.50400001928E-02 0.  1.
    10030    2    1    2    0    0  0.00000000000E+00  0.00000000000E+00  0.17783337732E+04  0.34012689549E+04  0.28993377683E+04 0.  0.
        2    1    3    3  502    0  0.11867850357E+04 -0.62598204935E+03  0.15330240947E+04  0.20372714895E+04  0.25500000920E-02 0.  1.
       -2    1    3    3    0  502 -0.11867850357E+04  0.62598204935E+03  0.24530967854E+03  0.13639974654E+04  0.25500000920E-02 0. -1.
</event>
<event>
 5   0  0.9395744E-08  0.2898304E+04  0.7818609E-02  0.8273382E-01
       -1   -1    0    0    0  501  0.00000000000E+00  0.00000000000E+00  0.99824460069E+03  0.99824460070E+03  0.50400001928E-02 0. -1.
        1   -1    0    0  501    0  0.00000000000E+00  0.00000000000E+00 -0.21037350162E+04  0.21037350162E+04  0.50400001928E-02 0.  1.
    10030    2    1    2    0    0  0.00000000000E+00  0.00000000000E+00 -0.11054904155E+04  0.31019796169E+04  0.28983044155E+04 0.  0.
        2    1    3    3  502    0 -0.46695128715E+03 -0.91701823312E+03 -0.16447792967E+04  0.19401713531E+04  0.25500000920E-02 0.  1.
       -2    1    3    3    0  502  0.46695128715E+03  0.91701823312E+03  0.53928888120E+03  0.11618082638E+04  0.25500000920E-02 0. -1.
</event>
<event>
 5   0  0.2678723E-07  0.2900474E+04  0.7818609E-02  0.8272736E-01
        2   -1    0    0  501    0  0.00000000000E+00  0.00000000000E+00  0.28001677284E+04  0.28001677284E+04  0.25500000920E-02 0.  1.
       -2   -1    0    0    0  501  0.00000000000E+00  0.00000000000E+00 -0.75109347004E+03  0.75109347005E+03  0.25500000920E-02 0. -1.
    10030    2    1    2    0    0  0.00000000000E+00  0.00000000000E+00  0.20490742584E+04  0.35512611984E+04  0.29004742342E+04 0.  0.
        5    1    3    3  502    0 -0.10297622316E+04  0.73872533424E+03  0.16134121430E+03  0.12775673957E+04  0.46999998093E+01 0. -1.
       -5    1    3    3    0  502  0.10297622316E+04 -0.73872533424E+03  0.18877330441E+04  0.22736938028E+04  0.46999998093E+01 0.  1.
</event>
<event>
 5   0  0.9763851E-08  0.2891212E+04  0.7818609E-02  0.8275497E-01
       -1   -1    0    0    0  501  0.00000000000E+00  0.00000000000E+00  0.96633047737E+03  0.96633047738E+03  0.50400001928E-02 0. -1.
        1   -1    0    0  501    0  0.00000000000E+00  0.00000000000E+00 -0.21625893695E+04  0.21625893695E+04  0.50400001928E-02 0.  1.
    10030    2    1    2    0    0  0.00000000000E+00  0.00000000000E+00 -0.11962588921E+04  0.31289198468E+04  0.28912115231E+04 0.  0.
        3    1    3    3  502    0  0.50752328547E+03 -0.10813878095E+04 -0.14791878219E+04  0.19013090497E+04  0.10100000352E+00 0.  1.
       -3    1    3    3    0  502 -0.50752328547E+03  0.10813878095E+04  0.28292892976E+03  0.12276107972E+04  0.10100000352E+00 0. -1.
</event>
<event>
 5   0  0.2678723E-07  0.2886962E+04  0.7818609E-02  0.8276767E-01
        2   -1    0    0  501    0  0.00000000000E+00  0.00000000000E+00  0.10992608288E+04  0.10992608288E+04  0.25500000920E-02 0.  1.
       -2   -1    0    0    0  501  0.00000000000E+00  0.00000000000E+00 -0.18954900076E+04  0.18954900076E+04  0.25500000920E-02 0. -1.
    10030    2    1    2    0    0  0.00000000000E+00  0.00000000000E+00 -0.79622917882E+03  0.29947508363E+04  0.28869623597E+04 0.  0.
        5    1    3    3  502    0 -0.82972656560E+03 -0.11797455780E+04 -0.33789523817E+03  0.14813646022E+04  0.46999998093E+01 0. -1.
       -5    1    3    3    0  502  0.82972656560E+03  0.11797455780E+04 -0.45833394065E+03  0.15133862342E+04  0.46999998093E+01 0.  1.
</event>
<event>
 5   0  0.9763851E-08  0.2898375E+04  0.7818609E-02  0.8273361E-01
       -1   -1    0    0    0  501  0.00000000000E+00  0.00000000000E+00  0.73957152932E+03  0.73957152934E+03  0.50400001928E-02 0. -1.
        1   -1    0    0  501    0  0.00000000000E+00  0.00000000000E+00 -0.28396766223E+04  0.28396766223E+04  0.50400001928E-02 0.  1.
    10030    2    1    2    0    0  0.00000000000E+00  0.00000000000E+00 -0.21001050930E+04  0.35792481516E+04  0.28983747048E+04 0.  0.
        3    1    3    3  502    0 -0.64618412036E+03 -0.12418141559E+04 -0.58718539276E+03  0.15180391994E+04  0.10100000352E+00 0. -1.
       -3    1    3    3    0  502  0.64618412036E+03  0.12418141559E+04 -0.15129197002E+04  0.20612089522E+04  0.10100000352E+00 0.  1.
</event>
<event>
 5   0  0.2492232E-07  0.2899730E+04  0.7818609E-02  0.8272958E-01
       -2   -1    0    0    0  501  0.00000000000E+00  0.00000000000E+00  0.16488641017E+04  0.16488641017E+04  0.25500000920E-02 0.  1.
        2   -1    0    0  501    0  0.00000000000E+00  0.00000000000E+00 -0.12748825654E+04  0.12748825654E+04  0.25500000920E-02 0. -1.
    10030    2    1    2    0    0  0.00000000000E+00  0.00000000000E+00  0.37398153621E+03  0.29237466671E+04  0.28997297088E+04 0.  0.
        4    1    3    3  502    0 -0.27050163706E+03 -0.14232638502E+04  0.12946244138E+03  0.14545147849E+04  0.12699999809E+01 0.  1.
       -4    1    3    3    0  502  0.27050163706E+03  0.14232638502E+04  0.24451909483E+03  0.14692318822E+04  0.12699999809E+01 0. -1.
</event>
<event>
 5   0  0.9443352E-08  0.2901444E+04  0.7818609E-02  0.8272448E-01
       -1   -1    0    0    0  501  0.00000000000E+00  0.00000000000E+00  0.85861126099E+03  0.85861126101E+03  0.50400001928E-02 0.  1.
        1   -1    0    0  501    0  0.00000000000E+00  0.00000000000E+00 -0.24511613642E+04  0.24511613642E+04  0.50400001928E-02 0. -1.
    10030    2    1    2    0    0  0.00000000000E+00  0.00000000000E+00 -0.15925501032E+04  0.33097726252E+04  0.29014442954E+04 0.  0.
        4    1    3    3  502    0 -0.17226878311E+03 -0.12415223849E+04 -0.16295089207E+04  0.20558101326E+04  0.12699999809E+01 0. -1.
       -4    1    3    3    0  502  0.17226878311E+03  0.12415223849E+04  0.36958817495E+02  0.12539624926E+04  0.12699999809E+01 0.  1.
</event>
<event>
 5   0  0.2492232E-07  0.2886300E+04  0.7818609E-02  0.8276965E-01
        2   -1    0    0  501    0  0.00000000000E+00  0.00000000000E+00  0.19891840460E+04  0.19891840460E+04  0.25500000920E-02 0. -1.
       -2   -1    0    0    0  501  0.00000000000E+00  0.00000000000E+00 -0.10470027790E+04  0.10470027790E+04  0.25500000920E-02 0.  1.
    10030    2    1    2    0    0  0.00000000000E+00  0.00000000000E+00  0.94218126702E+03  0.30361868250E+04  0.28862995160E+04 0.  0.
        4    1    3    3  502    0 -0.21474953000E+03 -0.10594844250E+04  0.14768017720E+04  0.18301829674E+04  0.12699999809E+01 0. -1.
       -4    1    3    3    0  502  0.21474953000E+03  0.10594844250E+04 -0.53462050494E+03  0.12060038576E+04  0.12699999809E+01 0.  1.
</event>
<event>
 5   0  0.2608591E-07  0.2898430E+04  0.7818609E-02  0.8273345E-01
        2   -1    0    0  501    0  0.00000000000E+00  0.00000000000E+00  0.18382823697E+04  0.18382823697E+04  0.25500000920E-02 0.  1.
       -2   -1    0    0    0  501  0.00000000000E+00  0.00000000000E+00 -0.11424926700E+04  0.11424926700E+04  0.25500000920E-02 0. -1.
    10030    2    1    2    0    0  0.00000000000E+00  0.00000000000E+00  0.69578969971E+03  0.29807750398E+04  0.28984300115E+04 0.  0.
        2    1    3    3  502    0  0.38528345725E+03 -0.25746652499E+03 -0.10642482379E+04  0.11607569366E+04  0.25500000920E-02 0. -1.
       -2    1    3    3    0  502 -0.38528345725E+03  0.25746652499E+03  0.17600379376E+04  0.18200181032E+04  0.25500000920E-02 0.  1.
</event>
<event>
 5   0  0.9421924E-08  0.2900068E+04  0.7818609E-02  0.8272857E-01
        1   -1    0    0  501    0  0.00000000000E+00  0.00000000000E+00  0.15947466077E+04  0.15947466077E+04  0.50400001928E-02 0. -1.
       -1   -1    0    0    0  501  0.00000000000E+00  0.00000000000E+00 -0.13184535462E+04  0.13184535462E+04  0.50400001928E-02 0.  1.
    10030    2    1    2    0    0  0.00000000000E+00  0.00000000000E+00  0.27629306142E+03  0.29132001539E+04  0.29000684959E+04 0.  0.
        1    1    3    3  502    0  0.13073428270E+04 -0.55939926212E+03  0.42320341247E+03  0.14836353764E+04  0.50400001928E-02 0. -1.
       -1    1    3    3    0  502 -0.13073428270E+04  0.55939926212E+03 -0.14691035106E+03  0.14295647775E+04  0.50400001928E-02 0.  1.
</event>
<event>
 5   0  0.9421924E-08  0.2898939E+04  0.7818609E-02  0.8273193E-01
       -1   -1    0    0    0  501  0.00000000000E+00  0.00000000000E+00  0.13262482611E+04  0.13262482611E+04  0.50400001928E-02 0. -1.
        1   -1    0    0  501    0  0.00000000000E+00  0.00000000000E+00 -0.15841393779E+04  0.15841393779E+04  0.50400001928E-02 0.  1.
    10030    2    1    2    0    0  0.00000000000E+00  0.00000000000E+00 -0.25789111672E+03  0.29103876390E+04  0.28989391821E+04 0.  0.
        1    1    3    3  502    0 -0.94936742696E+03  0.42609981590E+03 -0.11419410009E+04  0.15449559262E+04  0.50400001928E-02 0.  1.
       -1    1    3    3    0  502  0.94936742696E+03 -0.42609981590E+03  0.88404988419E+03  0.13654317128E+04  0.50400001928E-02 0. -1.
</event>
<event>
 5   0  0.2678723E-07  0.2900301E+04  0.7818609E-02  0.8272788E-01
        2   -1    0    0  501    0  0.00000000000E+00  0.00000000000E+00  0.29172814397E+04  0.29172814397E+04  0.25500000920E-02 0.  1.
       -2   -1    0    0    0  501  0.00000000000E+00  0.00000000000E+00 -0.72085461725E+03  0.72085461726E+03  0.25500000920E-02 0. -1.
    10030    2    1    2    0    0  0.00000000000E+00  0.00000000000E+00  0.21964268224E+04  0.36381360569E+04  0.29003005331E+04 0.  0.
        5    1    3    3  502    0  0.87904172572E+03  0.89156653142E+03  0.20159921481E+04  0.23731522637E+04  0.46999998093E+01 0.  1.
       -5    1    3    3    0  502 -0.87904172572E+03 -0.89156653142E+03  0.18043467434E+03  0.12649837933E+04  0.46999998093E+01 0. -1.
</event>
<event>
 5   0  0.2534588E-07  0.2898891E+04  0.7818609E-02  0.8273208E-01
        2   -1    0    0  501    0  0.00000000000E+00  0.00000000000E+00  0.18603971599E+04  0.18603971599E+04  0.25500000920E-02 0.  1.
       -2   -1    0    0    0  501  0.00000000000E+00  0.00000000000E+00 -0.11292707048E+04  0.11292707048E+04  0.25500000920E-02 0. -1.
    10030    2    1    2    0    0  0.00000000000E+00  0.00000000000E+00  0.73112645510E+03  0.29896678648E+04  0.28988908307E+04 0.  0.
        3    1    3    3  502    0 -0.12434832691E+04  0.35760853776E+03  0.10392866737E+04  0.16595937175E+04  0.10100000352E+00 0.  1.
       -3    1    3    3    0  502  0.12434832691E+04 -0.35760853776E+03 -0.30816021862E+03  0.13300741473E+04  0.10100000352E+00 0. -1.
</event>
<event>
 5   0  0.2678723E-07  0.2900496E+04  0.7818609E-02  0.8272730E-01
       -2   -1    0    0    0  501  0.00000000000E+00  0.00000000000E+00  0.18804506779E+04  0.18804506779E+04  0.25500000920E-02 0. -1.
        2   -1    0    0  501    0  0.00000000000E+00  0.00000000000E+00 -0.11184653143E+04  0.11184653143E+04  0.25500000920E-02 0.  1.
    10030    2    1    2    0    0  0.00000000000E+00  0.00000000000E+00  0.76198536357E+03  0.29989159923E+04  0.29004957222E+04 0.  0.
        5    1    3    3  502    0  0.14325791896E+03  0.11241888520E+04 -0.55462935631E+03  0.12617286630E+04  0.46999998093E+01 0.  1.
       -5    1    3    3    0  502 -0.14325791896E+03 -0.11241888520E+04  0.13166147199E+04  0.17371873292E+04  0.46999998093E+01 0. -1.
</event>
<event>
 5   0  0.9395744E-08  0.2900468E+04  0.7818609E-02  0.8272738E-01
       -1   -1    0    0    0  501  0.00000000000E+00  0.00000000000E+00  0.13013498482E+04  0.13013498482E+04  0.50400001928E-02 0.  1.
        1   -1    0    0  501    0  0.00000000000E+00  0.00000000000E+00 -0.16161513671E+04  0.16161513671E+04  0.50400001928E-02 0. -1.
    10030    2    1    2    0    0  0.00000000000E+00  0.00000000000E+00 -0.31480151886E+03  0.29175012153E+04  0.29004677804E+04 0.  0.
        2    1    3    3  502    0  0.12470152744E+04 -0.10990319779E+03 -0.89385653890E+03  0.15382149783E+04  0.25500000920E-02 0. -1.
       -2    1    3    3    0  502 -0.12470152744E+04  0.10990319779E+03  0.57905502004E+03  0.13792862370E+04  0.25500000920E-02 0.  1.
</event>
<event>
 5   0  0.2492232E-07  0.2900295E+04  0.7818609E-02  0.8272790E-01
       -2   -1    0    0    0  501  0.00000000000E+00  0.00000000000E+00  0.12804546069E+04  0.12804546069E+04  0.25500000920E-02 0. -1.
        2   -1    0    0  501    0  0.00000000000E+00  0.00000000000E+00 -0.16423294483E+04  0.16423294483E+04  0.25500000920E-02 0.  1.
    10030    2    1    2    0    0  0.00000000000E+00  0.00000000000E+00 -0.36187484138E+03  0.29227840552E+04  0.29002953699E+04 0.  0.
        4    1    3    3  502    0 -0.96878149749E+02 -0.41508055605E+03  0.12159016640E+04  0.12884470161E+04  0.12699999809E+01 0. -1.
       -4    1    3    3    0  502  0.96878149749E+02  0.41508055605E+03 -0.15777765053E+04  0.16343370392E+04  0.12699999809E+01 0.  1.
</event>
<event>
 5   0  0.9763851E-08  0.2899736E+04  0.7818609E-02  0.8272956E-01
       -1   -1    0    0    0  501  0.00000000000E+00  0.00000000000E+00  0.15480400743E+04  0.15480400744E+04  0.50400001928E-02 0.  1.
        1   -1    0    0  501    0  0.00000000000E+00  0.00000000000E+00 -0.13579213682E+04  0.13579213682E+04  0.50400001928E-02 0. -1.
    10030    2    1    2    0    0  0.00000000000E+00  0.00000000000E+00  0.19011870619E+03  0.29059614425E+04  0.28997356402E+04 0.  0.
        3    1    3    3  502    0  0.55542630505E+03 -0.13376011037E+04  0.28270989905E+02  0.14486111804E+04  0.10100000352E+00 0.  1.
       -3    1    3    3    0  502 -0.55542630505E+03  0.13376011037E+04  0.16184771628E+03  0.14573502621E+04  0.10100000352E+00 0. -1.
</event>
<event>
 5   0  0.2534588E-07  0.2895988E+04  0.7818609E-02  0.8274072E-01
       -2   -1    0    0    0  501  0.00000000000E+00  0.00000000000E+00  0.10517260922E+04  0.10517260922E+04  0.25500000920E-02 0. -1.
        2   -1    0    0  501    0  0.00000000000E+00  0.00000000000E+00 -0.19935675969E+04  0.19935675969E+04  0.25500000920E-02 0.  1.
    10030    2    1    2    0    0  0.00000000000E+00  0.00000000000E+00 -0.94184150464E+03  0.30452936891E+04  0.28959882999E+04 0.  0.
        3    1    3    3  502    0  0.31683347917E+03 -0.14072468135E+04 -0.60376685829E+03  0.15637331860E+04  0.10100000352E+00 0. -1.
       -3    1    3    3    0  502 -0.31683347917E+03  0.14072468135E+04 -0.33807464635E+03  0.14815605031E+04  0.10100000352E+00 0.  1.
</event>
<event>
 5   0  0.9421924E-08  0.2900324E+04  0.7818609E-02  0.8272781E-01
       -1   -1    0    0    0  501  0.00000000000E+00  0.00000000000E+00  0.16130751553E+04  0.16130751553E+04  0.50400001928E-02 0.  1.
        1   -1    0    0  501    0  0.00000000000E+00  0.00000000000E+00 -0.13037021813E+04  0.13037021813E+04  0.50400001928E-02 0. -1.
    10030    2    1    2    0    0  0.00000000000E+00  0.00000000000E+00  0.30937297395E+03  0.29167773366E+04  0.29003238430E+04 0.  0.
        1    1    3    3  502    0  0.59504976027E+03 -0.12192039883E+04  0.66986893143E+03  0.15130323749E+04  0.50400001928E-02 0.  1.
       -1    1    3    3    0  502 -0.59504976027E+03  0.12192039883E+04 -0.36049595748E+03  0.14037449617E+04  0.50400001928E-02 0. -1.
</event>
<event>
 5   0  0.2678723E-07  0.2899025E+04  0.7818609E-02  0.8273168E-01
       -2   -1    0    0    0  501  0.00000000000E+00  0.00000000000E+00  0.13696934790E+04  0.13696934790E+04  0.25500000920E-02 0.  1.
        2   -1    0    0  501    0  0.00000000000E+00  0.00000000000E+00 -0.15339824578E+04  0.15339824578E+04  0.25500000920E-02 0. -1.
    10030    2    1    2    0    0  0.00000000000E+00  0.00000000000E+00 -0.16428897876E+03  0.29036759368E+04  0.28990245045E+04 0.  0.
        5    1    3    3  502    0  0.65508603756E+03  0.41707319900E+03 -0.13080265050E+04  0.15211979483E+04  0.46999998093E+01 0. -1.
       -5    1    3    3    0  502 -0.65508603756E+03 -0.41707319900E+03  0.11437375263E+04  0.13824779886E+04  0.46999998093E+01 0.  1.
</event>
<event>
 5   0  0.9443352E-08  0.2900920E+04  0.7818609E-02  0.8272604E-01
        1   -1    0    0  501    0  0.00000000000E+00  0.00000000000E+00  0.15947553961E+04  0.15947553961E+04  0.50400001928E-02 0. -1.
       -1   -1    0    0    0  501  0.00000000000E+00  0.00000000000E+00 -0.13192208188E+04  0.13192208188E+04  0.50400001928E-02 0.  1.
    10030    2    1    2    0    0  0.00000000000E+00  0.00000000000E+00  0.27553457729E+03  0.29139762149E+04  0.29009202122E+04 0.  0.
        4    1    3    3  502    0  0.10123461545E+04  0.10387146645E+04  0.12998544508E+03  0.14562522857E+04  0.12699999809E+01 0. -1.
       -4    1    3    3    0  502 -0.10123461545E+04 -0.10387146645E+04  0.14554913221E+03  0.14577239292E+04  0.12699999809E+01 0.  1.
</event>
<event>
 5   0  0.2608591E-07  0.2900625E+04  0.7818609E-02  0.8272691E-01
       -2   -1    0    0    0  501  0.00000000000E+00  0.00000000000E+00  0.14569864102E+04  0.14569864102E+04  0.25500000920E-02 0.  1.
        2   -1    0    0  501    0  0.00000000000E+00  0.00000000000E+00 -0.14436695400E+04  0.14436695400E+04  0.25500000920E-02 0. -1.
    10030    2    1    2    0    0  0.00000000000E+00  0.00000000000E+00  0.13316870184E+02  0.29006559501E+04  0.29006253812E+04 0.  0.
        2    1    3    3  502    0  0.14450174620E+04 -0.12208562929E+03  0.27311354061E+02  0.14504227923E+04  0.25500000920E-02 0.  1.
       -2    1    3    3    0  502 -0.14450174620E+04  0.12208562929E+03 -0.13994483877E+02  0.14502331578E+04  0.25500000920E-02 0. -1.
</event>
<event>
 5   0  0.2534588E-07  0.2900259E+04  0.7818609E-02  0.8272800E-01
       -2   -1    0    0    0  501  0.00000000000E+00  0.00000000000E+00  0.92817002363E+03  0.92817002364E+03  0.25500000920E-02 0. -1.
        2   -1    0    0  501    0  0.00000000000E+00  0.00000000000E+00 -0.22656145006E+04  0.22656145006E+04  0.25500000920E-02 0.  1.
    10030    2    1    2    0    0  0.00000000000E+00  0.00000000000E+00 -0.13374444769E+04  0.31937845242E+04  0.29002589295E+04 0.  0.
        3    1    3    3  502    0  0.28357378969E+03  0.14045391738E+04 -0.91429643888E+03  0.16997300884E+04  0.10100000352E+00 0. -1.
       -3    1    3    3    0  502 -0.28357378969E+03 -0.14045391738E+04 -0.42314803805E+03  0.14940544358E+04  0.10100000352E+00 0.  1.
</event>
<event>
 5   0  0.9388076E-08  0.2902225E+04  0.7818609E-02  0.8272216E-01
       -1   -1    0    0    0  501  0.00000000000E+00  0.00000000000E+00  0.13763644560E+04  0.13763644561E+04  0.50400001928E-02 0. -1.
        1   -1    0    0  501    0  0.00000000000E+00  0.00000000000E+00 -0.15299196240E+04  0.15299196240E+04  0.50400001928E-02 0.  1.
    10030    2    1    2    0    0  0.00000000000E+00  0.00000000000E+00 -0.15355516792E+03  0.29062840800E+04  0.29022246578E+04 0.  0.
        5    1    3    3  502    0 -0.11146800646E+04 -0.72165152273E+03 -0.66275615652E+03  0.14841025503E+04  0.46999998093E+01 0.  1.
       -5    1    3    3    0  502  0.11146800646E+04  0.72165152273E+03  0.50920098860E+03  0.14221815297E+04  0.46999998093E+01 0. -1.
</event>
<event>
 5   0  0.9395744E-08  0.2899873E+04  0.7818609E-02  0.8272915E-01
        1   -1    0    0  501    0  0.00000000000E+00  0.00000000000E+00  0.87863148662E+03  0.87863148664E+03  0.50400001928E-02 0.  1.
       -1   -1    0    0    0  501  0.00000000000E+00  0.00000000000E+00 -0.23927155520E+04  0.23927155520E+04  0.50400001928E-02 0. -1.
    10030    2    1    2    0    0  0.00000000000E+00  0.00000000000E+00 -0.15140840654E+04  0.32713470386E+04  0.28998725645E+04 0.  0.
        2    1    3    3  502    0  0.43393319968E+03 -0.22272494142E+03 -0.22973888317E+04  0.23485952962E+04  0.25500000920E-02 0. -1.
       -2    1    3    3    0  502 -0.43393319968E+03  0.22272494142E+03  0.78330476630E+03  0.92275174247E+03  0.25500000920E-02 0.  1.
</event>
<event>
 5   0  0.2492232E-07  0.2902060E+04  0.7818609E-02  0.8272265E-01
       -2   -1    0    0    0  501  0.00000000000E+00  0.00000000000E+00  0.97269079926E+03  0.97269079927E+03  0.25500000920E-02 0. -1.
        2   -1    0    0  501    0  0.00000000000E+00  0.00000000000E+00 -0.21646017687E+04  0.21646017687E+04  0.25500000920E-02 0.  1.
    10030    2    1    2    0    0  0.00000000000E+00  0.00000000000E+00 -0.11919109694E+04  0.31372925679E+04  0.29020601127E+04 0.  0.
        4    1    3    3  502    0  0.10621688773E+04 -0.61712052593E+03 -0.14308550486E+04  0.18858388719E+04  0.12699999809E+01 0.  1.
       -4    1    3    3    0  502 -0.10621688773E+04  0.61712052593E+03  0.23894407923E+03  0.12514536961E+04  0.12699999809E+01 0. -1.
</event>
<event>
 5   0  0.2608591E-07  0.2899419E+04  0.7818609E-02  0.8273050E-01
        2   -1    0    0  501    0  0.00000000000E+00  0.00000000000E+00  0.15737760348E+04  0.15737760348E+04  0.25500000920E-02 0.  1.
       -2   -1    0    0    0  501  0.00000000000E+00  0.00000000000E+00 -0.13354233043E+04  0.13354233043E+04  0.25500000920E-02 0. -1.
    10030    2    1    2    0    0  0.00000000000E+00  0.00000000000E+00  0.23835273051E+03  0.29091993392E+04  0.28994186953E+04 0.  0.
        2    1    3    3  502    0  0.13428848206E+04  0.31230068167E+03 -0.33042651144E+03  0.14177633924E+04  0.25500000920E-02 0. -1.
       -2    1    3    3    0  502 -0.13428848206E+04 -0.31230068167E+03  0.56877924195E+03  0.14914359468E+04  0.25500000920E-02 0.  1.
</event>
<event>
 5   0  0.9395744E-08  0.2900153E+04  0.7818609E-02  0.8272832E-01
       -1   -1    0    0    0  501  0.00000000000E+00  0.00000000000E+00  0.11674487196E+04  0.11674487197E+04  0.50400001928E-02 0.  1.
        1   -1    0    0  501    0  0.00000000000E+00  0.00000000000E+00 -0.18011250859E+04  0.18011250859E+04  0.50400001928E-02 0. -1.
    10030    2    1    2    0    0  0.00000000000E+00  0.00000000000E+00 -0.63367636621E+03  0.29685738055E+04  0.29001525308E+04 0.  0.
        2    1    3    3  502    0 -0.43523860822E+03 -0.12499843542E+04 -0.92311912183E+03  0.16137045718E+04  0.25500000920E-02 0. -1.
       -2    1    3    3    0  502  0.43523860822E+03  0.12499843542E+04  0.28944275562E+03  0.13548692338E+04  0.25500000920E-02 0.  1.
</event>
<event>
 5   0  0.2492232E-07  0.2896367E+04  0.7818609E-02  0.8273959E-01
        2   -1    0    0  501    0  0.00000000000E+00  0.00000000000E+00  0.17069866294E+04  0.17069866294E+04  0.25500000920E-02 0. -1.
       -2   -1    0    0    0  501  0.00000000000E+00  0.00000000000E+00 -0.12286189480E+04  0.12286189480E+04  0.25500000920E-02 0.  1.
    10030    2    1    2    0    0  0.00000000000E+00  0.00000000000E+00  0.47836768133E+03  0.29356055774E+04  0.28963674607E+04 0.  0.
        4    1    3    3  502    0  0.26961090818E+03  0.12688218388E+04 -0.41346164729E+03  0.13614518159E+04  0.12699999809E+01 0.  1.
       -4    1    3    3    0  502 -0.26961090818E+03 -0.12688218388E+04  0.89182932861E+03  0.15741537615E+04  0.12699999809E+01 0. -1.
</event>
<event>
 5   0  0.2678723E-07  0.2900368E+04  0.7818609E-02  0.8272768E-01
       -2   -1    0    0    0  501  0.00000000000E+00  0.00000000000E+00  0.22247565864E+04  0.22247565864E+04  0.25500000920E-02 0. -1.
        2   -1    0    0  501    0  0.00000000000E+00  0.00000000000E+00 -0.94528688484E+03  0.94528688484E+03  0.25500000920E-02 0.  1.
    10030    2    1    2    0    0  0.00000000000E+00  0.00000000000E+00  0.12794697015E+04  0.31700434712E+04  0.29003677167E+04 0.  0.
        5    1    3    3  502    0  0.14238618101E+04 -0.22256041251E+03  0.46317363457E+03  0.15137593922E+04  0.46999998093E+01 0. -1.
       -5    1    3    3    0  502 -0.14238618101E+04  0.22256041251E+03  0.81629606694E+03  0.16562840790E+04  0.46999998093E+01 0.  1.
</event>
<event>
 5   0  0.2492232E-07  0.2899283E+04  0.7818609E-02  0.8273091E-01
        2   -1    0    0  501    0  0.00000000000E+00  0.00000000000E+00  0.18561491111E+04  0.18561491111E+04  0.25500000920E-02 0.  1.
       -2   -1    0    0    0  501  0.00000000000E+00  0.00000000000E+00 -0.11321614690E+04  0.11321614690E+04  0.25500000920E-02 0. -1.
    10030    2    1    2    0    0  0.00000000000E+00  0.00000000000E+00  0.72398764217E+03  0.29883105801E+04  0.28992830178E+04 0.  0.
        4    1    3    3  502    0  0.40184146797E+03  0.10714840224E+04 -0.55522186979E+03  0.12719384864E+04  0.12699999809E+01 0. -1.
       -4    1    3    3    0  502 -0.40184146797E+03 -0.10714840224E+04  0.12792095120E+04  0.17163720937E+04  0.12699999809E+01 0.  1.
</event>
<event>
 5   0  0.2608591E-07  0.2900170E+04  0.7818609E-02  0.8272827E-01
       -2   -1    0    0    0  501  0.00000000000E+00  0.00000000000E+00  0.68383404568E+03  0.68383404568E+03  0.25500000920E-02 0.  1.
        2   -1    0    0  501    0  0.00000000000E+00  0.00000000000E+00 -0.30749363473E+04  0.30749363473E+04  0.25500000920E-02 0. -1.
    10030    2    1    2    0    0  0.00000000000E+00  0.00000000000E+00 -0.23911023017E+04  0.37587703930E+04  0.29001697624E+04 0.  0.
        2    1    3    3  502    0  0.11478254831E+04 -0.73729186688E+03 -0.18326546045E+04  0.22846718661E+04  0.25500000920E-02 0.  1.
       -2    1    3    3    0  502 -0.11478254831E+04  0.73729186688E+03 -0.55844769717E+03  0.14740985269E+04  0.25500000920E-02 0. -1.
</event>
<event>
 5   0  0.2678723E-07  0.2899396E+04  0.7818609E-02  0.8273057E-01
        2   -1    0    0  501    0  0.00000000000E+00  0.00000000000E+00  0.26304690323E+04  0.26304690323E+04  0.25500000920E-02 0. -1.
       -2   -1    0    0    0  501  0.00000000000E+00  0.00000000000E+00 -0.79895418366E+03  0.79895418367E+03  0.25500000920E-02 0.  1.
    10030    2    1    2    0    0  0.00000000000E+00  0.00000000000E+00  0.18315148487E+04  0.34294232160E+04  0.28993959636E+04 0.  0.
        5    1    3    3  502    0 -0.13492753711E+04 -0.25167810290E+03  0.36385922107E+03  0.14199653225E+04  0.46999998093E+01 0.  1.
       -5    1    3    3    0  502  0.13492753711E+04  0.25167810290E+03  0.14676556276E+04  0.20094578935E+04  0.46999998093E+01 0. -1.
</event>
<event>
 5   0  0.9421924E-08  0.2899840E+04  0.7818609E-02  0.8272925E-01
       -1   -1    0    0    0  501  0.00000000000E+00  0.00000000000E+00  0.16013032086E+04  0.16013032086E+04  0.50400001928E-02 0.  1.
        1   -1    0    0  501    0  0.00000000000E+00  0.00000000000E+00 -0.13128483140E+04  0.13128483140E+04  0.50400001928E-02 0. -1.
    10030    2    1    2    0    0  0.00000000000E+00  0.00000000000E+00  0.28845489465E+03  0.29141515226E+04  0.28998401457E+04 0.  0.
        1    1    3    3  502    0 -0.40641803646E+03  0.13458676923E+04  0.50056556565E+03  0.14923475972E+04  0.50400001928E-02 0.  1.
       -1    1    3    3    0  502  0.40641803646E+03 -0.13458676923E+04 -0.21211067100E+03  0.14218039254E+04  0.50400001928E-02 0. -1.
</event>
<event>
 5   0  0.2534588E-07  0.2900193E+04  0.7818609E-02  0.8272820E-01
       -2   -1    0    0    0  501  0.00000000000E+00  0.00000000000E+00  0.81448855608E+03  0.81448855609E+03  0.25500000920E-02 0.  1.
        2   -1    0    0  501    0  0.00000000000E+00  0.00000000000E+00 -0.25817183584E+04  0.25817183584E+04  0.25500000920E-02 0. -1.
    10030    2    1    2    0    0  0.00000000000E+00  0.00000000000E+00 -0.17672298023E+04  0.33962069145E+04  0.29001931370E+04 0.  0.
        3    1    3    3  502    0 -0.36109479326E+02 -0.14712898342E+03 -0.25724259382E+04  0.25768830105E+04  0.10100000352E+00 0. -1.
       -3    1    3    3    0  502  0.36109479326E+02  0.14712898342E+03  0.80519613585E+03  0.81932390399E+03  0.10100000352E+00 0.  1.
</event>
<event>
 5   0  0.9421924E-08  0.2896959E+04  0.7818609E-02  0.8273783E-01
        1   -1    0    0  501    0  0.00000000000E+00  0.00000000000E+00  0.18933016973E+04  0.18933016973E+04  0.50400001928E-02 0. -1.
       -1   -1    0    0    0  501  0.00000000000E+00  0.00000000000E+00 -0.11081662792E+04  0.11081662792E+04  0.50400001928E-02 0.  1.
    10030    2    1    2    0    0  0.00000000000E+00  0.00000000000E+00  0.78513541808E+03  0.30014679765E+04  0.28969591625E+04 0.  0.
        1    1    3    3  502    0 -0.33584993884E+03 -0.56941810606E+03 -0.94274850802E+03  0.11514368894E+04  0.50400001928E-02 0.  1.
       -1    1    3    3    0  502  0.33584993884E+03  0.56941810606E+03  0.17278839261E+04  0.18500310870E+04  0.50400001928E-02 0. -1.
</event>
<event>
 5   0  0.2608591E-07  0.2902969E+04  0.7818609E-02  0.8271995E-01
       -2   -1    0    0    0  501  0.00000000000E+00  0.00000000000E+00  0.10075678520E+04  0.10075678520E+04  0.25500000920E-02 0. -1.
        2   -1    0    0  501    0  0.00000000000E+00  0.00000000000E+00 -0.20909828284E+04  0.20909828284E+04  0.25500000920E-02 0.  1.
    10030    2    1    2    0    0  0.00000000000E+00  0.00000000000E+00 -0.10834149765E+04  0.30985506804E+04  0.29029688782E+04 0.  0.
        2    1    3    3  502    0  0.81177472336E+03 -0.11512463738E+04 -0.91522806009E+03  0.16798776196E+04  0.25500000920E-02 0.  1.
       -2    1    3    3    0  502 -0.81177472336E+03  0.11512463738E+04 -0.16818691638E+03  0.14186730608E+04  0.25500000920E-02 0. -1.
</event>
<event>
 5   0  0.2678723E-07  0.2900606E+04  0.7818609E-02  0.8272697E-01
        2   -1    0    0  501    0  0.00000000000E+00  0.00000000000E+00  0.14448661473E+04  0.14448661473E+04  0.25500000920E-02 0.  1.
       -2   -1    0    0    0  501  0.00000000000E+00  0.00000000000E+00 -0.14557600390E+04  0.14557600390E+04  0.25500000920E-02 0. -1.
    10030    2    1    2    0    0  0.00000000000E+00  0.00000000000E+00 -0.10893891668E+02  0.29006261863E+04  0.29006057291E+04 0.  0.
        5    1    3    3  502    0  0.53078670409E+03 -0.95434827306E+03 -0.95983366266E+03  0.14538974866E+04  0.46999998093E+01 0. -1.
       -5    1    3    3    0  502 -0.53078670409E+03  0.95434827306E+03  0.94893977099E+03  0.14467286997E+04  0.46999998093E+01 0.  1.
</event>
<event>
 5   0  0.9763851E-08  0.2898716E+04  0.7818609E-02  0.8273259E-01
        1   -1    0    0  501    0  0.00000000000E+00  0.00000000000E+00  0.17255055510E+04  0.17255055510E+04  0.50400001928E-02 0. -1.
       -1   -1    0    0    0  501  0.00000000000E+00  0.00000000000E+00 -0.12174051000E+04  0.12174051000E+04  0.50400001928E-02 0.  1.
    10030    2    1    2    0    0  0.00000000000E+00  0.00000000000E+00  0.50810045104E+03  0.29429106510E+04  0.28987164455E+04 0.  0.
        3    1    3    3  502    0 -0.12349609648E+04 -0.45236926744E+03 -0.36422775619E+03  0.13647081766E+04  0.10100000352E+00 0.  1.
       -3    1    3    3    0  502  0.12349609648E+04  0.45236926744E+03  0.87232820723E+03  0.15782024744E+04  0.10100000352E+00 0. -1.
</event>
<event>
 5   0  0.9421924E-08  0.2900412E+04  0.7818609E-02  0.8272755E-01
       -1   -1    0    0    0  501  0.00000000000E+00  0.00000000000E+00  0.11423524025E+04  0.11423524025E+04  0.50400001928E-02 0. -1.
        1   -1    0    0  501    0  0.00000000000E+00  0.00000000000E+00 -0.18410236975E+04  0.18410236975E+04  0.50400001928E-02 0.  1.
    10030    2    1    2    0    0  0.00000000000E+00  0.00000000000E+00 -0.69867129495E+03  0.29833761000E+04  0.29004122768E+04 0.  0.
        1    1    3    3  502    0 -0.29354660005E+03 -0.13601961692E+04  0.70751397919E+02  0.13933086469E+04  0.50400001928E-02 0.  1.
       -1    1    3    3    0  502  0.29354660005E+03  0.13601961692E+04 -0.76942269287E+03  0.15900674531E+04  0.50400001928E-02 0. -1.
</event>
<event>
 5   0  0.9388076E-08  0.2900328E+04  0.7818609E-02  0.8272780E-01
        1   -1    0    0  501    0  0.00000000000E+00  0.00000000000E+00  0.18744986356E+04  0.18744986356E+04  0.50400001928E-02 0.  1.
       -1   -1    0    0    0  501  0.00000000000E+00  0.00000000000E+00 -0.11218869999E+04  0.11218869999E+04  0.50400001928E-02 0. -1.
    10030    2    1    2    0    0  0.00000000000E+00  0.00000000000E+00  0.75261163577E+03  0.29963856355E+04  0.29003280163E+04 0.  0.
        5    1    3    3  502    0 -0.12619573748E+04  0.70832907723E+03  0.47259712394E+03  0.15223786090E+04  0.46999998093E+01 0. -1.
       -5    1    3    3    0  502  0.12619573748E+04 -0.70832907723E+03  0.28001451183E+03  0.14740070265E+04  0.46999998093E+01 0.  1.
</event>
<event>
 5   0  0.8407500E-08  0.2898376E+04  0.7818609E-02  0.8273361E-01
        3   -1    0    0  501    0  0.00000000000E+00  0.00000000000E+00  0.30499448995E+04  0.30499449012E+04  0.10100000352E+00 0.  1.
       -3   -1    0    0    0  501  0.00000000000E+00  0.00000000000E+00 -0.68858489746E+03  0.68858490487E+03  0.10100000352E+00 0. -1.
    10030    2    1    2    0    0  0.00000000000E+00  0.00000000000E+00  0.23613600020E+04  0.37385298060E+04  0.28983761059E+04 0.  0.
        5    1    3    3  502    0 -0.12036552497E+04  0.80373376549E+03  0.10863341353E+04  0.18096734151E+04  0.46999998093E+01 0.  1.
       -5    1    3    3    0  502  0.12036552497E+04 -0.80373376549E+03  0.12750258668E+04  0.19288563909E+04  0.46999998093E+01 0. -1.
</event>
<event>
 5   0  0.9763851E-08  0.2900509E+04  0.7818609E-02  0.8272726E-01
       -1   -1    0    0    0  501  0.00000000000E+00  0.00000000000E+00  0.15415639479E+04  0.15415639479E+04  0.50400001928E-02 0.  1.
        1   -1    0    0  501    0  0.00000000000E+00  0.00000000000E+00 -0.13643530194E+04  0.13643530194E+04  0.50400001928E-02 0. -1.
    10030    2    1    2    0    0  0.00000000000E+00  0.00000000000E+00  0.17721092847E+03  0.29059169674E+04  0.29005085258E+04 0.  0.
        3    1    3    3  502    0 -0.53476882914E+03  0.13193580727E+04  0.36580530493E+03  0.14698629038E+04  0.10100000352E+00 0.  1.
       -3    1    3    3    0  502  0.53476882914E+03 -0.13193580727E+04 -0.18859437646E+03  0.14360540636E+04  0.10100000352E+00 0. -1.
</event>
<event>
 5   0  0.2678723E-07  0.2903301E+04  0.7818609E-02  0.8271896E-01
        2   -1    0    0  501    0  0.00000000000E+00  0.00000000000E+00  0.18222760265E+04  0.18222760265E+04  0.25500000920E-02 0.  1.
       -2   -1    0    0    0  501  0.00000000000E+00  0.00000000000E+00 -0.11564049268E+04  0.11564049268E+04  0.25500000920E-02 0. -1.
    10030    2    1    2    0    0  0.00000000000E+00  0.00000000000E+00  0.66587109969E+03  0.29786809534E+04  0.29033008629E+04 0.  0.
        5    1    3    3  502    0  0.76421984523E+03  0.10810218432E+04 -0.27803130899E+03  0.13527615075E+04  0.46999998093E+01 0. -1.
       -5    1    3    3    0  502 -0.76421984523E+03 -0.10810218432E+04  0.94390240868E+03  0.16259194459E+04  0.46999998093E+01 0.  1.
</event>
<event>
 5   0  0.8407500E-08  0.2902688E+04  0.7818609E-02  0.8272078E-01
       -3   -1    0    0    0  501  0.00000000000E+00  0.00000000000E+00  0.20163780654E+04  0.20163780679E+04  0.10100000352E+00 0.  1.
        3   -1    0    0  501    0  0.00000000000E+00  0.00000000000E+00 -0.10446447799E+04  0.10446447847E+04  0.10100000352E+00 0. -1.
    10030    2    1    2    0    0  0.00000000000E+00  0.00000000000E+00  0.97173328551E+03  0.30610228526E+04  0.29026876040E+04 0.  0.
        5    1    3    3  502    0 -0.72713704224E+03 -0.23755382588E+03 -0.81478743775E+03  0.11176138676E+04  0.46999998093E+01 0. -1.
       -5    1    3    3    0  502  0.72713704224E+03  0.23755382588E+03  0.17865207233E+04  0.19434089850E+04  0.46999998093E+01 0.  1.
</event>
<event>
 5   0  0.2678723E-07  0.2899978E+04  0.7818609E-02  0.8272884E-01
       -2   -1    0    0    0  501  0.00000000000E+00  0.00000000000E+00  0.11975223473E+04  0.11975223473E+04  0.25500000920E-02 0. -1.
        2   -1    0    0  501    0  0.00000000000E+00  0.00000000000E+00 -0.17556818942E+04  0.17556818942E+04  0.25500000920E-02 0.  1.
    10030    2    1    2    0    0  0.00000000000E+00  0.00000000000E+00 -0.55815954691E+03  0.29532042415E+04  0.28999781399E+04 0.  0.
        5    1    3    3  502    0 -0.13059562833E+03  0.70664828640E+02  0.11897515264E+04  0.11989910428E+04  0.46999998093E+01 0. -1.
       -5    1    3    3    0  502  0.13059562833E+03 -0.70664828640E+02 -0.17479110733E+04  0.17542131987E+04  0.46999998093E+01 0.  1.
</event>
<event>
 5   0  0.9421924E-08  0.2900297E+04  0.7818609E-02  0.8272789E-01
       -1   -1    0    0    0  501  0.00000000000E+00  0.00000000000E+00  0.10418491420E+04  0.10418491420E+04  0.50400001928E-02 0.  1.
        1   -1    0    0  501    0  0.00000000000E+00  0.00000000000E+00 -0.20184602168E+04  0.20184602168E+04  0.50400001928E-02 0. -1.
    10030    2    1    2    0    0  0.00000000000E+00  0.00000000000E+00 -0.97661107475E+03  0.30603093588E+04  0.29002972572E+04 0.  0.
        1    1    3    3  502    0  0.58373569413E+03  0.54554981302E+03  0.78865144532E+03  0.11226500173E+04  0.50400001928E-02 0.  1.
       -1    1    3    3    0  502 -0.58373569413E+03 -0.54554981302E+03 -0.17652625201E+04  0.19376593415E+04  0.50400001928E-02 0. -1.
</event>
<event>
 5   0  0.9388076E-08  0.2899920E+04  0.7818609E-02  0.8272901E-01
       -1   -1    0    0    0  501  0.00000000000E+00  0.00000000000E+00  0.19499405064E+04  0.19499405064E+04  0.50400001928E-02 0. -1.
        1   -1    0    0  501    0  0.00000000000E+00  0.00000000000E+00 -0.10781788045E+04  0.10781788046E+04  0.50400001928E-02 0.  1.
    10030    2    1    2    0    0  0.00000000000E+00  0.00000000000E+00  0.87176170186E+03  0.30281193110E+04  0.28999203604E+04 0.  0.
        5    1    3    3  502    0 -0.13530476270E+04  0.38039605486E+03  0.63868164000E+02  0.14069613612E+04  0.46999998093E+01 0.  1.
       -5    1    3    3    0  502  0.13530476270E+04 -0.38039605486E+03  0.80789353786E+03  0.16211579498E+04  0.46999998093E+01 0. -1.
</event>
<event>
 5   0  0.2534588E-07  0.2900620E+04  0.7818609E-02  0.8272693E-01
        2   -1    0    0  501    0  0.00000000000E+00  0.00000000000E+00  0.21185433814E+04  0.21185433814E+04  0.25500000920E-02 0. -1.
       -2   -1    0    0    0  501  0.00000000000E+00  0.00000000000E+00 -0.99285181976E+03  0.99285181976E+03  0.25500000920E-02 0.  1.
    10030    2    1    2    0    0  0.00000000000E+00  0.00000000000E+00  0.11256915616E+04  0.31113952011E+04  0.29006203829E+04 0.  0.
        3    1    3    3  502    0 -0.96009549770E+03 -0.24252403897E+03  0.16994654553E+04  0.19669224992E+04  0.10100000352E+00 0. -1.
       -3    1    3    3    0  502  0.96009549770E+03  0.24252403897E+03 -0.57377389364E+03  0.11444727019E+04  0.10100000352E+00 0.  1.
</event>
<event>
 5   0  0.2678723E-07  0.2899157E+04  0.7818609E-02  0.8273128E-01
        2   -1    0    0  501    0  0.00000000000E+00  0.00000000000E+00  0.15712571860E+04  0.15712571860E+04  0.25500000920E-02 0. -1.
       -2   -1    0    0    0  501  0.00000000000E+00  0.00000000000E+00 -0.13373230809E+04  0.13373230809E+04  0.25500000920E-02 0.  1.
    10030    2    1    2    0    0  0.00000000000E+00  0.00000000000E+00  0.23393410510E+03  0.29085802670E+04  0.28991574645E+04 0.  0.
        5    1    3    3  502    0 -0.12136310025E+04  0.10628787849E+03  0.90505126148E+03  0.15176749320E+04  0.46999998093E+01 0. -1.
       -5    1    3    3    0  502  0.12136310025E+04 -0.10628787849E+03 -0.67111715638E+03  0.13909053350E+04  0.46999998093E+01 0.  1.
</event>
<event>
 5   0  0.2492232E-07  0.2899665E+04  0.7818609E-02  0.8272977E-01
       -2   -1    0    0    0  501  0.00000000000E+00  0.00000000000E+00  0.15587008577E+04  0.15587008577E+04  0.25500000920E-02 0.  1.
        2   -1    0    0  501    0  0.00000000000E+00  0.00000000000E+00 -0.13485679385E+04  0.13485679385E+04  0.25500000920E-02 0. -1.
    10030    2    1    2    0    0  0.00000000000E+00  0.00000000000E+00  0.21013291922E+03  0.29072687962E+04  0.28996648099E+04 0.  0.
        4    1    3    3  502    0 -0.11604868392E+04  0.68630979607E+03  0.63962644743E+03  0.14922715722E+04  0.12699999809E+01 0.  1.
       -4    1    3    3    0  502  0.11604868392E+04 -0.68630979607E+03 -0.42949352821E+03  0.14149972240E+04  0.12699999809E+01 0. -1.
</event>
<event>
 5   0  0.9763851E-08  0.2901853E+04  0.7818609E-02  0.8272326E-01
        1   -1    0    0  501    0  0.00000000000E+00  0.00000000000E+00  0.18986082830E+04  0.18986082830E+04  0.50400001928E-02 0.  1.
       -1   -1    0    0    0  501  0.00000000000E+00  0.00000000000E+00 -0.11088056992E+04  0.11088056992E+04  0.50400001928E-02 0. -1.
    10030    2    1    2    0    0  0.00000000000E+00  0.00000000000E+00  0.78980258376E+03  0.30074139822E+04  0.29018529837E+04 0.  0.
        3    1    3    3  502    0  0.19761919531E+03 -0.13291597276E+04  0.96204557796E+03  0.16526495794E+04  0.10100000352E+00 0.  1.
       -3    1    3    3    0  502 -0.19761919531E+03  0.13291597276E+04 -0.17224299420E+03  0.13547644028E+04  0.10100000352E+00 0. -1.
</event>
<event>
 5   0  0.9443352E-08  0.2910490E+04  0.7818609E-02  0.8269763E-01
        1   -1    0    0  501    0  0.00000000000E+00  0.00000000000E+00  0.23860906026E+04  0.23860906026E+04  0.50400001928E-02 0. -1.
       -1   -1    0    0    0  501  0.00000000000E+00  0.00000000000E+00 -0.88753456163E+03  0.88753456165E+03  0.50400001928E-02 0.  1.
    10030    2    1    2    0    0  0.00000000000E+00  0.00000000000E+00  0.14985560409E+04  0.32736251642E+04  0.29104899086E+04 0.  0.
        4    1    3    3  502    0 -0.95510386783E+03 -0.77592447291E+03 -0.12446750746E+03  0.12368411213E+04  0.12699999809E+01 0.  1.
       -4    1    3    3    0  502  0.95510386783E+03  0.77592447291E+03  0.16230235484E+04  0.20367840429E+04  0.12699999809E+01 0. -1.
</event>
<event>
 5   0  0.9443352E-08  0.2899922E+04  0.7818609E-02  0.8272901E-01
        1   -1    0    0  501    0  0.00000000000E+00  0.00000000000E+00  0.16316513804E+04  0.16316513804E+04  0.50400001928E-02 0. -1.
       -1   -1    0    0    0  501  0.00000000000E+00  0.00000000000E+00 -0.12885022267E+04  0.12885022268E+04  0.50400001928E-02 0.  1.
    10030    2    1    2    0    0  0.00000000000E+00  0.00000000000E+00  0.34314915365E+03  0.29201536072E+04  0.28999216796E+04 0.  0.
        4    1    3    3  502    0  0.89240269992E+03  0.52285747517E+03 -0.85169527601E+03  0.13398316962E+04  0.12699999809E+01 0.  1.
       -4    1    3    3    0  502 -0.89240269992E+03 -0.52285747517E+03  0.11948444297E+04  0.15803219109E+04  0.12699999809E+01 0. -1.
</event>
<event>
 5   0  0.9443352E-08  0.2898860E+04  0.7818609E-02  0.8273217E-01
       -1   -1    0    0    0  501  0.00000000000E+00  0.00000000000E+00  0.11260886054E+04  0.11260886054E+04  0.50400001928E-02 0.  1.
        1   -1    0    0  501    0  0.00000000000E+00  0.00000000000E+00 -0.18656144426E+04  0.18656144426E+04  0.50400001928E-02 0. -1.
    10030    2    1    2    0    0  0.00000000000E+00  0.00000000000E+00 -0.73952583719E+03  0.29917030481E+04  0.28988598904E+04 0.  0.
        4    1    3    3  502    0  0.10923898402E+04  0.16056515257E+03 -0.13388520050E+04  0.17354028453E+04  0.12699999809E+01 0. -1.
       -4    1    3    3    0  502 -0.10923898402E+04 -0.16056515257E+03  0.59932616785E+03  0.12563002028E+04  0.12699999809E+01 0.  1.
</event>
<event>
 5   0  0.9421924E-08  0.2899945E+04  0.7818609E-02  0.8272894E-01
        1   -1    0    0  501    0  0.00000000000E+00  0.00000000000E+00  0.23615387596E+04  0.23615387596E+04  0.50400001928E-02 0. -1.
       -1   -1    0    0    0  501  0.00000000000E+00  0.00000000000E+00 -0.89027582551E+03  0.89027582552E+03  0.50400001928E-02 0.  1.
    10030    2    1    2    0    0  0.00000000000E+00  0.00000000000E+00  0.14712629341E+04  0.32518145851E+04  0.28999454262E+04 0.  0.
        1    1    3    3  502    0  0.23059475988E+03  0.61250842159E+03  0.21864867657E+04  0.22823375926E+04  0.50400001928E-02 0. -1.
       -1    1    3    3    0  502 -0.23059475988E+03 -0.61250842159E+03 -0.71522383161E+03  0.96947699257E+03  0.50400001928E-02 0.  1.
</event>
<event>
 5   0  0.9388076E-08  0.2897369E+04  0.7818609E-02  0.8273661E-01
       -1   -1    0    0    0  501  0.00000000000E+00  0.00000000000E+00  0.14328014585E+04  0.14328014585E+04  0.50400001928E-02 0. -1.
        1   -1    0    0  501    0  0.00000000000E+00  0.00000000000E+00 -0.14647432978E+04  0.14647432978E+04  0.50400001928E-02 0.  1.
    10030    2    1    2    0    0  0.00000000000E+00  0.00000000000E+00 -0.31941839252E+02  0.28975447564E+04  0.28973686914E+04 0.  0.
        5    1    3    3  502    0  0.12245286546E+04  0.77401933820E+03 -0.25346015260E+02  0.14488757270E+04  0.46999998093E+01 0. -1.
       -5    1    3    3    0  502 -0.12245286546E+04 -0.77401933820E+03 -0.65958239918E+01  0.14486690294E+04  0.46999998093E+01 0.  1.
</event>
<event>
 5   0  0.2492232E-07  0.2899936E+04  0.7818609E-02  0.8272897E-01
        2   -1    0    0  501    0  0.00000000000E+00  0.00000000000E+00  0.12514629577E+04  0.12514629577E+04  0.25500000920E-02 0.  1.
       -2   -1    0    0    0  501  0.00000000000E+00  0.00000000000E+00 -0.16799594092E+04  0.16799594092E+04  0.25500000920E-02 0. -1.
    10030    2    1    2    0    0  0.00000000000E+00  0.00000000000E+00 -0.42849645148E+03  0.29314223669E+04  0.28999358414E+04 0.  0.
        4    1    3    3  502    0  0.12660517683E+04  0.25805990935E+03  0.45086489989E+03  0.13684892282E+04  0.12699999809E+01 0.  1.
       -4    1    3    3    0  502 -0.12660517683E+04 -0.25805990935E+03 -0.87936135137E+03  0.15629331387E+04  0.12699999809E+01 0. -1.
</event>
<event>
 5   0  0.9388076E-08  0.2899708E+04  0.7818609E-02  0.8272964E-01
        1   -1    0    0  501    0  0.00000000000E+00  0.00000000000E+00  0.11785387133E+04  0.11785387133E+04  0.50400001928E-02 0. -1.
       -1   -1    0    0    0  501  0.00000000000E+00  0.00000000000E+00 -0.17836291496E+04  0.17836291496E+04  0.50400001928E-02 0.  1.
    10030    2    1    2    0    0  0.00000000000E+00  0.00000000000E+00 -0.60509043633E+03  0.29621678630E+04  0.28997075736E+04 0.  0.
        5    1    3    3  502    0 -0.65977144602E+03  0.46682095768E+03 -0.15321477237E+04  0.17322583250E+04  0.46999998093E+01 0.  1.
       -5    1    3    3    0  502  0.65977144602E+03 -0.46682095768E+03  0.92705728733E+03  0.12299095379E+04  0.46999998093E+01 0. -1.
</event>
<event>
 5   0  0.2492232E-07  0.2905809E+04  0.7818609E-02  0.8271151E-01
       -2   -1    0    0    0  501  0.00000000000E+00  0.00000000000E+00  0.76120968213E+03  0.76120968213E+03  0.25500000920E-02 0.  1.
        2   -1    0    0  501    0  0.00000000000E+00  0.00000000000E+00 -0.27731273663E+04  0.27731273663E+04  0.25500000920E-02 0. -1.
    10030    2    1    2    0    0  0.00000000000E+00  0.00000000000E+00 -0.20119176842E+04  0.35343370485E+04  0.29058089414E+04 0.  0.
        4    1    3    3  502    0 -0.58952777315E+03  0.13267846038E+04 -0.10729040938E+04  0.18052770390E+04  0.12699999809E+01 0. -1.
       -4    1    3    3    0  502  0.58952777315E+03 -0.13267846038E+04 -0.93901359042E+03  0.17290600094E+04  0.12699999809E+01 0.  1.
</event>
<event>
 5   0  0.9421924E-08  0.2892512E+04  0.7818609E-02  0.8275109E-01
       -1   -1    0    0    0  501  0.00000000000E+00  0.00000000000E+00  0.91563925834E+03  0.91563925836E+03  0.50400001928E-02 0. -1.
        1   -1    0    0  501    0  0.00000000000E+00  0.00000000000E+00 -0.22843670983E+04  0.22843670983E+04  0.50400001928E-02 0.  1.
    10030    2    1    2    0    0  0.00000000000E+00  0.00000000000E+00 -0.13687278399E+04  0.32000063566E+04  0.28925118466E+04 0.  0.
        1    1    3    3  502    0  0.11923272094E+04 -0.70980003402E+03 -0.23335421130E+03  0.14070943289E+04  0.50400001928E-02 0. -1.
       -1    1    3    3    0  502 -0.11923272094E+04  0.70980003402E+03 -0.11353736286E+04  0.17929120277E+04  0.50400001928E-02 0.  1.
</event>
<event>
 5   0  0.2546841E-07  0.2900122E+04  0.7818609E-02  0.8272841E-01
       -2   -1    0    0    0  501  0.00000000000E+00  0.00000000000E+00  0.16897963233E+04  0.16897963233E+04  0.25500000920E-02 0.  1.
        2   -1    0    0  501    0  0.00000000000E+00  0.00000000000E+00 -0.12443373765E+04  0.12443373765E+04  0.25500000920E-02 0. -1.
    10030    2    1    2    0    0  0.00000000000E+00  0.00000000000E+00  0.44545894677E+03  0.29341336997E+04  0.29001218758E+04 0.  0.
        1    1    3    3  502    0 -0.32242650219E+03  0.11307550075E+03  0.16484874693E+04  0.16835248304E+04  0.50400001928E-02 0.  1.
       -1    1    3    3    0  502  0.32242650219E+03 -0.11307550075E+03 -0.12030285225E+04  0.12506088694E+04  0.50400001928E-02 0. -1.
</event>
<event>
 5   0  0.9763851E-08  0.2901979E+04  0.7818609E-02  0.8272289E-01
       -1   -1    0    0    0  501  0.00000000000E+00  0.00000000000E+00  0.78243534719E+03  0.78243534721E+03  0.50400001928E-02 0. -1.
        1   -1    0    0  501    0  0.00000000000E+00  0.00000000000E+00 -0.26907920467E+04  0.26907920467E+04  0.50400001928E-02 0.  1.
    10030    2    1    2    0    0  0.00000000000E+00  0.00000000000E+00 -0.19083566995E+04  0.34732273940E+04  0.29019791931E+04 0.  0.
        3    1    3    3  502    0  0.54816001086E+03  0.16703681374E+03  0.64126514711E+03  0.86000098474E+03  0.10100000352E+00 0. -1.
       -3    1    3    3    0  502 -0.54816001086E+03 -0.16703681374E+03 -0.25496218467E+04  0.26132264092E+04  0.10100000352E+00 0.  1.
</event>
<event>
 5   0  0.2608591E-07  0.2898489E+04  0.7818609E-02  0.8273327E-01
        2   -1    0    0  501    0  0.00000000000E+00  0.00000000000E+00  0.17914073630E+04  0.17914073630E+04  0.25500000920E-02 0.  1.
       -2   -1    0    0    0  501  0.00000000000E+00  0.00000000000E+00 -0.11724357303E+04  0.11724357303E+04  0.25500000920E-02 0. -1.
    10030    2    1    2    0    0  0.00000000000E+00  0.00000000000E+00  0.61897163267E+03  0.29638430933E+04  0.28984892616E+04 0.  0.
        2    1    3    3  502    0  0.17075932774E+03 -0.20483871064E+02 -0.11619638967E+04  0.11746226774E+04  0.25500000920E-02 0. -1.
       -2    1    3    3    0  502 -0.17075932774E+03  0.20483871064E+02  0.17809355294E+04  0.17892204159E+04  0.25500000920E-02 0.  1.
</event>
<event>
 5   0  0.9421924E-08  0.2900517E+04  0.7818609E-02  0.8272724E-01
        1   -1    0    0  501    0  0.00000000000E+00  0.00000000000E+00  0.87669984212E+03  0.87669984214E+03  0.50400001928E-02 0.  1.
       -1   -1    0    0    0  501  0.00000000000E+00  0.00000000000E+00 -0.23990531141E+04  0.23990531141E+04  0.50400001928E-02 0. -1.
    10030    2    1    2    0    0  0.00000000000E+00  0.00000000000E+00 -0.15223532719E+04  0.32757529562E+04  0.29005168411E+04 0.  0.
        1    1    3    3  502    0 -0.55129300661E+03  0.95404821374E+03  0.30373931579E+03  0.11429739915E+04  0.50400001928E-02 0.  1.
       -1    1    3    3    0  502  0.55129300661E+03 -0.95404821374E+03 -0.18260925877E+04  0.21327789647E+04  0.50400001928E-02 0. -1.
</event>
<event>
 5   0  0.9763851E-08  0.2900404E+04  0.7818609E-02  0.8272757E-01
       -1   -1    0    0    0  501  0.00000000000E+00  0.00000000000E+00  0.11394111544E+04  0.11394111544E+04  0.50400001928E-02 0. -1.
        1   -1    0    0  501    0  0.00000000000E+00  0.00000000000E+00 -0.18457659350E+04  0.18457659350E+04  0.50400001928E-02 0.  1.
    10030    2    1    2    0    0  0.00000000000E+00  0.00000000000E+00 -0.70635478059E+03  0.29851770894E+04  0.29004043131E+04 0.  0.
        3    1    3    3  502    0  0.84686173129E+03 -0.47579067587E+03 -0.14614674479E+04  0.17548329466E+04  0.10100000352E+00 0.  1.
       -3    1    3    3    0  502 -0.84686173129E+03  0.47579067587E+03  0.75511266731E+03  0.12303441428E+04  0.10100000352E+00 0. -1.
</event>
<event>
 5   0  0.9421924E-08  0.2899603E+04  0.7818609E-02  0.8272996E-01
        1   -1    0    0  501    0  0.00000000000E+00  0.00000000000E+00  0.22224767832E+04  0.22224767832E+04  0.50400001928E-02 0.  1.
       -1   -1    0    0    0  501  0.00000000000E+00  0.00000000000E+00 -0.94575744867E+03  0.94575744869E+03  0.50400001928E-02 0. -1.
    10030    2    1    2    0    0  0.00000000000E+00  0.00000000000E+00  0.12767193345E+04  0.31682342319E+04  0.28996027123E+04 0.  0.
        1    1    3    3  502    0  0.81724572330E+03  0.11207579668E+04  0.10992625786E+04  0.17698494877E+04  0.50400001928E-02 0.  1.
       -1    1    3    3    0  502 -0.81724572330E+03 -0.11207579668E+04  0.17745675588E+03  0.13983847441E+04  0.50400001928E-02 0. -1.
</event>
<event>
 5   0  0.2678723E-07  0.2899481E+04  0.7818609E-02  0.8273032E-01
        2   -1    0    0  501    0  0.00000000000E+00  0.00000000000E+00  0.18368622420E+04  0.18368622420E+04  0.25500000920E-02 0.  1.
       -2   -1    0    0    0  501  0.00000000000E+00  0.00000000000E+00 -0.11442053491E+04  0.11442053491E+04  0.25500000920E-02 0. -1.
    10030    2    1    2    0    0  0.00000000000E+00  0.00000000000E+00  0.69265689295E+03  0.29810675911E+04  0.28994810590E+04 0.  0.
        5    1    3    3  502    0 -0.49819067137E+03  0.39160371982E+03  0.16869270270E+04  0.18020245012E+04  0.46999998093E+01 0.  1.
       -5    1    3    3    0  502  0.49819067137E+03 -0.39160371982E+03 -0.99427013407E+03  0.11790430899E+04  0.46999998093E+01 0. -1.
</event>
<event>
 5   0  0.2534588E-07  0.2900280E+04  0.7818609E-02  0.8272794E-01
       -2   -1    0    0    0  501  0.00000000000E+00  0.00000000000E+00  0.90811794527E+03  0.90811794528E+03  0.25500000920E-02 0. -1.
        2   -1    0    0  501    0  0.00000000000E+00  0.00000000000E+00 -0.23156755199E+04  0.23156755199E+04  0.25500000920E-02 0.  1.
    10030    2    1    2    0    0  0.00000000000E+00  0.00000000000E+00 -0.14075575747E+04  0.32237934652E+04  0.29002803279E+04 0.  0.
        3    1    3    3  502    0 -0.60516451790E+03  0.79294327341E+03  0.46621105884E+03  0.11010612563E+04  0.10100000352E+00 0. -1.
       -3    1    3    3    0  502  0.60516451790E+03 -0.79294327341E+03 -0.18737686335E+04  0.21227322089E+04  0.10100000352E+00 0.  1.
</event>
<event>
 5   0  0.2546841E-07  0.2900286E+04  0.7818609E-02  0.8272792E-01
        2   -1    0    0  501    0  0.00000000000E+00  0.00000000000E+00  0.24781157770E+04  0.24781157770E+04  0.25500000920E-02 0.  1.
       -2   -1    0    0    0  501  0.00000000000E+00  0.00000000000E+00 -0.84859436841E+03  0.84859436841E+03  0.25500000920E-02 0. -1.
    10030    2    1    2    0    0  0.00000000000E+00  0.00000000000E+00  0.16295214086E+04  0.33267101454E+04  0.29002862567E+04 0.  0.
        1    1    3    3  502    0  0.10784488340E+04  0.22175062989E+03 -0.26776284520E+03  0.11331028950E+04  0.50400001928E-02 0.  1.
       -1    1    3    3    0  502 -0.10784488340E+04 -0.22175062989E+03  0.18972842538E+04  0.21936072504E+04  0.50400001928E-02 0. -1.
</event>
<event>
 5   0  0.9395744E-08  0.2900013E+04  0.7818609E-02  0.8272874E-01
        1   -1    0    0  501    0  0.00000000000E+00  0.00000000000E+00  0.14843562041E+04  0.14843562041E+04  0.50400001928E-02 0.  1.
       -1   -1    0    0    0  501  0.00000000000E+00  0.00000000000E+00 -0.14164513754E+04  0.14164513754E+04  0.50400001928E-02 0. -1.
    10030    2    1    2    0    0  0.00000000000E+00  0.00000000000E+00  0.67904828706E+02  0.29008075796E+04  0.29000126806E+04 0.  0.
        2    1    3    3  502    0  0.98164597572E+03 -0.19553735274E+03 -0.10154560737E+04  0.14258382501E+04  0.25500000920E-02 0. -1.
       -2    1    3    3    0  502 -0.98164597572E+03  0.19553735274E+03  0.10833609024E+04  0.14749693294E+04  0.25500000920E-02 0.  1.
</event>
<event>
 5   0  0.9421924E-08  0.2900586E+04  0.7818609E-02  0.8272703E-01
        1   -1    0    0  501    0  0.00000000000E+00  0.00000000000E+00  0.76815379958E+03  0.76815379959E+03  0.50400001928E-02 0. -1.
       -1   -1    0    0    0  501  0.00000000000E+00  0.00000000000E+00 -0.27381883278E+04  0.27381883278E+04  0.50400001928E-02 0.  1.
    10030    2    1    2    0    0  0.00000000000E+00  0.00000000000E+00 -0.19700345282E+04  0.35063421274E+04  0.29005859877E+04 0.  0.
        1    1    3    3  502    0  0.64927606141E+03 -0.31477361626E+03 -0.25058061668E+04  0.26076246622E+04  0.50400001928E-02 0.  1.
       -1    1    3    3    0  502 -0.64927606141E+03  0.31477361626E+03  0.53577163860E+03  0.89871746515E+03  0.50400001928E-02 0. -1.
</event>
<event>
 5   0  0.2678723E-07  0.2901312E+04  0.7818609E-02  0.8272487E-01
        2   -1    0    0  501    0  0.00000000000E+00  0.00000000000E+00  0.14607211745E+04  0.14607211745E+04  0.25500000920E-02 0.  1.
       -2   -1    0    0    0  501  0.00000000000E+00  0.00000000000E+00 -0.14406597811E+04  0.14406597811E+04  0.25500000920E-02 0. -1.
    10030    2    1    2    0    0  0.00000000000E+00  0.00000000000E+00  0.20061393471E+02  0.29013809556E+04  0.29013115982E+04 0.  0.
        5    1    3    3  502    0  0.13607958702E+04  0.36312559589E+03 -0.33747517688E+03  0.14482876730E+04  0.46999998093E+01 0.  1.
       -5    1    3    3    0  502 -0.13607958702E+04 -0.36312559589E+03  0.35753657035E+03  0.14530932826E+04  0.46999998093E+01 0. -1.
</event>
<event>
 5   0  0.9388076E-08  0.2898580E+04  0.7818609E-02  0.8273300E-01
        1   -1    0    0  501    0  0.00000000000E+00  0.00000000000E+00  0.19193888931E+04  0.19193888931E+04  0.50400001928E-02 0. -1.
       -1   -1    0    0    0  501  0.00000000000E+00  0.00000000000E+00 -0.10943283678E+04  0.10943283678E+04  0.50400001928E-02 0.  1.
    10030    2    1    2    0    0  0.00000000000E+00  0.00000000000E+00  0.82506052530E+03  0.30137172609E+04  0.28985801453E+04 0.  0.
        5    1    3    3  502    0 -0.14135089268E+04 -0.18929405172E+03  0.14424997518E+03  0.14334119679E+04  0.46999998093E+01 0.  1.
       -5    1    3    3    0  502  0.14135089268E+04  0.18929405172E+03  0.68081055012E+03  0.15803052931E+04  0.46999998093E+01 0. -1.
</event>
<event>
 5   0  0.9443352E-08  0.2882675E+04  0.7818609E-02  0.8278051E-01
       -1   -1    0    0    0  501  0.00000000000E+00  0.00000000000E+00  0.10539530012E+04  0.10539530012E+04  0.50400001928E-02 0. -1.
        1   -1    0    0  501    0  0.00000000000E+00  0.00000000000E+00 -0.19711061688E+04  0.19711061688E+04  0.50400001928E-02 0.  1.
    10030    2    1    2    0    0  0.00000000000E+00  0.00000000000E+00 -0.91715316761E+03  0.30250591700E+04  0.28826746347E+04 0.  0.
        4    1    3    3  502    0  0.94716530525E+03  0.32117522360E+03  0.63055808729E+03  0.11823200726E+04  0.12699999809E+01 0. -1.
       -4    1    3    3    0  502 -0.94716530525E+03 -0.32117522360E+03 -0.15477112549E+04  0.18427390974E+04  0.12699999809E+01 0.  1.
</event>
<event>
 5   0  0.2678723E-07  0.2899619E+04  0.7818609E-02  0.8272991E-01
        2   -1    0    0  501    0  0.00000000000E+00  0.00000000000E+00  0.21488019671E+04  0.21488019671E+04  0.25500000920E-02 0.  1.
       -2   -1    0    0    0  501  0.00000000000E+00  0.00000000000E+00 -0.97819507582E+03  0.97819507582E+03  0.25500000920E-02 0. -1.
    10030    2    1    2    0    0  0.00000000000E+00  0.00000000000E+00  0.11706068913E+04  0.31269970429E+04  0.28996189426E+04 0.  0.
        5    1    3    3  502    0 -0.95486830794E+02 -0.83570331430E+03 -0.68814515488E+03  0.10867767059E+04  0.46999998093E+01 0. -1.
       -5    1    3    3    0  502  0.95486830794E+02  0.83570331430E+03  0.18587520461E+04  0.20402203370E+04  0.46999998093E+01 0.  1.
</event>
<event>
 5   0  0.8407500E-08  0.2901688E+04  0.7818609E-02  0.8272376E-01
       -3   -1    0    0    0  501  0.00000000000E+00  0.00000000000E+00  0.99063102449E+03  0.99063102964E+03  0.10100000352E+00 0. -1.
        3   -1    0    0  501    0  0.00000000000E+00  0.00000000000E+00 -0.21248554795E+04  0.21248554819E+04  0.10100000352E+00 0.  1.
    10030    2    1    2    0    0  0.00000000000E+00  0.00000000000E+00 -0.11342244550E+04  0.31154865115E+04  0.29016876278E+04 0.  0.
        1    1    3    3  502    0  0.68479896275E+03  0.75343375677E+03 -0.16768722947E+04  0.19617626610E+04  0.50400001928E-02 0.  1.
       -1    1    3    3    0  502 -0.68479896275E+03 -0.75343375677E+03  0.54264783976E+03  0.11537238505E+04  0.50400001928E-02 0. -1.
</event>
<event>
 5   0  0.2678723E-07  0.2901358E+04  0.7818609E-02  0.8272473E-01
        2   -1    0    0  501    0  0.00000000000E+00  0.00000000000E+00  0.33722800533E+04  0.33722800533E+04  0.25500000920E-02 0. -1.
       -2   -1    0    0    0  501  0.00000000000E+00  0.00000000000E+00 -0.62404960741E+03  0.62404960742E+03  0.25500000920E-02 0.  1.
    10030    2    1    2    0    0  0.00000000000E+00  0.00000000000E+00  0.27482304458E+04  0.39963296607E+04  0.29013583325E+04 0.  0.
        5    1    3    3  502    0 -0.13725986857E+04 -0.42196729756E+03  0.10906103865E+04  0.18032017795E+04  0.46999998093E+01 0.  1.
       -5    1    3    3    0  502  0.13725986857E+04  0.42196729756E+03  0.16576200593E+04  0.21931278812E+04  0.46999998093E+01 0. -1.
</event>
<event>
 5   0  0.2492232E-07  0.2897220E+04  0.7818609E-02  0.8273705E-01
        2   -1    0    0  501    0  0.00000000000E+00  0.00000000000E+00  0.11917287060E+04  0.11917287060E+04  0.25500000920E-02 0.  1.
       -2   -1    0    0    0  501  0.00000000000E+00  0.00000000000E+00 -0.17608634003E+04  0.17608634003E+04  0.25500000920E-02 0. -1.
    10030    2    1    2    0    0  0.00000000000E+00  0.00000000000E+00 -0.56913469430E+03  0.29525921064E+04  0.28972203655E+04 0.  0.
        4    1    3    3  502    0 -0.60170326890E+03  0.12429109757E+04 -0.73064902561E+03  0.15622817060E+04  0.12699999809E+01 0.  1.
       -4    1    3    3    0  502  0.60170326890E+03 -0.12429109757E+04  0.16151433131E+03  0.13903104004E+04  0.12699999809E+01 0. -1.
</event>
<event>
 5   0  0.2546841E-07  0.2899613E+04  0.7818609E-02  0.8272993E-01
        2   -1    0    0  501    0  0.00000000000E+00  0.00000000000E+00  0.20423297354E+04  0.20423297354E+04  0.25500000920E-02 0. -1.
       -2   -1    0    0    0  501  0.00000000000E+00  0.00000000000E+00 -0.10291871134E+04  0.10291871134E+04  0.25500000920E-02 0.  1.
    10030    2    1    2    0    0  0.00000000000E+00  0.00000000000E+00  0.10131426220E+04  0.30715168487E+04  0.28996133845E+04 0.  0.
        1    1    3    3  502    0 -0.33597985426E+03  0.10245751716E+04 -0.52006256721E+03  0.11971223073E+04  0.50400001928E-02 0.  1.
       -1    1    3    3    0  502  0.33597985426E+03 -0.10245751716E+04  0.15332051892E+04  0.18743945414E+04  0.50400001928E-02 0. -1.
</event>
<event>
 5   0  0.2546841E-07  0.2900261E+04  0.7818609E-02  0.8272800E-01
       -2   -1    0    0    0  501  0.00000000000E+00  0.00000000000E+00  0.13146649121E+04  0.13146649121E+04  0.25500000920E-02 0. -1.
        2   -1    0    0  501    0  0.00000000000E+00  0.00000000000E+00 -0.15995542294E+04  0.15995542294E+04  0.25500000920E-02 0.  1.
    10030    2    1    2    0    0  0.00000000000E+00  0.00000000000E+00 -0.28488931727E+03  0.29142191415E+04  0.29002605541E+04 0.  0.
        1    1    3    3  502    0 -0.31426831082E+03 -0.12843486177E+04 -0.74076147556E+03  0.15156000484E+04  0.50400001928E-02 0.  1.
       -1    1    3    3    0  502  0.31426831082E+03  0.12843486177E+04  0.45587215828E+03  0.13986190931E+04  0.50400001928E-02 0. -1.
</event>
<event>
 5   0  0.9395744E-08  0.2895042E+04  0.7818609E-02  0.8274354E-01
        1   -1    0    0  501    0  0.00000000000E+00  0.00000000000E+00  0.95362440414E+03  0.95362440416E+03  0.50400001928E-02 0.  1.
       -1   -1    0    0    0  501  0.00000000000E+00  0.00000000000E+00 -0.21972143979E+04  0.21972143979E+04  0.50400001928E-02 0. -1.
    10030    2    1    2    0    0  0.00000000000E+00  0.00000000000E+00 -0.12435899938E+04  0.31508388021E+04  0.28950421559E+04 0.  0.
        2    1    3    3  502    0 -0.21369425779E+03  0.10073654432E+04 -0.17289630376E+04  0.20124024343E+04  0.25500000920E-02 0. -1.
       -2    1    3    3    0  502  0.21369425779E+03 -0.10073654432E+04  0.48537304383E+03  0.11384363678E+04  0.25500000920E-02 0.  1.
</event>
<event>
 5   0  0.2546841E-07  0.2900178E+04  0.7818609E-02  0.8272825E-01
        2   -1    0    0  501    0  0.00000000000E+00  0.00000000000E+00  0.17691285227E+04  0.17691285228E+04  0.25500000920E-02 0.  1.
       -2   -1    0    0    0  501  0.00000000000E+00  0.00000000000E+00 -0.11885841029E+04  0.11885841029E+04  0.25500000920E-02 0. -1.
    10030    2    1    2    0    0  0.00000000000E+00  0.00000000000E+00  0.58054441985E+03  0.29577126256E+04  0.29001779519E+04 0.  0.
        1    1    3    3  502    0  0.11296811583E+04 -0.62089603056E+03 -0.38703146689E+03  0.13459140970E+04  0.50400001928E-02 0. -1.
       -1    1    3    3    0  502 -0.11296811583E+04  0.62089603056E+03  0.96757588674E+03  0.16117985286E+04  0.50400001928E-02 0.  1.
</event>
<event>
 5   0  0.9388076E-08  0.2900641E+04  0.7818609E-02  0.8272687E-01
       -1   -1    0    0    0  501  0.00000000000E+00  0.00000000000E+00  0.16282123322E+04  0.16282123322E+04  0.50400001928E-02 0.  1.
        1   -1    0    0  501    0  0.00000000000E+00  0.00000000000E+00 -0.12918648290E+04  0.12918648291E+04  0.50400001928E-02 0. -1.
    10030    2    1    2    0    0  0.00000000000E+00  0.00000000000E+00  0.33634750318E+03  0.29200771613E+04  0.29006414782E+04 0.  0.
        5    1    3    3  502    0 -0.73217458903E+03 -0.95923626625E+03  0.97804805762E+03  0.15533235131E+04  0.46999998093E+01 0.  1.
       -5    1    3    3    0  502  0.73217458903E+03  0.95923626625E+03 -0.64170055443E+03  0.13667536482E+04  0.46999998093E+01 0. -1.
</event>
<event>
 5   0  0.9763851E-08  0.2901172E+04  0.7818609E-02  0.8272529E-01
       -1   -1    0    0    0  501  0.00000000000E+00  0.00000000000E+00  0.12754169584E+04  0.12754169584E+04  0.50400001928E-02 0. -1.
        1   -1    0    0  501    0  0.00000000000E+00  0.00000000000E+00 -0.16498130237E+04  0.16498130237E+04  0.50400001928E-02 0.  1.
    10030    2    1    2    0    0  0.00000000000E+00  0.00000000000E+00 -0.37439606528E+03  0.29252299821E+04  0.29011718382E+04 0.  0.
        3    1    3    3  502    0  0.11710659215E+04 -0.37311002603E+03  0.58964084776E+03  0.13631884769E+04  0.10100000352E+00 0. -1.
       -3    1    3    3    0  502 -0.11710659215E+04  0.37311002603E+03 -0.96403691304E+03  0.15620415052E+04  0.10100000352E+00 0.  1.
</event>
<event>
 5   0  0.2492232E-07  0.2900720E+04  0.7818609E-02  0.8272663E-01
        2   -1    0    0  501    0  0.00000000000E+00  0.00000000000E+00  0.22319516686E+04  0.22319516686E+04  0.25500000920E-02 0. -1.
       -2   -1    0    0    0  501  0.00000000000E+00  0.00000000000E+00 -0.94246877690E+03  0.94246877690E+03  0.25500000920E-02 0.  1.
    10030    2    1    2    0    0  0.00000000000E+00  0.00000000000E+00  0.12894828917E+04  0.31744204455E+04  0.29007204341E+04 0.  0.
        4    1    3    3  502    0 -0.42936010698E+03  0.13633531063E+04  0.37565148098E+03  0.14779030557E+04  0.12699999809E+01 0.  1.
       -4    1    3    3    0  502  0.42936010698E+03 -0.13633531063E+04  0.91383141072E+03  0.16965173898E+04  0.12699999809E+01 0. -1.
</event>
<event>
 5   0  0.9421924E-08  0.2900802E+04  0.7818609E-02  0.8272639E-01
        1   -1    0    0  501    0  0.00000000000E+00  0.00000000000E+00  0.86568087086E+03  0.86568087087E+03  0.50400001928E-02 0. -1.
       -1   -1    0    0    0  501  0.00000000000E+00  0.00000000000E+00 -0.24300672888E+04  0.24300672888E+04  0.50400001928E-02 0.  1.
    10030    2    1    2    0    0  0.00000000000E+00  0.00000000000E+00 -0.15643864179E+04  0.32957481597E+04  0.29008017973E+04 0.  0.
        1    1    3    3  502    0 -0.55331798307E+03  0.64896348705E+03 -0.21151011295E+04  0.22805629099E+04  0.50400001928E-02 0.  1.
       -1    1    3    3    0  502  0.55331798307E+03 -0.64896348705E+03  0.55071471153E+03  0.10151852498E+04  0.50400001928E-02 0. -1.
</event>
<event>
 5   0  0.2534588E-07  0.2899244E+04  0.7818609E-02  0.8273103E-01
       -2   -1    0    0    0  501  0.00000000000E+00  0.00000000000E+00  0.68822843190E+03  0.68822843191E+03  0.25500000920E-02 0. -1.
        2   -1    0    0  501    0  0.00000000000E+00  0.00000000000E+00 -0.30533517679E+04  0.30533517679E+04  0.25500000920E-02 0.  1.
    10030    2    1    2    0    0  0.00000000000E+00  0.00000000000E+00 -0.23651233360E+04  0.37415801998E+04  0.28992436940E+04 0.  0.
        3    1    3    3  502    0 -0.45570976455E+03  0.11292495216E+04 -0.16759942794E+03  0.12292133460E+04  0.10100000352E+00 0. -1.
       -3    1    3    3    0  502  0.45570976455E+03 -0.11292495216E+04 -0.21975239081E+04  0.25123668538E+04  0.10100000352E+00 0.  1.
</event>
<event>
 5   0  0.2534588E-07  0.2896957E+04  0.7818609E-02  0.8273783E-01
        2   -1    0    0  501    0  0.00000000000E+00  0.00000000000E+00  0.20091869731E+04  0.20091869731E+04  0.25500000920E-02 0. -1.
       -2   -1    0    0    0  501  0.00000000000E+00  0.00000000000E+00 -0.10442482064E+04  0.10442482064E+04  0.25500000920E-02 0.  1.
    10030    2    1    2    0    0  0.00000000000E+00  0.00000000000E+00  0.96493876668E+03  0.30534351795E+04  0.28969569504E+04 0.  0.
        3    1    3    3  502    0  0.11132273022E+04  0.47256122950E+02  0.14579778953E+04  0.18349952918E+04  0.10100000352E+00 0. -1.
       -3    1    3    3    0  502 -0.11132273022E+04 -0.47256122950E+02 -0.49303912863E+03  0.12184398877E+04  0.10100000352E+00 0.  1.
</event>
<event>
 5   0  0.2534588E-07  0.2900053E+04  0.7818609E-02  0.8272862E-01
       -2   -1    0    0    0  501  0.00000000000E+00  0.00000000000E+00  0.10060501969E+04  0.10060501969E+04  0.25500000920E-02 0.  1.
        2   -1    0    0  501    0  0.00000000000E+00  0.00000000000E+00 -0.20899330320E+04  0.20899330320E+04  0.25500000920E-02 0. -1.
    10030    2    1    2    0    0  0.00000000000E+00  0.00000000000E+00 -0.10838828351E+04  0.30959832289E+04  0.29000534742E+04 0.  0.
        3    1    3    3  502    0  0.63112877871E+03 -0.11935827023E+04  0.22569444006E+02  0.13503601714E+04  0.10100000352E+00 0.  1.
       -3    1    3    3    0  502 -0.63112877871E+03  0.11935827023E+04 -0.11064522791E+04  0.17456230574E+04  0.10100000352E+00 0. -1.
</event>
<event>
 5   0  0.9395744E-08  0.2899926E+04  0.7818609E-02  0.8272900E-01
        1   -1    0    0  501    0  0.00000000000E+00  0.00000000000E+00  0.14318847274E+04  0.14318847274E+04  0.50400001928E-02 0.  1.
       -1   -1    0    0    0  501  0.00000000000E+00  0.00000000000E+00 -0.14682691534E+04  0.14682691534E+04  0.50400001928E-02 0. -1.
    10030    2    1    2    0    0  0.00000000000E+00  0.00000000000E+00 -0.36384425939E+02  0.29001538808E+04  0.28999256380E+04 0.  0.
        2    1    3    3  502    0 -0.43434381318E+03  0.11138114697E+04 -0.83872107101E+03  0.14603710395E+04  0.25500000920E-02 0. -1.
       -2    1    3    3    0  502  0.43434381318E+03 -0.11138114697E+04  0.80233664507E+03  0.14397828413E+04  0.25500000920E-02 0.  1.
</event>
<event>
 5   0  0.2678723E-07  0.2899649E+04  0.7818609E-02  0.8272982E-01
       -2   -1    0    0    0  501  0.00000000000E+00  0.00000000000E+00  0.96720449805E+03  0.96720449805E+03  0.25500000920E-02 0.  1.
        2   -1    0    0  501    0  0.00000000000E+00  0.00000000000E+00 -0.21732639325E+04  0.21732639325E+04  0.25500000920E-02 0. -1.
    10030    2    1    2    0    0  0.00000000000E+00  0.00000000000E+00 -0.12060594345E+04  0.31404684306E+04  0.28996487035E+04 0.  0.
        5    1    3    3  502    0 -0.15213673517E+02  0.99595196938E+03 -0.17440009369E+04  0.20084106002E+04  0.46999998093E+01 0. -1.
       -5    1    3    3    0  502  0.15213673517E+02 -0.99595196938E+03  0.53794150245E+03  0.11320578303E+04  0.46999998093E+01 0.  1.
</event>
<event>
 5   0  0.2678723E-07  0.2899783E+04  0.7818609E-02  0.8272942E-01
        2   -1    0    0  501    0  0.00000000000E+00  0.00000000000E+00  0.26797023491E+04  0.26797023491E+04  0.25500000920E-02 0. -1.
       -2   -1    0    0    0  501  0.00000000000E+00  0.00000000000E+00 -0.78448490452E+03  0.78448490452E+03  0.25500000920E-02 0.  1.
    10030    2    1    2    0    0  0.00000000000E+00  0.00000000000E+00  0.18952174446E+04  0.34641872536E+04  0.28997834688E+04 0.  0.
        5    1    3    3  502    0  0.48201805534E+03  0.13486760001E+04  0.67809810592E+03  0.15846474340E+04  0.46999998093E+01 0.  1.
       -5    1    3    3    0  502 -0.48201805534E+03 -0.13486760001E+04  0.12171193387E+04  0.18795398196E+04  0.46999998093E+01 0. -1.
</event>
<event>
 5   0  0.2492232E-07  0.2899649E+04  0.7818609E-02  0.8272982E-01
       -2   -1    0    0    0  501  0.00000000000E+00  0.00000000000E+00  0.13462946606E+04  0.13462946606E+04  0.25500000920E-02 0.  1.
        2   -1    0    0  501    0  0.00000000000E+00  0.00000000000E+00 -0.15613154757E+04  0.15613154757E+04  0.25500000920E-02 0. -1.
    10030    2    1    2    0    0  0.00000000000E+00  0.00000000000E+00 -0.21502081510E+03  0.29076101363E+04  0.28996487294E+04 0.  0.
        4    1    3    3  502    0 -0.76176249488E+03  0.61494341465E+03 -0.11798162261E+04  0.15331032066E+04  0.12699999809E+01 0. -1.
       -4    1    3    3    0  502  0.76176249488E+03 -0.61494341465E+03  0.96479541098E+03  0.13745069297E+04  0.12699999809E+01 0.  1.
</event>
<event>
 5   0  0.2492232E-07  0.2900053E+04  0.7818609E-02  0.8272862E-01
       -2   -1    0    0    0  501  0.00000000000E+00  0.00000000000E+00  0.16633046888E+04  0.16633046888E+04  0.25500000920E-02 0.  1.
        2   -1    0    0  501    0  0.00000000000E+00  0.00000000000E+00 -0.12640962693E+04  0.12640962693E+04  0.25500000920E-02 0. -1.
    10030    2    1    2    0    0  0.00000000000E+00  0.00000000000E+00  0.39920841955E+03  0.29274009581E+04  0.29000532766E+04 0.  0.
        4    1    3    3  502    0  0.12058320739E+04  0.49702002406E+03  0.83923229370E+03  0.15509262879E+04  0.12699999809E+01 0.  1.
       -4    1    3    3    0  502 -0.12058320739E+04 -0.49702002406E+03 -0.44002387415E+03  0.13764746702E+04  0.12699999809E+01 0. -1.
</event>
<event>
 5   0  0.9443352E-08  0.2899049E+04  0.7818609E-02  0.8273160E-01
       -1   -1    0    0    0  501  0.00000000000E+00  0.00000000000E+00  0.12024131441E+04  0.12024131441E+04  0.50400001928E-02 0. -1.
        1   -1    0    0  501    0  0.00000000000E+00  0.00000000000E+00 -0.17474209435E+04  0.17474209435E+04  0.50400001928E-02 0.  1.
    10030    2    1    2    0    0  0.00000000000E+00  0.00000000000E+00 -0.54500779940E+03  0.29498340877E+04  0.28990494379E+04 0.  0.
        4    1    3    3  502    0 -0.10586092393E+03 -0.97949652242E+03  0.80937167083E+03  0.12750310142E+04  0.12699999809E+01 0. -1.
       -4    1    3    3    0  502  0.10586092393E+03  0.97949652242E+03 -0.13543794702E+04  0.16748030735E+04  0.12699999809E+01 0.  1.
</event>
<event>
 5   0  0.2534588E-07  0.2896664E+04  0.7818609E-02  0.8273871E-01
       -2   -1    0    0    0  501  0.00000000000E+00  0.00000000000E+00  0.99318963112E+03  0.99318963112E+03  0.25500000920E-02 0.  1.
        2   -1    0    0  501    0  0.00000000000E+00  0.00000000000E+00 -0.21120501215E+04  0.21120501215E+04  0.25500000920E-02 0. -1.
    10030    2    1    2    0    0  0.00000000000E+00  0.00000000000E+00 -0.11188604904E+04  0.31052397527E+04  0.28966644826E+04 0.  0.
        3    1    3    3  502    0 -0.13251505067E+04 -0.45986044168E+03 -0.94620106063E+03  0.16919787081E+04  0.10100000352E+00 0. -1.
       -3    1    3    3    0  502  0.13251505067E+04  0.45986044168E+03 -0.17265942978E+03  0.14132610446E+04  0.10100000352E+00 0.  1.
</event>
<event>
 5   0  0.9443352E-08  0.2899877E+04  0.7818609E-02  0.8272914E-01
       -1   -1    0    0    0  501  0.00000000000E+00  0.00000000000E+00  0.10980439708E+04  0.10980439708E+04  0.50400001928E-02 0.  1.
        1   -1    0    0  501    0  0.00000000000E+00  0.00000000000E+00 -0.19146056278E+04  0.19146056278E+04  0.50400001928E-02 0. -1.
    10030    2    1    2    0    0  0.00000000000E+00  0.00000000000E+00 -0.81656165699E+03  0.30126495987E+04  0.28998766637E+04 0.  0.
        4    1    3    3  502    0 -0.95925593747E+03 -0.52297244330E+03  0.58201920654E+03  0.12379095685E+04  0.12699999809E+01 0.  1.
       -4    1    3    3    0  502  0.95925593747E+03  0.52297244330E+03 -0.13985808635E+04  0.17747400302E+04  0.12699999809E+01 0. -1.
</event>
<event>
 5   0  0.2546841E-07  0.2898352E+04  0.7818609E-02  0.8273368E-01
        2   -1    0    0  501    0  0.00000000000E+00  0.00000000000E+00  0.13339687376E+04  0.13339687376E+04  0.25500000920E-02 0. -1.
       -2   -1    0    0    0  501  0.00000000000E+00  0.00000000000E+00 -0.15743330334E+04  0.15743330334E+04  0.25500000920E-02 0.  1.
    10030    2    1    2    0    0  0.00000000000E+00  0.00000000000E+00 -0.24036429583E+03  0.29083017710E+04  0.28983519794E+04 0.  0.
        1    1    3    3  502    0  0.12442460537E+04  0.34631293798E+03 -0.77972857671E+03  0.15086608454E+04  0.50400001928E-02 0.  1.
       -1    1    3    3    0  502 -0.12442460537E+04 -0.34631293798E+03  0.53936428088E+03  0.13996409256E+04  0.50400001928E-02 0. -1.
</event>
<event>
 5   0  0.2608591E-07  0.2900119E+04  0.7818609E-02  0.8272842E-01
       -2   -1    0    0    0  501  0.00000000000E+00  0.00000000000E+00  0.78874438346E+03  0.78874438346E+03  0.25500000920E-02 0.  1.
        2   -1    0    0  501    0  0.00000000000E+00  0.00000000000E+00 -0.26658482728E+04  0.26658482728E+04  0.25500000920E-02 0. -1.
    10030    2    1    2    0    0  0.00000000000E+00  0.00000000000E+00 -0.18771038893E+04  0.34545926563E+04  0.29001192061E+04 0.  0.
        2    1    3    3  502    0  0.43635868294E+03 -0.54552043938E+02  0.70739836725E+03  0.83294494156E+03  0.25500000920E-02 0.  1.
       -2    1    3    3    0  502 -0.43635868294E+03  0.54552043938E+02 -0.25845022566E+04  0.26216477147E+04  0.25500000920E-02 0. -1.
</event>
<event>
 5   0  0.9421924E-08  0.2899247E+04  0.7818609E-02  0.8273101E-01
        1   -1    0    0  501    0  0.00000000000E+00  0.00000000000E+00  0.28609563837E+04  0.28609563837E+04  0.50400001928E-02 0. -1.
       -1   -1    0    0    0  501  0.00000000000E+00  0.00000000000E+00 -0.73451270473E+03  0.73451270475E+03  0.50400001928E-02 0.  1.
    10030    2    1    2    0    0  0.00000000000E+00  0.00000000000E+00  0.21264436789E+04  0.35954690884E+04  0.28992473586E+04 0.  0.
        1    1    3    3  502    0  0.38503364943E+03  0.24727333062E+03  0.27690388427E+04  0.28065942214E+04  0.50400001928E-02 0. -1.
       -1    1    3    3    0  502 -0.38503364943E+03 -0.24727333062E+03 -0.64259516378E+03  0.78887486699E+03  0.50400001928E-02 0.  1.
</event>
<event>
 5   0  0.9395744E-08  0.2899907E+04  0.7818609E-02  0.8272905E-01
       -1   -1    0    0    0  501  0.00000000000E+00  0.00000000000E+00  0.79695246307E+03  0.79695246308E+03  0.50400001928E-02 0. -1.
        1   -1    0    0  501    0  0.00000000000E+00  0.00000000000E+00 -0.26380050615E+04  0.26380050615E+04  0.50400001928E-02 0.  1.
    10030    2    1    2    0    0  0.00000000000E+00  0.00000000000E+00 -0.18410525985E+04  0.34349575246E+04  0.28999066409E+04 0.  0.
        2    1    3    3  502    0  0.96931746766E+03  0.58911514257E+03  0.14929442098E+03  0.11440812158E+04  0.25500000920E-02 0. -1.
       -2    1    3    3    0  502 -0.96931746766E+03 -0.58911514257E+03 -0.19903470195E+04  0.22908763088E+04  0.25500000920E-02 0.  1.
</event>
<event>
 5   0  0.2492232E-07  0.2900659E+04  0.7818609E-02  0.8272682E-01
        2   -1    0    0  501    0  0.00000000000E+00  0.00000000000E+00  0.14823350195E+04  0.14823350195E+04  0.25500000920E-02 0.  1.
       -2   -1    0    0    0  501  0.00000000000E+00  0.00000000000E+00 -0.14190146128E+04  0.14190146128E+04  0.25500000920E-02 0. -1.
    10030    2    1    2    0    0  0.00000000000E+00  0.00000000000E+00  0.63320406644E+02  0.29013496323E+04  0.29006585830E+04 0.  0.
        4    1    3    3  502    0  0.81593707027E+03  0.11945779424E+04  0.13504670574E+03  0.14529311714E+04  0.12699999809E+01 0. -1.
       -4    1    3    3    0  502 -0.81593707027E+03 -0.11945779424E+04 -0.71726299101E+02  0.14484184609E+04  0.12699999809E+01 0.  1.
</event>
<event>
 5   0  0.2492232E-07  0.2898969E+04  0.7818609E-02  0.8273184E-01
       -2   -1    0    0    0  501  0.00000000000E+00  0.00000000000E+00  0.26038846263E+04  0.26038846263E+04  0.25500000920E-02 0.  1.
        2   -1    0    0  501    0  0.00000000000E+00  0.00000000000E+00 -0.80687367495E+03  0.80687367495E+03  0.25500000920E-02 0. -1.
    10030    2    1    2    0    0  0.00000000000E+00  0.00000000000E+00  0.17970109513E+04  0.34107583012E+04  0.28989694428E+04 0.  0.
        4    1    3    3  502    0 -0.81782153570E+03 -0.91316079726E+03  0.18085660639E+04  0.21848586971E+04  0.12699999809E+01 0.  1.
       -4    1    3    3    0  502  0.81782153570E+03  0.91316079726E+03 -0.11555112559E+02  0.12258996041E+04  0.12699999809E+01 0. -1.
</event>
<event>
 5   0  0.9443352E-08  0.2899214E+04  0.7818609E-02  0.8273111E-01
        1   -1    0    0  501    0  0.00000000000E+00  0.00000000000E+00  0.16946024089E+04  0.16946024089E+04  0.50400001928E-02 0. -1.
       -1   -1    0    0    0  501  0.00000000000E+00  0.00000000000E+00 -0.12400313284E+04  0.12400313284E+04  0.50400001928E-02 0.  1.
    10030    2    1    2    0    0  0.00000000000E+00  0.00000000000E+00  0.45457108053E+03  0.29346337373E+04  0.28992137391E+04 0.  0.
        4    1    3    3  502    0  0.22467588497E+03 -0.14118554651E+04 -0.15527084718E+02  0.14297054980E+04  0.12699999809E+01 0.  1.
       -4    1    3    3    0  502 -0.22467588497E+03  0.14118554651E+04  0.47009816525E+03  0.15049282393E+04  0.12699999809E+01 0. -1.
</event>
<event>
 5   0  0.9395744E-08  0.2899021E+04  0.7818609E-02  0.8273169E-01
       -1   -1    0    0    0  501  0.00000000000E+00  0.00000000000E+00  0.23538917771E+04  0.23538917771E+04  0.50400001928E-02 0. -1.
        1   -1    0    0  501    0  0.00000000000E+00  0.00000000000E+00 -0.89259862716E+03  0.89259862717E+03  0.50400001928E-02 0.  1.
    10030    2    1    2    0    0  0.00000000000E+00  0.00000000000E+00  0.14612931499E+04  0.32464904043E+04  0.28990209166E+04 0.  0.
        2    1    3    3  502    0 -0.57367561449E+03 -0.77513051060E+03  0.19425526223E+04  0.21687419647E+04  0.25500000920E-02 0. -1.
       -2    1    3    3    0  502  0.57367561449E+03  0.77513051060E+03 -0.48125947239E+03  0.10777484395E+04  0.25500000920E-02 0.  1.
</event>
<event>
 5   0  0.2678723E-07  0.2899885E+04  0.7818609E-02  0.8272912E-01
       -2   -1    0    0    0  501  0.00000000000E+00  0.00000000000E+00  0.13885379934E+04  0.13885379934E+04  0.25500000920E-02 0. -1.
        2   -1    0    0  501    0  0.00000000000E+00  0.00000000000E+00 -0.15140623283E+04  0.15140623283E+04  0.25500000920E-02 0.  1.
    10030    2    1    2    0    0  0.00000000000E+00  0.00000000000E+00 -0.12552433492E+03  0.29026003217E+04  0.28998848716E+04 0.  0.
        5    1    3    3  502    0  0.58823144312E+03 -0.69663749456E+03  0.10656758557E+04  0.14025003205E+04  0.46999998093E+01 0. -1.
       -5    1    3    3    0  502 -0.58823144312E+03  0.69663749456E+03 -0.11912001906E+04  0.15001000012E+04  0.46999998093E+01 0.  1.
</event>
<event>
 5   0  0.8407500E-08  0.2898647E+04  0.7818609E-02  0.8273280E-01
       -4   -1    0    0    0  501  0.00000000000E+00  0.00000000000E+00  0.13585267100E+04  0.13585273036E+04  0.12699999809E+01 0. -1.
        4   -1    0    0  501    0  0.00000000000E+00  0.00000000000E+00 -0.15461871109E+04  0.15461876325E+04  0.12699999809E+01 0.  1.
    10030    2    1    2    0    0  0.00000000000E+00  0.00000000000E+00 -0.18766040090E+03  0.29047149361E+04  0.28986466556E+04 0.  0.
        2    1    3    3  502    0  0.73000429822E+03  0.45713635845E+03 -0.12618853384E+04  0.15278201900E+04  0.25500000920E-02 0.  1.
       -2    1    3    3    0  502 -0.73000429822E+03 -0.45713635845E+03  0.10742249375E+04  0.13768947462E+04  0.25500000920E-02 0. -1.
</event>
<event>
 5   0  0.9388076E-08  0.2899878E+04  0.7818609E-02  0.8272914E-01
        1   -1    0    0  501    0  0.00000000000E+00  0.00000000000E+00  0.20960438997E+04  0.20960438997E+04  0.50400001928E-02 0. -1.
       -1   -1    0    0    0  501  0.00000000000E+00  0.00000000000E+00 -0.10029959434E+04  0.10029959435E+04  0.50400001928E-02 0.  1.
    10030    2    1    2    0    0  0.00000000000E+00  0.00000000000E+00  0.10930479563E+04  0.30990398432E+04  0.28998782931E+04 0.  0.
        5    1    3    3  502    0  0.64644462782E+03  0.12165046526E+04  0.10298308141E+04  0.17199848320E+04  0.46999998093E+01 0. -1.
       -5    1    3    3    0  502 -0.64644462782E+03 -0.12165046526E+04  0.63217142189E+02  0.13790550112E+04  0.46999998093E+01 0.  1.
</event>
<event>
 5   0  0.2608591E-07  0.2898899E+04  0.7818609E-02  0.8273205E-01
        2   -1    0    0  501    0  0.00000000000E+00  0.00000000000E+00  0.16129953965E+04  0.16129953965E+04  0.25500000920E-02 0.  1.
       -2   -1    0    0    0  501  0.00000000000E+00  0.00000000000E+00 -0.13024863612E+04  0.13024863612E+04  0.25500000920E-02 0. -1.
    10030    2    1    2    0    0  0.00000000000E+00  0.00000000000E+00  0.31050903532E+03  0.29154817576E+04  0.28988994495E+04 0.  0.
        2    1    3    3  502    0  0.67825258502E+03 -0.12125270915E+04 -0.26021382924E+03  0.14134920423E+04  0.25500000920E-02 0. -1.
       -2    1    3    3    0  502 -0.67825258502E+03  0.12125270915E+04  0.57072286456E+03  0.15019897153E+04  0.25500000920E-02 0.  1.
</event>
<event>
 5   0  0.9443352E-08  0.2900921E+04  0.7818609E-02  0.8272604E-01
       -1   -1    0    0    0  501  0.00000000000E+00  0.00000000000E+00  0.89484539471E+03  0.89484539473E+03  0.50400001928E-02 0. -1.
        1   -1    0    0  501    0  0.00000000000E+00  0.00000000000E+00 -0.23510604690E+04  0.23510604690E+04  0.50400001928E-02 0.  1.
    10030    2    1    2    0    0  0.00000000000E+00  0.00000000000E+00 -0.14562150743E+04  0.32459058637E+04  0.29009209802E+04 0.  0.
        4    1    3    3  502    0  0.50084964688E+03 -0.49170969581E+03  0.69217730635E+03  0.98576864936E+03  0.12699999809E+01 0. -1.
       -4    1    3    3    0  502 -0.50084964688E+03  0.49170969581E+03 -0.21483923806E+04  0.22601372144E+04  0.12699999809E+01 0.  1.
</event>
<event>
 5   0  0.2534588E-07  0.2903810E+04  0.7818609E-02  0.8271745E-01
       -2   -1    0    0    0  501  0.00000000000E+00  0.00000000000E+00  0.73958707718E+03  0.73958707719E+03  0.25500000920E-02 0.  1.
        2   -1    0    0  501    0  0.00000000000E+00  0.00000000000E+00 -0.28502773939E+04  0.28502773939E+04  0.25500000920E-02 0. -1.
    10030    2    1    2    0    0  0.00000000000E+00  0.00000000000E+00 -0.21106903167E+04  0.35898644711E+04  0.29038101363E+04 0.  0.
        3    1    3    3  502    0  0.21275150798E+03  0.11945931209E+03  0.71405982526E+03  0.75459603474E+03  0.10100000352E+00 0.  1.
       -3    1    3    3    0  502 -0.21275150798E+03 -0.11945931209E+03 -0.28247501420E+04  0.28352684364E+04  0.10100000352E+00 0. -1.
</event>
<event>
 5   0  0.9395744E-08  0.2897938E+04  0.7818609E-02  0.8273491E-01
       -1   -1    0    0    0  501  0.00000000000E+00  0.00000000000E+00  0.19032999635E+04  0.19032999636E+04  0.50400001928E-02 0. -1.
        1   -1    0    0  501    0  0.00000000000E+00  0.00000000000E+00 -0.11030901094E+04  0.11030901094E+04  0.50400001928E-02 0.  1.
    10030    2    1    2    0    0  0.00000000000E+00  0.00000000000E+00  0.80020985412E+03  0.30063900730E+04  0.28979381395E+04 0.  0.
        2    1    3    3  502    0  0.87617408406E+02  0.19744214910E+03  0.18865023666E+04  0.18988289527E+04  0.25500000920E-02 0. -1.
       -2    1    3    3    0  502 -0.87617408406E+02 -0.19744214910E+03 -0.10862925125E+04  0.11075611203E+04  0.25500000920E-02 0.  1.
</event>
<event>
 5   0  0.2608591E-07  0.2898631E+04  0.7818609E-02  0.8273285E-01
        2   -1    0    0  501    0  0.00000000000E+00  0.00000000000E+00  0.14353335321E+04  0.14353335321E+04  0.25500000920E-02 0. -1.
       -2   -1    0    0    0  501  0.00000000000E+00  0.00000000000E+00 -0.14634338876E+04  0.14634338876E+04  0.25500000920E-02 0.  1.
    10030    2    1    2    0    0  0.00000000000E+00  0.00000000000E+00 -0.28100355453E+02  0.28987674197E+04  0.28986312155E+04 0.  0.
        2    1    3    3  502    0 -0.46994094999E+03 -0.90772164771E+03  0.10134768833E+04  0.14394229674E+04  0.25500000920E-02 0. -1.
       -2    1    3    3    0  502  0.46994094999E+03  0.90772164771E+03 -0.10415772387E+04  0.14593444523E+04  0.25500000920E-02 0.  1.
</event>
<event>
 5   0  0.9763851E-08  0.2914338E+04  0.7818609E-02  0.8268624E-01
       -1   -1    0    0    0  501  0.00000000000E+00  0.00000000000E+00  0.95416639706E+03  0.95416639707E+03  0.50400001928E-02 0.  1.
        1   -1    0    0  501    0  0.00000000000E+00  0.00000000000E+00 -0.22253368515E+04  0.22253368515E+04  0.50400001928E-02 0. -1.
    10030    2    1    2    0    0  0.00000000000E+00  0.00000000000E+00 -0.12711704544E+04  0.31795032485E+04  0.29143381038E+04 0.  0.
        3    1    3    3  502    0 -0.13344800659E+04 -0.36875631737E+03 -0.11313822764E+04  0.17879720729E+04  0.10100000352E+00 0.  1.
       -3    1    3    3    0  502  0.13344800659E+04  0.36875631737E+03 -0.13978817805E+03  0.13915311757E+04  0.10100000352E+00 0. -1.
</event>
<event>
 5   0  0.2608591E-07  0.2902234E+04  0.7818609E-02  0.8272213E-01
       -2   -1    0    0    0  501  0.00000000000E+00  0.00000000000E+00  0.11532411167E+04  0.11532411167E+04  0.25500000920E-02 0.  1.
        2   -1    0    0  501    0  0.00000000000E+00  0.00000000000E+00 -0.18259326524E+04  0.18259326524E+04  0.25500000920E-02 0. -1.
    10030    2    1    2    0    0  0.00000000000E+00  0.00000000000E+00 -0.67269153573E+03  0.29791737691E+04  0.29022340437E+04 0.  0.
        2    1    3    3  502    0 -0.64942555916E+03  0.55097170502E+03 -0.15424048674E+04  0.17619126402E+04  0.25500000920E-02 0. -1.
       -2    1    3    3    0  502  0.64942555916E+03 -0.55097170502E+03  0.86971333172E+03  0.12172611289E+04  0.25500000920E-02 0.  1.
</event>
<event>
 5   0  0.9388076E-08  0.2900314E+04  0.7818609E-02  0.8272784E-01
       -1   -1    0    0    0  501  0.00000000000E+00  0.00000000000E+00  0.15588277076E+04  0.15588277076E+04  0.50400001928E-02 0. -1.
        1   -1    0    0  501    0  0.00000000000E+00  0.00000000000E+00 -0.13490618894E+04  0.13490618894E+04  0.50400001928E-02 0.  1.
    10030    2    1    2    0    0  0.00000000000E+00  0.00000000000E+00  0.20976581825E+03  0.29078895970E+04  0.29003138123E+04 0.  0.
        5    1    3    3  502    0 -0.23823356036E+03  0.50330965276E+03 -0.12375907214E+04  0.13571030615E+04  0.46999998093E+01 0.  1.
       -5    1    3    3    0  502  0.23823356036E+03 -0.50330965276E+03  0.14473565397E+04  0.15507865355E+04  0.46999998093E+01 0. -1.
</event>
<event>
 5   0  0.9443352E-08  0.2900648E+04  0.7818609E-02  0.8272685E-01
       -1   -1    0    0    0  501  0.00000000000E+00  0.00000000000E+00  0.12790672172E+04  0.12790672172E+04  0.50400001928E-02 0. -1.
        1   -1    0    0  501    0  0.00000000000E+00  0.00000000000E+00 -0.16445107849E+04  0.16445107849E+04  0.50400001928E-02 0.  1.
    10030    2    1    2    0    0  0.00000000000E+00  0.00000000000E+00 -0.36544356774E+03  0.29235780021E+04  0.29006480885E+04 0.  0.
        4    1    3    3  502    0  0.33335195346E+03 -0.86149584185E+03 -0.13096568706E+04  0.16026544674E+04  0.12699999809E+01 0.  1.
       -4    1    3    3    0  502 -0.33335195346E+03  0.86149584185E+03  0.94421330283E+03  0.13209235347E+04  0.12699999809E+01 0. -1.
</event>
<event>
 5   0  0.2534588E-07  0.2898966E+04  0.7818609E-02  0.8273185E-01
       -2   -1    0    0    0  501  0.00000000000E+00  0.00000000000E+00  0.10859435464E+04  0.10859435464E+04  0.25500000920E-02 0.  1.
        2   -1    0    0  501    0  0.00000000000E+00  0.00000000000E+00 -0.19347236608E+04  0.19347236608E+04  0.25500000920E-02 0. -1.
    10030    2    1    2    0    0  0.00000000000E+00  0.00000000000E+00 -0.84878011444E+03  0.30206672072E+04  0.28989657973E+04 0.  0.
        3    1    3    3  502    0 -0.17969127165E+03  0.63176330552E+03 -0.17707596518E+04  0.18886512600E+04  0.10100000352E+00 0. -1.
       -3    1    3    3    0  502  0.17969127165E+03 -0.63176330552E+03  0.92197953734E+03  0.11320159472E+04  0.10100000352E+00 0.  1.
</event>
<event>
 5   0  0.9763851E-08  0.2899386E+04  0.7818609E-02  0.8273060E-01
       -1   -1    0    0    0  501  0.00000000000E+00  0.00000000000E+00  0.11436211557E+04  0.11436211557E+04  0.50400001928E-02 0. -1.
        1   -1    0    0  501    0  0.00000000000E+00  0.00000000000E+00 -0.18376796338E+04  0.18376796338E+04  0.50400001928E-02 0.  1.
    10030    2    1    2    0    0  0.00000000000E+00  0.00000000000E+00 -0.69405847809E+03  0.29813007896E+04  0.28993856637E+04 0.  0.
        3    1    3    3  502    0 -0.10440355366E+04  0.90718187437E+03  0.99545179254E+02  0.13866861245E+04  0.10100000352E+00 0. -1.
       -3    1    3    3    0  502  0.10440355366E+04 -0.90718187437E+03 -0.79360365734E+03  0.15946146651E+04  0.10100000352E+00 0.  1.
</event>
<event>
 5   0  0.9395744E-08  0.2899131E+04  0.7818609E-02  0.8273136E-01
       -1   -1    0    0    0  501  0.00000000000E+00  0.00000000000E+00  0.15920174224E+04  0.15920174224E+04  0.50400001928E-02 0.  1.
        1   -1    0    0  501    0  0.00000000000E+00  0.00000000000E+00 -0.13198597086E+04  0.13198597086E+04  0.50400001928E-02 0. -1.
    10030    2    1    2    0    0  0.00000000000E+00  0.00000000000E+00  0.27215771385E+03  0.29118771310E+04  0.28991306637E+04 0.  0.
        2    1    3    3  502    0  0.55143026918E+03  0.11636225991E+04  0.80469836478E+03  0.15184308852E+04  0.25500000920E-02 0.  1.
       -2    1    3    3    0  502 -0.55143026918E+03 -0.11636225991E+04 -0.53254065093E+03  0.13934462458E+04  0.25500000920E-02 0. -1.
</event>
<event>
 5   0  0.9395744E-08  0.2900841E+04  0.7818609E-02  0.8272627E-01
       -1   -1    0    0    0  501  0.00000000000E+00  0.00000000000E+00  0.92078162802E+03  0.92078162804E+03  0.50400001928E-02 0.  1.
        1   -1    0    0  501    0  0.00000000000E+00  0.00000000000E+00 -0.22847107400E+04  0.22847107400E+04  0.50400001928E-02 0. -1.
    10030    2    1    2    0    0  0.00000000000E+00  0.00000000000E+00 -0.13639291120E+04  0.32054923681E+04  0.29008410331E+04 0.  0.
        2    1    3    3  502    0  0.66314443464E+03 -0.96697026117E+03  0.26147271373E+03  0.12013159481E+04  0.25500000920E-02 0.  1.
       -2    1    3    3    0  502 -0.66314443464E+03  0.96697026117E+03 -0.16254018257E+04  0.20041764200E+04  0.25500000920E-02 0. -1.
</event>
<event>
 5   0  0.2492232E-07  0.2899909E+04  0.7818609E-02  0.8272905E-01
        2   -1    0    0  501    0  0.00000000000E+00  0.00000000000E+00  0.25183655095E+04  0.25183655095E+04  0.25500000920E-02 0. -1.
       -2   -1    0    0    0  501  0.00000000000E+00  0.00000000000E+00 -0.83481436125E+03  0.83481436125E+03  0.25500000920E-02 0.  1.
    10030    2    1    2    0    0  0.00000000000E+00  0.00000000000E+00  0.16835511482E+04  0.33531798707E+04  0.28999087532E+04 0.  0.
        4    1    3    3  502    0 -0.48114180264E+03  0.52953523405E+03 -0.61648132891E+03  0.94443413754E+03  0.12699999809E+01 0.  1.
       -4    1    3    3    0  502  0.48114180264E+03 -0.52953523405E+03  0.23000324772E+04  0.24087457332E+04  0.12699999809E+01 0. -1.
</event>
<event>
 5   0  0.9421924E-08  0.2899822E+04  0.7818609E-02  0.8272931E-01
        1   -1    0    0  501    0  0.00000000000E+00  0.00000000000E+00  0.20885747647E+04  0.20885747647E+04  0.50400001928E-02 0.  1.
       -1   -1    0    0    0  501  0.00000000000E+00  0.00000000000E+00 -0.10065436012E+04  0.10065436012E+04  0.50400001928E-02 0. -1.
    10030    2    1    2    0    0  0.00000000000E+00  0.00000000000E+00  0.10820311635E+04  0.30951183659E+04  0.28998217635E+04 0.  0.
        1    1    3    3  502    0 -0.40615173044E+03 -0.55484156876E+03 -0.82144590215E+03  0.10712524281E+04  0.50400001928E-02 0. -1.
       -1    1    3    3    0  502  0.40615173044E+03  0.55484156876E+03  0.19034770657E+04  0.20238659378E+04  0.50400001928E-02 0.  1.
</event>
<event>
 5   0  0.9421924E-08  0.2899206E+04  0.7818609E-02  0.8273114E-01
       -1   -1    0    0    0  501  0.00000000000E+00  0.00000000000E+00  0.68733818973E+03  0.68733818975E+03  0.50400001928E-02 0. -1.
        1   -1    0    0  501    0  0.00000000000E+00  0.00000000000E+00 -0.30572274115E+04  0.30572274115E+04  0.50400001928E-02 0.  1.
    10030    2    1    2    0    0  0.00000000000E+00  0.00000000000E+00 -0.23698892218E+04  0.37445656013E+04  0.28992062049E+04 0.  0.
        1    1    3    3  502    0 -0.72641758779E+03  0.48120270089E+03  0.31134786371E+03  0.92529781339E+03  0.50400001928E-02 0. -1.
       -1    1    3    3    0  502  0.72641758779E+03 -0.48120270089E+03 -0.26812370855E+04  0.28192677879E+04  0.50400001928E-02 0.  1.
</event>
<event>
 5   0  0.2678723E-07  0.2900741E+04  0.7818609E-02  0.8272657E-01
       -2   -1    0    0    0  501  0.00000000000E+00  0.00000000000E+00  0.19779891290E+04  0.19779891290E+04  0.25500000920E-02 0. -1.
        2   -1    0    0  501    0  0.00000000000E+00  0.00000000000E+00 -0.10634915805E+04  0.10634915805E+04  0.25500000920E-02 0.  1.
    10030    2    1    2    0    0  0.00000000000E+00  0.00000000000E+00  0.91449754854E+03  0.30414807095E+04  0.29007411363E+04 0.  0.
        5    1    3    3  502    0 -0.10212647171E+04  0.81411687290E+03 -0.20405374766E+03  0.13219031459E+04  0.46999998093E+01 0.  1.
       -5    1    3    3    0  502  0.10212647171E+04 -0.81411687290E+03  0.11185512962E+04  0.17195775636E+04  0.46999998093E+01 0. -1.
</event>
<event>
 5   0  0.2546841E-07  0.2899733E+04  0.7818609E-02  0.8272957E-01
        2   -1    0    0  501    0  0.00000000000E+00  0.00000000000E+00  0.18783708358E+04  0.18783708358E+04  0.25500000920E-02 0. -1.
       -2   -1    0    0    0  501  0.00000000000E+00  0.00000000000E+00 -0.11191147446E+04  0.11191147446E+04  0.25500000920E-02 0.  1.
    10030    2    1    2    0    0  0.00000000000E+00  0.00000000000E+00  0.75925609121E+03  0.29974855803E+04  0.28997327450E+04 0.  0.
        1    1    3    3  502    0 -0.58640778681E+03  0.11388302050E+04 -0.32246200696E+03  0.13209050209E+04  0.50400001928E-02 0. -1.
       -1    1    3    3    0  502  0.58640778681E+03 -0.11388302050E+04  0.10817180982E+04  0.16765805594E+04  0.50400001928E-02 0.  1.
</event>
<event>
 5   0  0.2546841E-07  0.2899213E+04  0.7818609E-02  0.8273112E-01
        2   -1    0    0  501    0  0.00000000000E+00  0.00000000000E+00  0.19986025723E+04  0.19986025723E+04  0.25500000920E-02 0. -1.
       -2   -1    0    0    0  501  0.00000000000E+00  0.00000000000E+00 -0.10514143547E+04  0.10514143547E+04  0.25500000920E-02 0.  1.
    10030    2    1    2    0    0  0.00000000000E+00  0.00000000000E+00  0.94718821769E+03  0.30500169270E+04  0.28992132959E+04 0.  0.
        1    1    3    3  502    0 -0.11264024737E+04  0.69977701065E+03 -0.14243166280E+03  0.13337005571E+04  0.50400001928E-02 0.  1.
       -1    1    3    3    0  502  0.11264024737E+04 -0.69977701065E+03  0.10896198805E+04  0.17163163699E+04  0.50400001928E-02 0. -1.
</event>
<event>
 5   0  0.9763851E-08  0.2898108E+04  0.7818609E-02  0.8273441E-01
        1   -1    0    0  501    0  0.00000000000E+00  0.00000000000E+00  0.65979362219E+03  0.65979362221E+03  0.50400001928E-02 0. -1.
       -1   -1    0    0    0  501  0.00000000000E+00  0.00000000000E+00 -0.31824461112E+04  0.31824461112E+04  0.50400001928E-02 0.  1.
    10030    2    1    2    0    0  0.00000000000E+00  0.00000000000E+00 -0.25226524890E+04  0.38422397334E+04  0.28981081051E+04 0.  0.
        3    1    3    3  502    0  0.86268091189E+03  0.64019879922E+03 -0.25505938685E+04  0.27675985891E+04  0.10100000352E+00 0.  1.
       -3    1    3    3    0  502 -0.86268091189E+03 -0.64019879922E+03  0.27941379425E+02  0.10746411444E+04  0.10100000352E+00 0. -1.
</event>
<event>
 5   0  0.2678723E-07  0.2901349E+04  0.7818609E-02  0.8272476E-01
       -2   -1    0    0    0  501  0.00000000000E+00  0.00000000000E+00  0.19370123315E+04  0.19370123315E+04  0.25500000920E-02 0.  1.
        2   -1    0    0  501    0  0.00000000000E+00  0.00000000000E+00 -0.10864449041E+04  0.10864449041E+04  0.25500000920E-02 0. -1.
    10030    2    1    2    0    0  0.00000000000E+00  0.00000000000E+00  0.85056742741E+03  0.30234572357E+04  0.29013494631E+04 0.  0.
        5    1    3    3  502    0  0.12461391733E+04  0.68242113157E+03  0.73065889763E+03  0.15976376168E+04  0.46999998093E+01 0.  1.
       -5    1    3    3    0  502 -0.12461391733E+04 -0.68242113157E+03  0.11990852978E+03  0.14258196188E+04  0.46999998093E+01 0. -1.
</event>
<event>
 5   0  0.2608591E-07  0.2899638E+04  0.7818609E-02  0.8272985E-01
        2   -1    0    0  501    0  0.00000000000E+00  0.00000000000E+00  0.13919749794E+04  0.13919749794E+04  0.25500000920E-02 0. -1.
       -2   -1    0    0    0  501  0.00000000000E+00  0.00000000000E+00 -0.15100670605E+04  0.15100670605E+04  0.25500000920E-02 0.  1.
    10030    2    1    2    0    0  0.00000000000E+00  0.00000000000E+00 -0.11809208110E+03  0.29020420399E+04  0.28996382984E+04 0.  0.
        2    1    3    3  502    0  0.26335401917E+03  0.99983792263E+03  0.95813518433E+03  0.14096291152E+04  0.25500000920E-02 0.  1.
       -2    1    3    3    0  502 -0.26335401917E+03 -0.99983792263E+03 -0.10762272654E+04  0.14924129247E+04  0.25500000920E-02 0. -1.
</event>
<event>
 5   0  0.9388076E-08  0.2898457E+04  0.7818609E-02  0.8273337E-01
        1   -1    0    0  501    0  0.00000000000E+00  0.00000000000E+00  0.15396238741E+04  0.15396238741E+04  0.50400001928E-02 0. -1.
       -1   -1    0    0    0  501  0.00000000000E+00  0.00000000000E+00 -0.13641409009E+04  0.13641409009E+04  0.50400001928E-02 0.  1.
    10030    2    1    2    0    0  0.00000000000E+00  0.00000000000E+00  0.17548297318E+03  0.29037647750E+04  0.28984574509E+04 0.  0.
        5    1    3    3  502    0  0.14449849969E+04 -0.10948065662E+03  0.71153597243E+02  0.14508799330E+04  0.46999998093E+01 0. -1.
       -5    1    3    3    0  502 -0.14449849969E+04  0.10948065662E+03  0.10432937593E+03  0.14528848420E+04  0.46999998093E+01 0.  1.
</event>
<event>
 5   0  0.2546841E-07  0.2903863E+04  0.7818609E-02  0.8271729E-01
       -2   -1    0    0    0  501  0.00000000000E+00  0.00000000000E+00  0.18764969646E+04  0.18764969646E+04  0.25500000920E-02 0. -1.
        2   -1    0    0  501    0  0.00000000000E+00  0.00000000000E+00 -0.11234259352E+04  0.11234259352E+04  0.25500000920E-02 0.  1.
    10030    2    1    2    0    0  0.00000000000E+00  0.00000000000E+00  0.75307102940E+03  0.29999228997E+04  0.29038631905E+04 0.  0.
        1    1    3    3  502    0  0.10918945228E+03 -0.13918573641E+04  0.78836542871E+03  0.16033431659E+04  0.50400001928E-02 0. -1.
       -1    1    3    3    0  502 -0.10918945228E+03  0.13918573641E+04 -0.35294399304E+02  0.13965797339E+04  0.50400001928E-02 0.  1.
</event>
<event>
 5   0  0.2492232E-07  0.2900684E+04  0.7818609E-02  0.8272674E-01
        2   -1    0    0  501    0  0.00000000000E+00  0.00000000000E+00  0.20416387523E+04  0.20416387523E+04  0.25500000920E-02 0. -1.
       -2   -1    0    0    0  501  0.00000000000E+00  0.00000000000E+00 -0.10302955503E+04  0.10302955503E+04  0.25500000920E-02 0.  1.
    10030    2    1    2    0    0  0.00000000000E+00  0.00000000000E+00  0.10113432021E+04  0.30719343026E+04  0.29006835896E+04 0.  0.
        4    1    3    3  502    0  0.45141593691E+03 -0.13074073085E+04  0.43562569582E+02  0.13838314669E+04  0.12699999809E+01 0.  1.
       -4    1    3    3    0  502 -0.45141593691E+03  0.13074073085E+04  0.96778063247E+03  0.16881028357E+04  0.12699999809E+01 0. -1.
</event>
<event>
 5   0  0.2546841E-07  0.2899527E+04  0.7818609E-02  0.8273018E-01
       -2   -1    0    0    0  501  0.00000000000E+00  0.00000000000E+00  0.10220059795E+04  0.10220059795E+04  0.25500000920E-02 0.  1.
        2   -1    0    0  501    0  0.00000000000E+00  0.00000000000E+00 -0.20565575877E+04  0.20565575877E+04  0.25500000920E-02 0. -1.
    10030    2    1    2    0    0  0.00000000000E+00  0.00000000000E+00 -0.10345516081E+04  0.30785635672E+04  0.28995269627E+04 0.  0.
        1    1    3    3  502    0 -0.79595283419E+03 -0.26741551052E+03 -0.17720980454E+04  0.19609649288E+04  0.50400001928E-02 0. -1.
       -1    1    3    3    0  502  0.79595283419E+03  0.26741551052E+03  0.73754643722E+03  0.11175986384E+04  0.50400001928E-02 0.  1.
</event>
<event>
 5   0  0.2608591E-07  0.2899989E+04  0.7818609E-02  0.8272881E-01
        2   -1    0    0  501    0  0.00000000000E+00  0.00000000000E+00  0.17949540340E+04  0.17949540340E+04  0.25500000920E-02 0. -1.
       -2   -1    0    0    0  501  0.00000000000E+00  0.00000000000E+00 -0.11713304637E+04  0.11713304637E+04  0.25500000920E-02 0.  1.
    10030    2    1    2    0    0  0.00000000000E+00  0.00000000000E+00  0.62362357032E+03  0.29662844977E+04  0.28999892007E+04 0.  0.
        2    1    3    3  502    0 -0.60380703273E+02  0.43894245590E+01  0.17936607473E+04  0.17946821370E+04  0.25500000920E-02 0. -1.
       -2    1    3    3    0  502  0.60380703273E+02 -0.43894245590E+01 -0.11700371770E+04  0.11716023608E+04  0.25500000920E-02 0.  1.
</event>
<event>
 5   0  0.9395744E-08  0.2893612E+04  0.7818609E-02  0.8274781E-01
        1   -1    0    0  501    0  0.00000000000E+00  0.00000000000E+00  0.16425454421E+04  0.16425454421E+04  0.50400001928E-02 0.  1.
       -1   -1    0    0    0  501  0.00000000000E+00  0.00000000000E+00 -0.12743920665E+04  0.12743920665E+04  0.50400001928E-02 0. -1.
    10030    2    1    2    0    0  0.00000000000E+00  0.00000000000E+00  0.36815337555E+03  0.29169375086E+04  0.28936115014E+04 0.  0.
        2    1    3    3  502    0 -0.53613505816E+03 -0.24239818038E+03  0.15164915586E+04  0.16266358922E+04  0.25500000920E-02 0.  1.
       -2    1    3    3    0  502  0.53613505816E+03  0.24239818038E+03 -0.11483381831E+04  0.12903016164E+04  0.25500000920E-02 0. -1.
</event>
<event>
 5   0  0.9395744E-08  0.2900161E+04  0.7818609E-02  0.8272830E-01
       -1   -1    0    0    0  501  0.00000000000E+00  0.00000000000E+00  0.11377595511E+04  0.11377595512E+04  0.50400001928E-02 0. -1.
        1   -1    0    0  501    0  0.00000000000E+00  0.00000000000E+00 -0.18481351039E+04  0.18481351039E+04  0.50400001928E-02 0.  1.
    10030    2    1    2    0    0  0.00000000000E+00  0.00000000000E+00 -0.71037555277E+03  0.29858946551E+04  0.29001609378E+04 0.  0.
        2    1    3    3  502    0 -0.72558321794E+03  0.23280804876E+03  0.91500215132E+03  0.11907558653E+04  0.25500000920E-02 0. -1.
       -2    1    3    3    0  502  0.72558321794E+03 -0.23280804876E+03 -0.16253777041E+04  0.17951387898E+04  0.25500000920E-02 0.  1.
</event>
<event>
 5   0  0.2546841E-07  0.2920224E+04  0.7818609E-02  0.8266886E-01
       -2   -1    0    0    0  501  0.00000000000E+00  0.00000000000E+00  0.12784614614E+04  0.12784614614E+04  0.25500000920E-02 0. -1.
        2   -1    0    0  501    0  0.00000000000E+00  0.00000000000E+00 -0.16675725755E+04  0.16675725755E+04  0.25500000920E-02 0.  1.
    10030    2    1    2    0    0  0.00000000000E+00  0.00000000000E+00 -0.38911111405E+03  0.29460340369E+04  0.29202241502E+04 0.  0.
        1    1    3    3  502    0 -0.12547026625E+04  0.42462883290E+03 -0.81426388914E+03  0.15548678716E+04  0.50400001928E-02 0.  1.
       -1    1    3    3    0  502  0.12547026625E+04 -0.42462883290E+03  0.42515277509E+03  0.13911661652E+04  0.50400001928E-02 0. -1.
</event>
<event>
 5   0  0.9421924E-08  0.2890571E+04  0.7818609E-02  0.8275688E-01
        1   -1    0    0  501    0  0.00000000000E+00  0.00000000000E+00  0.14988474244E+04  0.14988474244E+04  0.50400001928E-02 0. -1.
       -1   -1    0    0    0  501  0.00000000000E+00  0.00000000000E+00 -0.13936376428E+04  0.13936376429E+04  0.50400001928E-02 0.  1.
    10030    2    1    2    0    0  0.00000000000E+00  0.00000000000E+00  0.10520978157E+03  0.28924850673E+04  0.28905710104E+04 0.  0.
        1    1    3    3  502    0 -0.21204380442E+03 -0.59320206864E+03 -0.12490250316E+04  0.13988977085E+04  0.50400001928E-02 0.  1.
       -1    1    3    3    0  502  0.21204380442E+03  0.59320206864E+03  0.13542348131E+04  0.14935873588E+04  0.50400001928E-02 0. -1.
</event>
<event>
 5   0  0.9388076E-08  0.2906912E+04  0.7818609E-02  0.8270824E-01
       -1   -1    0    0    0  501  0.00000000000E+00  0.00000000000E+00  0.11261062056E+04  0.11261062056E+04  0.50400001928E-02 0. -1.
        1   -1    0    0  501    0  0.00000000000E+00  0.00000000000E+00 -0.18759642026E+04  0.18759642027E+04  0.50400001928E-02 0.  1.
    10030    2    1    2    0    0  0.00000000000E+00  0.00000000000E+00 -0.74985799701E+03  0.30020704083E+04  0.29069124033E+04 0.  0.
        5    1    3    3  502    0  0.20417957808E+02  0.10774453928E+04  0.63229608468E+03  0.12494502375E+04  0.46999998093E+01 0. -1.
       -5    1    3    3    0  502 -0.20417957808E+02 -0.10774453928E+04 -0.13821540817E+04  0.17526201708E+04  0.46999998093E+01 0.  1.
</event>
<event>
 5   0  0.2546841E-07  0.2898961E+04  0.7818609E-02  0.8273187E-01
       -2   -1    0    0    0  501  0.00000000000E+00  0.00000000000E+00  0.14252562819E+04  0.14252562819E+04  0.25500000920E-02 0. -1.
        2   -1    0    0  501    0  0.00000000000E+00  0.00000000000E+00 -0.14741168817E+04  0.14741168817E+04  0.25500000920E-02 0.  1.
    10030    2    1    2    0    0  0.00000000000E+00  0.00000000000E+00 -0.48860599774E+02  0.28993731637E+04  0.28989614319E+04 0.  0.
        1    1    3    3  502    0 -0.52028331791E+03 -0.86540232567E+03  0.10156108638E+04  0.14321596778E+04  0.50400001928E-02 0. -1.
       -1    1    3    3    0  502  0.52028331791E+03  0.86540232567E+03 -0.10644714636E+04  0.14672134858E+04  0.50400001928E-02 0.  1.
</event>
<event>
 5   0  0.9443352E-08  0.2906511E+04  0.7818609E-02  0.8270943E-01
        1   -1    0    0  501    0  0.00000000000E+00  0.00000000000E+00  0.18965476741E+04  0.18965476741E+04  0.50400001928E-02 0. -1.
       -1   -1    0    0    0  501  0.00000000000E+00  0.00000000000E+00 -0.11135771998E+04  0.11135771999E+04  0.50400001928E-02 0.  1.
    10030    2    1    2    0    0  0.00000000000E+00  0.00000000000E+00  0.78297047424E+03  0.30101248739E+04  0.29065114817E+04 0.  0.
        4    1    3    3  502    0 -0.89238216766E+03  0.11094949860E+04  0.90210099072E+02  0.14266970709E+04  0.12699999809E+01 0. -1.
       -4    1    3    3    0  502  0.89238216766E+03 -0.11094949860E+04  0.69276037517E+03  0.15834278031E+04  0.12699999809E+01 0.  1.
</event>
<event>
 5   0  0.2608591E-07  0.2900840E+04  0.7818609E-02  0.8272627E-01
       -2   -1    0    0    0  501  0.00000000000E+00  0.00000000000E+00  0.18253431938E+04  0.18253431938E+04  0.25500000920E-02 0. -1.
        2   -1    0    0  501    0  0.00000000000E+00  0.00000000000E+00 -0.11525058477E+04  0.11525058477E+04  0.25500000920E-02 0.  1.
    10030    2    1    2    0    0  0.00000000000E+00  0.00000000000E+00  0.67283734610E+03  0.29778490414E+04  0.29008403643E+04 0.  0.
        2    1    3    3  502    0  0.34589050840E+03 -0.64981900619E+02 -0.11080084325E+04  0.11625599244E+04  0.25500000920E-02 0.  1.
       -2    1    3    3    0  502 -0.34589050840E+03  0.64981900619E+02  0.17808457786E+04  0.18152891171E+04  0.25500000920E-02 0. -1.
</event>
<event>
 5   0  0.9421924E-08  0.2900997E+04  0.7818609E-02  0.8272581E-01
        1   -1    0    0  501    0  0.00000000000E+00  0.00000000000E+00  0.15543210001E+04  0.15543210001E+04  0.50400001928E-02 0. -1.
       -1   -1    0    0    0  501  0.00000000000E+00  0.00000000000E+00 -0.13536109206E+04  0.13536109206E+04  0.50400001928E-02 0.  1.
    10030    2    1    2    0    0  0.00000000000E+00  0.00000000000E+00  0.20071007949E+03  0.29079319206E+04  0.29009969871E+04 0.  0.
        1    1    3    3  502    0 -0.66723579749E+03  0.50011176469E+03  0.12900496656E+04  0.15360805728E+04  0.50400001928E-02 0. -1.
       -1    1    3    3    0  502  0.66723579749E+03 -0.50011176469E+03 -0.10893395861E+04  0.13718513478E+04  0.50400001928E-02 0.  1.
</event>
<event>
 5   0  0.9421924E-08  0.2898121E+04  0.7818609E-02  0.8273437E-01
        1   -1    0    0  501    0  0.00000000000E+00  0.00000000000E+00  0.98942410805E+03  0.98942410806E+03  0.50400001928E-02 0.  1.
       -1   -1    0    0    0  501  0.00000000000E+00  0.00000000000E+00 -0.21222201804E+04  0.21222201804E+04  0.50400001928E-02 0. -1.
    10030    2    1    2    0    0  0.00000000000E+00  0.00000000000E+00 -0.11327960723E+04  0.31116442884E+04  0.28981206387E+04 0.  0.
        1    1    3    3  502    0 -0.12827355923E+04  0.47858801610E+03 -0.10760481464E+04  0.17413605894E+04  0.50400001928E-02 0. -1.
       -1    1    3    3    0  502  0.12827355923E+04 -0.47858801610E+03 -0.56747925971E+02  0.13702836991E+04  0.50400001928E-02 0.  1.
</event>
<event>
 5   0  0.2678723E-07  0.2900241E+04  0.7818609E-02  0.8272806E-01
       -2   -1    0    0    0  501  0.00000000000E+00  0.00000000000E+00  0.10464365856E+04  0.10464365856E+04  0.25500000920E-02 0. -1.
        2   -1    0    0  501    0  0.00000000000E+00  0.00000000000E+00 -0.20095340360E+04  0.20095340360E+04  0.25500000920E-02 0.  1.
    10030    2    1    2    0    0  0.00000000000E+00  0.00000000000E+00 -0.96309745045E+03  0.30559706216E+04  0.29002413247E+04 0.  0.
        5    1    3    3  502    0  0.24129987774E+03  0.12912255583E+04  0.16571423377E+03  0.13239986294E+04  0.46999998093E+01 0.  1.
       -5    1    3    3    0  502 -0.24129987774E+03 -0.12912255583E+04 -0.11288116842E+04  0.17319719922E+04  0.46999998093E+01 0. -1.
</event>
<event>
 5   0  0.9763851E-08  0.2895426E+04  0.7818609E-02  0.8274240E-01
        1   -1    0    0  501    0  0.00000000000E+00  0.00000000000E+00  0.20379750302E+04  0.20379750302E+04  0.50400001928E-02 0. -1.
       -1   -1    0    0    0  501  0.00000000000E+00  0.00000000000E+00 -0.10284095297E+04  0.10284095297E+04  0.50400001928E-02 0.  1.
    10030    2    1    2    0    0  0.00000000000E+00  0.00000000000E+00  0.10095655005E+04  0.30663845599E+04  0.28954260082E+04 0.  0.
        3    1    3    3  502    0  0.30601236233E+03 -0.53652372558E+03 -0.88186655209E+03  0.10766568162E+04  0.10100000352E+00 0.  1.
       -3    1    3    3    0  502 -0.30601236233E+03  0.53652372558E+03  0.18914320526E+04  0.19897277437E+04  0.10100000352E+00 0. -1.
</event>
<event>
 5   0  0.9388076E-08  0.2900147E+04  0.7818609E-02  0.8272834E-01
       -1   -1    0    0    0  501  0.00000000000E+00  0.00000000000E+00  0.74689411481E+03  0.74689411483E+03  0.50400001928E-02 0. -1.
        1   -1    0    0  501    0  0.00000000000E+00  0.00000000000E+00 -0.28152755186E+04  0.28152755186E+04  0.50400001928E-02 0.  1.
    10030    2    1    2    0    0  0.00000000000E+00  0.00000000000E+00 -0.20683814038E+04  0.35621696334E+04  0.29001466973E+04 0.  0.
        5    1    3    3  502    0  0.11836478314E+04 -0.47081046146E+03 -0.18851679324E+04  0.22752065626E+04  0.46999998093E+01 0.  1.
       -5    1    3    3    0  502 -0.11836478314E+04  0.47081046146E+03 -0.18321347140E+03  0.12869630708E+04  0.46999998093E+01 0. -1.
</event>
<event>
 5   0  0.2608591E-07  0.2899982E+04  0.7818609E-02  0.8272883E-01
        2   -1    0    0  501    0  0.00000000000E+00  0.00000000000E+00  0.14927714610E+04  0.14927714610E+04  0.25500000920E-02 0.  1.
       -2   -1    0    0    0  501  0.00000000000E+00  0.00000000000E+00 -0.14084368896E+04  0.14084368896E+04  0.25500000920E-02 0. -1.
    10030    2    1    2    0    0  0.00000000000E+00  0.00000000000E+00  0.84334571424E+02  0.29012083505E+04  0.28999823402E+04 0.  0.
        2    1    3    3  502    0 -0.94792599065E+03  0.38756279532E+03  0.10691029784E+04  0.14804559374E+04  0.25500000920E-02 0.  1.
       -2    1    3    3    0  502  0.94792599065E+03 -0.38756279532E+03 -0.98476840699E+03  0.14207524132E+04  0.25500000920E-02 0. -1.
</event>
<event>
 5   0  0.2492232E-07  0.2899939E+04  0.7818609E-02  0.8272896E-01
        2   -1    0    0  501    0  0.00000000000E+00  0.00000000000E+00  0.23191748346E+04  0.23191748346E+04  0.25500000920E-02 0.  1.
       -2   -1    0    0    0  501  0.00000000000E+00  0.00000000000E+00 -0.90653418775E+03  0.90653418775E+03  0.25500000920E-02 0. -1.
    10030    2    1    2    0    0  0.00000000000E+00  0.00000000000E+00  0.14126406469E+04  0.32257090224E+04  0.28999388097E+04 0.  0.
        4    1    3    3  502    0  0.89964267597E+03 -0.56302983051E+03 -0.39261571560E+03  0.11315954434E+04  0.12699999809E+01 0. -1.
       -4    1    3    3    0  502 -0.89964267597E+03  0.56302983051E+03  0.18052563625E+04  0.20941135790E+04  0.12699999809E+01 0.  1.
</event>
<event>
 5   0  0.9763851E-08  0.2900643E+04  0.7818609E-02  0.8272686E-01
        1   -1    0    0  501    0  0.00000000000E+00  0.00000000000E+00  0.17619878137E+04  0.17619878137E+04  0.50400001928E-02 0. -1.
       -1   -1    0    0    0  501  0.00000000000E+00  0.00000000000E+00 -0.11937839185E+04  0.11937839185E+04  0.50400001928E-02 0.  1.
    10030    2    1    2    0    0  0.00000000000E+00  0.00000000000E+00  0.56820389520E+03  0.29557717322E+04  0.29006431815E+04 0.  0.
        3    1    3    3  502    0  0.12937934311E+03 -0.10818002808E+04 -0.69138072786E+03  0.12903635856E+04  0.10100000352E+00 0.  1.
       -3    1    3    3    0  502 -0.12937934311E+03  0.10818002808E+04  0.12595846231E+04  0.16654081466E+04  0.10100000352E+00 0. -1.
</event>
<event>
 5   0  0.2608591E-07  0.2897518E+04  0.7818609E-02  0.8273616E-01
       -2   -1    0    0    0  501  0.00000000000E+00  0.00000000000E+00  0.87060908329E+03  0.87060908330E+03  0.25500000920E-02 0.  1.
        2   -1    0    0  501    0  0.00000000000E+00  0.00000000000E+00 -0.24108437120E+04  0.24108437120E+04  0.25500000920E-02 0. -1.
    10030    2    1    2    0    0  0.00000000000E+00  0.00000000000E+00 -0.15402346287E+04  0.32814527953E+04  0.28975178578E+04 0.  0.
        2    1    3    3  502    0  0.49926803392E+03  0.98010545814E+03  0.29770146225E+03  0.11395180733E+04  0.25500000920E-02 0.  1.
       -2    1    3    3    0  502 -0.49926803392E+03 -0.98010545814E+03 -0.18379360909E+04  0.21419347219E+04  0.25500000920E-02 0. -1.
</event>
<event>
 5   0  0.2492232E-07  0.2900011E+04  0.7818609E-02  0.8272874E-01
       -2   -1    0    0    0  501  0.00000000000E+00  0.00000000000E+00  0.82594853721E+03  0.82594853722E+03  0.25500000920E-02 0.  1.
        2   -1    0    0  501    0  0.00000000000E+00  0.00000000000E+00 -0.25455768055E+04  0.25455768055E+04  0.25500000920E-02 0. -1.
    10030    2    1    2    0    0  0.00000000000E+00  0.00000000000E+00 -0.17196282683E+04  0.33715253427E+04  0.29000106475E+04 0.  0.
        4    1    3    3  502    0  0.11147550316E+03  0.17402111367E+03  0.80873788931E+03  0.83472673511E+03  0.12699999809E+01 0.  1.
       -4    1    3    3    0  502 -0.11147550316E+03 -0.17402111367E+03 -0.25283661576E+04  0.25367986076E+04  0.12699999809E+01 0. -1.
</event>
<event>
 5   0  0.2534588E-07  0.2899242E+04  0.7818609E-02  0.8273103E-01
        2   -1    0    0  501    0  0.00000000000E+00  0.00000000000E+00  0.24180707349E+04  0.24180707349E+04  0.25500000920E-02 0.  1.
       -2   -1    0    0    0  501  0.00000000000E+00  0.00000000000E+00 -0.86904055202E+03  0.86904055202E+03  0.25500000920E-02 0. -1.
    10030    2    1    2    0    0  0.00000000000E+00  0.00000000000E+00  0.15490301829E+04  0.32871112870E+04  0.28992423330E+04 0.  0.
        3    1    3    3  502    0 -0.51142763233E+03  0.95711581665E+03 -0.31519865652E+03  0.11300350051E+04  0.10100000352E+00 0. -1.
       -3    1    3    3    0  502  0.51142763233E+03 -0.95711581665E+03  0.18642288394E+04  0.21570762818E+04  0.10100000352E+00 0.  1.
</event>
<event>
 5   0  0.9388076E-08  0.2901525E+04  0.7818609E-02  0.8272424E-01
       -1   -1    0    0    0  501  0.00000000000E+00  0.00000000000E+00  0.20539636982E+04  0.20539636982E+04  0.50400001928E-02 0. -1.
        1   -1    0    0  501    0  0.00000000000E+00  0.00000000000E+00 -0.10247076984E+04  0.10247076985E+04  0.50400001928E-02 0.  1.
    10030    2    1    2    0    0  0.00000000000E+00  0.00000000000E+00  0.10292559997E+04  0.30786713966E+04  0.29015254015E+04 0.  0.
        5    1    3    3  502    0  0.19454219438E+03  0.71992725077E+03 -0.80575326495E+03  0.10979081591E+04  0.46999998093E+01 0.  1.
       -5    1    3    3    0  502 -0.19454219438E+03 -0.71992725077E+03  0.18350092647E+04  0.19807632376E+04  0.46999998093E+01 0. -1.
</event>
<event>
 5   0  0.2608591E-07  0.2900618E+04  0.7818609E-02  0.8272694E-01
       -2   -1    0    0    0  501  0.00000000000E+00  0.00000000000E+00  0.15723373109E+04  0.15723373109E+04  0.25500000920E-02 0.  1.
        2   -1    0    0  501    0  0.00000000000E+00  0.00000000000E+00 -0.13377508621E+04  0.13377508621E+04  0.25500000920E-02 0. -1.
    10030    2    1    2    0    0  0.00000000000E+00  0.00000000000E+00  0.23458644883E+03  0.29100881730E+04  0.29006175847E+04 0.  0.
        2    1    3    3  502    0 -0.98838422288E+03  0.37769943865E+03  0.11124165016E+04  0.15352624242E+04  0.25500000920E-02 0.  1.
       -2    1    3    3    0  502  0.98838422288E+03 -0.37769943865E+03 -0.87783005280E+03  0.13748257488E+04  0.25500000920E-02 0. -1.
</event>
<event>
 5   0  0.8407500E-08  0.2899501E+04  0.7818609E-02  0.8273026E-01
        3   -1    0    0  501    0  0.00000000000E+00  0.00000000000E+00  0.94132281225E+03  0.94132281767E+03  0.10100000352E+00 0. -1.
       -3   -1    0    0    0  501  0.00000000000E+00  0.00000000000E+00 -0.22327898127E+04  0.22327898150E+04  0.10100000352E+00 0.  1.
    10030    2    1    2    0    0  0.00000000000E+00  0.00000000000E+00 -0.12914670005E+04  0.31741126327E+04  0.28995006452E+04 0.  0.
        5    1    3    3  502    0  0.14239750987E+04  0.16000238649E+03 -0.40477773020E+03  0.14890174432E+04  0.46999998093E+01 0.  1.
       -5    1    3    3    0  502 -0.14239750987E+04 -0.16000238649E+03 -0.88668927029E+03  0.16850951894E+04  0.46999998093E+01 0. -1.
</event>
<event>
 5   0  0.9443352E-08  0.2901837E+04  0.7818609E-02  0.8272331E-01
        1   -1    0    0  501    0  0.00000000000E+00  0.00000000000E+00  0.22008207104E+04  0.22008207104E+04  0.50400001928E-02 0.  1.
       -1   -1    0    0    0  501  0.00000000000E+00  0.00000000000E+00 -0.95653588878E+03  0.95653588879E+03  0.50400001928E-02 0. -1.
    10030    2    1    2    0    0  0.00000000000E+00  0.00000000000E+00  0.12442848216E+04  0.31573565992E+04  0.29018366558E+04 0.  0.
        4    1    3    3  502    0  0.11337019323E+04  0.68009697222E+03 -0.28283479267E+02  0.13223515157E+04  0.12699999809E+01 0. -1.
       -4    1    3    3    0  502 -0.11337019323E+04 -0.68009697222E+03  0.12725683008E+04  0.18350050834E+04  0.12699999809E+01 0.  1.
</event>
<event>
 5   0  0.2608591E-07  0.2898939E+04  0.7818609E-02  0.8273193E-01
       -2   -1    0    0    0  501  0.00000000000E+00  0.00000000000E+00  0.10158278855E+04  0.10158278855E+04  0.25500000920E-02 0.  1.
        2   -1    0    0  501    0  0.00000000000E+00  0.00000000000E+00 -0.20682256768E+04  0.20682256768E+04  0.25500000920E-02 0. -1.
    10030    2    1    2    0    0  0.00000000000E+00  0.00000000000E+00 -0.10523977913E+04  0.30840535624E+04  0.28989386445E+04 0.  0.
        2    1    3    3  502    0  0.13937108829E+04 -0.10062421011E+03 -0.11636421578E+03  0.14021754125E+04  0.25500000920E-02 0.  1.
       -2    1    3    3    0  502 -0.13937108829E+04  0.10062421011E+03 -0.93603357552E+03  0.16818781499E+04  0.25500000920E-02 0. -1.
</event>
<event>
 5   0  0.9388076E-08  0.2903980E+04  0.7818609E-02  0.8271694E-01
        1   -1    0    0  501    0  0.00000000000E+00  0.00000000000E+00  0.19710255168E+04  0.19710255168E+04  0.50400001928E-02 0.  1.
       -1   -1    0    0    0  501  0.00000000000E+00  0.00000000000E+00 -0.10696337472E+04  0.10696337472E+04  0.50400001928E-02 0. -1.
    10030    2    1    2    0    0  0.00000000000E+00  0.00000000000E+00  0.90139176968E+03  0.30406592640E+04  0.29039803094E+04 0.  0.
        5    1    3    3  502    0 -0.87592406419E+03  0.58156127339E+03 -0.59783340494E+03  0.12094971480E+04  0.46999998093E+01 0. -1.
       -5    1    3    3    0  502  0.87592406419E+03 -0.58156127339E+03  0.14992251746E+04  0.18311621160E+04  0.46999998093E+01 0.  1.
</event>
<event>
 5   0  0.9388076E-08  0.2899810E+04  0.7818609E-02  0.8272934E-01
       -1   -1    0    0    0  501  0.00000000000E+00  0.00000000000E+00  0.13075309566E+04  0.13075309566E+04  0.50400001928E-02 0.  1.
        1   -1    0    0  501    0  0.00000000000E+00  0.00000000000E+00 -0.16077820533E+04  0.16077820533E+04  0.50400001928E-02 0. -1.
    10030    2    1    2    0    0  0.00000000000E+00  0.00000000000E+00 -0.30025109669E+03  0.29153130098E+04  0.28998102049E+04 0.  0.
        5    1    3    3  502    0  0.11375516691E+04 -0.58504542049E+03  0.53609280914E+03  0.13869821678E+04  0.46999998093E+01 0.  1.
       -5    1    3    3    0  502 -0.11375516691E+04  0.58504542049E+03 -0.83634390583E+03  0.15283308420E+04  0.46999998093E+01 0. -1.
</event>
<event>
 5   0  0.9763851E-08  0.2900849E+04  0.7818609E-02  0.8272625E-01
       -1   -1    0    0    0  501  0.00000000000E+00  0.00000000000E+00  0.13363767728E+04  0.13363767728E+04  0.50400001928E-02 0.  1.
        1   -1    0    0  501    0  0.00000000000E+00  0.00000000000E+00 -0.15742056425E+04  0.15742056425E+04  0.50400001928E-02 0. -1.
    10030    2    1    2    0    0  0.00000000000E+00  0.00000000000E+00 -0.23782886975E+03  0.29105824153E+04  0.29008494316E+04 0.  0.
        3    1    3    3  502    0 -0.92432448211E+03 -0.17915214304E+03  0.98808270215E+03  0.13648365012E+04  0.10100000352E+00 0.  1.
       -3    1    3    3    0  502  0.92432448211E+03  0.17915214304E+03 -0.12259115719E+04  0.15457459141E+04  0.10100000352E+00 0. -1.
</event>
<event>
 5   0  0.9395744E-08  0.2898839E+04  0.7818609E-02  0.8273223E-01
        1   -1    0    0  501    0  0.00000000000E+00  0.00000000000E+00  0.19386764916E+04  0.19386764917E+04  0.50400001928E-02 0. -1.
       -1   -1    0    0    0  501  0.00000000000E+00  0.00000000000E+00 -0.10836344837E+04  0.10836344837E+04  0.50400001928E-02 0.  1.
    10030    2    1    2    0    0  0.00000000000E+00  0.00000000000E+00  0.85504200797E+03  0.30223109753E+04  0.28988388704E+04 0.  0.
        2    1    3    3  502    0  0.40231260627E+03  0.58849545986E+03 -0.88822819001E+03  0.11389168789E+04  0.25500000920E-02 0.  1.
       -2    1    3    3    0  502 -0.40231260627E+03 -0.58849545986E+03  0.17432701980E+04  0.18833940965E+04  0.25500000920E-02 0. -1.
</event>
<event>
 5   0  0.2678723E-07  0.2906191E+04  0.7818609E-02  0.8271038E-01
       -2   -1    0    0    0  501  0.00000000000E+00  0.00000000000E+00  0.12503641343E+04  0.12503641343E+04  0.25500000920E-02 0.  1.
        2   -1    0    0  501    0  0.00000000000E+00  0.00000000000E+00 -0.16886970869E+04  0.16886970869E+04  0.25500000920E-02 0. -1.
    10030    2    1    2    0    0  0.00000000000E+00  0.00000000000E+00 -0.43833295254E+03  0.29390612212E+04  0.29061908204E+04 0.  0.
        5    1    3    3  502    0 -0.11682953591E+04 -0.56020913652E+02 -0.10911318292E+04  0.15995759274E+04  0.46999998093E+01 0. -1.
       -5    1    3    3    0  502  0.11682953591E+04  0.56020913652E+02  0.65279887665E+03  0.13394852938E+04  0.46999998093E+01 0.  1.
</event>
<event>
 5   0  0.9443352E-08  0.2898817E+04  0.7818609E-02  0.8273229E-01
       -1   -1    0    0    0  501  0.00000000000E+00  0.00000000000E+00  0.24986455890E+04  0.24986455890E+04  0.50400001928E-02 0. -1.
        1   -1    0    0  501    0  0.00000000000E+00  0.00000000000E+00 -0.84076963826E+03  0.84076963827E+03  0.50400001928E-02 0.  1.
    10030    2    1    2    0    0  0.00000000000E+00  0.00000000000E+00  0.16578759508E+04  0.33394152273E+04  0.28988172402E+04 0.  0.
        4    1    3    3  502    0  0.29872350696E+03  0.81943166748E+02 -0.80219258011E+03  0.85992148750E+03  0.12699999809E+01 0.  1.
       -4    1    3    3    0  502 -0.29872350696E+03 -0.81943166748E+02  0.24600685309E+04  0.24794937398E+04  0.12699999809E+01 0. -1.
</event>
<event>
 5   0  0.9388076E-08  0.2900595E+04  0.7818609E-02  0.8272701E-01
       -1   -1    0    0    0  501  0.00000000000E+00  0.00000000000E+00  0.16362485278E+04  0.16362485278E+04  0.50400001928E-02 0. -1.
        1   -1    0    0  501    0  0.00000000000E+00  0.00000000000E+00 -0.12854785614E+04  0.12854785614E+04  0.50400001928E-02 0.  1.
    10030    2    1    2    0    0  0.00000000000E+00  0.00000000000E+00  0.35076996631E+03  0.29217270892E+04  0.29005947001E+04 0.  0.
        5    1    3    3  502    0  0.10148062197E+04 -0.38449857687E+03  0.11445117169E+04  0.15772127249E+04  0.46999998093E+01 0. -1.
       -5    1    3    3    0  502 -0.10148062197E+04  0.38449857687E+03 -0.79374175063E+03  0.13445143643E+04  0.46999998093E+01 0.  1.
</event>
<event>
 5   0  0.2608591E-07  0.2890836E+04  0.7818609E-02  0.8275609E-01
       -2   -1    0    0    0  501  0.00000000000E+00  0.00000000000E+00  0.12302609854E+04  0.12302609854E+04  0.25500000920E-02 0. -1.
        2   -1    0    0  501    0  0.00000000000E+00  0.00000000000E+00 -0.16982036697E+04  0.16982036697E+04  0.25500000920E-02 0.  1.
    10030    2    1    2    0    0  0.00000000000E+00  0.00000000000E+00 -0.46794268422E+03  0.29284646551E+04  0.28908363635E+04 0.  0.
        2    1    3    3  502    0  0.99869451354E+03  0.15149016119E+03 -0.12813018163E+04  0.16315864503E+04  0.25500000920E-02 0.  1.
       -2    1    3    3    0  502 -0.99869451354E+03 -0.15149016119E+03  0.81335913211E+03  0.12968782048E+04  0.25500000920E-02 0. -1.
</event>
<event>
 5   0  0.9395744E-08  0.2899007E+04  0.7818609E-02  0.8273173E-01
       -1   -1    0    0    0  501  0.00000000000E+00  0.00000000000E+00  0.10244485116E+04  0.10244485116E+04  0.50400001928E-02 0. -1.
        1   -1    0    0  501    0  0.00000000000E+00  0.00000000000E+00 -0.20509183080E+04  0.20509183080E+04  0.50400001928E-02 0.  1.
    10030    2    1    2    0    0  0.00000000000E+00  0.00000000000E+00 -0.10264697964E+04  0.30753668197E+04  0.28990068700E+04 0.  0.
        2    1    3    3  502    0  0.20639581391E+03  0.79836479161E+03 -0.17778434776E+04  0.19597737123E+04  0.25500000920E-02 0.  1.
       -2    1    3    3    0  502 -0.20639581391E+03 -0.79836479161E+03  0.75137368118E+03  0.11155931074E+04  0.25500000920E-02 0. -1.
</event>
<event>
 5   0  0.2678723E-07  0.2900027E+04  0.7818609E-02  0.8272870E-01
       -2   -1    0    0    0  501  0.00000000000E+00  0.00000000000E+00  0.11453042784E+04  0.11453042784E+04  0.25500000920E-02 0. -1.
        2   -1    0    0  501    0  0.00000000000E+00  0.00000000000E+00 -0.18357903230E+04  0.18357903230E+04  0.25500000920E-02 0.  1.
    10030    2    1    2    0    0  0.00000000000E+00  0.00000000000E+00 -0.69048604459E+03  0.29810946015E+04  0.29000265594E+04 0.  0.
        5    1    3    3  502    0  0.11637092464E+04 -0.45070887805E+03 -0.11042316412E+04  0.16663454955E+04  0.46999998093E+01 0.  1.
       -5    1    3    3    0  502 -0.11637092464E+04  0.45070887805E+03  0.41374559660E+03  0.13147491060E+04  0.46999998093E+01 0. -1.
</event>
<event>
 5   0  0.9421924E-08  0.2898899E+04  0.7818609E-02  0.8273205E-01
       -1   -1    0    0    0  501  0.00000000000E+00  0.00000000000E+00  0.11406638385E+04  0.11406638385E+04  0.50400001928E-02 0.  1.
        1   -1    0    0  501    0  0.00000000000E+00  0.00000000000E+00 -0.18418259678E+04  0.18418259678E+04  0.50400001928E-02 0. -1.
    10030    2    1    2    0    0  0.00000000000E+00  0.00000000000E+00 -0.70116212937E+03  0.29824898063E+04  0.28988992934E+04 0.  0.
        1    1    3    3  502    0  0.93294872884E+03 -0.50252389988E+03 -0.13680261464E+04  0.17304390015E+04  0.50400001928E-02 0. -1.
       -1    1    3    3    0  502 -0.93294872884E+03  0.50252389988E+03  0.66686401705E+03  0.12520508048E+04  0.50400001928E-02 0.  1.
</event>
<event>
 5   0  0.2534588E-07  0.2894259E+04  0.7818609E-02  0.8274588E-01
        2   -1    0    0  501    0  0.00000000000E+00  0.00000000000E+00  0.27178177313E+04  0.27178177313E+04  0.25500000920E-02 0.  1.
       -2   -1    0    0    0  501  0.00000000000E+00  0.00000000000E+00 -0.77053851140E+03  0.77053851140E+03  0.25500000920E-02 0. -1.
    10030    2    1    2    0    0  0.00000000000E+00  0.00000000000E+00  0.19472792199E+04  0.34883562427E+04  0.28942586125E+04 0.  0.
        3    1    3    3  502    0 -0.26165629395E+03 -0.72948179024E+03  0.24466204214E+04  0.25664292694E+04  0.10100000352E+00 0.  1.
       -3    1    3    3    0  502  0.26165629395E+03  0.72948179024E+03 -0.49934120145E+03  0.92192697331E+03  0.10100000352E+00 0. -1.
</event>
<event>
 5   0  0.2678723E-07  0.2900230E+04  0.7818609E-02  0.8272809E-01
       -2   -1    0    0    0  501  0.00000000000E+00  0.00000000000E+00  0.12512545900E+04  0.12512545900E+04  0.25500000920E-02 0.  1.
        2   -1    0    0  501    0  0.00000000000E+00  0.00000000000E+00 -0.16805800378E+04  0.16805800378E+04  0.25500000920E-02 0. -1.
    10030    2    1    2    0    0  0.00000000000E+00  0.00000000000E+00 -0.42932544781E+03  0.29318346278E+04  0.29002299813E+04 0.  0.
        5    1    3    3  502    0 -0.56822529182E+03  0.60011245756E+03 -0.14191995315E+04  0.16423045833E+04  0.46999998093E+01 0. -1.
       -5    1    3    3    0  502  0.56822529182E+03 -0.60011245756E+03  0.98987408372E+03  0.12895300445E+04  0.46999998093E+01 0.  1.
</event>
<event>
 5   0  0.9421924E-08  0.2900112E+04  0.7818609E-02  0.8272844E-01
        1   -1    0    0  501    0  0.00000000000E+00  0.00000000000E+00  0.19993085671E+04  0.19993085671E+04  0.50400001928E-02 0. -1.
       -1   -1    0    0    0  501  0.00000000000E+00  0.00000000000E+00 -0.10516949566E+04  0.10516949566E+04  0.50400001928E-02 0.  1.
    10030    2    1    2    0    0  0.00000000000E+00  0.00000000000E+00  0.94761361055E+03  0.30510035237E+04  0.29001122301E+04 0.  0.
        1    1    3    3  502    0  0.81638244821E+03 -0.24828716367E+03  0.17072125052E+04  0.19085862190E+04  0.50400001928E-02 0. -1.
       -1    1    3    3    0  502 -0.81638244821E+03  0.24828716367E+03 -0.75959889465E+03  0.11424173047E+04  0.50400001928E-02 0.  1.
</event>
<event>
 5   0  0.2608591E-07  0.2899175E+04  0.7818609E-02  0.8273123E-01
       -2   -1    0    0    0  501  0.00000000000E+00  0.00000000000E+00  0.13054573457E+04  0.13054573457E+04  0.25500000920E-02 0. -1.
        2   -1    0    0  501    0  0.00000000000E+00  0.00000000000E+00 -0.16096306849E+04  0.16096306849E+04  0.25500000920E-02 0.  1.
    10030    2    1    2    0    0  0.00000000000E+00  0.00000000000E+00 -0.30417333918E+03  0.29150880306E+04  0.28991751941E+04 0.  0.
        2    1    3    3  502    0 -0.13948156192E+04 -0.26959443726E+03  0.13778795707E+03  0.14272971987E+04  0.25500000920E-02 0.  1.
       -2    1    3    3    0  502  0.13948156192E+04  0.26959443726E+03 -0.44196129624E+03  0.14877908320E+04  0.25500000920E-02 0. -1.
</event>
<event>
 5   0  0.2678723E-07  0.2899252E+04  0.7818609E-02  0.8273100E-01
        2   -1    0    0  501    0  0.00000000000E+00  0.00000000000E+00  0.95461858953E+03  0.95461858953E+03  0.25500000920E-02 0. -1.
       -2   -1    0    0    0  501  0.00000000000E+00  0.00000000000E+00 -0.22013148001E+04  0.22013148001E+04  0.25500000920E-02 0.  1.
    10030    2    1    2    0    0  0.00000000000E+00  0.00000000000E+00 -0.12466962106E+04  0.31559333896E+04  0.28992523378E+04 0.  0.
        5    1    3    3  502    0  0.34117303548E+03 -0.49697790062E+02  0.90933069964E+03  0.97250877723E+03  0.46999998093E+01 0. -1.
       -5    1    3    3    0  502 -0.34117303548E+03  0.49697790062E+02 -0.21560269102E+04  0.21834246124E+04  0.46999998093E+01 0.  1.
</event>
<event>
 5   0  0.9395744E-08  0.2899373E+04  0.7818609E-02  0.8273064E-01
       -1   -1    0    0    0  501  0.00000000000E+00  0.00000000000E+00  0.92163786650E+03  0.92163786652E+03  0.50400001928E-02 0.  1.
        1   -1    0    0  501    0  0.00000000000E+00  0.00000000000E+00 -0.22802790377E+04  0.22802790377E+04  0.50400001928E-02 0. -1.
    10030    2    1    2    0    0  0.00000000000E+00  0.00000000000E+00 -0.13586411712E+04  0.32019169042E+04  0.28993733856E+04 0.  0.
        2    1    3    3  502    0 -0.60836654836E+02  0.72734177459E+03  0.70392281338E+03  0.10140189756E+04  0.25500000920E-02 0.  1.
       -2    1    3    3    0  502  0.60836654836E+02 -0.72734177459E+03 -0.20625639846E+04  0.21878979286E+04  0.25500000920E-02 0. -1.
</event>
<event>
 5   0  0.2678723E-07  0.2898743E+04  0.7818609E-02  0.8273251E-01
        2   -1    0    0  501    0  0.00000000000E+00  0.00000000000E+00  0.10200617735E+04  0.10200617735E+04  0.25500000920E-02 0. -1.
       -2   -1    0    0    0  501  0.00000000000E+00  0.00000000000E+00 -0.20593639238E+04  0.20593639238E+04  0.25500000920E-02 0.  1.
    10030    2    1    2    0    0  0.00000000000E+00  0.00000000000E+00 -0.10393021503E+04  0.30794256973E+04  0.28987434632E+04 0.  0.
        5    1    3    3  502    0  0.15652290724E+03  0.27454859738E+03  0.98300507480E+03  0.10325683609E+04  0.46999998093E+01 0. -1.
       -5    1    3    3    0  502 -0.15652290724E+03 -0.27454859738E+03 -0.20223072251E+04  0.20468573364E+04  0.46999998093E+01 0.  1.
</event>
<event>
 5   0  0.9443352E-08  0.2899890E+04  0.7818609E-02  0.8272910E-01
        1   -1    0    0  501    0  0.00000000000E+00  0.00000000000E+00  0.16150090415E+04  0.16150090415E+04  0.50400001928E-02 0.  1.
       -1   -1    0    0    0  501  0.00000000000E+00  0.00000000000E+00 -0.13017519489E+04  0.13017519489E+04  0.50400001928E-02 0. -1.
    10030    2    1    2    0    0  0.00000000000E+00  0.00000000000E+00  0.31325709266E+03  0.29167609904E+04  0.28998904581E+04 0.  0.
        4    1    3    3  502    0  0.77689413333E+03 -0.54997216363E+03  0.12567492356E+04  0.15765323115E+04  0.12699999809E+01 0. -1.
       -4    1    3    3    0  502 -0.77689413333E+03  0.54997216363E+03 -0.94349214291E+03  0.13402286789E+04  0.12699999809E+01 0.  1.
</event>
<event>
 5   0  0.9388076E-08  0.2899670E+04  0.7818609E-02  0.8272976E-01
        1   -1    0    0  501    0  0.00000000000E+00  0.00000000000E+00  0.17441180341E+04  0.17441180341E+04  0.50400001928E-02 0. -1.
       -1   -1    0    0    0  501  0.00000000000E+00  0.00000000000E+00 -0.12052063620E+04  0.12052063620E+04  0.50400001928E-02 0.  1.
    10030    2    1    2    0    0  0.00000000000E+00  0.00000000000E+00  0.53891167213E+03  0.29493243961E+04  0.28996704301E+04 0.  0.
        5    1    3    3  502    0  0.10428690448E+04  0.10045580781E+04  0.34341469785E+03  0.14881762401E+04  0.46999998093E+01 0.  1.
       -5    1    3    3    0  502 -0.10428690448E+04 -0.10045580781E+04  0.19549697428E+03  0.14611481560E+04  0.46999998093E+01 0. -1.
</event>
<event>
 5   0  0.9388076E-08  0.2900723E+04  0.7818609E-02  0.8272662E-01
        1   -1    0    0  501    0  0.00000000000E+00  0.00000000000E+00  0.19215785265E+04  0.19215785265E+04  0.50400001928E-02 0. -1.
       -1   -1    0    0    0  501  0.00000000000E+00  0.00000000000E+00 -0.10946982034E+04  0.10946982034E+04  0.50400001928E-02 0.  1.
    10030    2    1    2    0    0  0.00000000000E+00  0.00000000000E+00  0.82688032307E+03  0.30162767299E+04  0.29007230551E+04 0.  0.
        5    1    3    3  502    0  0.17881270414E+03  0.95476881196E+03 -0.70648269662E+03  0.12011233734E+04  0.46999998093E+01 0.  1.
       -5    1    3    3    0  502 -0.17881270414E+03 -0.95476881196E+03  0.15333630197E+04  0.18151533565E+04  0.46999998093E+01 0. -1.
</event>
<event>
 5   0  0.2534588E-07  0.2902330E+04  0.7818609E-02  0.8272184E-01
        2   -1    0    0  501    0  0.00000000000E+00  0.00000000000E+00  0.24065560567E+04  0.24065560567E+04  0.25500000920E-02 0.  1.
       -2   -1    0    0    0  501  0.00000000000E+00  0.00000000000E+00 -0.87505983737E+03  0.87505983738E+03  0.25500000920E-02 0. -1.
    10030    2    1    2    0    0  0.00000000000E+00  0.00000000000E+00  0.15314962193E+04  0.32816158940E+04  0.29023304785E+04 0.  0.
        3    1    3    3  502    0  0.15938167319E+03 -0.24783910586E+03  0.23723742535E+04  0.23906037624E+04  0.10100000352E+00 0.  1.
       -3    1    3    3    0  502 -0.15938167319E+03  0.24783910586E+03 -0.84087803418E+03  0.89101213163E+03  0.10100000352E+00 0. -1.
</event>
<event>
 5   0  0.9388076E-08  0.2897433E+04  0.7818609E-02  0.8273642E-01
       -1   -1    0    0    0  501  0.00000000000E+00  0.00000000000E+00  0.14516216090E+04  0.14516216090E+04  0.50400001928E-02 0. -1.
        1   -1    0    0  501    0  0.00000000000E+00  0.00000000000E+00 -0.14458173999E+04  0.14458173999E+04  0.50400001928E-02 0.  1.
    10030    2    1    2    0    0  0.00000000000E+00  0.00000000000E+00  0.58042091104E+01  0.28974390089E+04  0.28974331953E+04 0.  0.
        5    1    3    3  502    0 -0.99510011286E+03 -0.73584855809E+03  0.75593771517E+03  0.14502280008E+04  0.46999998093E+01 0. -1.
       -5    1    3    3    0  502  0.99510011286E+03  0.73584855809E+03 -0.75013350606E+03  0.14472110081E+04  0.46999998093E+01 0.  1.
</event>
<event>
 5   0  0.9388076E-08  0.2900199E+04  0.7818609E-02  0.8272818E-01
        1   -1    0    0  501    0  0.00000000000E+00  0.00000000000E+00  0.11127471589E+04  0.11127471589E+04  0.50400001928E-02 0. -1.
       -1   -1    0    0    0  501  0.00000000000E+00  0.00000000000E+00 -0.18897271453E+04  0.18897271453E+04  0.50400001928E-02 0.  1.
    10030    2    1    2    0    0  0.00000000000E+00  0.00000000000E+00 -0.77697998640E+03  0.30024743043E+04  0.29001989671E+04 0.  0.
        5    1    3    3  502    0 -0.47618854058E+03 -0.70961545268E+03 -0.16013225550E+04  0.18150938356E+04  0.46999998093E+01 0.  1.
       -5    1    3    3    0  502  0.47618854058E+03  0.70961545268E+03  0.82434256864E+03  0.11873804686E+04  0.46999998093E+01 0. -1.
</event>
<event>
 5   0  0.2534588E-07  0.2899128E+04  0.7818609E-02  0.8273137E-01
        2   -1    0    0  501    0  0.00000000000E+00  0.00000000000E+00  0.20882234594E+04  0.20882234594E+04  0.25500000920E-02 0. -1.
       -2   -1    0    0    0  501  0.00000000000E+00  0.00000000000E+00 -0.10062313953E+04  0.10062313953E+04  0.25500000920E-02 0.  1.
    10030    2    1    2    0    0  0.00000000000E+00  0.00000000000E+00  0.10819920641E+04  0.30944548548E+04  0.28991281485E+04 0.  0.
        3    1    3    3  502    0  0.84448487992E+01  0.14218230944E+04  0.23988339151E+03  0.14419418431E+04  0.10100000352E+00 0. -1.
       -3    1    3    3    0  502 -0.84448487992E+01 -0.14218230944E+04  0.84210867262E+03  0.16525130117E+04  0.10100000352E+00 0.  1.
</event>
<event>
 5   0  0.2546841E-07  0.2901862E+04  0.7818609E-02  0.8272324E-01
       -2   -1    0    0    0  501  0.00000000000E+00  0.00000000000E+00  0.18026342007E+04  0.18026342007E+04  0.25500000920E-02 0. -1.
        2   -1    0    0  501    0  0.00000000000E+00  0.00000000000E+00 -0.11678471638E+04  0.11678471638E+04  0.25500000920E-02 0.  1.
    10030    2    1    2    0    0  0.00000000000E+00  0.00000000000E+00  0.63478703698E+03  0.29704813645E+04  0.29018623252E+04 0.  0.
        1    1    3    3  502    0  0.59677181163E+03 -0.11117248698E+04 -0.41587792318E+03  0.13285417676E+04  0.50400001928E-02 0.  1.
       -1    1    3    3    0  502 -0.59677181163E+03  0.11117248698E+04  0.10506649602E+04  0.16419395969E+04  0.50400001928E-02 0. -1.
</event>
<event>
 5   0  0.2492232E-07  0.2901286E+04  0.7818609E-02  0.8272495E-01
       -2   -1    0    0    0  501  0.00000000000E+00  0.00000000000E+00  0.13583952802E+04  0.13583952802E+04  0.25500000920E-02 0. -1.
        2   -1    0    0  501    0  0.00000000000E+00  0.00000000000E+00 -0.15491550173E+04  0.15491550173E+04  0.25500000920E-02 0.  1.
    10030    2    1    2    0    0  0.00000000000E+00  0.00000000000E+00 -0.19075973709E+03  0.29075502976E+04  0.29012858280E+04 0.  0.
        4    1    3    3  502    0 -0.19136129338E+03 -0.39554072874E+01  0.13456848069E+04  0.13592291941E+04  0.12699999809E+01 0. -1.
       -4    1    3    3    0  502  0.19136129338E+03  0.39554072874E+01 -0.15364445439E+04  0.15483211034E+04  0.12699999809E+01 0.  1.
</event>
<event>
 5   0  0.9395744E-08  0.2901775E+04  0.7818609E-02  0.8272350E-01
       -1   -1    0    0    0  501  0.00000000000E+00  0.00000000000E+00  0.69566742389E+03  0.69566742391E+03  0.50400001928E-02 0. -1.
        1   -1    0    0  501    0  0.00000000000E+00  0.00000000000E+00 -0.30259775501E+04  0.30259775501E+04  0.50400001928E-02 0.  1.
    10030    2    1    2    0    0  0.00000000000E+00  0.00000000000E+00 -0.23303101262E+04  0.37216449740E+04  0.29017746343E+04 0.  0.
        2    1    3    3  502    0  0.22642664507E+03 -0.76670075502E+03  0.38771291180E+03  0.88849331755E+03  0.25500000920E-02 0. -1.
       -2    1    3    3    0  502 -0.22642664507E+03  0.76670075502E+03 -0.27180230380E+04  0.28331516564E+04  0.25500000920E-02 0.  1.
</event>
<event>
 5   0  0.2678723E-07  0.2899774E+04  0.7818609E-02  0.8272945E-01
        2   -1    0    0  501    0  0.00000000000E+00  0.00000000000E+00  0.21235531653E+04  0.21235531653E+04  0.25500000920E-02 0.  1.
       -2   -1    0    0    0  501  0.00000000000E+00  0.00000000000E+00 -0.98993133452E+03  0.98993133453E+03  0.25500000920E-02 0. -1.
    10030    2    1    2    0    0  0.00000000000E+00  0.00000000000E+00  0.11336218308E+04  0.31134844999E+04  0.28997736594E+04 0.  0.
        5    1    3    3  502    0  0.91972565368E+03  0.30281758712E+03 -0.59186715810E+03  0.11348667728E+04  0.46999998093E+01 0. -1.
       -5    1    3    3    0  502 -0.91972565368E+03 -0.30281758712E+03  0.17254889889E+04  0.19786177271E+04  0.46999998093E+01 0.  1.
</event>
<event>
 5   0  0.9443352E-08  0.2900363E+04  0.7818609E-02  0.8272769E-01
       -1   -1    0    0    0  501  0.00000000000E+00  0.00000000000E+00  0.99426124018E+03  0.99426124019E+03  0.50400001928E-02 0.  1.
        1   -1    0    0  501    0  0.00000000000E+00  0.00000000000E+00 -0.21151655280E+04  0.21151655280E+04  0.50400001928E-02 0. -1.
    10030    2    1    2    0    0  0.00000000000E+00  0.00000000000E+00 -0.11209042879E+04  0.31094267682E+04  0.29003634952E+04 0.  0.
        4    1    3    3  502    0 -0.53878995558E+03  0.13239944225E+04 -0.29835141627E+03  0.14602297859E+04  0.12699999809E+01 0.  1.
       -4    1    3    3    0  502  0.53878995558E+03 -0.13239944225E+04 -0.82255287158E+03  0.16491969823E+04  0.12699999809E+01 0. -1.
</event>
<event>
 5   0  0.2546841E-07  0.2900268E+04  0.7818609E-02  0.8272798E-01
       -2   -1    0    0    0  501  0.00000000000E+00  0.00000000000E+00  0.11548916869E+04  0.11548916869E+04  0.25500000920E-02 0.  1.
        2   -1    0    0  501    0  0.00000000000E+00  0.00000000000E+00 -0.18208531661E+04  0.18208531661E+04  0.25500000920E-02 0. -1.
    10030    2    1    2    0    0  0.00000000000E+00  0.00000000000E+00 -0.66596147913E+03  0.29757448530E+04  0.29002677012E+04 0.  0.
        1    1    3    3  502    0  0.65523923009E+02  0.13856318070E+04  0.10065172708E+03  0.13908269696E+04  0.50400001928E-02 0.  1.
       -1    1    3    3    0  502 -0.65523923009E+02 -0.13856318070E+04 -0.76661320621E+03  0.15849178834E+04  0.50400001928E-02 0. -1.
</event>
<event>
 5   0  0.2678723E-07  0.2900230E+04  0.7818609E-02  0.8272809E-01
        2   -1    0    0  501    0  0.00000000000E+00  0.00000000000E+00  0.18736451625E+04  0.18736451625E+04  0.25500000920E-02 0. -1.
       -2   -1    0    0    0  501  0.00000000000E+00  0.00000000000E+00 -0.11223223091E+04  0.11223223091E+04  0.25500000920E-02 0.  1.
    10030    2    1    2    0    0  0.00000000000E+00  0.00000000000E+00  0.75132285335E+03  0.29959674716E+04  0.29002301738E+04 0.  0.
        5    1    3    3  502    0 -0.94585093650E+03  0.58320804541E+03  0.13381066279E+04  0.17393438579E+04  0.46999998093E+01 0. -1.
       -5    1    3    3    0  502  0.94585093650E+03 -0.58320804541E+03 -0.58678377460E+03  0.12566236137E+04  0.46999998093E+01 0.  1.
</event>
<event>
 5   0  0.2608591E-07  0.2899768E+04  0.7818609E-02  0.8272947E-01
        2   -1    0    0  501    0  0.00000000000E+00  0.00000000000E+00  0.19076436278E+04  0.19076436278E+04  0.25500000920E-02 0. -1.
       -2   -1    0    0    0  501  0.00000000000E+00  0.00000000000E+00 -0.11019686695E+04  0.11019686695E+04  0.25500000920E-02 0.  1.
    10030    2    1    2    0    0  0.00000000000E+00  0.00000000000E+00  0.80567495831E+03  0.30096122972E+04  0.28997679289E+04 0.  0.
        2    1    3    3  502    0 -0.49630268789E+03 -0.12209202097E+04  0.10300479295E+04  0.16727107501E+04  0.25500000920E-02 0. -1.
       -2    1    3    3    0  502  0.49630268789E+03  0.12209202097E+04 -0.22437297118E+03  0.13369015471E+04  0.25500000920E-02 0.  1.
</event>
<event>
 5   0  0.9421924E-08  0.2900419E+04  0.7818609E-02  0.8272753E-01
        1   -1    0    0  501    0  0.00000000000E+00  0.00000000000E+00  0.19212649683E+04  0.19212649683E+04  0.50400001928E-02 0.  1.
       -1   -1    0    0    0  501  0.00000000000E+00  0.00000000000E+00 -0.10946473547E+04  0.10946473547E+04  0.50400001928E-02 0. -1.
    10030    2    1    2    0    0  0.00000000000E+00  0.00000000000E+00  0.82661761364E+03  0.30159123230E+04  0.29004190147E+04 0.  0.
        1    1    3    3  502    0 -0.91756532644E+03  0.10166193826E+04  0.90945258640E+03  0.16439419406E+04  0.50400001928E-02 0.  1.
       -1    1    3    3    0  502  0.91756532644E+03 -0.10166193826E+04 -0.82834972756E+02  0.13719703823E+04  0.50400001928E-02 0. -1.
</event>
<event>
 5   0  0.9443352E-08  0.2899895E+04  0.7818609E-02  0.8272909E-01
       -1   -1    0    0    0  501  0.00000000000E+00  0.00000000000E+00  0.91202860144E+03  0.91202860145E+03  0.50400001928E-02 0. -1.
        1   -1    0    0  501    0  0.00000000000E+00  0.00000000000E+00 -0.23051341119E+04  0.23051341119E+04  0.50400001928E-02 0.  1.
    10030    2    1    2    0    0  0.00000000000E+00  0.00000000000E+00 -0.13931055105E+04  0.32171627134E+04  0.28998953362E+04 0.  0.
        4    1    3    3  502    0  0.10979188245E+03 -0.95470117404E+03 -0.19010831786E+04  0.21301707570E+04  0.12699999809E+01 0.  1.
       -4    1    3    3    0  502 -0.10979188245E+03  0.95470117404E+03  0.50797766807E+03  0.10869919564E+04  0.12699999809E+01 0. -1.
</event>
<event>
 5   0  0.2608591E-07  0.2899048E+04  0.7818609E-02  0.8273161E-01
       -2   -1    0    0    0  501  0.00000000000E+00  0.00000000000E+00  0.99720228228E+03  0.99720228229E+03  0.25500000920E-02 0. -1.
        2   -1    0    0  501    0  0.00000000000E+00  0.00000000000E+00 -0.21070144557E+04  0.21070144557E+04  0.25500000920E-02 0.  1.
    10030    2    1    2    0    0  0.00000000000E+00  0.00000000000E+00 -0.11098121734E+04  0.31042167380E+04  0.28990478603E+04 0.  0.
        2    1    3    3  502    0 -0.28634775785E+03 -0.79857419027E+03 -0.18134169883E+04  0.20020481885E+04  0.25500000920E-02 0.  1.
       -2    1    3    3    0  502  0.28634775785E+03  0.79857419027E+03  0.70360481490E+03  0.11021685494E+04  0.25500000920E-02 0. -1.
</event>
<event>
 5   0  0.2678723E-07  0.2900068E+04  0.7818609E-02  0.8272857E-01
       -2   -1    0    0    0  501  0.00000000000E+00  0.00000000000E+00  0.11655762313E+04  0.11655762313E+04  0.25500000920E-02 0.  1.
        2   -1    0    0  501    0  0.00000000000E+00  0.00000000000E+00 -0.18039128117E+04  0.18039128117E+04  0.25500000920E-02 0. -1.
    10030    2    1    2    0    0  0.00000000000E+00  0.00000000000E+00 -0.63833658044E+03  0.29694890430E+04  0.29000675142E+04 0.  0.
        5    1    3    3  502    0 -0.14302016283E+04 -0.21001089671E+03 -0.43589061896E+03  0.15098357514E+04  0.46999998093E+01 0. -1.
       -5    1    3    3    0  502  0.14302016283E+04  0.21001089671E+03 -0.20244596148E+03  0.14596532916E+04  0.46999998093E+01 0.  1.
</event>
<event>
 5   0  0.9421924E-08  0.2900396E+04  0.7818609E-02  0.8272760E-01
        1   -1    0    0  501    0  0.00000000000E+00  0.00000000000E+00  0.27892405515E+04  0.27892405515E+04  0.50400001928E-02 0. -1.
       -1   -1    0    0    0  501  0.00000000000E+00  0.00000000000E+00 -0.75399522278E+03  0.75399522279E+03  0.50400001928E-02 0.  1.
    10030    2    1    2    0    0  0.00000000000E+00  0.00000000000E+00  0.20352453287E+04  0.35432357743E+04  0.29003958703E+04 0.  0.
        1    1    3    3  502    0 -0.97742114051E+03  0.10384572597E+04  0.13392838280E+04  0.19563810309E+04  0.50400001928E-02 0.  1.
       -1    1    3    3    0  502  0.97742114051E+03 -0.10384572597E+04  0.69596150074E+03  0.15868547434E+04  0.50400001928E-02 0. -1.
</event>
<event>
 5   0  0.9395744E-08  0.2900523E+04  0.7818609E-02  0.8272722E-01
       -1   -1    0    0    0  501  0.00000000000E+00  0.00000000000E+00  0.13876592673E+04  0.13876592673E+04  0.50400001928E-02 0.  1.
        1   -1    0    0  501    0  0.00000000000E+00  0.00000000000E+00 -0.15156883304E+04  0.15156883304E+04  0.50400001928E-02 0. -1.
    10030    2    1    2    0    0  0.00000000000E+00  0.00000000000E+00 -0.12802906311E+03  0.29033475978E+04  0.29005233722E+04 0.  0.
        2    1    3    3  502    0 -0.11069114728E+04  0.17612669511E+03  0.85719964055E+03  0.14110509718E+04  0.25500000920E-02 0.  1.
       -2    1    3    3    0  502  0.11069114728E+04 -0.17612669511E+03 -0.98522870366E+03  0.14922966260E+04  0.25500000920E-02 0. -1.
</event>
<event>
 5   0  0.2492232E-07  0.2886581E+04  0.7818609E-02  0.8276881E-01
       -2   -1    0    0    0  501  0.00000000000E+00  0.00000000000E+00  0.20420721222E+04  0.20420721222E+04  0.25500000920E-02 0.  1.
        2   -1    0    0  501    0  0.00000000000E+00  0.00000000000E+00 -0.10200848371E+04  0.10200848371E+04  0.25500000920E-02 0. -1.
    10030    2    1    2    0    0  0.00000000000E+00  0.00000000000E+00  0.10219872851E+04  0.30621569593E+04  0.28865805432E+04 0.  0.
        4    1    3    3  502    0 -0.12636395844E+04 -0.35216810332E+03 -0.12751185749E+03  0.13179788537E+04  0.12699999809E+01 0. -1.
       -4    1    3    3    0  502  0.12636395844E+04  0.35216810332E+03  0.11494991426E+04  0.17441781056E+04  0.12699999809E+01 0.  1.
</event>
<event>
 5   0  0.8407500E-08  0.2900770E+04  0.7818609E-02  0.8272648E-01
        3   -1    0    0  501    0  0.00000000000E+00  0.00000000000E+00  0.10496854348E+04  0.10496854396E+04  0.10100000352E+00 0. -1.
       -3   -1    0    0    0  501  0.00000000000E+00  0.00000000000E+00 -0.20040452125E+04  0.20040452150E+04  0.10100000352E+00 0.  1.
    10030    2    1    2    0    0  0.00000000000E+00  0.00000000000E+00 -0.95435977769E+03  0.30537306547E+04  0.29007702987E+04 0.  0.
        1    1    3    3  502    0  0.39728945964E+03 -0.53353407737E+03  0.87962635717E+03  0.11028327410E+04  0.50400001928E-02 0. -1.
       -1    1    3    3    0  502 -0.39728945964E+03  0.53353407737E+03 -0.18339861349E+04  0.19508979136E+04  0.50400001928E-02 0.  1.
</event>
<event>
 5   0  0.2492232E-07  0.2902378E+04  0.7818609E-02  0.8272170E-01
       -2   -1    0    0    0  501  0.00000000000E+00  0.00000000000E+00  0.93035043019E+03  0.93035043019E+03  0.25500000920E-02 0. -1.
        2   -1    0    0  501    0  0.00000000000E+00  0.00000000000E+00 -0.22636084487E+04  0.22636084487E+04  0.25500000920E-02 0.  1.
    10030    2    1    2    0    0  0.00000000000E+00  0.00000000000E+00 -0.13332580185E+04  0.31939588789E+04  0.29023777108E+04 0.  0.
        4    1    3    3  502    0 -0.57909463528E+03  0.96742273130E+03  0.33876902750E+03  0.11772949522E+04  0.12699999809E+01 0. -1.
       -4    1    3    3    0  502  0.57909463528E+03 -0.96742273130E+03 -0.16720270460E+04  0.20166639267E+04  0.12699999809E+01 0.  1.
</event>
<event>
 5   0  0.2492232E-07  0.2894190E+04  0.7818609E-02  0.8274608E-01
        2   -1    0    0  501    0  0.00000000000E+00  0.00000000000E+00  0.19329308387E+04  0.19329308387E+04  0.25500000920E-02 0.  1.
       -2   -1    0    0    0  501  0.00000000000E+00  0.00000000000E+00 -0.10833726283E+04  0.10833726283E+04  0.25500000920E-02 0. -1.
    10030    2    1    2    0    0  0.00000000000E+00  0.00000000000E+00  0.84955821034E+03  0.30163034670E+04  0.28941902930E+04 0.  0.
        4    1    3    3  502    0  0.31580877766E+03 -0.14121109348E+04  0.44253538634E+03  0.15131528863E+04  0.12699999809E+01 0. -1.
       -4    1    3    3    0  502 -0.31580877766E+03  0.14121109348E+04  0.40702282400E+03  0.15031505807E+04  0.12699999809E+01 0.  1.
</event>
<event>
 5   0  0.2534588E-07  0.2901628E+04  0.7818609E-02  0.8272393E-01
       -2   -1    0    0    0  501  0.00000000000E+00  0.00000000000E+00  0.12862372236E+04  0.12862372237E+04  0.25500000920E-02 0. -1.
        2   -1    0    0  501    0  0.00000000000E+00  0.00000000000E+00 -0.16364490371E+04  0.16364490371E+04  0.25500000920E-02 0.  1.
    10030    2    1    2    0    0  0.00000000000E+00  0.00000000000E+00 -0.35021181347E+03  0.29226862608E+04  0.29016282782E+04 0.  0.
        3    1    3    3  502    0 -0.80551971018E+03  0.10366511876E+04 -0.79712620563E+03  0.15358769111E+04  0.10100000352E+00 0.  1.
       -3    1    3    3    0  502  0.80551971018E+03 -0.10366511876E+04  0.44691439215E+03  0.13868093497E+04  0.10100000352E+00 0. -1.
</event>
<event>
 5   0  0.9395744E-08  0.2901537E+04  0.7818609E-02  0.8272420E-01
       -1   -1    0    0    0  501  0.00000000000E+00  0.00000000000E+00  0.80783896264E+03  0.80783896265E+03  0.50400001928E-02 0.  1.
        1   -1    0    0  501    0  0.00000000000E+00  0.00000000000E+00 -0.26053818269E+04  0.26053818269E+04  0.50400001928E-02 0. -1.
    10030    2    1    2    0    0  0.00000000000E+00  0.00000000000E+00 -0.17975428642E+04  0.34132207895E+04  0.29015368013E+04 0.  0.
        2    1    3    3  502    0  0.14493576430E+04 -0.25050177643E+02 -0.82953786870E+03  0.16701491444E+04  0.25500000920E-02 0.  1.
       -2    1    3    3    0  502 -0.14493576430E+04  0.25050177643E+02 -0.96800499554E+03  0.17430716452E+04  0.25500000920E-02 0. -1.
</event>
<event>
 5   0  0.9421924E-08  0.2897854E+04  0.7818609E-02  0.8273516E-01
        1   -1    0    0  501    0  0.00000000000E+00  0.00000000000E+00  0.25526069169E+04  0.25526069169E+04  0.50400001928E-02 0. -1.
       -1   -1    0    0    0  501  0.00000000000E+00  0.00000000000E+00 -0.82244889234E+03  0.82244889235E+03  0.50400001928E-02 0.  1.
    10030    2    1    2    0    0  0.00000000000E+00  0.00000000000E+00  0.17301580245E+04  0.33750558092E+04  0.28978535031E+04 0.  0.
        1    1    3    3  502    0  0.13261437199E+04 -0.26057258138E+03  0.14734288207E+04  0.19993868374E+04  0.50400001928E-02 0. -1.
       -1    1    3    3    0  502 -0.13261437199E+04  0.26057258138E+03  0.25672920386E+03  0.13756689718E+04  0.50400001928E-02 0.  1.
</event>
<event>
 5   0  0.8407500E-08  0.2901620E+04  0.7818609E-02  0.8272396E-01
        3   -1    0    0  501    0  0.00000000000E+00  0.00000000000E+00  0.12057924974E+04  0.12057925016E+04  0.10100000352E+00 0.  1.
       -3   -1    0    0    0  501  0.00000000000E+00  0.00000000000E+00 -0.17456153225E+04  0.17456153254E+04  0.10100000352E+00 0. -1.
    10030    2    1    2    0    0  0.00000000000E+00  0.00000000000E+00 -0.53982282517E+03  0.29514078270E+04  0.29016201472E+04 0.  0.
        2    1    3    3  502    0  0.39778700527E+03  0.51192369781E+03  0.10502607005E+04  0.12342398118E+04  0.25500000920E-02 0.  1.
       -2    1    3    3    0  502 -0.39778700527E+03 -0.51192369781E+03 -0.15900835257E+04  0.17171680152E+04  0.25500000920E-02 0. -1.
</event>
<event>
 5   0  0.2546841E-07  0.2899430E+04  0.7818609E-02  0.8273047E-01
        2   -1    0    0  501    0  0.00000000000E+00  0.00000000000E+00  0.22929685868E+04  0.22929685868E+04  0.25500000920E-02 0.  1.
       -2   -1    0    0    0  501  0.00000000000E+00  0.00000000000E+00 -0.91657342162E+03  0.91657342162E+03  0.25500000920E-02 0. -1.
    10030    2    1    2    0    0  0.00000000000E+00  0.00000000000E+00  0.13763951652E+04  0.32095420084E+04  0.28994303325E+04 0.  0.
        1    1    3    3  502    0  0.21203716025E+03 -0.71845092827E+03  0.20621359081E+04  0.21939772098E+04  0.50400001928E-02 0.  1.
       -1    1    3    3    0  502 -0.21203716025E+03  0.71845092827E+03 -0.68574074292E+03  0.10155647986E+04  0.50400001928E-02 0. -1.
</event>
<event>
 5   0  0.2678723E-07  0.2899052E+04  0.7818609E-02  0.8273160E-01
        2   -1    0    0  501    0  0.00000000000E+00  0.00000000000E+00  0.12105234190E+04  0.12105234190E+04  0.25500000920E-02 0. -1.
       -2   -1    0    0    0  501  0.00000000000E+00  0.00000000000E+00 -0.17357168770E+04  0.17357168770E+04  0.25500000920E-02 0.  1.
    10030    2    1    2    0    0  0.00000000000E+00  0.00000000000E+00 -0.52519345803E+03  0.29462402959E+04  0.28990522094E+04 0.  0.
        5    1    3    3  502    0  0.61815137829E+02 -0.11734641686E+04 -0.11250948451E+04  0.16268680852E+04  0.46999998093E+01 0.  1.
       -5    1    3    3    0  502 -0.61815137829E+02  0.11734641686E+04  0.59990138704E+03  0.13193722107E+04  0.46999998093E+01 0. -1.
</event>
<event>
 5   0  0.2492232E-07  0.2899234E+04  0.7818609E-02  0.8273105E-01
       -2   -1    0    0    0  501  0.00000000000E+00  0.00000000000E+00  0.12007105386E+04  0.12007105386E+04  0.25500000920E-02 0. -1.
        2   -1    0    0  501    0  0.00000000000E+00  0.00000000000E+00 -0.17501220935E+04  0.17501220935E+04  0.25500000920E-02 0.  1.
    10030    2    1    2    0    0  0.00000000000E+00  0.00000000000E+00 -0.54941155488E+03  0.29508326322E+04  0.28992344104E+04 0.  0.
        4    1    3    3  502    0 -0.11202268823E+04  0.65178540856E+03 -0.93561278903E+03  0.15984697027E+04  0.12699999809E+01 0.  1.
       -4    1    3    3    0  502  0.11202268823E+04 -0.65178540856E+03  0.38620123415E+03  0.13523629294E+04  0.12699999809E+01 0. -1.
</event>
<event>
 5   0  0.9388076E-08  0.2900803E+04  0.7818609E-02  0.8272639E-01
       -1   -1    0    0    0  501  0.00000000000E+00  0.00000000000E+00  0.88778659124E+03  0.88778659126E+03  0.50400001928E-02 0.  1.
        1   -1    0    0  501    0  0.00000000000E+00  0.00000000000E+00 -0.23695604858E+04  0.23695604858E+04  0.50400001928E-02 0. -1.
    10030    2    1    2    0    0  0.00000000000E+00  0.00000000000E+00 -0.14817738945E+04  0.32573470770E+04  0.29008026658E+04 0.  0.
        5    1    3    3  502    0  0.85486001872E+03  0.10760199812E+04 -0.12616051195E+04  0.18655493076E+04  0.46999998093E+01 0.  1.
       -5    1    3    3    0  502 -0.85486001872E+03 -0.10760199812E+04 -0.22016877502E+03  0.13917977694E+04  0.46999998093E+01 0. -1.
</event>
<event>
 5   0  0.9763851E-08  0.2899801E+04  0.7818609E-02  0.8272937E-01
        1   -1    0    0  501    0  0.00000000000E+00  0.00000000000E+00  0.19203385177E+04  0.19203385177E+04  0.50400001928E-02 0. -1.
       -1   -1    0    0    0  501  0.00000000000E+00  0.00000000000E+00 -0.10947088632E+04  0.10947088632E+04  0.50400001928E-02 0.  1.
    10030    2    1    2    0    0  0.00000000000E+00  0.00000000000E+00  0.82562965453E+03  0.30150473809E+04  0.28998010936E+04 0.  0.
        3    1    3    3  502    0 -0.11408206391E+04  0.67786736386E+03 -0.19455492143E+03  0.13412037583E+04  0.10100000352E+00 0. -1.
       -3    1    3    3    0  502  0.11408206391E+04 -0.67786736386E+03  0.10201845760E+04  0.16738436226E+04  0.10100000352E+00 0.  1.
</event>
<event>
 5   0  0.9395744E-08  0.2900236E+04  0.7818609E-02  0.8272807E-01
        1   -1    0    0  501    0  0.00000000000E+00  0.00000000000E+00  0.26700644793E+04  0.26700644793E+04  0.50400001928E-02 0. -1.
       -1   -1    0    0    0  501  0.00000000000E+00  0.00000000000E+00 -0.78756255310E+03  0.78756255312E+03  0.50400001928E-02 0.  1.
    10030    2    1    2    0    0  0.00000000000E+00  0.00000000000E+00  0.18825019262E+04  0.34576270324E+04  0.29002364030E+04 0.  0.
        2    1    3    3  502    0 -0.31550288892E+03 -0.19416006914E+03 -0.73019601253E+03  0.81879571450E+03  0.25500000920E-02 0.  1.
       -2    1    3    3    0  502  0.31550288892E+03  0.19416006914E+03  0.26126979387E+04  0.26388313179E+04  0.25500000920E-02 0. -1.
</event>
<event>
 5   0  0.9395744E-08  0.2907444E+04  0.7818609E-02  0.8270666E-01
       -1   -1    0    0    0  501  0.00000000000E+00  0.00000000000E+00  0.26690772425E+04  0.26690772425E+04  0.50400001928E-02 0.  1.
        1   -1    0    0  501    0  0.00000000000E+00  0.00000000000E+00 -0.79177477216E+03  0.79177477217E+03  0.50400001928E-02 0. -1.
    10030    2    1    2    0    0  0.00000000000E+00  0.00000000000E+00  0.18773024703E+04  0.34608520147E+04  0.29074442561E+04 0.  0.
        2    1    3    3  502    0 -0.57127113273E+03 -0.60736946753E+03 -0.47883510384E+03  0.96152557628E+03  0.25500000920E-02 0. -1.
       -2    1    3    3    0  502  0.57127113273E+03  0.60736946753E+03  0.23561375742E+04  0.24993264384E+04  0.25500000920E-02 0.  1.
</event>
<event>
 5   0  0.9388076E-08  0.2897876E+04  0.7818609E-02  0.8273510E-01
       -1   -1    0    0    0  501  0.00000000000E+00  0.00000000000E+00  0.13902933502E+04  0.13902933502E+04  0.50400001928E-02 0. -1.
        1   -1    0    0  501    0  0.00000000000E+00  0.00000000000E+00 -0.15100564477E+04  0.15100564477E+04  0.50400001928E-02 0.  1.
    10030    2    1    2    0    0  0.00000000000E+00  0.00000000000E+00 -0.11976309750E+03  0.29003497979E+04  0.28978760758E+04 0.  0.
        5    1    3    3  502    0  0.92551425368E+03  0.11065293017E+04 -0.19570154780E+03  0.14557832652E+04  0.46999998093E+01 0. -1.
       -5    1    3    3    0  502 -0.92551425368E+03 -0.11065293017E+04  0.75938450302E+02  0.14445665328E+04  0.46999998093E+01 0.  1.
</event>
<event>
 5   0  0.2546841E-07  0.2899821E+04  0.7818609E-02  0.8272931E-01
       -2   -1    0    0    0  501  0.00000000000E+00  0.00000000000E+00  0.10208572603E+04  0.10208572603E+04  0.25500000920E-02 0.  1.
        2   -1    0    0  501    0  0.00000000000E+00  0.00000000000E+00 -0.20592888859E+04  0.20592888859E+04  0.25500000920E-02 0. -1.
    10030    2    1    2    0    0  0.00000000000E+00  0.00000000000E+00 -0.10384316256E+04  0.30801461462E+04  0.28998206912E+04 0.  0.
        1    1    3    3  502    0 -0.65159755366E+03 -0.60055817720E+03  0.69974993499E+03  0.11291144617E+04  0.50400001928E-02 0.  1.
       -1    1    3    3    0  502  0.65159755366E+03  0.60055817720E+03 -0.17381815606E+04  0.19510316845E+04  0.50400001928E-02 0. -1.
</event>
<event>
 5   0  0.9443352E-08  0.2899893E+04  0.7818609E-02  0.8272909E-01
        1   -1    0    0  501    0  0.00000000000E+00  0.00000000000E+00  0.16617845900E+04  0.16617845900E+04  0.50400001928E-02 0. -1.
       -1   -1    0    0    0  501  0.00000000000E+00  0.00000000000E+00 -0.12651124507E+04  0.12651124508E+04  0.50400001928E-02 0.  1.
    10030    2    1    2    0    0  0.00000000000E+00  0.00000000000E+00  0.39667213921E+03  0.29268970407E+04  0.28998926706E+04 0.  0.
        4    1    3    3  502    0  0.11054537635E+04  0.50874818667E+03  0.99402369025E+03  0.15712852861E+04  0.12699999809E+01 0. -1.
       -4    1    3    3    0  502 -0.11054537635E+04 -0.50874818667E+03 -0.59735155104E+03  0.13556117546E+04  0.12699999809E+01 0.  1.
</event>
<event>
 5   0  0.9421924E-08  0.2899786E+04  0.7818609E-02  0.8272941E-01
        1   -1    0    0  501    0  0.00000000000E+00  0.00000000000E+00  0.21578574071E+04  0.21578574071E+04  0.50400001928E-02 0. -1.
       -1   -1    0    0    0  501  0.00000000000E+00  0.00000000000E+00 -0.97420224430E+03  0.97420224432E+03  0.50400001928E-02 0.  1.
    10030    2    1    2    0    0  0.00000000000E+00  0.00000000000E+00  0.11836551628E+04  0.31320596514E+04  0.28997858741E+04 0.  0.
        1    1    3    3  502    0 -0.71481171163E+03  0.38943267272E+03 -0.70410194383E+03  0.10762774443E+04  0.50400001928E-02 0.  1.
       -1    1    3    3    0  502  0.71481171163E+03 -0.38943267272E+03  0.18877571066E+04  0.20557822072E+04  0.50400001928E-02 0. -1.
</event>
<event>
 5   0  0.2492232E-07  0.2904534E+04  0.7818609E-02  0.8271530E-01
        2   -1    0    0  501    0  0.00000000000E+00  0.00000000000E+00  0.14689025446E+04  0.14689025446E+04  0.25500000920E-02 0.  1.
       -2   -1    0    0    0  501  0.00000000000E+00  0.00000000000E+00 -0.14358202459E+04  0.14358202459E+04  0.25500000920E-02 0. -1.
    10030    2    1    2    0    0  0.00000000000E+00  0.00000000000E+00  0.33082298677E+02  0.29047227905E+04  0.29045343949E+04 0.  0.
        4    1    3    3  502    0 -0.10330086740E+03 -0.11046104206E+04  0.95374821469E+03  0.14630353790E+04  0.12699999809E+01 0.  1.
       -4    1    3    3    0  502  0.10330086740E+03  0.11046104206E+04 -0.92066591602E+03  0.14416874114E+04  0.12699999809E+01 0. -1.
</event>
<event>
 5   0  0.9388076E-08  0.2899994E+04  0.7818609E-02  0.8272879E-01
       -1   -1    0    0    0  501  0.00000000000E+00  0.00000000000E+00  0.94373405872E+03  0.94373405874E+03  0.50400001928E-02 0.  1.
        1   -1    0    0  501    0  0.00000000000E+00  0.00000000000E+00 -0.22278423300E+04  0.22278423300E+04  0.50400001928E-02 0. -1.
    10030    2    1    2    0    0  0.00000000000E+00  0.00000000000E+00 -0.12841082712E+04  0.31715763887E+04  0.28999935754E+04 0.  0.
        5    1    3    3  502    0  0.11964274259E+04 -0.52650138227E+03 -0.13283802117E+04  0.18636679876E+04  0.46999998093E+01 0. -1.
       -5    1    3    3    0  502 -0.11964274259E+04  0.52650138227E+03  0.44271940493E+02  0.13079084011E+04  0.46999998093E+01 0.  1.
</event>
<event>
 5   0  0.8407500E-08  0.2898663E+04  0.7818609E-02  0.8273275E-01
        3   -1    0    0  501    0  0.00000000000E+00  0.00000000000E+00  0.11633385216E+04  0.11633385260E+04  0.10100000352E+00 0. -1.
       -3   -1    0    0    0  501  0.00000000000E+00  0.00000000000E+00 -0.18056330453E+04  0.18056330481E+04  0.10100000352E+00 0.  1.
    10030    2    1    2    0    0  0.00000000000E+00  0.00000000000E+00 -0.64229452369E+03  0.29689715741E+04  0.28986634770E+04 0.  0.
        2    1    3    3  502    0  0.90499348851E+03 -0.11311350090E+04 -0.27440186687E+03  0.14743730896E+04  0.25500000920E-02 0. -1.
       -2    1    3    3    0  502 -0.90499348851E+03  0.11311350090E+04 -0.36789265682E+03  0.14945984845E+04  0.25500000920E-02 0.  1.
</event>
<event>
 5   0  0.9443352E-08  0.2899075E+04  0.7818609E-02  0.8273153E-01
       -1   -1    0    0    0  501  0.00000000000E+00  0.00000000000E+00  0.16939294943E+04  0.16939294943E+04  0.50400001928E-02 0.  1.
        1   -1    0    0  501    0  0.00000000000E+00  0.00000000000E+00 -0.12404051307E+04  0.12404051307E+04  0.50400001928E-02 0. -1.
    10030    2    1    2    0    0  0.00000000000E+00  0.00000000000E+00  0.45352436357E+03  0.29343346250E+04  0.28990749116E+04 0.  0.
        4    1    3    3  502    0 -0.61095672417E+03  0.10726578820E+04  0.99580193056E+03  0.15860284198E+04  0.12699999809E+01 0.  1.
       -4    1    3    3    0  502  0.61095672417E+03 -0.10726578820E+04 -0.54227756698E+03  0.13483062052E+04  0.12699999809E+01 0. -1.
</event>
<event>
 5   0  0.2546841E-07  0.2898019E+04  0.7818609E-02  0.8273467E-01
       -2   -1    0    0    0  501  0.00000000000E+00  0.00000000000E+00  0.97016614744E+03  0.97016614744E+03  0.25500000920E-02 0.  1.
        2   -1    0    0  501    0  0.00000000000E+00  0.00000000000E+00 -0.21641946733E+04  0.21641946733E+04  0.25500000920E-02 0. -1.
    10030    2    1    2    0    0  0.00000000000E+00  0.00000000000E+00 -0.11940285259E+04  0.31343608208E+04  0.28980189154E+04 0.  0.
        1    1    3    3  502    0  0.12503356834E+04  0.21843636123E+03  0.15897083740E+03  0.12791893887E+04  0.50400001928E-02 0.  1.
       -1    1    3    3    0  502 -0.12503356834E+04 -0.21843636123E+03 -0.13529993633E+04  0.18551714320E+04  0.50400001928E-02 0. -1.
</event>
<event>
 5   0  0.9443352E-08  0.2900303E+04  0.7818609E-02  0.8272787E-01
        1   -1    0    0  501    0  0.00000000000E+00  0.00000000000E+00  0.19214977591E+04  0.19214977591E+04  0.50400001928E-02 0. -1.
       -1   -1    0    0    0  501  0.00000000000E+00  0.00000000000E+00 -0.10944270090E+04  0.10944270090E+04  0.50400001928E-02 0.  1.
    10030    2    1    2    0    0  0.00000000000E+00  0.00000000000E+00  0.82707075010E+03  0.30159247681E+04  0.29003027740E+04 0.  0.
        4    1    3    3  502    0 -0.10942785029E+04  0.83066661159E+03 -0.69173916548E+02  0.13755868221E+04  0.12699999809E+01 0. -1.
       -4    1    3    3    0  502  0.10942785029E+04 -0.83066661159E+03  0.89624466665E+03  0.16403379460E+04  0.12699999809E+01 0.  1.
</event>
<event>
 5   0  0.2546841E-07  0.2899690E+04  0.7818609E-02  0.8272970E-01
        2   -1    0    0  501    0  0.00000000000E+00  0.00000000000E+00  0.17143931454E+04  0.17143931454E+04  0.25500000920E-02 0.  1.
       -2   -1    0    0    0  501  0.00000000000E+00  0.00000000000E+00 -0.12261195386E+04  0.12261195386E+04  0.25500000920E-02 0. -1.
    10030    2    1    2    0    0  0.00000000000E+00  0.00000000000E+00  0.48827360675E+03  0.29405126840E+04  0.28996902817E+04 0.  0.
        1    1    3    3  502    0  0.11041729200E+03 -0.13333776445E+04  0.81053647893E+03  0.15643072923E+04  0.50400001928E-02 0.  1.
       -1    1    3    3    0  502 -0.11041729200E+03  0.13333776445E+04 -0.32226287218E+03  0.13762053916E+04  0.50400001928E-02 0. -1.
</event>
<event>
 5   0  0.2534588E-07  0.2899674E+04  0.7818609E-02  0.8272974E-01
        2   -1    0    0  501    0  0.00000000000E+00  0.00000000000E+00  0.16420737883E+04  0.16420737883E+04  0.25500000920E-02 0.  1.
       -2   -1    0    0    0  501  0.00000000000E+00  0.00000000000E+00 -0.12801052235E+04  0.12801052235E+04  0.25500000920E-02 0. -1.
    10030    2    1    2    0    0  0.00000000000E+00  0.00000000000E+00  0.36196856488E+03  0.29221790118E+04  0.28996739360E+04 0.  0.
        3    1    3    3  502    0 -0.69326597937E+03  0.10737895757E+04  0.87068289330E+03  0.15465220600E+04  0.10100000352E+00 0.  1.
       -3    1    3    3    0  502  0.69326597937E+03 -0.10737895757E+04 -0.50871432842E+03  0.13756569518E+04  0.10100000352E+00 0. -1.
</event>
<event>
 5   0  0.2534588E-07  0.2900286E+04  0.7818609E-02  0.8272792E-01
        2   -1    0    0  501    0  0.00000000000E+00  0.00000000000E+00  0.12896661983E+04  0.12896661983E+04  0.25500000920E-02 0.  1.
       -2   -1    0    0    0  501  0.00000000000E+00  0.00000000000E+00 -0.16305880970E+04  0.16305880970E+04  0.25500000920E-02 0. -1.
    10030    2    1    2    0    0  0.00000000000E+00  0.00000000000E+00 -0.34092189872E+03  0.29202542953E+04  0.29002857460E+04 0.  0.
        3    1    3    3  502    0  0.27154996777E+02  0.10694921070E+04  0.81523968054E+03  0.13450526040E+04  0.10100000352E+00 0.  1.
       -3    1    3    3    0  502 -0.27154996777E+02 -0.10694921070E+04 -0.11561615793E+04  0.15752016913E+04  0.10100000352E+00 0. -1.
</event>
<event>
 5   0  0.9421924E-08  0.2899830E+04  0.7818609E-02  0.8272928E-01
        1   -1    0    0  501    0  0.00000000000E+00  0.00000000000E+00  0.17664231438E+04  0.17664231438E+04  0.50400001928E-02 0. -1.
       -1   -1    0    0    0  501  0.00000000000E+00  0.00000000000E+00 -0.11901187840E+04  0.11901187840E+04  0.50400001928E-02 0.  1.
    10030    2    1    2    0    0  0.00000000000E+00  0.00000000000E+00  0.57630435980E+03  0.29565419277E+04  0.28998299011E+04 0.  0.
        1    1    3    3  502    0  0.38876855519E+03 -0.62846757289E+03 -0.98369805652E+03  0.12303553739E+04  0.50400001928E-02 0.  1.
       -1    1    3    3    0  502 -0.38876855519E+03  0.62846757289E+03  0.15600024163E+04  0.17261865538E+04  0.50400001928E-02 0. -1.
</event>
<event>
 5   0  0.9388076E-08  0.2900308E+04  0.7818609E-02  0.8272786E-01
       -1   -1    0    0    0  501  0.00000000000E+00  0.00000000000E+00  0.16801524207E+04  0.16801524207E+04  0.50400001928E-02 0.  1.
        1   -1    0    0  501    0  0.00000000000E+00  0.00000000000E+00 -0.12516403626E+04  0.12516403626E+04  0.50400001928E-02 0. -1.
    10030    2    1    2    0    0  0.00000000000E+00  0.00000000000E+00  0.42851205814E+03  0.29317927833E+04  0.29003079734E+04 0.  0.
        5    1    3    3  502    0 -0.14287728379E+04 -0.53778870298E+02 -0.30530779008E+02  0.14301182495E+04  0.46999998093E+01 0. -1.
       -5    1    3    3    0  502  0.14287728379E+04  0.53778870298E+02  0.45904283715E+03  0.15016745338E+04  0.46999998093E+01 0.  1.
</event>
<event>
 5   0  0.2534588E-07  0.2899114E+04  0.7818609E-02  0.8273141E-01
       -2   -1    0    0    0  501  0.00000000000E+00  0.00000000000E+00  0.16117672625E+04  0.16117672625E+04  0.25500000920E-02 0.  1.
        2   -1    0    0  501    0  0.00000000000E+00  0.00000000000E+00 -0.13036713558E+04  0.13036713559E+04  0.25500000920E-02 0. -1.
    10030    2    1    2    0    0  0.00000000000E+00  0.00000000000E+00  0.30809590662E+03  0.29154386183E+04  0.28991135282E+04 0.  0.
        3    1    3    3  502    0 -0.14225228325E+04 -0.23818917238E+03  0.86324796629E+01  0.14423521833E+04  0.10100000352E+00 0. -1.
       -3    1    3    3    0  502  0.14225228325E+04  0.23818917238E+03  0.29946342696E+03  0.14730864350E+04  0.10100000352E+00 0.  1.
</event>
<event>
 5   0  0.9388076E-08  0.2899192E+04  0.7818609E-02  0.8273118E-01
        1   -1    0    0  501    0  0.00000000000E+00  0.00000000000E+00  0.15514362733E+04  0.15514362733E+04  0.50400001928E-02 0.  1.
       -1   -1    0    0    0  501  0.00000000000E+00  0.00000000000E+00 -0.13544406254E+04  0.13544406254E+04  0.50400001928E-02 0. -1.
    10030    2    1    2    0    0  0.00000000000E+00  0.00000000000E+00  0.19699564786E+03  0.29058768987E+04  0.28991918296E+04 0.  0.
        5    1    3    3  502    0 -0.38573471295E+02  0.88806615768E+03 -0.10492000531E+04  0.13751335406E+04  0.46999998093E+01 0. -1.
       -5    1    3    3    0  502  0.38573471295E+02 -0.88806615768E+03  0.12461957010E+04  0.15307433581E+04  0.46999998093E+01 0.  1.
</event>
<event>
 5   0  0.2608591E-07  0.2898465E+04  0.7818609E-02  0.8273334E-01
       -2   -1    0    0    0  501  0.00000000000E+00  0.00000000000E+00  0.11956347158E+04  0.11956347158E+04  0.25500000920E-02 0.  1.
        2   -1    0    0  501    0  0.00000000000E+00  0.00000000000E+00 -0.17566194820E+04  0.17566194820E+04  0.25500000920E-02 0. -1.
    10030    2    1    2    0    0  0.00000000000E+00  0.00000000000E+00 -0.56098476625E+03  0.29522541978E+04  0.28984652733E+04 0.  0.
        2    1    3    3  502    0 -0.77141216789E+02  0.23475083410E+02 -0.17543328789E+04  0.17561849837E+04  0.25500000920E-02 0. -1.
       -2    1    3    3    0  502  0.77141216789E+02 -0.23475083410E+02  0.11933481127E+04  0.11960692141E+04  0.25500000920E-02 0.  1.
</event>
<event>
 5   0  0.9763851E-08  0.2900492E+04  0.7818609E-02  0.8272731E-01
        1   -1    0    0  501    0  0.00000000000E+00  0.00000000000E+00  0.22693506816E+04  0.22693506816E+04  0.50400001928E-02 0. -1.
       -1   -1    0    0    0  501  0.00000000000E+00  0.00000000000E+00 -0.92679109603E+03  0.92679109605E+03  0.50400001928E-02 0.  1.
    10030    2    1    2    0    0  0.00000000000E+00  0.00000000000E+00  0.13425595856E+04  0.31961417776E+04  0.29004923758E+04 0.  0.
        3    1    3    3  502    0 -0.94844084256E+03  0.21733366921E+03  0.18562730187E+04  0.20958347945E+04  0.10100000352E+00 0. -1.
       -3    1    3    3    0  502  0.94844084256E+03 -0.21733366921E+03 -0.51371343314E+03  0.11003069832E+04  0.10100000352E+00 0.  1.
</event>
<event>
 5   0  0.9421924E-08  0.2900116E+04  0.7818609E-02  0.8272843E-01
        1   -1    0    0  501    0  0.00000000000E+00  0.00000000000E+00  0.19306624464E+04  0.19306624464E+04  0.50400001928E-02 0.  1.
       -1   -1    0    0    0  501  0.00000000000E+00  0.00000000000E+00 -0.10890917314E+04  0.10890917314E+04  0.50400001928E-02 0. -1.
    10030    2    1    2    0    0  0.00000000000E+00  0.00000000000E+00  0.84157071500E+03  0.30197541778E+04  0.29001162090E+04 0.  0.
        1    1    3    3  502    0 -0.44677473958E+03  0.11980433318E+04  0.11329238933E+04  0.17083418981E+04  0.50400001928E-02 0.  1.
       -1    1    3    3    0  502  0.44677473958E+03 -0.11980433318E+04 -0.29135317831E+03  0.13114122797E+04  0.50400001928E-02 0. -1.
</event>
<event>
 5   0  0.9443352E-08  0.2899096E+04  0.7818609E-02  0.8273146E-01
       -1   -1    0    0    0  501  0.00000000000E+00  0.00000000000E+00  0.22828794549E+04  0.22828794549E+04  0.50400001928E-02 0.  1.
        1   -1    0    0  501    0  0.00000000000E+00  0.00000000000E+00 -0.92041207452E+03  0.92041207453E+03  0.50400001928E-02 0. -1.
    10030    2    1    2    0    0  0.00000000000E+00  0.00000000000E+00  0.13624673804E+04  0.32032915295E+04  0.28990962833E+04 0.  0.
        4    1    3    3  502    0  0.84839492914E+03  0.11369907025E+04  0.35222047915E+03  0.14617054054E+04  0.12699999809E+01 0. -1.
       -4    1    3    3    0  502 -0.84839492914E+03 -0.11369907025E+04  0.10102469013E+04  0.17415861241E+04  0.12699999809E+01 0.  1.
</event>
<event>
 5   0  0.2492232E-07  0.2899854E+04  0.7818609E-02  0.8272921E-01
        2   -1    0    0  501    0  0.00000000000E+00  0.00000000000E+00  0.21043199752E+04  0.21043199752E+04  0.25500000920E-02 0. -1.
       -2   -1    0    0    0  501  0.00000000000E+00  0.00000000000E+00 -0.99903468214E+03  0.99903468214E+03  0.25500000920E-02 0.  1.
    10030    2    1    2    0    0  0.00000000000E+00  0.00000000000E+00  0.11052852931E+04  0.31033546574E+04  0.28998542292E+04 0.  0.
        4    1    3    3  502    0 -0.93801119500E+03 -0.89920739319E+03 -0.13581260826E+03  0.13064783256E+04  0.12699999809E+01 0.  1.
       -4    1    3    3    0  502  0.93801119500E+03  0.89920739319E+03  0.12410979013E+04  0.17968763317E+04  0.12699999809E+01 0. -1.
</event>
<event>
 5   0  0.9763851E-08  0.2898178E+04  0.7818609E-02  0.8273420E-01
       -1   -1    0    0    0  501  0.00000000000E+00  0.00000000000E+00  0.78133546804E+03  0.78133546806E+03  0.50400001928E-02 0.  1.
        1   -1    0    0  501    0  0.00000000000E+00  0.00000000000E+00 -0.26875263280E+04  0.26875263280E+04  0.50400001928E-02 0. -1.
    10030    2    1    2    0    0  0.00000000000E+00  0.00000000000E+00 -0.19061908600E+04  0.34688617961E+04  0.28981784910E+04 0.  0.
        3    1    3    3  502    0 -0.91349097451E+03 -0.11209920155E+04 -0.84100184026E+03  0.16728338127E+04  0.10100000352E+00 0.  1.
       -3    1    3    3    0  502  0.91349097451E+03  0.11209920155E+04 -0.10651890197E+04  0.17960279834E+04  0.10100000352E+00 0. -1.
</event>
<event>
 5   0  0.9388076E-08  0.2900619E+04  0.7818609E-02  0.8272693E-01
       -1   -1    0    0    0  501  0.00000000000E+00  0.00000000000E+00  0.10478458170E+04  0.10478458171E+04  0.50400001928E-02 0. -1.
        1   -1    0    0  501    0  0.00000000000E+00  0.00000000000E+00 -0.20073544114E+04  0.20073544114E+04  0.50400001928E-02 0.  1.
    10030    2    1    2    0    0  0.00000000000E+00  0.00000000000E+00 -0.95950859436E+03  0.30552002285E+04  0.29006191914E+04 0.  0.
        5    1    3    3  502    0  0.14618513628E+03  0.47859529219E+03  0.95402095474E+03  0.10773122202E+04  0.46999998093E+01 0. -1.
       -5    1    3    3    0  502 -0.14618513628E+03 -0.47859529219E+03 -0.19135295491E+04  0.19778880082E+04  0.46999998093E+01 0.  1.
</event>
<event>
 5   0  0.9443352E-08  0.2901617E+04  0.7818609E-02  0.8272397E-01
        1   -1    0    0  501    0  0.00000000000E+00  0.00000000000E+00  0.15921258995E+04  0.15921258995E+04  0.50400001928E-02 0.  1.
       -1   -1    0    0    0  501  0.00000000000E+00  0.00000000000E+00 -0.13220341854E+04  0.13220341854E+04  0.50400001928E-02 0. -1.
    10030    2    1    2    0    0  0.00000000000E+00  0.00000000000E+00  0.27009171413E+03  0.29141600850E+04  0.29016166988E+04 0.  0.
        4    1    3    3  502    0 -0.67259264061E+03  0.12053587533E+04 -0.31362090419E+03  0.14154964743E+04  0.12699999809E+01 0. -1.
       -4    1    3    3    0  502  0.67259264061E+03 -0.12053587533E+04  0.58371261832E+03  0.14986636107E+04  0.12699999809E+01 0.  1.
</event>
<event>
 5   0  0.2608591E-07  0.2900550E+04  0.7818609E-02  0.8272714E-01
       -2   -1    0    0    0  501  0.00000000000E+00  0.00000000000E+00  0.12611115054E+04  0.12611115054E+04  0.25500000920E-02 0. -1.
        2   -1    0    0  501    0  0.00000000000E+00  0.00000000000E+00 -0.16678120116E+04  0.16678120116E+04  0.25500000920E-02 0.  1.
    10030    2    1    2    0    0  0.00000000000E+00  0.00000000000E+00 -0.40670050623E+03  0.29289235169E+04  0.29005495456E+04 0.  0.
        2    1    3    3  502    0  0.12261471317E+04 -0.70727973865E+03  0.11535645216E+03  0.14202072132E+04  0.25500000920E-02 0. -1.
       -2    1    3    3    0  502 -0.12261471317E+04  0.70727973865E+03 -0.52205695838E+03  0.15087163037E+04  0.25500000920E-02 0.  1.
</event>
<event>
 5   0  0.2492232E-07  0.2900390E+04  0.7818609E-02  0.8272762E-01
        2   -1    0    0  501    0  0.00000000000E+00  0.00000000000E+00  0.16881551789E+04  0.16881551789E+04  0.25500000920E-02 0.  1.
       -2   -1    0    0    0  501  0.00000000000E+00  0.00000000000E+00 -0.12457772037E+04  0.12457772038E+04  0.25500000920E-02 0. -1.
    10030    2    1    2    0    0  0.00000000000E+00  0.00000000000E+00  0.44237797510E+03  0.29339323826E+04  0.29003897933E+04 0.  0.
        4    1    3    3  502    0  0.11161654066E+04 -0.84854311309E+03  0.59589559851E+03  0.15234644095E+04  0.12699999809E+01 0. -1.
       -4    1    3    3    0  502 -0.11161654066E+04  0.84854311309E+03 -0.15351762341E+03  0.14104679731E+04  0.12699999809E+01 0.  1.
</event>
<event>
 5   0  0.2492232E-07  0.2897035E+04  0.7818609E-02  0.8273760E-01
        2   -1    0    0  501    0  0.00000000000E+00  0.00000000000E+00  0.11553378971E+04  0.11553378971E+04  0.25500000920E-02 0.  1.
       -2   -1    0    0    0  501  0.00000000000E+00  0.00000000000E+00 -0.18160950812E+04  0.18160950812E+04  0.25500000920E-02 0. -1.
    10030    2    1    2    0    0  0.00000000000E+00  0.00000000000E+00 -0.66075718412E+03  0.29714329783E+04  0.28970353619E+04 0.  0.
        4    1    3    3  502    0  0.13681458801E+04  0.35937944209E+03 -0.10561698094E+02  0.14145988460E+04  0.12699999809E+01 0.  1.
       -4    1    3    3    0  502 -0.13681458801E+04 -0.35937944209E+03 -0.65019548603E+03  0.15568341323E+04  0.12699999809E+01 0. -1.
</event>
<event>
 5   0  0.9443352E-08  0.2899585E+04  0.7818609E-02  0.8273001E-01
       -1   -1    0    0    0  501  0.00000000000E+00  0.00000000000E+00  0.10716118480E+04  0.10716118480E+04  0.50400001928E-02 0. -1.
        1   -1    0    0  501    0  0.00000000000E+00  0.00000000000E+00 -0.19614355447E+04  0.19614355447E+04  0.50400001928E-02 0.  1.
    10030    2    1    2    0    0  0.00000000000E+00  0.00000000000E+00 -0.88982369673E+03  0.30330473927E+04  0.28995845005E+04 0.  0.
        4    1    3    3  502    0 -0.12638810998E+03  0.11040270432E+04  0.52910073766E+03  0.12307716563E+04  0.12699999809E+01 0. -1.
       -4    1    3    3    0  502  0.12638810998E+03 -0.11040270432E+04 -0.14189244344E+04  0.18022757364E+04  0.12699999809E+01 0.  1.
</event>
<event>
 5   0  0.2608591E-07  0.2898568E+04  0.7818609E-02  0.8273304E-01
       -2   -1    0    0    0  501  0.00000000000E+00  0.00000000000E+00  0.18741309185E+04  0.18741309185E+04  0.25500000920E-02 0.  1.
        2   -1    0    0  501    0  0.00000000000E+00  0.00000000000E+00 -0.11207453990E+04  0.11207453990E+04  0.25500000920E-02 0. -1.
    10030    2    1    2    0    0  0.00000000000E+00  0.00000000000E+00  0.75338551947E+03  0.29948763175E+04  0.28985676491E+04 0.  0.
        2    1    3    3  502    0  0.76089245198E+03 -0.55306928642E+02  0.16498721803E+04  0.18177168072E+04  0.25500000920E-02 0.  1.
       -2    1    3    3    0  502 -0.76089245198E+03  0.55306928642E+02 -0.89648666080E+03  0.11771595104E+04  0.25500000920E-02 0. -1.
</event>
<event>
 5   0  0.2492232E-07  0.2900370E+04  0.7818609E-02  0.8272767E-01
       -2   -1    0    0    0  501  0.00000000000E+00  0.00000000000E+00  0.11286428570E+04  0.11286428570E+04  0.25500000920E-02 0.  1.
        2   -1    0    0  501    0  0.00000000000E+00  0.00000000000E+00 -0.18633325342E+04  0.18633325342E+04  0.25500000920E-02 0. -1.
    10030    2    1    2    0    0  0.00000000000E+00  0.00000000000E+00 -0.73468967721E+03  0.29919753911E+04  0.29003702900E+04 0.  0.
        4    1    3    3  502    0 -0.27392170835E+03 -0.22256505608E+03  0.10836603943E+04  0.11396884528E+04  0.12699999809E+01 0.  1.
       -4    1    3    3    0  502  0.27392170835E+03  0.22256505608E+03 -0.18183500715E+04  0.18522869383E+04  0.12699999809E+01 0. -1.
</event>
<event>
 5   0  0.2678723E-07  0.2900026E+04  0.7818609E-02  0.8272870E-01
        2   -1    0    0  501    0  0.00000000000E+00  0.00000000000E+00  0.18365539968E+04  0.18365539968E+04  0.25500000920E-02 0.  1.
       -2   -1    0    0    0  501  0.00000000000E+00  0.00000000000E+00 -0.11448278401E+04  0.11448278401E+04  0.25500000920E-02 0. -1.
    10030    2    1    2    0    0  0.00000000000E+00  0.00000000000E+00  0.69172615671E+03  0.29813818370E+04  0.29000263071E+04 0.  0.
        5    1    3    3  502    0  0.11163835080E+04 -0.34760361246E+03 -0.53573429097E+03  0.12861468535E+04  0.46999998093E+01 0. -1.
       -5    1    3    3    0  502 -0.11163835080E+04  0.34760361246E+03  0.12274604477E+04  0.16952349834E+04  0.46999998093E+01 0.  1.
</event>
<event>
 5   0  0.9395744E-08  0.2902546E+04  0.7818609E-02  0.8272120E-01
        1   -1    0    0  501    0  0.00000000000E+00  0.00000000000E+00  0.15701660274E+04  0.15701660274E+04  0.50400001928E-02 0. -1.
       -1   -1    0    0    0  501  0.00000000000E+00  0.00000000000E+00 -0.13413827228E+04  0.13413827228E+04  0.50400001928E-02 0.  1.
    10030    2    1    2    0    0  0.00000000000E+00  0.00000000000E+00  0.22878330463E+03  0.29115487501E+04  0.29025461795E+04 0.  0.
        2    1    3    3  502    0  0.83798205743E+03 -0.69471729961E+03  0.10772372856E+04  0.15314327359E+04  0.25500000920E-02 0. -1.
       -2    1    3    3    0  502 -0.83798205743E+03  0.69471729961E+03 -0.84845398101E+03  0.13801160143E+04  0.25500000920E-02 0.  1.
</event>
<event>
 5   0  0.2678723E-07  0.2900746E+04  0.7818609E-02  0.8272656E-01
        2   -1    0    0  501    0  0.00000000000E+00  0.00000000000E+00  0.16949506953E+04  0.16949506953E+04  0.25500000920E-02 0. -1.
       -2   -1    0    0    0  501  0.00000000000E+00  0.00000000000E+00 -0.12410872470E+04  0.12410872470E+04  0.25500000920E-02 0.  1.
    10030    2    1    2    0    0  0.00000000000E+00  0.00000000000E+00  0.45386344833E+03  0.29360379423E+04  0.29007458988E+04 0.  0.
        5    1    3    3  502    0  0.47759073617E+02  0.46495703756E+03  0.16166233462E+04  0.16828425682E+04  0.46999998093E+01 0. -1.
       -5    1    3    3    0  502 -0.47759073617E+02 -0.46495703756E+03 -0.11627598978E+04  0.12531953742E+04  0.46999998093E+01 0.  1.
</event>
<event>
 5   0  0.8407500E-08  0.2901288E+04  0.7818609E-02  0.8272494E-01
        3   -1    0    0  501    0  0.00000000000E+00  0.00000000000E+00  0.14297575693E+04  0.14297575729E+04  0.10100000352E+00 0.  1.
       -3   -1    0    0    0  501  0.00000000000E+00  0.00000000000E+00 -0.14718358348E+04  0.14718358383E+04  0.10100000352E+00 0. -1.
    10030    2    1    2    0    0  0.00000000000E+00  0.00000000000E+00 -0.42078265481E+02  0.29015934111E+04  0.29012882903E+04 0.  0.
        4    1    3    3  502    0  0.10537531725E+04 -0.54724481481E+03  0.81241168823E+03  0.14387101862E+04  0.12699999809E+01 0.  1.
       -4    1    3    3    0  502 -0.10537531725E+04  0.54724481481E+03 -0.85448995371E+03  0.14628832249E+04  0.12699999809E+01 0. -1.
</event>
<event>
 5   0  0.9395744E-08  0.2899876E+04  0.7818609E-02  0.8272914E-01
       -1   -1    0    0    0  501  0.00000000000E+00  0.00000000000E+00  0.12907566876E+04  0.12907566877E+04  0.50400001928E-02 0.  1.
        1   -1    0    0  501    0  0.00000000000E+00  0.00000000000E+00 -0.16287501546E+04  0.16287501546E+04  0.50400001928E-02 0. -1.
    10030    2    1    2    0    0  0.00000000000E+00  0.00000000000E+00 -0.33799346697E+03  0.29195068423E+04  0.28998759660E+04 0.  0.
        2    1    3    3  502    0 -0.60600606851E+03 -0.13001494955E+04  0.43829895235E+02  0.14351143249E+04  0.25500000920E-02 0.  1.
       -2    1    3    3    0  502  0.60600606851E+03  0.13001494955E+04 -0.38182336221E+03  0.14843925174E+04  0.25500000920E-02 0. -1.
</event>
<event>
 5   0  0.2546841E-07  0.2899965E+04  0.7818609E-02  0.8272888E-01
        2   -1    0    0  501    0  0.00000000000E+00  0.00000000000E+00  0.17219968472E+04  0.17219968472E+04  0.25500000920E-02 0. -1.
       -2   -1    0    0    0  501  0.00000000000E+00  0.00000000000E+00 -0.12209369343E+04  0.12209369343E+04  0.25500000920E-02 0.  1.
    10030    2    1    2    0    0  0.00000000000E+00  0.00000000000E+00  0.50105991295E+03  0.29429337815E+04  0.28999652077E+04 0.  0.
        1    1    3    3  502    0 -0.12060658318E+04 -0.80486878212E+03  0.25702830006E+03  0.14725732899E+04  0.50400001928E-02 0.  1.
       -1    1    3    3    0  502  0.12060658318E+04  0.80486878212E+03  0.24403161289E+03  0.14703604916E+04  0.50400001928E-02 0. -1.
</event>
<event>
 5   0  0.9443352E-08  0.2899668E+04  0.7818609E-02  0.8272976E-01
        1   -1    0    0  501    0  0.00000000000E+00  0.00000000000E+00  0.17177574547E+04  0.17177574547E+04  0.50400001928E-02 0. -1.
       -1   -1    0    0    0  501  0.00000000000E+00  0.00000000000E+00 -0.12236989364E+04  0.12236989364E+04  0.50400001928E-02 0.  1.
    10030    2    1    2    0    0  0.00000000000E+00  0.00000000000E+00  0.49405851828E+03  0.29414563911E+04  0.28996675467E+04 0.  0.
        4    1    3    3  502    0 -0.67029325865E+03 -0.11282094771E+04 -0.37818634276E+03  0.13657145381E+04  0.12699999809E+01 0.  1.
       -4    1    3    3    0  502  0.67029325865E+03  0.11282094771E+04  0.87224486104E+03  0.15757418530E+04  0.12699999809E+01 0. -1.
</event>
<event>
 5   0  0.2534588E-07  0.2900336E+04  0.7818609E-02  0.8272777E-01
       -2   -1    0    0    0  501  0.00000000000E+00  0.00000000000E+00  0.11452175595E+04  0.11452175595E+04  0.25500000920E-02 0.  1.
        2   -1    0    0  501    0  0.00000000000E+00  0.00000000000E+00 -0.18363216412E+04  0.18363216412E+04  0.25500000920E-02 0. -1.
    10030    2    1    2    0    0  0.00000000000E+00  0.00000000000E+00 -0.69110408166E+03  0.29815392007E+04  0.29003363863E+04 0.  0.
        3    1    3    3  502    0  0.72954983700E+03 -0.29019322935E+03  0.90781822236E+03  0.12002453958E+04  0.10100000352E+00 0.  1.
       -3    1    3    3    0  502 -0.72954983700E+03  0.29019322935E+03 -0.15989223040E+04  0.17812938049E+04  0.10100000352E+00 0. -1.
</event>
<event>
 5   0  0.9388076E-08  0.2900090E+04  0.7818609E-02  0.8272851E-01
        1   -1    0    0  501    0  0.00000000000E+00  0.00000000000E+00  0.27599734430E+04  0.27599734430E+04  0.50400001928E-02 0.  1.
       -1   -1    0    0    0  501  0.00000000000E+00  0.00000000000E+00 -0.76183015978E+03  0.76183015979E+03  0.50400001928E-02 0. -1.
    10030    2    1    2    0    0  0.00000000000E+00  0.00000000000E+00  0.19981432832E+04  0.35218036028E+04  0.29000903497E+04 0.  0.
        5    1    3    3  502    0 -0.16714066096E+03 -0.11666617013E+04 -0.26752532900E+02  0.11788864720E+04  0.46999998093E+01 0. -1.
       -5    1    3    3    0  502  0.16714066096E+03  0.11666617013E+04  0.20248958161E+04  0.23429171308E+04  0.46999998093E+01 0.  1.
</event>
<event>
 5   0  0.9763851E-08  0.2900341E+04  0.7818609E-02  0.8272776E-01
       -1   -1    0    0    0  501  0.00000000000E+00  0.00000000000E+00  0.11342814035E+04  0.11342814036E+04  0.50400001928E-02 0. -1.
        1   -1    0    0  501    0  0.00000000000E+00  0.00000000000E+00 -0.18540321551E+04  0.18540321551E+04  0.50400001928E-02 0.  1.
    10030    2    1    2    0    0  0.00000000000E+00  0.00000000000E+00 -0.71975075156E+03  0.29883135587E+04  0.29003408042E+04 0.  0.
        3    1    3    3  502    0 -0.98864013670E+03 -0.53068452863E+03  0.58666197193E+03  0.12661783714E+04  0.10100000352E+00 0. -1.
       -3    1    3    3    0  502  0.98864013670E+03  0.53068452863E+03 -0.13064127235E+04  0.17221351872E+04  0.10100000352E+00 0.  1.
</event>
<event>
 5   0  0.2608591E-07  0.2896142E+04  0.7818609E-02  0.8274026E-01
        2   -1    0    0  501    0  0.00000000000E+00  0.00000000000E+00  0.19461389293E+04  0.19461389293E+04  0.25500000920E-02 0. -1.
       -2   -1    0    0    0  501  0.00000000000E+00  0.00000000000E+00 -0.10774714855E+04  0.10774714855E+04  0.25500000920E-02 0.  1.
    10030    2    1    2    0    0  0.00000000000E+00  0.00000000000E+00  0.86866744379E+03  0.30236104148E+04  0.28961417114E+04 0.  0.
        2    1    3    3  502    0  0.19797862885E+03  0.13990252964E+04  0.10345910416E+03  0.14167466618E+04  0.25500000920E-02 0. -1.
       -2    1    3    3    0  502 -0.19797862885E+03 -0.13990252964E+04  0.76520833963E+03  0.16068637529E+04  0.25500000920E-02 0.  1.
</event>
<event>
 5   0  0.2678723E-07  0.2898044E+04  0.7818609E-02  0.8273460E-01
        2   -1    0    0  501    0  0.00000000000E+00  0.00000000000E+00  0.12516445468E+04  0.12516445468E+04  0.25500000920E-02 0. -1.
       -2   -1    0    0    0  501  0.00000000000E+00  0.00000000000E+00 -0.16775243581E+04  0.16775243581E+04  0.25500000920E-02 0.  1.
    10030    2    1    2    0    0  0.00000000000E+00  0.00000000000E+00 -0.42587981129E+03  0.29291689049E+04  0.28980436263E+04 0.  0.
        5    1    3    3  502    0 -0.26569152025E+03 -0.16990858298E+03  0.12165272076E+04  0.12567503520E+04  0.46999998093E+01 0. -1.
       -5    1    3    3    0  502  0.26569152025E+03  0.16990858298E+03 -0.16424070189E+04  0.16724185529E+04  0.46999998093E+01 0.  1.
</event>
<event>
 5   0  0.9443352E-08  0.2889341E+04  0.7818609E-02  0.8276056E-01
       -1   -1    0    0    0  501  0.00000000000E+00  0.00000000000E+00  0.65285751694E+03  0.65285751696E+03  0.50400001928E-02 0.  1.
        1   -1    0    0  501    0  0.00000000000E+00  0.00000000000E+00 -0.31968279617E+04  0.31968279617E+04  0.50400001928E-02 0. -1.
    10030    2    1    2    0    0  0.00000000000E+00  0.00000000000E+00 -0.25439704448E+04  0.38496854787E+04  0.28893412157E+04 0.  0.
        4    1    3    3  502    0  0.34880180524E+03  0.11994210401E+04 -0.30493621435E+03  0.12857920666E+04  0.12699999809E+01 0.  1.
       -4    1    3    3    0  502 -0.34880180524E+03 -0.11994210401E+04 -0.22390342304E+04  0.25638934121E+04  0.12699999809E+01 0. -1.
</event>
<event>
 5   0  0.2492232E-07  0.2894608E+04  0.7818609E-02  0.8274484E-01
       -2   -1    0    0    0  501  0.00000000000E+00  0.00000000000E+00  0.11977102108E+04  0.11977102108E+04  0.25500000920E-02 0. -1.
        2   -1    0    0  501    0  0.00000000000E+00  0.00000000000E+00 -0.17489114374E+04  0.17489114374E+04  0.25500000920E-02 0.  1.
    10030    2    1    2    0    0  0.00000000000E+00  0.00000000000E+00 -0.55120122659E+03  0.29466216482E+04  0.28946081506E+04 0.  0.
        4    1    3    3  502    0 -0.95124900139E+03  0.21210811751E+03  0.81358967278E+03  0.12695646044E+04  0.12699999809E+01 0. -1.
       -4    1    3    3    0  502  0.95124900139E+03 -0.21210811751E+03 -0.13647908994E+04  0.16770570438E+04  0.12699999809E+01 0.  1.
</event>
<event>
 5   0  0.9388076E-08  0.2892703E+04  0.7818609E-02  0.8275052E-01
        1   -1    0    0  501    0  0.00000000000E+00  0.00000000000E+00  0.18417380266E+04  0.18417380266E+04  0.50400001928E-02 0. -1.
       -1   -1    0    0    0  501  0.00000000000E+00  0.00000000000E+00 -0.11358467841E+04  0.11358467841E+04  0.50400001928E-02 0.  1.
    10030    2    1    2    0    0  0.00000000000E+00  0.00000000000E+00  0.70589124252E+03  0.29775848108E+04  0.28927026911E+04 0.  0.
        5    1    3    3  502    0 -0.51520505180E+03 -0.29686417969E+03 -0.10042060766E+04  0.11670546349E+04  0.46999998093E+01 0.  1.
       -5    1    3    3    0  502  0.51520505180E+03  0.29686417969E+03  0.17100973192E+04  0.18105301758E+04  0.46999998093E+01 0. -1.
</event>
<event>
 5   0  0.2608591E-07  0.2899432E+04  0.7818609E-02  0.8273046E-01
        2   -1    0    0  501    0  0.00000000000E+00  0.00000000000E+00  0.13781563547E+04  0.13781563547E+04  0.25500000920E-02 0. -1.
       -2   -1    0    0    0  501  0.00000000000E+00  0.00000000000E+00 -0.15249913738E+04  0.15249913738E+04  0.25500000920E-02 0.  1.
    10030    2    1    2    0    0  0.00000000000E+00  0.00000000000E+00 -0.14683501909E+03  0.29031477284E+04  0.28994320496E+04 0.  0.
        2    1    3    3  502    0 -0.58432311776E+03  0.10199069605E+04 -0.92305242718E+03  0.14945465859E+04  0.25500000920E-02 0.  1.
       -2    1    3    3    0  502  0.58432311776E+03 -0.10199069605E+04  0.77621740810E+03  0.14086011425E+04  0.25500000920E-02 0. -1.
</event>
<event>
 5   0  0.2534588E-07  0.2899458E+04  0.7818609E-02  0.8273039E-01
       -2   -1    0    0    0  501  0.00000000000E+00  0.00000000000E+00  0.88955603077E+03  0.88955603077E+03  0.25500000920E-02 0.  1.
        2   -1    0    0  501    0  0.00000000000E+00  0.00000000000E+00 -0.23626555699E+04  0.23626555699E+04  0.25500000920E-02 0. -1.
    10030    2    1    2    0    0  0.00000000000E+00  0.00000000000E+00 -0.14730995391E+04  0.32522116007E+04  0.28994582327E+04 0.  0.
        3    1    3    3  502    0  0.10354162385E+04 -0.73784814801E+03 -0.15178641816E+04  0.19800046365E+04  0.10100000352E+00 0. -1.
       -3    1    3    3    0  502 -0.10354162385E+04  0.73784814801E+03  0.44764642432E+02  0.12722069642E+04  0.10100000352E+00 0.  1.
</event>
<event>
 5   0  0.9395744E-08  0.2900525E+04  0.7818609E-02  0.8272721E-01
        1   -1    0    0  501    0  0.00000000000E+00  0.00000000000E+00  0.88684079074E+03  0.88684079075E+03  0.50400001928E-02 0. -1.
       -1   -1    0    0    0  501  0.00000000000E+00  0.00000000000E+00 -0.23716333263E+04  0.23716333263E+04  0.50400001928E-02 0.  1.
    10030    2    1    2    0    0  0.00000000000E+00  0.00000000000E+00 -0.14847925355E+04  0.32584741170E+04  0.29005249004E+04 0.  0.
        2    1    3    3  502    0  0.19034993491E+03  0.18204380505E+03  0.85974648023E+03  0.89918688544E+03  0.25500000920E-02 0. -1.
       -2    1    3    3    0  502 -0.19034993491E+03 -0.18204380505E+03 -0.23445390157E+04  0.23592872316E+04  0.25500000920E-02 0.  1.
</event>
<event>
 5   0  0.9388076E-08  0.2909697E+04  0.7818609E-02  0.8269998E-01
       -1   -1    0    0    0  501  0.00000000000E+00  0.00000000000E+00  0.77385975768E+03  0.77385975769E+03  0.50400001928E-02 0. -1.
        1   -1    0    0  501    0  0.00000000000E+00  0.00000000000E+00 -0.27351009517E+04  0.27351009517E+04  0.50400001928E-02 0.  1.
    10030    2    1    2    0    0  0.00000000000E+00  0.00000000000E+00 -0.19612411940E+04  0.35089607094E+04  0.29096972762E+04 0.  0.
        5    1    3    3  502    0 -0.12796584100E+03  0.11412250963E+04 -0.20577693190E+04  0.23565242704E+04  0.46999998093E+01 0.  1.
       -5    1    3    3    0  502  0.12796584100E+03 -0.11412250963E+04  0.96528124955E+02  0.11524364390E+04  0.46999998093E+01 0. -1.
</event>
<event>
 5   0  0.2534588E-07  0.2901323E+04  0.7818609E-02  0.8272484E-01
        2   -1    0    0  501    0  0.00000000000E+00  0.00000000000E+00  0.22849391582E+04  0.22849391582E+04  0.25500000920E-02 0. -1.
       -2   -1    0    0    0  501  0.00000000000E+00  0.00000000000E+00 -0.92099576274E+03  0.92099576274E+03  0.25500000920E-02 0.  1.
    10030    2    1    2    0    0  0.00000000000E+00  0.00000000000E+00  0.13639433954E+04  0.32059349209E+04  0.29013233414E+04 0.  0.
        3    1    3    3  502    0 -0.78798444125E+03 -0.29151613341E+02  0.20274536840E+04  0.21753936993E+04  0.10100000352E+00 0. -1.
       -3    1    3    3    0  502  0.78798444125E+03  0.29151613341E+02 -0.66351028853E+03  0.10305412216E+04  0.10100000352E+00 0.  1.
</event>
<event>
 5   0  0.2534588E-07  0.2899418E+04  0.7818609E-02  0.8273051E-01
       -2   -1    0    0    0  501  0.00000000000E+00  0.00000000000E+00  0.14092785477E+04  0.14092785477E+04  0.25500000920E-02 0. -1.
        2   -1    0    0  501    0  0.00000000000E+00  0.00000000000E+00 -0.14912993878E+04  0.14912993878E+04  0.25500000920E-02 0.  1.
    10030    2    1    2    0    0  0.00000000000E+00  0.00000000000E+00 -0.82020840047E+02  0.29005779355E+04  0.28994180350E+04 0.  0.
        3    1    3    3  502    0  0.93002686786E+03 -0.21449883608E+03 -0.11326373512E+04  0.14811573533E+04  0.10100000352E+00 0.  1.
       -3    1    3    3    0  502 -0.93002686786E+03  0.21449883608E+03  0.10506165111E+04  0.14194205822E+04  0.10100000352E+00 0. -1.
</event>
<event>
 5   0  0.2608591E-07  0.2900103E+04  0.7818609E-02  0.8272847E-01
        2   -1    0    0  501    0  0.00000000000E+00  0.00000000000E+00  0.26076442055E+04  0.26076442055E+04  0.25500000920E-02 0. -1.
       -2   -1    0    0    0  501  0.00000000000E+00  0.00000000000E+00 -0.80634050335E+03  0.80634050335E+03  0.25500000920E-02 0.  1.
    10030    2    1    2    0    0  0.00000000000E+00  0.00000000000E+00  0.18013037021E+04  0.34139847088E+04  0.29001028542E+04 0.  0.
        2    1    3    3  502    0 -0.40761363424E+03 -0.12028750616E+04  0.17243446360E+04  0.21415932649E+04  0.25500000920E-02 0. -1.
       -2    1    3    3    0  502  0.40761363424E+03  0.12028750616E+04  0.76959066131E+02  0.12723914439E+04  0.25500000920E-02 0.  1.
</event>
<event>
 5   0  0.9421924E-08  0.2899467E+04  0.7818609E-02  0.8273036E-01
       -1   -1    0    0    0  501  0.00000000000E+00  0.00000000000E+00  0.14170348683E+04  0.14170348683E+04  0.50400001928E-02 0.  1.
        1   -1    0    0  501    0  0.00000000000E+00  0.00000000000E+00 -0.14831864827E+04  0.14831864827E+04  0.50400001928E-02 0. -1.
    10030    2    1    2    0    0  0.00000000000E+00  0.00000000000E+00 -0.66151614387E+02  0.29002213510E+04  0.28994668215E+04 0.  0.
        1    1    3    3  502    0  0.35818560855E+03 -0.13993913982E+04  0.89975499920E+02  0.14473039785E+04  0.50400001928E-02 0. -1.
       -1    1    3    3    0  502 -0.35818560855E+03  0.13993913982E+04 -0.15612711431E+03  0.14529173725E+04  0.50400001928E-02 0.  1.
</event>
<event>
 5   0  0.2492232E-07  0.2899824E+04  0.7818609E-02  0.8272930E-01
        2   -1    0    0  501    0  0.00000000000E+00  0.00000000000E+00  0.14327249937E+04  0.14327249937E+04  0.25500000920E-02 0.  1.
       -2   -1    0    0    0  501  0.00000000000E+00  0.00000000000E+00 -0.14673055755E+04  0.14673055755E+04  0.25500000920E-02 0. -1.
    10030    2    1    2    0    0  0.00000000000E+00  0.00000000000E+00 -0.34580581825E+02  0.29000305692E+04  0.28998243888E+04 0.  0.
        4    1    3    3  502    0  0.10652864806E+04  0.49600326174E+03 -0.86669703910E+03  0.14601437915E+04  0.12699999809E+01 0. -1.
       -4    1    3    3    0  502 -0.10652864806E+04 -0.49600326174E+03  0.83211645727E+03  0.14398867777E+04  0.12699999809E+01 0.  1.
</event>
<event>
 5   0  0.2534588E-07  0.2899596E+04  0.7818609E-02  0.8272998E-01
        2   -1    0    0  501    0  0.00000000000E+00  0.00000000000E+00  0.18974701741E+04  0.18974701741E+04  0.25500000920E-02 0. -1.
       -2   -1    0    0    0  501  0.00000000000E+00  0.00000000000E+00 -0.11077452687E+04  0.11077452687E+04  0.25500000920E-02 0.  1.
    10030    2    1    2    0    0  0.00000000000E+00  0.00000000000E+00  0.78972490547E+03  0.30052154428E+04  0.28995955634E+04 0.  0.
        3    1    3    3  502    0 -0.96081224209E+03  0.44305744169E+03  0.14221551372E+04  0.17725646125E+04  0.10100000352E+00 0. -1.
       -3    1    3    3    0  502  0.96081224209E+03 -0.44305744169E+03 -0.63243023173E+03  0.12326508303E+04  0.10100000352E+00 0.  1.
</event>
<event>
 5   0  0.9395744E-08  0.2892458E+04  0.7818609E-02  0.8275125E-01
        1   -1    0    0  501    0  0.00000000000E+00  0.00000000000E+00  0.21598914758E+04  0.21598914758E+04  0.50400001928E-02 0. -1.
       -1   -1    0    0    0  501  0.00000000000E+00  0.00000000000E+00 -0.96837167035E+03  0.96837167036E+03  0.50400001928E-02 0.  1.
    10030    2    1    2    0    0  0.00000000000E+00  0.00000000000E+00  0.11915198055E+04  0.31282631462E+04  0.28924575822E+04 0.  0.
        2    1    3    3  502    0 -0.12488404756E+04  0.72594157403E+03  0.51940693908E+03  0.15350495988E+04  0.25500000920E-02 0.  1.
       -2    1    3    3    0  502  0.12488404756E+04 -0.72594157403E+03  0.67211286638E+03  0.15932135474E+04  0.25500000920E-02 0. -1.
</event>
<event>
 5   0  0.9421924E-08  0.2898307E+04  0.7818609E-02  0.8273381E-01
       -1   -1    0    0    0  501  0.00000000000E+00  0.00000000000E+00  0.10052017565E+04  0.10052017565E+04  0.50400001928E-02 0. -1.
        1   -1    0    0  501    0  0.00000000000E+00  0.00000000000E+00 -0.20891779889E+04  0.20891779889E+04  0.50400001928E-02 0.  1.
    10030    2    1    2    0    0  0.00000000000E+00  0.00000000000E+00 -0.10839762324E+04  0.30943797454E+04  0.28983066671E+04 0.  0.
        1    1    3    3  502    0 -0.30930952657E+03 -0.13463589073E+04 -0.10094323300E+04  0.17109378479E+04  0.50400001928E-02 0.  1.
       -1    1    3    3    0  502  0.30930952657E+03  0.13463589073E+04 -0.74543902340E+02  0.13834418975E+04  0.50400001928E-02 0. -1.
</event>
<event>
 5   0  0.2546841E-07  0.2901123E+04  0.7818609E-02  0.8272544E-01
        2   -1    0    0  501    0  0.00000000000E+00  0.00000000000E+00  0.11654605526E+04  0.11654605526E+04  0.25500000920E-02 0.  1.
       -2   -1    0    0    0  501  0.00000000000E+00  0.00000000000E+00 -0.18054049004E+04  0.18054049004E+04  0.25500000920E-02 0. -1.
    10030    2    1    2    0    0  0.00000000000E+00  0.00000000000E+00 -0.63994434780E+03  0.29708654529E+04  0.29011226743E+04 0.  0.
        1    1    3    3  502    0 -0.11092925643E+04  0.43648061578E+03 -0.11663291689E+04  0.16677437007E+04  0.50400001928E-02 0. -1.
       -1    1    3    3    0  502  0.11092925643E+04 -0.43648061578E+03  0.52638482108E+03  0.13031217522E+04  0.50400001928E-02 0.  1.
</event>
<event>
 5   0  0.9388076E-08  0.2900760E+04  0.7818609E-02  0.8272651E-01
        1   -1    0    0  501    0  0.00000000000E+00  0.00000000000E+00  0.23893955707E+04  0.23893955707E+04  0.50400001928E-02 0.  1.
       -1   -1    0    0    0  501  0.00000000000E+00  0.00000000000E+00 -0.88039086833E+03  0.88039086835E+03  0.50400001928E-02 0. -1.
    10030    2    1    2    0    0  0.00000000000E+00  0.00000000000E+00  0.15090047024E+04  0.32697864391E+04  0.29007599289E+04 0.  0.
        5    1    3    3  502    0  0.90893159347E+03 -0.10831277195E+04  0.39053571659E+03  0.14669228113E+04  0.46999998093E+01 0. -1.
       -5    1    3    3    0  502 -0.90893159347E+03  0.10831277195E+04  0.11184689858E+04  0.18028636278E+04  0.46999998093E+01 0.  1.
</event>
<event>
 5   0  0.9421924E-08  0.2900704E+04  0.7818609E-02  0.8272668E-01
        1   -1    0    0  501    0  0.00000000000E+00  0.00000000000E+00  0.12688700680E+04  0.12688700680E+04  0.50400001928E-02 0.  1.
       -1   -1    0    0    0  501  0.00000000000E+00  0.00000000000E+00 -0.16577904618E+04  0.16577904618E+04  0.50400001928E-02 0. -1.
    10030    2    1    2    0    0  0.00000000000E+00  0.00000000000E+00 -0.38892039377E+03  0.29266605299E+04  0.29007038429E+04 0.  0.
        1    1    3    3  502    0  0.52396805112E+03 -0.57190259942E+03 -0.14309492553E+04  0.16276458070E+04  0.50400001928E-02 0. -1.
       -1    1    3    3    0  502 -0.52396805112E+03  0.57190259942E+03  0.10420288615E+04  0.12990147228E+04  0.50400001928E-02 0.  1.
</event>
<event>
 5   0  0.2534588E-07  0.2898786E+04  0.7818609E-02  0.8273239E-01
        2   -1    0    0  501    0  0.00000000000E+00  0.00000000000E+00  0.10879500906E+04  0.10879500906E+04  0.25500000920E-02 0. -1.
       -2   -1    0    0    0  501  0.00000000000E+00  0.00000000000E+00 -0.19309152890E+04  0.19309152890E+04  0.25500000920E-02 0.  1.
    10030    2    1    2    0    0  0.00000000000E+00  0.00000000000E+00 -0.84296519841E+03  0.30188653796E+04  0.28987855827E+04 0.  0.
        3    1    3    3  502    0  0.14290898545E+03 -0.31458030438E+03 -0.18873979050E+04  0.19187638229E+04  0.10100000352E+00 0.  1.
       -3    1    3    3    0  502 -0.14290898545E+03  0.31458030438E+03  0.10444327066E+04  0.11001015566E+04  0.10100000352E+00 0. -1.
</event>
<event>
 5   0  0.9421924E-08  0.2899898E+04  0.7818609E-02  0.8272908E-01
        1   -1    0    0  501    0  0.00000000000E+00  0.00000000000E+00  0.15402337198E+04  0.15402337198E+04  0.50400001928E-02 0. -1.
       -1   -1    0    0    0  501  0.00000000000E+00  0.00000000000E+00 -0.13649562100E+04  0.13649562101E+04  0.50400001928E-02 0.  1.
    10030    2    1    2    0    0  0.00000000000E+00  0.00000000000E+00  0.17527750976E+03  0.29051899299E+04  0.28998976401E+04 0.  0.
        1    1    3    3  502    0  0.67771705289E+03 -0.11341285697E+04 -0.51078173271E+03  0.14164907324E+04  0.50400001928E-02 0.  1.
       -1    1    3    3    0  502 -0.67771705289E+03  0.11341285697E+04  0.68605924247E+03  0.14886991975E+04  0.50400001928E-02 0. -1.
</event>
<event>
 5   0  0.9421924E-08  0.2909104E+04  0.7818609E-02  0.8270174E-01
       -1   -1    0    0    0  501  0.00000000000E+00  0.00000000000E+00  0.85757392028E+03  0.85757392030E+03  0.50400001928E-02 0.  1.
        1   -1    0    0  501    0  0.00000000000E+00  0.00000000000E+00 -0.24671003002E+04  0.24671003002E+04  0.50400001928E-02 0. -1.
    10030    2    1    2    0    0  0.00000000000E+00  0.00000000000E+00 -0.16095263799E+04  0.33246742205E+04  0.29091035569E+04 0.  0.
        1    1    3    3  502    0  0.28878521512E+03 -0.10324893031E+04 -0.19281869775E+04  0.22062039982E+04  0.50400001928E-02 0. -1.
       -1    1    3    3    0  502 -0.28878521512E+03  0.10324893031E+04  0.31866059764E+03  0.11184702222E+04  0.50400001928E-02 0.  1.
</event>
<event>
 5   0  0.9395744E-08  0.2900140E+04  0.7818609E-02  0.8272836E-01
        1   -1    0    0  501    0  0.00000000000E+00  0.00000000000E+00  0.23960074397E+04  0.23960074397E+04  0.50400001928E-02 0. -1.
       -1   -1    0    0    0  501  0.00000000000E+00  0.00000000000E+00 -0.87758603423E+03  0.87758603424E+03  0.50400001928E-02 0.  1.
    10030    2    1    2    0    0  0.00000000000E+00  0.00000000000E+00  0.15184214055E+04  0.32735934739E+04  0.29001397670E+04 0.  0.
        2    1    3    3  502    0 -0.12018973743E+04 -0.46189005689E+02 -0.15503239711E+03  0.12127348296E+04  0.25500000920E-02 0.  1.
       -2    1    3    3    0  502  0.12018973743E+04  0.46189005689E+02  0.16734538026E+04  0.20608586444E+04  0.25500000920E-02 0. -1.
</event>
<event>
 5   0  0.2546841E-07  0.2900000E+04  0.7818609E-02  0.8272877E-01
       -2   -1    0    0    0  501  0.00000000000E+00  0.00000000000E+00  0.14436177774E+04  0.14436177774E+04  0.25500000920E-02 0. -1.
        2   -1    0    0  501    0  0.00000000000E+00  0.00000000000E+00 -0.14564106276E+04  0.14564106276E+04  0.25500000920E-02 0.  1.
    10030    2    1    2    0    0  0.00000000000E+00  0.00000000000E+00 -0.12792850243E+02  0.29000284050E+04  0.29000001884E+04 0.  0.
        1    1    3    3  502    0 -0.58315685716E+03 -0.13205150394E+04 -0.14303004922E+03  0.14506169323E+04  0.50400001928E-02 0. -1.
       -1    1    3    3    0  502  0.58315685716E+03  0.13205150394E+04  0.13023719897E+03  0.14494114727E+04  0.50400001928E-02 0.  1.
</event>
<event>
 5   0  0.2534588E-07  0.2899528E+04  0.7818609E-02  0.8273018E-01
        2   -1    0    0  501    0  0.00000000000E+00  0.00000000000E+00  0.12637085242E+04  0.12637085242E+04  0.25500000920E-02 0. -1.
       -2   -1    0    0    0  501  0.00000000000E+00  0.00000000000E+00 -0.16632122610E+04  0.16632122610E+04  0.25500000920E-02 0.  1.
    10030    2    1    2    0    0  0.00000000000E+00  0.00000000000E+00 -0.39950373686E+03  0.29269207852E+04  0.28995279007E+04 0.  0.
        3    1    3    3  502    0 -0.12891832497E+04  0.17612395353E+03  0.44566512622E+03  0.13753655926E+04  0.10100000352E+00 0. -1.
       -3    1    3    3    0  502  0.12891832497E+04 -0.17612395353E+03 -0.84516886308E+03  0.15515551926E+04  0.10100000352E+00 0.  1.
</event>
<event>
 5   0  0.2608591E-07  0.2898111E+04  0.7818609E-02  0.8273440E-01
        2   -1    0    0  501    0  0.00000000000E+00  0.00000000000E+00  0.12630606253E+04  0.12630606253E+04  0.25500000920E-02 0. -1.
       -2   -1    0    0    0  501  0.00000000000E+00  0.00000000000E+00 -0.16624398346E+04  0.16624398346E+04  0.25500000920E-02 0.  1.
    10030    2    1    2    0    0  0.00000000000E+00  0.00000000000E+00 -0.39937920929E+03  0.29255004600E+04  0.28981113140E+04 0.  0.
        2    1    3    3  502    0 -0.59660844032E+02  0.54991205668E+03 -0.15516752207E+04  0.16473186324E+04  0.25500000920E-02 0.  1.
       -2    1    3    3    0  502  0.59660844032E+02 -0.54991205668E+03  0.11522960114E+04  0.12781818275E+04  0.25500000920E-02 0. -1.
</event>
<event>
 5   0  0.2492232E-07  0.2899106E+04  0.7818609E-02  0.8273144E-01
        2   -1    0    0  501    0  0.00000000000E+00  0.00000000000E+00  0.16449774598E+04  0.16449774598E+04  0.25500000920E-02 0.  1.
       -2   -1    0    0    0  501  0.00000000000E+00  0.00000000000E+00 -0.12773450144E+04  0.12773450144E+04  0.25500000920E-02 0. -1.
    10030    2    1    2    0    0  0.00000000000E+00  0.00000000000E+00  0.36763244543E+03  0.29223224742E+04  0.28991059015E+04 0.  0.
        4    1    3    3  502    0 -0.11825516739E+04 -0.25965543375E+03  0.98728963685E+03  0.15622393689E+04  0.12699999809E+01 0.  1.
       -4    1    3    3    0  502  0.11825516739E+04  0.25965543375E+03 -0.61965719141E+03  0.13600831053E+04  0.12699999809E+01 0. -1.
</event>
<event>
 5   0  0.2534588E-07  0.2901615E+04  0.7818609E-02  0.8272397E-01
       -2   -1    0    0    0  501  0.00000000000E+00  0.00000000000E+00  0.10695597095E+04  0.10695597095E+04  0.25500000920E-02 0.  1.
        2   -1    0    0  501    0  0.00000000000E+00  0.00000000000E+00 -0.19679526480E+04  0.19679526480E+04  0.25500000920E-02 0. -1.
    10030    2    1    2    0    0  0.00000000000E+00  0.00000000000E+00 -0.89839293854E+03  0.30375123575E+04  0.29016153174E+04 0.  0.
        3    1    3    3  502    0  0.12344753723E+04  0.83511810177E+02 -0.12422658024E+04  0.17533191384E+04  0.10100000352E+00 0. -1.
       -3    1    3    3    0  502 -0.12344753723E+04 -0.83511810177E+02  0.34387286385E+03  0.12841932191E+04  0.10100000352E+00 0.  1.
</event>
<event>
 5   0  0.9421924E-08  0.2899222E+04  0.7818609E-02  0.8273109E-01
        1   -1    0    0  501    0  0.00000000000E+00  0.00000000000E+00  0.12601942125E+04  0.12601942125E+04  0.50400001928E-02 0.  1.
       -1   -1    0    0    0  501  0.00000000000E+00  0.00000000000E+00 -0.16674986574E+04  0.16674986574E+04  0.50400001928E-02 0. -1.
    10030    2    1    2    0    0  0.00000000000E+00  0.00000000000E+00 -0.40730444492E+03  0.29276928699E+04  0.28992220731E+04 0.  0.
        1    1    3    3  502    0 -0.11234173382E+04  0.90802907281E+03 -0.32645583822E+03  0.14809310339E+04  0.50400001928E-02 0. -1.
       -1    1    3    3    0  502  0.11234173382E+04 -0.90802907281E+03 -0.80848606707E+02  0.14467618360E+04  0.50400001928E-02 0.  1.
</event>
<event>
 5   0  0.8407500E-08  0.2900639E+04  0.7818609E-02  0.8272687E-01
        3   -1    0    0  501    0  0.00000000000E+00  0.00000000000E+00  0.79923698000E+03  0.79923698638E+03  0.10100000352E+00 0. -1.
       -3   -1    0    0    0  501  0.00000000000E+00  0.00000000000E+00 -0.26317931095E+04  0.26317931114E+04  0.10100000352E+00 0.  1.
    10030    2    1    2    0    0  0.00000000000E+00  0.00000000000E+00 -0.18325561295E+04  0.34310300978E+04  0.29006388200E+04 0.  0.
        5    1    3    3  502    0  0.17702045777E+03 -0.27711880581E+03 -0.25871072793E+04  0.26079258501E+04  0.46999998093E+01 0.  1.
       -5    1    3    3    0  502 -0.17702045777E+03  0.27711880581E+03  0.75455114978E+03  0.82310424773E+03  0.46999998093E+01 0. -1.
</event>
<event>
 5   0  0.2492232E-07  0.2900100E+04  0.7818609E-02  0.8272848E-01
        2   -1    0    0  501    0  0.00000000000E+00  0.00000000000E+00  0.18172826761E+04  0.18172826761E+04  0.25500000920E-02 0.  1.
       -2   -1    0    0    0  501  0.00000000000E+00  0.00000000000E+00 -0.11570273091E+04  0.11570273091E+04  0.25500000920E-02 0. -1.
    10030    2    1    2    0    0  0.00000000000E+00  0.00000000000E+00  0.66025536695E+03  0.29743099852E+04  0.29001004704E+04 0.  0.
        4    1    3    3  502    0 -0.10246612593E+04 -0.77555703039E+03 -0.35879360059E+03  0.13342240683E+04  0.12699999809E+01 0. -1.
       -4    1    3    3    0  502  0.10246612593E+04  0.77555703039E+03  0.10190489675E+04  0.16400859169E+04  0.12699999809E+01 0.  1.
</event>
<event>
 5   0  0.2608591E-07  0.2899528E+04  0.7818609E-02  0.8273018E-01
       -2   -1    0    0    0  501  0.00000000000E+00  0.00000000000E+00  0.13124038336E+04  0.13124038336E+04  0.25500000920E-02 0. -1.
        2   -1    0    0  501    0  0.00000000000E+00  0.00000000000E+00 -0.16015004937E+04  0.16015004937E+04  0.25500000920E-02 0.  1.
    10030    2    1    2    0    0  0.00000000000E+00  0.00000000000E+00 -0.28909666014E+03  0.29139043273E+04  0.28995278149E+04 0.  0.
        2    1    3    3  502    0  0.89856063504E+03  0.45779811521E+03  0.90216526104E+03  0.13531047585E+04  0.25500000920E-02 0. -1.
       -2    1    3    3    0  502 -0.89856063504E+03 -0.45779811521E+03 -0.11912619212E+04  0.15607995688E+04  0.25500000920E-02 0.  1.
</event>
<event>
 5   0  0.9395744E-08  0.2887943E+04  0.7818609E-02  0.8276474E-01
       -1   -1    0    0    0  501  0.00000000000E+00  0.00000000000E+00  0.12849174212E+04  0.12849174212E+04  0.50400001928E-02 0. -1.
        1   -1    0    0  501    0  0.00000000000E+00  0.00000000000E+00 -0.16227142002E+04  0.16227142002E+04  0.50400001928E-02 0.  1.
    10030    2    1    2    0    0  0.00000000000E+00  0.00000000000E+00 -0.33779677902E+03  0.29076316214E+04  0.28879430365E+04 0.  0.
        2    1    3    3  502    0 -0.72589323182E+03  0.10353311700E+04 -0.87094851502E+03  0.15353771300E+04  0.25500000920E-02 0.  1.
       -2    1    3    3    0  502  0.72589323182E+03 -0.10353311700E+04  0.53315173600E+03  0.13722544914E+04  0.25500000920E-02 0. -1.
</event>
<event>
 5   0  0.9395744E-08  0.2900253E+04  0.7818609E-02  0.8272802E-01
       -1   -1    0    0    0  501  0.00000000000E+00  0.00000000000E+00  0.92296076851E+03  0.92296076853E+03  0.50400001928E-02 0.  1.
        1   -1    0    0  501    0  0.00000000000E+00  0.00000000000E+00 -0.22783921005E+04  0.22783921005E+04  0.50400001928E-02 0. -1.
    10030    2    1    2    0    0  0.00000000000E+00  0.00000000000E+00 -0.13554313320E+04  0.32013528691E+04  0.29002527642E+04 0.  0.
        2    1    3    3  502    0 -0.61835050966E+03  0.42918653055E+03  0.69044423198E+03  0.10214067105E+04  0.25500000920E-02 0. -1.
       -2    1    3    3    0  502  0.61835050966E+03 -0.42918653055E+03 -0.20458755640E+04  0.21799461585E+04  0.25500000920E-02 0.  1.
</event>
<event>
 5   0  0.2546841E-07  0.2900546E+04  0.7818609E-02  0.8272715E-01
        2   -1    0    0  501    0  0.00000000000E+00  0.00000000000E+00  0.24376432825E+04  0.24376432825E+04  0.25500000920E-02 0.  1.
       -2   -1    0    0    0  501  0.00000000000E+00  0.00000000000E+00 -0.86283836887E+03  0.86283836887E+03  0.25500000920E-02 0. -1.
    10030    2    1    2    0    0  0.00000000000E+00  0.00000000000E+00  0.15748049137E+04  0.33004816514E+04  0.29005462615E+04 0.  0.
        1    1    3    3  502    0 -0.46186220173E+03 -0.26248592846E+03 -0.74813930674E+03  0.91756633458E+03  0.50400001928E-02 0. -1.
       -1    1    3    3    0  502  0.46186220173E+03  0.26248592846E+03  0.23229442204E+04  0.23829153168E+04  0.50400001928E-02 0.  1.
</event>
<event>
 5   0  0.9421924E-08  0.2899336E+04  0.7818609E-02  0.8273075E-01
       -1   -1    0    0    0  501  0.00000000000E+00  0.00000000000E+00  0.12801070523E+04  0.12801070523E+04  0.50400001928E-02 0. -1.
        1   -1    0    0  501    0  0.00000000000E+00  0.00000000000E+00 -0.16416882705E+04  0.16416882705E+04  0.50400001928E-02 0.  1.
    10030    2    1    2    0    0  0.00000000000E+00  0.00000000000E+00 -0.36158121816E+03  0.29217953228E+04  0.28993356016E+04 0.  0.
        1    1    3    3  502    0 -0.92455688277E+02  0.13793522618E+03  0.12704912155E+04  0.12812970419E+04  0.50400001928E-02 0. -1.
       -1    1    3    3    0  502  0.92455688277E+02 -0.13793522618E+03 -0.16320724336E+04  0.16404982809E+04  0.50400001928E-02 0.  1.
</event>
<event>
 5   0  0.9388076E-08  0.2900146E+04  0.7818609E-02  0.8272834E-01
       -1   -1    0    0    0  501  0.00000000000E+00  0.00000000000E+00  0.98153043587E+03  0.98153043588E+03  0.50400001928E-02 0.  1.
        1   -1    0    0  501    0  0.00000000000E+00  0.00000000000E+00 -0.21422784663E+04  0.21422784663E+04  0.50400001928E-02 0. -1.
    10030    2    1    2    0    0  0.00000000000E+00  0.00000000000E+00 -0.11607480305E+04  0.31238089022E+04  0.29001458700E+04 0.  0.
        5    1    3    3  502    0 -0.12947786416E+04  0.52193422895E+03 -0.15792495683E+03  0.14049304082E+04  0.46999998093E+01 0. -1.
       -5    1    3    3    0  502  0.12947786416E+04 -0.52193422895E+03 -0.10028230736E+04  0.17188784940E+04  0.46999998093E+01 0.  1.
</event>
<event>
 5   0  0.9421924E-08  0.2900724E+04  0.7818609E-02  0.8272662E-01
        1   -1    0    0  501    0  0.00000000000E+00  0.00000000000E+00  0.16224856904E+04  0.16224856904E+04  0.50400001928E-02 0. -1.
       -1   -1    0    0    0  501  0.00000000000E+00  0.00000000000E+00 -0.12964985399E+04  0.12964985399E+04  0.50400001928E-02 0.  1.
    10030    2    1    2    0    0  0.00000000000E+00  0.00000000000E+00  0.32598715055E+03  0.29189842304E+04  0.29007242742E+04 0.  0.
        1    1    3    3  502    0 -0.64472118043E+03 -0.12536594649E+04 -0.18006723215E+03  0.14211796728E+04  0.50400001928E-02 0.  1.
       -1    1    3    3    0  502  0.64472118043E+03  0.12536594649E+04  0.50605438270E+03  0.14978045575E+04  0.50400001928E-02 0. -1.
</event>
<event>
 5   0  0.9763851E-08  0.2899749E+04  0.7818609E-02  0.8272952E-01
        1   -1    0    0  501    0  0.00000000000E+00  0.00000000000E+00  0.24590662012E+04  0.24590662012E+04  0.50400001928E-02 0.  1.
       -1   -1    0    0    0  501  0.00000000000E+00  0.00000000000E+00 -0.85485116076E+03  0.85485116078E+03  0.50400001928E-02 0. -1.
    10030    2    1    2    0    0  0.00000000000E+00  0.00000000000E+00  0.16042150405E+04  0.33139173620E+04  0.28997486764E+04 0.  0.
        3    1    3    3  502    0 -0.50681249653E+03 -0.78260344097E+03 -0.46679754651E+03  0.10427017848E+04  0.10100000352E+00 0. -1.
       -3    1    3    3    0  502  0.50681249653E+03  0.78260344097E+03  0.20710125870E+04  0.22712155772E+04  0.10100000352E+00 0.  1.
</event>
<event>
 5   0  0.2534588E-07  0.2899939E+04  0.7818609E-02  0.8272896E-01
        2   -1    0    0  501    0  0.00000000000E+00  0.00000000000E+00  0.23773617586E+04  0.23773617586E+04  0.25500000920E-02 0.  1.
       -2   -1    0    0    0  501  0.00000000000E+00  0.00000000000E+00 -0.88434659355E+03  0.88434659355E+03  0.25500000920E-02 0. -1.
    10030    2    1    2    0    0  0.00000000000E+00  0.00000000000E+00  0.14930151651E+04  0.32617083522E+04  0.28999391531E+04 0.  0.
        3    1    3    3  502    0  0.12843075587E+04 -0.18747056211E+02 -0.10186654049E+02  0.12844847744E+04  0.10100000352E+00 0. -1.
       -3    1    3    3    0  502 -0.12843075587E+04  0.18747056211E+02  0.15032018191E+04  0.19772235778E+04  0.10100000352E+00 0.  1.
</event>
<event>
 5   0  0.2546841E-07  0.2899903E+04  0.7818609E-02  0.8272906E-01
        2   -1    0    0  501    0  0.00000000000E+00  0.00000000000E+00  0.19819578184E+04  0.19819578184E+04  0.25500000920E-02 0. -1.
       -2   -1    0    0    0  501  0.00000000000E+00  0.00000000000E+00 -0.10607490870E+04  0.10607490870E+04  0.25500000920E-02 0.  1.
    10030    2    1    2    0    0  0.00000000000E+00  0.00000000000E+00  0.92120873144E+03  0.30427069054E+04  0.28999034096E+04 0.  0.
        1    1    3    3  502    0 -0.11973809495E+04 -0.41831886252E+03 -0.27659565510E+03  0.12981590679E+04  0.50400001928E-02 0.  1.
       -1    1    3    3    0  502  0.11973809495E+04  0.41831886252E+03  0.11978043865E+04  0.17445478375E+04  0.50400001928E-02 0. -1.
</event>
<event>
 5   0  0.2492232E-07  0.2900357E+04  0.7818609E-02  0.8272771E-01
       -2   -1    0    0    0  501  0.00000000000E+00  0.00000000000E+00  0.13005558870E+04  0.13005558870E+04  0.25500000920E-02 0.  1.
        2   -1    0    0  501    0  0.00000000000E+00  0.00000000000E+00 -0.16170140469E+04  0.16170140469E+04  0.25500000920E-02 0. -1.
    10030    2    1    2    0    0  0.00000000000E+00  0.00000000000E+00 -0.31645815985E+03  0.29175699339E+04  0.29003566250E+04 0.  0.
        4    1    3    3  502    0  0.91017045233E+03  0.18149511778E+03 -0.12791424699E+04  0.15803663504E+04  0.12699999809E+01 0. -1.
       -4    1    3    3    0  502 -0.91017045233E+03 -0.18149511778E+03  0.96268431007E+03  0.13372035835E+04  0.12699999809E+01 0.  1.
</event>
<event>
 5   0  0.9395744E-08  0.2900418E+04  0.7818609E-02  0.8272753E-01
       -1   -1    0    0    0  501  0.00000000000E+00  0.00000000000E+00  0.17062744392E+04  0.17062744392E+04  0.50400001928E-02 0.  1.
        1   -1    0    0  501    0  0.00000000000E+00  0.00000000000E+00 -0.12325717117E+04  0.12325717117E+04  0.50400001928E-02 0. -1.
    10030    2    1    2    0    0  0.00000000000E+00  0.00000000000E+00  0.47370272748E+03  0.29388461509E+04  0.29004176293E+04 0.  0.
        2    1    3    3  502    0 -0.27620560701E+03  0.14235666229E+04  0.22007484964E+03  0.14667189255E+04  0.25500000920E-02 0.  1.
       -2    1    3    3    0  502  0.27620560701E+03 -0.14235666229E+04  0.25362787784E+03  0.14721272253E+04  0.25500000920E-02 0. -1.
</event>
<event>
 5   0  0.2678723E-07  0.2898711E+04  0.7818609E-02  0.8273261E-01
        2   -1    0    0  501    0  0.00000000000E+00  0.00000000000E+00  0.15038240615E+04  0.15038240615E+04  0.25500000920E-02 0. -1.
       -2   -1    0    0    0  501  0.00000000000E+00  0.00000000000E+00 -0.13968599001E+04  0.13968599001E+04  0.25500000920E-02 0.  1.
    10030    2    1    2    0    0  0.00000000000E+00  0.00000000000E+00  0.10696416135E+03  0.29006839616E+04  0.28987111124E+04 0.  0.
        5    1    3    3  502    0 -0.32615065701E+03 -0.46932762602E+03  0.13862920054E+04  0.14994900086E+04  0.46999998093E+01 0. -1.
       -5    1    3    3    0  502  0.32615065701E+03  0.46932762602E+03 -0.12793278440E+04  0.14011939531E+04  0.46999998093E+01 0.  1.
</event>
<event>
 5   0  0.2678723E-07  0.2901056E+04  0.7818609E-02  0.8272563E-01
        2   -1    0    0  501    0  0.00000000000E+00  0.00000000000E+00  0.20823197115E+04  0.20823197115E+04  0.25500000920E-02 0. -1.
       -2   -1    0    0    0  501  0.00000000000E+00  0.00000000000E+00 -0.10104264581E+04  0.10104264581E+04  0.25500000920E-02 0.  1.
    10030    2    1    2    0    0  0.00000000000E+00  0.00000000000E+00  0.10718932534E+04  0.30927461695E+04  0.29010556221E+04 0.  0.
        5    1    3    3  502    0 -0.90689570819E+03 -0.17685455454E+03 -0.65609215412E+03  0.11332327050E+04  0.46999998093E+01 0.  1.
       -5    1    3    3    0  502  0.90689570819E+03  0.17685455454E+03  0.17279854075E+04  0.19595134645E+04  0.46999998093E+01 0. -1.
</event>
<event>
 5   0  0.2534588E-07  0.2900162E+04  0.7818609E-02  0.8272829E-01
       -2   -1    0    0    0  501  0.00000000000E+00  0.00000000000E+00  0.14972154201E+04  0.14972154201E+04  0.25500000920E-02 0.  1.
        2   -1    0    0  501    0  0.00000000000E+00  0.00000000000E+00 -0.14044300978E+04  0.14044300978E+04  0.25500000920E-02 0. -1.
    10030    2    1    2    0    0  0.00000000000E+00  0.00000000000E+00  0.92785322286E+02  0.29016455179E+04  0.29001616499E+04 0.  0.
        3    1    3    3  502    0  0.14426633153E+04  0.14648159475E+03  0.46093089507E+02  0.14508131796E+04  0.10100000352E+00 0. -1.
       -3    1    3    3    0  502 -0.14426633153E+04 -0.14648159475E+03  0.46692232779E+02  0.14508323383E+04  0.10100000352E+00 0.  1.
</event>
<event>
 5   0  0.2678723E-07  0.2899856E+04  0.7818609E-02  0.8272920E-01
       -2   -1    0    0    0  501  0.00000000000E+00  0.00000000000E+00  0.95284355345E+03  0.95284355345E+03  0.25500000920E-02 0. -1.
        2   -1    0    0  501    0  0.00000000000E+00  0.00000000000E+00 -0.22063346714E+04  0.22063346714E+04  0.25500000920E-02 0.  1.
    10030    2    1    2    0    0  0.00000000000E+00  0.00000000000E+00 -0.12534911179E+04  0.31591782248E+04  0.28998563884E+04 0.  0.
        5    1    3    3  502    0 -0.10423028777E+04  0.84071594496E+03 -0.21088437347E+02  0.13392779402E+04  0.46999998093E+01 0. -1.
       -5    1    3    3    0  502  0.10423028777E+04 -0.84071594496E+03 -0.12324026806E+04  0.18199002846E+04  0.46999998093E+01 0.  1.
</event>
<event>
 5   0  0.2608591E-07  0.2899925E+04  0.7818609E-02  0.8272900E-01
        2   -1    0    0  501    0  0.00000000000E+00  0.00000000000E+00  0.18928786984E+04  0.18928786984E+04  0.25500000920E-02 0. -1.
       -2   -1    0    0    0  501  0.00000000000E+00  0.00000000000E+00 -0.11106842682E+04  0.11106842682E+04  0.25500000920E-02 0.  1.
    10030    2    1    2    0    0  0.00000000000E+00  0.00000000000E+00  0.78219443013E+03  0.30035629666E+04  0.28999245452E+04 0.  0.
        2    1    3    3  502    0  0.44845923952E+03 -0.22123846961E+03  0.18007398956E+04  0.18688837100E+04  0.25500000920E-02 0. -1.
       -2    1    3    3    0  502 -0.44845923952E+03  0.22123846961E+03 -0.10185454655E+04  0.11346792565E+04  0.25500000920E-02 0.  1.
</event>
<event>
 5   0  0.2678723E-07  0.2902061E+04  0.7818609E-02  0.8272265E-01
       -2   -1    0    0    0  501  0.00000000000E+00  0.00000000000E+00  0.97307836188E+03  0.97307836189E+03  0.25500000920E-02 0. -1.
        2   -1    0    0  501    0  0.00000000000E+00  0.00000000000E+00 -0.21637404334E+04  0.21637404334E+04  0.25500000920E-02 0.  1.
    10030    2    1    2    0    0  0.00000000000E+00  0.00000000000E+00 -0.11906620715E+04  0.31368187953E+04  0.29020606448E+04 0.  0.
        5    1    3    3  502    0 -0.30021404464E+03  0.12875762990E+04  0.50936424802E+02  0.13231015863E+04  0.46999998093E+01 0. -1.
       -5    1    3    3    0  502  0.30021404464E+03 -0.12875762990E+04 -0.12415984963E+04  0.18137172090E+04  0.46999998093E+01 0.  1.
</event>
<event>
 5   0  0.2608591E-07  0.2898728E+04  0.7818609E-02  0.8273256E-01
        2   -1    0    0  501    0  0.00000000000E+00  0.00000000000E+00  0.17264348220E+04  0.17264348220E+04  0.25500000920E-02 0.  1.
       -2   -1    0    0    0  501  0.00000000000E+00  0.00000000000E+00 -0.12167595187E+04  0.12167595187E+04  0.25500000920E-02 0. -1.
    10030    2    1    2    0    0  0.00000000000E+00  0.00000000000E+00  0.50967530323E+03  0.29431943407E+04  0.28987279990E+04 0.  0.
        2    1    3    3  502    0 -0.50062492663E+03  0.32995374647E+03  0.15946098642E+04  0.17036065893E+04  0.25500000920E-02 0.  1.
       -2    1    3    3    0  502  0.50062492663E+03 -0.32995374647E+03 -0.10849345610E+04  0.12395877515E+04  0.25500000920E-02 0. -1.
</event>
<event>
 5   0  0.2492232E-07  0.2901180E+04  0.7818609E-02  0.8272526E-01
        2   -1    0    0  501    0  0.00000000000E+00  0.00000000000E+00  0.20229146393E+04  0.20229146393E+04  0.25500000920E-02 0.  1.
       -2   -1    0    0    0  501  0.00000000000E+00  0.00000000000E+00 -0.10401881674E+04  0.10401881674E+04  0.25500000920E-02 0. -1.
    10030    2    1    2    0    0  0.00000000000E+00  0.00000000000E+00  0.98272647190E+03  0.30631028066E+04  0.29011803607E+04 0.  0.
        4    1    3    3  502    0  0.10259808758E+04  0.22157047936E+03 -0.56575778269E+03  0.11923983045E+04  0.12699999809E+01 0. -1.
       -4    1    3    3    0  502 -0.10259808758E+04 -0.22157047936E+03  0.15484842546E+04  0.18707045022E+04  0.12699999809E+01 0.  1.
</event>
<event>
 5   0  0.2546841E-07  0.2898169E+04  0.7818609E-02  0.8273422E-01
        2   -1    0    0  501    0  0.00000000000E+00  0.00000000000E+00  0.11615949506E+04  0.11615949506E+04  0.25500000920E-02 0. -1.
       -2   -1    0    0    0  501  0.00000000000E+00  0.00000000000E+00 -0.18077265856E+04  0.18077265856E+04  0.25500000920E-02 0.  1.
    10030    2    1    2    0    0  0.00000000000E+00  0.00000000000E+00 -0.64613163509E+03  0.29693215362E+04  0.28981691282E+04 0.  0.
        1    1    3    3  502    0 -0.47848242417E+03 -0.11486721714E+04 -0.10838959587E+04  0.16502192693E+04  0.50400001928E-02 0.  1.
       -1    1    3    3    0  502  0.47848242417E+03  0.11486721714E+04  0.43776432358E+03  0.13191022669E+04  0.50400001928E-02 0. -1.
</event>
<event>
 5   0  0.9421924E-08  0.2897828E+04  0.7818609E-02  0.8273524E-01
       -1   -1    0    0    0  501  0.00000000000E+00  0.00000000000E+00  0.15553992795E+04  0.15553992795E+04  0.50400001928E-02 0.  1.
        1   -1    0    0  501    0  0.00000000000E+00  0.00000000000E+00 -0.13497190254E+04  0.13497190254E+04  0.50400001928E-02 0. -1.
    10030    2    1    2    0    0  0.00000000000E+00  0.00000000000E+00  0.20568025411E+03  0.29051183049E+04  0.28978281520E+04 0.  0.
        1    1    3    3  502    0  0.37508462134E+03  0.66155814099E+03 -0.11335525497E+04  0.13650234540E+04  0.50400001928E-02 0. -1.
       -1    1    3    3    0  502 -0.37508462134E+03 -0.66155814099E+03  0.13392328038E+04  0.15400948509E+04  0.50400001928E-02 0.  1.
</event>
<event>
 5   0  0.9388076E-08  0.2900166E+04  0.7818609E-02  0.8272828E-01
        1   -1    0    0  501    0  0.00000000000E+00  0.00000000000E+00  0.11591628319E+04  0.11591628319E+04  0.50400001928E-02 0.  1.
       -1   -1    0    0    0  501  0.00000000000E+00  0.00000000000E+00 -0.18140163810E+04  0.18140163810E+04  0.50400001928E-02 0. -1.
    10030    2    1    2    0    0  0.00000000000E+00  0.00000000000E+00 -0.65485354911E+03  0.29731792129E+04  0.29001657644E+04 0.  0.
        5    1    3    3  502    0 -0.13230250629E+04 -0.13218306464E+03 -0.92065772903E+03  0.16172508845E+04  0.46999998093E+01 0. -1.
       -5    1    3    3    0  502  0.13230250629E+04  0.13218306464E+03  0.26580417992E+03  0.13559283283E+04  0.46999998093E+01 0.  1.
</event>
<event>
 5   0  0.9395744E-08  0.2899906E+04  0.7818609E-02  0.8272905E-01
       -1   -1    0    0    0  501  0.00000000000E+00  0.00000000000E+00  0.10678298430E+04  0.10678298430E+04  0.50400001928E-02 0.  1.
        1   -1    0    0  501    0  0.00000000000E+00  0.00000000000E+00 -0.19688188490E+04  0.19688188490E+04  0.50400001928E-02 0. -1.
    10030    2    1    2    0    0  0.00000000000E+00  0.00000000000E+00 -0.90098900602E+03  0.30366486919E+04  0.28999058759E+04 0.  0.
        2    1    3    3  502    0  0.78675510535E+03  0.49105443506E+03 -0.16176114095E+04  0.18646138276E+04  0.25500000920E-02 0. -1.
       -2    1    3    3    0  502 -0.78675510535E+03 -0.49105443506E+03  0.71662240349E+03  0.11720348643E+04  0.25500000920E-02 0.  1.
</event>
<event>
 5   0  0.9388076E-08  0.2919916E+04  0.7818609E-02  0.8266976E-01
       -1   -1    0    0    0  501  0.00000000000E+00  0.00000000000E+00  0.99157395139E+03  0.99157395141E+03  0.50400001928E-02 0.  1.
        1   -1    0    0  501    0  0.00000000000E+00  0.00000000000E+00 -0.21495904869E+04  0.21495904869E+04  0.50400001928E-02 0. -1.
    10030    2    1    2    0    0  0.00000000000E+00  0.00000000000E+00 -0.11580165355E+04  0.31411644383E+04  0.29199163913E+04 0.  0.
        5    1    3    3  502    0  0.13750941069E+04  0.30789649061E+03 -0.98973881254E+03  0.17220014689E+04  0.46999998093E+01 0.  1.
       -5    1    3    3    0  502 -0.13750941069E+04 -0.30789649061E+03 -0.16827772299E+03  0.14191629695E+04  0.46999998093E+01 0. -1.
</event>
<event>
 5   0  0.2546841E-07  0.2915445E+04  0.7818609E-02  0.8268297E-01
       -2   -1    0    0    0  501  0.00000000000E+00  0.00000000000E+00  0.90384977723E+03  0.90384977723E+03  0.25500000920E-02 0. -1.
        2   -1    0    0  501    0  0.00000000000E+00  0.00000000000E+00 -0.23510049383E+04  0.23510049383E+04  0.25500000920E-02 0.  1.
    10030    2    1    2    0    0  0.00000000000E+00  0.00000000000E+00 -0.14471551611E+04  0.32548547156E+04  0.29154452763E+04 0.  0.
        1    1    3    3  502    0 -0.12351523386E+03  0.14399370718E+04 -0.93622659855E+03  0.17219741658E+04  0.50400001928E-02 0. -1.
       -1    1    3    3    0  502  0.12351523386E+03 -0.14399370718E+04 -0.51092856255E+03  0.15328805498E+04  0.50400001928E-02 0.  1.
</event>
<event>
 5   0  0.2492232E-07  0.2900792E+04  0.7818609E-02  0.8272642E-01
       -2   -1    0    0    0  501  0.00000000000E+00  0.00000000000E+00  0.12318183335E+04  0.12318183336E+04  0.25500000920E-02 0. -1.
        2   -1    0    0  501    0  0.00000000000E+00  0.00000000000E+00 -0.17077582228E+04  0.17077582228E+04  0.25500000920E-02 0.  1.
    10030    2    1    2    0    0  0.00000000000E+00  0.00000000000E+00 -0.47593988922E+03  0.29395765563E+04  0.29007915389E+04 0.  0.
        4    1    3    3  502    0  0.98716138511E+03 -0.54796304122E+03 -0.11605797424E+04  0.16191658489E+04  0.12699999809E+01 0.  1.
       -4    1    3    3    0  502 -0.98716138511E+03  0.54796304122E+03  0.68463985320E+03  0.13204107074E+04  0.12699999809E+01 0. -1.
</event>
<event>
 5   0  0.9443352E-08  0.2900062E+04  0.7818609E-02  0.8272859E-01
       -1   -1    0    0    0  501  0.00000000000E+00  0.00000000000E+00  0.95181518110E+03  0.95181518112E+03  0.50400001928E-02 0. -1.
        1   -1    0    0  501    0  0.00000000000E+00  0.00000000000E+00 -0.22090311474E+04  0.22090311474E+04  0.50400001928E-02 0.  1.
    10030    2    1    2    0    0  0.00000000000E+00  0.00000000000E+00 -0.12572159663E+04  0.31608463285E+04  0.29000616419E+04 0.  0.
        4    1    3    3  502    0 -0.97012190689E+03  0.14938944348E+03  0.53467016386E+03  0.11177332048E+04  0.12699999809E+01 0. -1.
       -4    1    3    3    0  502  0.97012190689E+03 -0.14938944348E+03 -0.17918861302E+04  0.20431131237E+04  0.12699999809E+01 0.  1.
</event>
<event>
 5   0  0.9395744E-08  0.2899963E+04  0.7818609E-02  0.8272888E-01
        1   -1    0    0  501    0  0.00000000000E+00  0.00000000000E+00  0.16862055177E+04  0.16862055177E+04  0.50400001928E-02 0.  1.
       -1   -1    0    0    0  501  0.00000000000E+00  0.00000000000E+00 -0.12468507375E+04  0.12468507375E+04  0.50400001928E-02 0. -1.
    10030    2    1    2    0    0  0.00000000000E+00  0.00000000000E+00  0.43935478025E+03  0.29330562552E+04  0.28999631676E+04 0.  0.
        2    1    3    3  502    0 -0.11895819611E+04 -0.50940117459E+03 -0.44189076130E+03  0.13674290635E+04  0.25500000920E-02 0. -1.
       -2    1    3    3    0  502  0.11895819611E+04  0.50940117459E+03  0.88124554155E+03  0.15656271917E+04  0.25500000920E-02 0.  1.
</event>
<event>
 5   0  0.9395744E-08  0.2899957E+04  0.7818609E-02  0.8272890E-01
        1   -1    0    0  501    0  0.00000000000E+00  0.00000000000E+00  0.19778266433E+04  0.19778266433E+04  0.50400001928E-02 0. -1.
       -1   -1    0    0    0  501  0.00000000000E+00  0.00000000000E+00 -0.10630041933E+04  0.10630041933E+04  0.50400001928E-02 0.  1.
    10030    2    1    2    0    0  0.00000000000E+00  0.00000000000E+00  0.91482244996E+03  0.30408308367E+04  0.28999572518E+04 0.  0.
        2    1    3    3  502    0  0.47521510124E+03  0.10003710798E+03 -0.97519368431E+03  0.10894216527E+04  0.25500000920E-02 0.  1.
       -2    1    3    3    0  502 -0.47521510124E+03 -0.10003710798E+03  0.18900161343E+04  0.19514091840E+04  0.25500000920E-02 0. -1.
</event>
<event>
 5   0  0.2608591E-07  0.2900141E+04  0.7818609E-02  0.8272836E-01
        2   -1    0    0  501    0  0.00000000000E+00  0.00000000000E+00  0.13257930881E+04  0.13257930881E+04  0.25500000920E-02 0. -1.
       -2   -1    0    0    0  501  0.00000000000E+00  0.00000000000E+00 -0.15859973696E+04  0.15859973696E+04  0.25500000920E-02 0.  1.
    10030    2    1    2    0    0  0.00000000000E+00  0.00000000000E+00 -0.26020428153E+03  0.29117904577E+04  0.29001409279E+04 0.  0.
        2    1    3    3  502    0  0.13790422471E+04 -0.12824094767E+03  0.30115915651E+03  0.14173567291E+04  0.25500000920E-02 0.  1.
       -2    1    3    3    0  502 -0.13790422471E+04  0.12824094767E+03 -0.56136343804E+03  0.14944337287E+04  0.25500000920E-02 0. -1.
</event>
<event>
 5   0  0.9421924E-08  0.2910439E+04  0.7818609E-02  0.8269778E-01
        1   -1    0    0  501    0  0.00000000000E+00  0.00000000000E+00  0.25670310615E+04  0.25670310616E+04  0.50400001928E-02 0.  1.
       -1   -1    0    0    0  501  0.00000000000E+00  0.00000000000E+00 -0.82494666598E+03  0.82494666600E+03  0.50400001928E-02 0. -1.
    10030    2    1    2    0    0  0.00000000000E+00  0.00000000000E+00  0.17420843956E+04  0.33919777275E+04  0.29104389468E+04 0.  0.
        1    1    3    3  502    0 -0.10412757286E+04 -0.95346731251E+03  0.46013364077E+03  0.14849505131E+04  0.50400001928E-02 0. -1.
       -1    1    3    3    0  502  0.10412757286E+04  0.95346731251E+03  0.12819507548E+04  0.19070272145E+04  0.50400001928E-02 0.  1.
</event>
<event>
 5   0  0.9443352E-08  0.2898638E+04  0.7818609E-02  0.8273283E-01
       -1   -1    0    0    0  501  0.00000000000E+00  0.00000000000E+00  0.90447531289E+03  0.90447531290E+03  0.50400001928E-02 0. -1.
        1   -1    0    0  501    0  0.00000000000E+00  0.00000000000E+00 -0.23223693167E+04  0.23223693167E+04  0.50400001928E-02 0.  1.
    10030    2    1    2    0    0  0.00000000000E+00  0.00000000000E+00 -0.14178940038E+04  0.32268446296E+04  0.28986381039E+04 0.  0.
        4    1    3    3  502    0 -0.31023100255E+03  0.87395614426E+03  0.53093170353E+03  0.10686125134E+04  0.12699999809E+01 0. -1.
       -4    1    3    3    0  502  0.31023100255E+03 -0.87395614426E+03 -0.19488257074E+04  0.21582321163E+04  0.12699999809E+01 0.  1.
</event>
<event>
 5   0  0.9763851E-08  0.2900164E+04  0.7818609E-02  0.8272829E-01
       -1   -1    0    0    0  501  0.00000000000E+00  0.00000000000E+00  0.12755572389E+04  0.12755572389E+04  0.50400001928E-02 0.  1.
        1   -1    0    0  501    0  0.00000000000E+00  0.00000000000E+00 -0.16484852946E+04  0.16484852946E+04  0.50400001928E-02 0. -1.
    10030    2    1    2    0    0  0.00000000000E+00  0.00000000000E+00 -0.37292805568E+03  0.29240425335E+04  0.29001636855E+04 0.  0.
        3    1    3    3  502    0 -0.31790255330E+03 -0.47509626250E+03  0.11571595759E+04  0.12906575015E+04  0.10100000352E+00 0.  1.
       -3    1    3    3    0  502  0.31790255330E+03  0.47509626250E+03 -0.15300876316E+04  0.16333850319E+04  0.10100000352E+00 0. -1.
</event>
<event>
 5   0  0.9443352E-08  0.2901880E+04  0.7818609E-02  0.8272318E-01
        1   -1    0    0  501    0  0.00000000000E+00  0.00000000000E+00  0.12717417461E+04  0.12717417462E+04  0.50400001928E-02 0.  1.
       -1   -1    0    0    0  501  0.00000000000E+00  0.00000000000E+00 -0.16553886475E+04  0.16553886475E+04  0.50400001928E-02 0. -1.
    10030    2    1    2    0    0  0.00000000000E+00  0.00000000000E+00 -0.38364690137E+03  0.29271303937E+04  0.29018799763E+04 0.  0.
        4    1    3    3  502    0 -0.69321619610E+03 -0.12433916686E+04  0.91069550421E+02  0.14264875786E+04  0.12699999809E+01 0. -1.
       -4    1    3    3    0  502  0.69321619610E+03  0.12433916686E+04 -0.47471645179E+03  0.15006428151E+04  0.12699999809E+01 0.  1.
</event>
<event>
 5   0  0.2492232E-07  0.2895752E+04  0.7818609E-02  0.8274142E-01
       -2   -1    0    0    0  501  0.00000000000E+00  0.00000000000E+00  0.73160747341E+03  0.73160747342E+03  0.25500000920E-02 0.  1.
        2   -1    0    0  501    0  0.00000000000E+00  0.00000000000E+00 -0.28653958170E+04  0.28653958170E+04  0.25500000920E-02 0. -1.
    10030    2    1    2    0    0  0.00000000000E+00  0.00000000000E+00 -0.21337883436E+04  0.35970032904E+04  0.28957520571E+04 0.  0.
        4    1    3    3  502    0  0.12745629347E+03 -0.70729422087E+03  0.49440120647E+03  0.87232126392E+03  0.12699999809E+01 0.  1.
       -4    1    3    3    0  502 -0.12745629347E+03  0.70729422087E+03 -0.26281895501E+04  0.27246820265E+04  0.12699999809E+01 0. -1.
</event>
<event>
 5   0  0.2608591E-07  0.2899853E+04  0.7818609E-02  0.8272921E-01
        2   -1    0    0  501    0  0.00000000000E+00  0.00000000000E+00  0.16812071962E+04  0.16812071962E+04  0.25500000920E-02 0.  1.
       -2   -1    0    0    0  501  0.00000000000E+00  0.00000000000E+00 -0.12504626409E+04  0.12504626409E+04  0.25500000920E-02 0. -1.
    10030    2    1    2    0    0  0.00000000000E+00  0.00000000000E+00  0.43074455527E+03  0.29316698371E+04  0.28998529552E+04 0.  0.
        2    1    3    3  502    0 -0.10641444544E+04  0.75161498951E+03 -0.42797315640E+03  0.13713094234E+04  0.25500000920E-02 0. -1.
       -2    1    3    3    0  502  0.10641444544E+04 -0.75161498951E+03  0.85871771167E+03  0.15603604137E+04  0.25500000920E-02 0.  1.
</event>
<event>
 5   0  0.2678723E-07  0.2900142E+04  0.7818609E-02  0.8272835E-01
       -2   -1    0    0    0  501  0.00000000000E+00  0.00000000000E+00  0.15817307356E+04  0.15817307356E+04  0.25500000920E-02 0.  1.
        2   -1    0    0  501    0  0.00000000000E+00  0.00000000000E+00 -0.13293701739E+04  0.13293701739E+04  0.25500000920E-02 0. -1.
    10030    2    1    2    0    0  0.00000000000E+00  0.00000000000E+00  0.25236056173E+03  0.29111009095E+04  0.29001418331E+04 0.  0.
        5    1    3    3  502    0  0.12343936378E+04  0.68671526810E+03 -0.20274389842E+03  0.14270363313E+04  0.46999998093E+01 0.  1.
       -5    1    3    3    0  502 -0.12343936378E+04 -0.68671526810E+03  0.45510446015E+03  0.14840645782E+04  0.46999998093E+01 0. -1.
</event>
<event>
 5   0  0.2534588E-07  0.2899768E+04  0.7818609E-02  0.8272947E-01
       -2   -1    0    0    0  501  0.00000000000E+00  0.00000000000E+00  0.12043856131E+04  0.12043856131E+04  0.25500000920E-02 0.  1.
        2   -1    0    0  501    0  0.00000000000E+00  0.00000000000E+00 -0.17454238344E+04  0.17454238344E+04  0.25500000920E-02 0. -1.
    10030    2    1    2    0    0  0.00000000000E+00  0.00000000000E+00 -0.54103822125E+03  0.29498094475E+04  0.28997678217E+04 0.  0.
        3    1    3    3  502    0  0.13722239739E+04 -0.45068488428E+03 -0.39938533413E+03  0.14985406750E+04  0.10100000352E+00 0.  1.
       -3    1    3    3    0  502 -0.13722239739E+04  0.45068488428E+03 -0.14165288711E+03  0.14512687725E+04  0.10100000352E+00 0. -1.
</event>
<event>
 5   0  0.2546841E-07  0.2899689E+04  0.7818609E-02  0.8272970E-01
       -2   -1    0    0    0  501  0.00000000000E+00  0.00000000000E+00  0.12167713954E+04  0.12167713954E+04  0.25500000920E-02 0.  1.
        2   -1    0    0  501    0  0.00000000000E+00  0.00000000000E+00 -0.17275625528E+04  0.17275625528E+04  0.25500000920E-02 0. -1.
    10030    2    1    2    0    0  0.00000000000E+00  0.00000000000E+00 -0.51079115747E+03  0.29443339482E+04  0.28996887405E+04 0.  0.
        1    1    3    3  502    0  0.12289850397E+03  0.14418248560E+04 -0.34670079213E+03  0.14880068538E+04  0.50400001928E-02 0. -1.
       -1    1    3    3    0  502 -0.12289850397E+03 -0.14418248560E+04 -0.16409036534E+03  0.14563270944E+04  0.50400001928E-02 0.  1.
</event>
<event>
 5   0  0.9763851E-08  0.2899433E+04  0.7818609E-02  0.8273046E-01
       -1   -1    0    0    0  501  0.00000000000E+00  0.00000000000E+00  0.15816444350E+04  0.15816444350E+04  0.50400001928E-02 0. -1.
        1   -1    0    0  501    0  0.00000000000E+00  0.00000000000E+00 -0.13287930006E+04  0.13287930007E+04  0.50400001928E-02 0.  1.
    10030    2    1    2    0    0  0.00000000000E+00  0.00000000000E+00  0.25285143433E+03  0.29104374356E+04  0.28994330858E+04 0.  0.
        3    1    3    3  502    0  0.99141798718E+03  0.26610661586E+03  0.11540080696E+04  0.15444924705E+04  0.10100000352E+00 0. -1.
       -3    1    3    3    0  502 -0.99141798718E+03 -0.26610661586E+03 -0.90115663531E+03  0.13659449652E+04  0.10100000352E+00 0.  1.
</event>
<event>
 5   0  0.9763851E-08  0.2900743E+04  0.7818609E-02  0.8272656E-01
       -1   -1    0    0    0  501  0.00000000000E+00  0.00000000000E+00  0.17152408893E+04  0.17152408893E+04  0.50400001928E-02 0.  1.
        1   -1    0    0  501    0  0.00000000000E+00  0.00000000000E+00 -0.12264037123E+04  0.12264037123E+04  0.50400001928E-02 0. -1.
    10030    2    1    2    0    0  0.00000000000E+00  0.00000000000E+00  0.48883717700E+03  0.29416446016E+04  0.29007432111E+04 0.  0.
        3    1    3    3  502    0  0.92642190107E+03  0.15474838091E+03 -0.87632201796E+03  0.12845796548E+04  0.10100000352E+00 0. -1.
       -3    1    3    3    0  502 -0.92642190107E+03 -0.15474838091E+03  0.13651591950E+04  0.16570649468E+04  0.10100000352E+00 0.  1.
</event>
<event>
 5   0  0.2678723E-07  0.2899420E+04  0.7818609E-02  0.8273050E-01
        2   -1    0    0  501    0  0.00000000000E+00  0.00000000000E+00  0.16910606526E+04  0.16910606526E+04  0.25500000920E-02 0. -1.
       -2   -1    0    0    0  501  0.00000000000E+00  0.00000000000E+00 -0.12428050910E+04  0.12428050910E+04  0.25500000920E-02 0.  1.
    10030    2    1    2    0    0  0.00000000000E+00  0.00000000000E+00  0.44825556155E+03  0.29338657436E+04  0.28994197959E+04 0.  0.
        5    1    3    3  502    0  0.48963365651E+03 -0.11951459568E+04  0.89037370978E+03  0.15687263651E+04  0.46999998093E+01 0. -1.
       -5    1    3    3    0  502 -0.48963365651E+03  0.11951459568E+04 -0.44211814824E+03  0.13651393784E+04  0.46999998093E+01 0.  1.
</event>
<event>
 5   0  0.9443352E-08  0.2903534E+04  0.7818609E-02  0.8271827E-01
        1   -1    0    0  501    0  0.00000000000E+00  0.00000000000E+00  0.16779166526E+04  0.16779166526E+04  0.50400001928E-02 0. -1.
       -1   -1    0    0    0  501  0.00000000000E+00  0.00000000000E+00 -0.12560976745E+04  0.12560976745E+04  0.50400001928E-02 0.  1.
    10030    2    1    2    0    0  0.00000000000E+00  0.00000000000E+00  0.42181897811E+03  0.29340143271E+04  0.29035338506E+04 0.  0.
        4    1    3    3  502    0  0.11083681248E+04  0.49412902269E+02 -0.73524454393E+03  0.13309799726E+04  0.12699999809E+01 0.  1.
       -4    1    3    3    0  502 -0.11083681248E+04 -0.49412902269E+02  0.11570635220E+04  0.16030343546E+04  0.12699999809E+01 0. -1.
</event>
<event>
 5   0  0.2546841E-07  0.2899574E+04  0.7818609E-02  0.8273004E-01
       -2   -1    0    0    0  501  0.00000000000E+00  0.00000000000E+00  0.18696661500E+04  0.18696661500E+04  0.25500000920E-02 0. -1.
        2   -1    0    0  501    0  0.00000000000E+00  0.00000000000E+00 -0.11242022027E+04  0.11242022027E+04  0.25500000920E-02 0.  1.
    10030    2    1    2    0    0  0.00000000000E+00  0.00000000000E+00  0.74546394727E+03  0.29938683527E+04  0.28995743164E+04 0.  0.
        1    1    3    3  502    0 -0.24538890837E+03 -0.25316168060E+03  0.18247268178E+04  0.18584763954E+04  0.50400001928E-02 0. -1.
       -1    1    3    3    0  502  0.24538890837E+03  0.25316168060E+03 -0.10792628705E+04  0.11353919572E+04  0.50400001928E-02 0.  1.
</event>
<event>
 5   0  0.2534588E-07  0.2889456E+04  0.7818609E-02  0.8276022E-01
       -2   -1    0    0    0  501  0.00000000000E+00  0.00000000000E+00  0.18252490570E+04  0.18252490570E+04  0.25500000920E-02 0.  1.
        2   -1    0    0  501    0  0.00000000000E+00  0.00000000000E+00 -0.11435361471E+04  0.11435361471E+04  0.25500000920E-02 0. -1.
    10030    2    1    2    0    0  0.00000000000E+00  0.00000000000E+00  0.68171290993E+03  0.29687852040E+04  0.28894555017E+04 0.  0.
        3    1    3    3  502    0 -0.11057338189E+04  0.43949835200E+03  0.11827629184E+04  0.16777169639E+04  0.10100000352E+00 0.  1.
       -3    1    3    3    0  502  0.11057338189E+04 -0.43949835200E+03 -0.50105000843E+03  0.12910682402E+04  0.10100000352E+00 0. -1.
</event>
<event>
 5   0  0.9763851E-08  0.2899949E+04  0.7818609E-02  0.8272893E-01
       -1   -1    0    0    0  501  0.00000000000E+00  0.00000000000E+00  0.17644775050E+04  0.17644775050E+04  0.50400001928E-02 0.  1.
        1   -1    0    0  501    0  0.00000000000E+00  0.00000000000E+00 -0.11915289698E+04  0.11915289698E+04  0.50400001928E-02 0. -1.
    10030    2    1    2    0    0  0.00000000000E+00  0.00000000000E+00  0.57294853518E+03  0.29560064748E+04  0.28999490091E+04 0.  0.
        3    1    3    3  502    0 -0.12922398240E+04 -0.64665118372E+03  0.40872823749E+03  0.15016991371E+04  0.10100000352E+00 0.  1.
       -3    1    3    3    0  502  0.12922398240E+04  0.64665118372E+03  0.16422029769E+03  0.14543073377E+04  0.10100000352E+00 0. -1.
</event>
<event>
 5   0  0.2534588E-07  0.2900478E+04  0.7818609E-02  0.8272735E-01
        2   -1    0    0  501    0  0.00000000000E+00  0.00000000000E+00  0.72602106073E+03  0.72602106074E+03  0.25500000920E-02 0.  1.
       -2   -1    0    0    0  501  0.00000000000E+00  0.00000000000E+00 -0.28968758927E+04  0.28968758927E+04  0.25500000920E-02 0. -1.
    10030    2    1    2    0    0  0.00000000000E+00  0.00000000000E+00 -0.21708548319E+04  0.36228969534E+04  0.29004778285E+04 0.  0.
        3    1    3    3  502    0 -0.46224931704E+03 -0.10276691271E+04  0.54866985423E+02  0.11281793573E+04  0.10100000352E+00 0.  1.
       -3    1    3    3    0  502  0.46224931704E+03  0.10276691271E+04 -0.22257218173E+04  0.24947175961E+04  0.10100000352E+00 0. -1.
</event>
<event>
 5   0  0.2546841E-07  0.2904770E+04  0.7818609E-02  0.8271460E-01
        2   -1    0    0  501    0  0.00000000000E+00  0.00000000000E+00  0.21109874242E+04  0.21109874242E+04  0.25500000920E-02 0. -1.
       -2   -1    0    0    0  501  0.00000000000E+00  0.00000000000E+00 -0.99925878838E+03  0.99925878839E+03  0.25500000920E-02 0.  1.
    10030    2    1    2    0    0  0.00000000000E+00  0.00000000000E+00  0.11117286358E+04  0.31102462126E+04  0.29047703770E+04 0.  0.
        1    1    3    3  502    0  0.73214894178E+03 -0.11856297199E+04  0.11743321177E+03  0.13984099774E+04  0.50400001928E-02 0.  1.
       -1    1    3    3    0  502 -0.73214894178E+03  0.11856297199E+04  0.99429542404E+03  0.17118362352E+04  0.50400001928E-02 0. -1.
</event>
<event>
 5   0  0.9395744E-08  0.2900007E+04  0.7818609E-02  0.8272875E-01
        1   -1    0    0  501    0  0.00000000000E+00  0.00000000000E+00  0.81724916437E+03  0.81724916438E+03  0.50400001928E-02 0. -1.
       -1   -1    0    0    0  501  0.00000000000E+00  0.00000000000E+00 -0.25726676644E+04  0.25726676644E+04  0.50400001928E-02 0.  1.
    10030    2    1    2    0    0  0.00000000000E+00  0.00000000000E+00 -0.17554185000E+04  0.33899168288E+04  0.29000072406E+04 0.  0.
        2    1    3    3  502    0 -0.45570047242E+03 -0.12891571181E+04 -0.14418594584E+04  0.19870952905E+04  0.25500000920E-02 0.  1.
       -2    1    3    3    0  502  0.45570047242E+03  0.12891571181E+04 -0.31355904163E+03  0.14028215383E+04  0.25500000920E-02 0. -1.
</event>
<event>
 5   0  0.2492232E-07  0.2899212E+04  0.7818609E-02  0.8273112E-01
       -2   -1    0    0    0  501  0.00000000000E+00  0.00000000000E+00  0.23615940711E+04  0.23615940711E+04  0.25500000920E-02 0.  1.
        2   -1    0    0  501    0  0.00000000000E+00  0.00000000000E+00 -0.88980441688E+03  0.88980441689E+03  0.25500000920E-02 0. -1.
    10030    2    1    2    0    0  0.00000000000E+00  0.00000000000E+00  0.14717896543E+04  0.32513984880E+04  0.28992115034E+04 0.  0.
        4    1    3    3  502    0 -0.10420415038E+04 -0.59439182206E+03 -0.17671659759E+03  0.12125932965E+04  0.12699999809E+01 0. -1.
       -4    1    3    3    0  502  0.10420415038E+04  0.59439182206E+03  0.16485062518E+04  0.20388051916E+04  0.12699999809E+01 0.  1.
</event>
<event>
 5   0  0.2608591E-07  0.2900612E+04  0.7818609E-02  0.8272696E-01
       -2   -1    0    0    0  501  0.00000000000E+00  0.00000000000E+00  0.16809683606E+04  0.16809683606E+04  0.25500000920E-02 0. -1.
        2   -1    0    0  501    0  0.00000000000E+00  0.00000000000E+00 -0.12512948061E+04  0.12512948061E+04  0.25500000920E-02 0.  1.
    10030    2    1    2    0    0  0.00000000000E+00  0.00000000000E+00  0.42967355457E+03  0.29322631667E+04  0.29006116450E+04 0.  0.
        2    1    3    3  502    0  0.11125960626E+04  0.16123390582E+03 -0.71141496844E+03  0.13304050617E+04  0.25500000920E-02 0.  1.
       -2    1    3    3    0  502 -0.11125960626E+04 -0.16123390582E+03  0.11410885230E+04  0.16018581049E+04  0.25500000920E-02 0. -1.
</event>
<event>
 5   0  0.9763851E-08  0.2904370E+04  0.7818609E-02  0.8271578E-01
       -1   -1    0    0    0  501  0.00000000000E+00  0.00000000000E+00  0.13756192341E+04  0.13756192341E+04  0.50400001928E-02 0. -1.
        1   -1    0    0  501    0  0.00000000000E+00  0.00000000000E+00 -0.15330128603E+04  0.15330128603E+04  0.50400001928E-02 0.  1.
    10030    2    1    2    0    0  0.00000000000E+00  0.00000000000E+00 -0.15739362618E+03  0.29086320944E+04  0.29043704837E+04 0.  0.
        3    1    3    3  502    0 -0.10230571107E+04 -0.43202568992E+03 -0.10157780308E+04  0.15050239422E+04  0.10100000352E+00 0.  1.
       -3    1    3    3    0  502  0.10230571107E+04  0.43202568992E+03  0.85838440458E+03  0.14036081522E+04  0.10100000352E+00 0. -1.
</event>
<event>
 5   0  0.9443352E-08  0.2900829E+04  0.7818609E-02  0.8272631E-01
       -1   -1    0    0    0  501  0.00000000000E+00  0.00000000000E+00  0.62944074348E+03  0.62944074350E+03  0.50400001928E-02 0.  1.
        1   -1    0    0  501    0  0.00000000000E+00  0.00000000000E+00 -0.33421766649E+04  0.33421766649E+04  0.50400001928E-02 0. -1.
    10030    2    1    2    0    0  0.00000000000E+00  0.00000000000E+00 -0.27127359214E+04  0.39716174084E+04  0.29008289607E+04 0.  0.
        4    1    3    3  502    0 -0.31374594030E+02  0.15251441618E+03 -0.33306995881E+04  0.33343374711E+04  0.12699999809E+01 0. -1.
       -4    1    3    3    0  502  0.31374594030E+02 -0.15251441618E+03  0.61796366666E+03  0.63727993731E+03  0.12699999809E+01 0.  1.
</event>
<event>
 5   0  0.9388076E-08  0.2899813E+04  0.7818609E-02  0.8272933E-01
        1   -1    0    0  501    0  0.00000000000E+00  0.00000000000E+00  0.91844212792E+03  0.91844212794E+03  0.50400001928E-02 0. -1.
       -1   -1    0    0    0  501  0.00000000000E+00  0.00000000000E+00 -0.22889079691E+04  0.22889079691E+04  0.50400001928E-02 0.  1.
    10030    2    1    2    0    0  0.00000000000E+00  0.00000000000E+00 -0.13704658412E+04  0.32073500970E+04  0.28998134463E+04 0.  0.
        5    1    3    3  502    0 -0.95088895140E+03 -0.10451092673E+04 -0.32552853795E+03  0.14499772748E+04  0.46999998093E+01 0. -1.
       -5    1    3    3    0  502  0.95088895140E+03  0.10451092673E+04 -0.10449373032E+04  0.17573728222E+04  0.46999998093E+01 0.  1.
</event>
<event>
 5   0  0.9443352E-08  0.2900282E+04  0.7818609E-02  0.8272793E-01
        1   -1    0    0  501    0  0.00000000000E+00  0.00000000000E+00  0.24880500046E+04  0.24880500046E+04  0.50400001928E-02 0.  1.
       -1   -1    0    0    0  501  0.00000000000E+00  0.00000000000E+00 -0.84520379559E+03  0.84520379560E+03  0.50400001928E-02 0. -1.
    10030    2    1    2    0    0  0.00000000000E+00  0.00000000000E+00  0.16428462090E+04  0.33332538002E+04  0.29002822673E+04 0.  0.
        4    1    3    3  502    0 -0.15712783417E+03  0.61692562327E+02 -0.83387296163E+03  0.85078837413E+03  0.12699999809E+01 0. -1.
       -4    1    3    3    0  502  0.15712783417E+03 -0.61692562327E+02  0.24767191706E+04  0.24824654261E+04  0.12699999809E+01 0.  1.
</event>
<event>
 5   0  0.9421924E-08  0.2900457E+04  0.7818609E-02  0.8272742E-01
        1   -1    0    0  501    0  0.00000000000E+00  0.00000000000E+00  0.18017607206E+04  0.18017607206E+04  0.50400001928E-02 0. -1.
       -1   -1    0    0    0  501  0.00000000000E+00  0.00000000000E+00 -0.11672816648E+04  0.11672816648E+04  0.50400001928E-02 0.  1.
    10030    2    1    2    0    0  0.00000000000E+00  0.00000000000E+00  0.63447905583E+03  0.29690423854E+04  0.29004566906E+04 0.  0.
        1    1    3    3  502    0 -0.37027109751E+01 -0.13346080472E+04  0.89808104552E+03  0.16086459878E+04  0.50400001928E-02 0. -1.
       -1    1    3    3    0  502  0.37027109751E+01  0.13346080472E+04 -0.26360198969E+03  0.13603963976E+04  0.50400001928E-02 0.  1.
</event>
<event>
 5   0  0.2678723E-07  0.2899393E+04  0.7818609E-02  0.8273058E-01
       -2   -1    0    0    0  501  0.00000000000E+00  0.00000000000E+00  0.11635917112E+04  0.11635917112E+04  0.25500000920E-02 0.  1.
        2   -1    0    0  501    0  0.00000000000E+00  0.00000000000E+00 -0.18061489320E+04  0.18061489320E+04  0.25500000920E-02 0. -1.
    10030    2    1    2    0    0  0.00000000000E+00  0.00000000000E+00 -0.64255722075E+03  0.29697406432E+04  0.28993929892E+04 0.  0.
        5    1    3    3  502    0 -0.71428631190E+02 -0.14227718374E+04 -0.46027923595E+02  0.14253148460E+04  0.46999998093E+01 0.  1.
       -5    1    3    3    0  502  0.71428631190E+02  0.14227718374E+04 -0.59652929716E+03  0.15444257972E+04  0.46999998093E+01 0. -1.
</event>
<event>
 5   0  0.9443352E-08  0.2899199E+04  0.7818609E-02  0.8273116E-01
       -1   -1    0    0    0  501  0.00000000000E+00  0.00000000000E+00  0.10547251368E+04  0.10547251368E+04  0.50400001928E-02 0.  1.
        1   -1    0    0  501    0  0.00000000000E+00  0.00000000000E+00 -0.19923088208E+04  0.19923088208E+04  0.50400001928E-02 0. -1.
    10030    2    1    2    0    0  0.00000000000E+00  0.00000000000E+00 -0.93758368398E+03  0.30470339576E+04  0.28991986435E+04 0.  0.
        4    1    3    3  502    0  0.76362572334E+02  0.14454064840E+04 -0.38533598481E+03  0.14978373011E+04  0.12699999809E+01 0. -1.
       -4    1    3    3    0  502 -0.76362572334E+02 -0.14454064840E+04 -0.55224769917E+03  0.15491966565E+04  0.12699999809E+01 0.  1.
</event>
<event>
 5   0  0.9395744E-08  0.2899373E+04  0.7818609E-02  0.8273064E-01
        1   -1    0    0  501    0  0.00000000000E+00  0.00000000000E+00  0.22372232209E+04  0.22372232209E+04  0.50400001928E-02 0.  1.
       -1   -1    0    0    0  501  0.00000000000E+00  0.00000000000E+00 -0.93937494126E+03  0.93937494127E+03  0.50400001928E-02 0. -1.
    10030    2    1    2    0    0  0.00000000000E+00  0.00000000000E+00  0.12978482796E+04  0.31765981622E+04  0.28993733335E+04 0.  0.
        2    1    3    3  502    0  0.10629145492E+04  0.66787948749E+03 -0.14548475424E+03  0.12637310483E+04  0.25500000920E-02 0.  1.
       -2    1    3    3    0  502 -0.10629145492E+04 -0.66787948749E+03  0.14433330339E+04  0.19128671139E+04  0.25500000920E-02 0. -1.
</event>
<event>
 5   0  0.2534588E-07  0.2900507E+04  0.7818609E-02  0.8272727E-01
       -2   -1    0    0    0  501  0.00000000000E+00  0.00000000000E+00  0.10263430037E+04  0.10263430037E+04  0.25500000920E-02 0.  1.
        2   -1    0    0  501    0  0.00000000000E+00  0.00000000000E+00 -0.20492516919E+04  0.20492516919E+04  0.25500000920E-02 0. -1.
    10030    2    1    2    0    0  0.00000000000E+00  0.00000000000E+00 -0.10229086882E+04  0.30755946956E+04  0.29005069466E+04 0.  0.
        3    1    3    3  502    0  0.21497120373E+03 -0.10936839996E+04  0.47238900014E+03  0.12105819621E+04  0.10100000352E+00 0.  1.
       -3    1    3    3    0  502 -0.21497120373E+03  0.10936839996E+04 -0.14952976883E+04  0.18650127335E+04  0.10100000352E+00 0. -1.
</event>
<event>
 5   0  0.2534588E-07  0.2895580E+04  0.7818609E-02  0.8274194E-01
        2   -1    0    0  501    0  0.00000000000E+00  0.00000000000E+00  0.22474310628E+04  0.22474310628E+04  0.25500000920E-02 0.  1.
       -2   -1    0    0    0  501  0.00000000000E+00  0.00000000000E+00 -0.93266318418E+03  0.93266318418E+03  0.25500000920E-02 0. -1.
    10030    2    1    2    0    0  0.00000000000E+00  0.00000000000E+00  0.13147678786E+04  0.31800942470E+04  0.28955802260E+04 0.  0.
        3    1    3    3  502    0  0.10700364918E+04  0.96958577523E+03  0.54208498548E+03  0.15423782970E+04  0.10100000352E+00 0.  1.
       -3    1    3    3    0  502 -0.10700364918E+04 -0.96958577523E+03  0.77268289312E+03  0.16377159500E+04  0.10100000352E+00 0. -1.
</event>
<event>
 5   0  0.9388076E-08  0.2900000E+04  0.7818609E-02  0.8272878E-01
       -1   -1    0    0    0  501  0.00000000000E+00  0.00000000000E+00  0.13312219631E+04  0.13312219631E+04  0.50400001928E-02 0. -1.
        1   -1    0    0  501    0  0.00000000000E+00  0.00000000000E+00 -0.15793758508E+04  0.15793758508E+04  0.50400001928E-02 0.  1.
    10030    2    1    2    0    0  0.00000000000E+00  0.00000000000E+00 -0.24815388774E+03  0.29105978139E+04  0.28999998763E+04 0.  0.
        5    1    3    3  502    0  0.14447604786E+04 -0.86802744054E+02 -0.21163205536E+03  0.14627637450E+04  0.46999998093E+01 0.  1.
       -5    1    3    3    0  502 -0.14447604786E+04  0.86802744054E+02 -0.36521832383E+02  0.14478340689E+04  0.46999998093E+01 0. -1.
</event>
<event>
 5   0  0.2678723E-07  0.2894837E+04  0.7818609E-02  0.8274415E-01
        2   -1    0    0  501    0  0.00000000000E+00  0.00000000000E+00  0.24882291675E+04  0.24882291675E+04  0.25500000920E-02 0. -1.
       -2   -1    0    0    0  501  0.00000000000E+00  0.00000000000E+00 -0.84197270018E+03  0.84197270019E+03  0.25500000920E-02 0.  1.
    10030    2    1    2    0    0  0.00000000000E+00  0.00000000000E+00  0.16462564673E+04  0.33302018677E+04  0.28948374951E+04 0.  0.
        5    1    3    3  502    0 -0.25826668732E+01 -0.14054864511E+04  0.12209716303E+04  0.18617713733E+04  0.46999998093E+01 0.  1.
       -5    1    3    3    0  502  0.25826668732E+01  0.14054864511E+04  0.42528483695E+03  0.14684304944E+04  0.46999998093E+01 0. -1.
</event>
<event>
 5   0  0.2534588E-07  0.2901404E+04  0.7818609E-02  0.8272460E-01
        2   -1    0    0  501    0  0.00000000000E+00  0.00000000000E+00  0.17267026293E+04  0.17267026293E+04  0.25500000920E-02 0. -1.
       -2   -1    0    0    0  501  0.00000000000E+00  0.00000000000E+00 -0.12188181147E+04  0.12188181147E+04  0.25500000920E-02 0.  1.
    10030    2    1    2    0    0  0.00000000000E+00  0.00000000000E+00  0.50788451459E+03  0.29455207440E+04  0.29014041037E+04 0.  0.
        3    1    3    3  502    0 -0.94161161896E+03 -0.39656430777E+03  0.12994759132E+04  0.16530376131E+04  0.10100000352E+00 0. -1.
       -3    1    3    3    0  502  0.94161161896E+03  0.39656430777E+03 -0.79159139856E+03  0.12924831309E+04  0.10100000352E+00 0.  1.
</event>
<event>
 5   0  0.9763851E-08  0.2892594E+04  0.7818609E-02  0.8275084E-01
        1   -1    0    0  501    0  0.00000000000E+00  0.00000000000E+00  0.11072620210E+04  0.11072620210E+04  0.50400001928E-02 0.  1.
       -1   -1    0    0    0  501  0.00000000000E+00  0.00000000000E+00 -0.18891415936E+04  0.18891415936E+04  0.50400001928E-02 0. -1.
    10030    2    1    2    0    0  0.00000000000E+00  0.00000000000E+00 -0.78187957257E+03  0.29964036146E+04  0.28925938110E+04 0.  0.
        3    1    3    3  502    0 -0.94218834969E+03 -0.95082570386E+03  0.17642658020E+03  0.13501536038E+04  0.10100000352E+00 0.  1.
       -3    1    3    3    0  502  0.94218834969E+03  0.95082570386E+03 -0.95830615277E+03  0.16462500108E+04  0.10100000352E+00 0. -1.
</event>
<event>
 5   0  0.9763851E-08  0.2900483E+04  0.7818609E-02  0.8272734E-01
        1   -1    0    0  501    0  0.00000000000E+00  0.00000000000E+00  0.19245243842E+04  0.19245243842E+04  0.50400001928E-02 0. -1.
       -1   -1    0    0    0  501  0.00000000000E+00  0.00000000000E+00 -0.10928419746E+04  0.10928419746E+04  0.50400001928E-02 0.  1.
    10030    2    1    2    0    0  0.00000000000E+00  0.00000000000E+00  0.83168240954E+03  0.30173663588E+04  0.29004834274E+04 0.  0.
        3    1    3    3  502    0  0.36591903772E+03  0.11618130175E+04 -0.40295625028E+03  0.12829964847E+04  0.10100000352E+00 0.  1.
       -3    1    3    3    0  502 -0.36591903772E+03 -0.11618130175E+04  0.12346386598E+04  0.17343698741E+04  0.10100000352E+00 0. -1.
</event>
<event>
 5   0  0.9443352E-08  0.2899617E+04  0.7818609E-02  0.8272992E-01
        1   -1    0    0  501    0  0.00000000000E+00  0.00000000000E+00  0.28807013632E+04  0.28807013632E+04  0.50400001928E-02 0.  1.
       -1   -1    0    0    0  501  0.00000000000E+00  0.00000000000E+00 -0.72966404843E+03  0.72966404844E+03  0.50400001928E-02 0. -1.
    10030    2    1    2    0    0  0.00000000000E+00  0.00000000000E+00  0.21510373147E+04  0.36103654116E+04  0.28996166774E+04 0.  0.
        4    1    3    3  502    0  0.39838599585E+03  0.11152118979E+04  0.34125142038E+02  0.11847257560E+04  0.12699999809E+01 0. -1.
       -4    1    3    3    0  502 -0.39838599585E+03 -0.11152118979E+04  0.21169121727E+04  0.24256396556E+04  0.12699999809E+01 0.  1.
</event>
<event>
 5   0  0.2546841E-07  0.2898716E+04  0.7818609E-02  0.8273259E-01
        2   -1    0    0  501    0  0.00000000000E+00  0.00000000000E+00  0.21979754158E+04  0.21979754158E+04  0.25500000920E-02 0.  1.
       -2   -1    0    0    0  501  0.00000000000E+00  0.00000000000E+00 -0.95571550665E+03  0.95571550665E+03  0.25500000920E-02 0. -1.
    10030    2    1    2    0    0  0.00000000000E+00  0.00000000000E+00  0.12422599092E+04  0.31536909225E+04  0.28987163974E+04 0.  0.
        1    1    3    3  502    0 -0.66959195889E+03  0.11771568135E+04  0.11828674327E+04  0.17981176042E+04  0.50400001928E-02 0.  1.
       -1    1    3    3    0  502  0.66959195889E+03 -0.11771568135E+04  0.59392476431E+02  0.13555733183E+04  0.50400001928E-02 0. -1.
</event>
<event>
 5   0  0.8407500E-08  0.2900705E+04  0.7818609E-02  0.8272668E-01
        4   -1    0    0  501    0  0.00000000000E+00  0.00000000000E+00  0.12329524736E+04  0.12329531277E+04  0.12699999809E+01 0. -1.
       -4   -1    0    0    0  501  0.00000000000E+00  0.00000000000E+00 -0.17060841454E+04  0.17060846181E+04  0.12699999809E+01 0.  1.
    10030    2    1    2    0    0  0.00000000000E+00  0.00000000000E+00 -0.47313167179E+03  0.29390377458E+04  0.29007049647E+04 0.  0.
        3    1    3    3  502    0 -0.45901137739E+02  0.21971595326E+03  0.12152479603E+04  0.12358032326E+04  0.10100000352E+00 0. -1.
       -3    1    3    3    0  502  0.45901137739E+02 -0.21971595326E+03 -0.16883796321E+04  0.17032345132E+04  0.10100000352E+00 0.  1.
</event>
<event>
 5   0  0.2608591E-07  0.2898994E+04  0.7818609E-02  0.8273177E-01
        2   -1    0    0  501    0  0.00000000000E+00  0.00000000000E+00  0.16458476514E+04  0.16458476514E+04  0.25500000920E-02 0. -1.
       -2   -1    0    0    0  501  0.00000000000E+00  0.00000000000E+00 -0.12765712790E+04  0.12765712790E+04  0.25500000920E-02 0.  1.
    10030    2    1    2    0    0  0.00000000000E+00  0.00000000000E+00  0.36927637234E+03  0.29224189304E+04  0.28989941989E+04 0.  0.
        2    1    3    3  502    0 -0.98964344213E+03 -0.10585032033E+04  0.21982968177E+03  0.14656562567E+04  0.25500000920E-02 0. -1.
       -2    1    3    3    0  502  0.98964344213E+03  0.10585032033E+04  0.14944669057E+03  0.14567626736E+04  0.25500000920E-02 0.  1.
</event>
<event>
 5   0  0.2534588E-07  0.2899392E+04  0.7818609E-02  0.8273058E-01
       -2   -1    0    0    0  501  0.00000000000E+00  0.00000000000E+00  0.11194305383E+04  0.11194305383E+04  0.25500000920E-02 0.  1.
        2   -1    0    0  501    0  0.00000000000E+00  0.00000000000E+00 -0.18773995829E+04  0.18773995829E+04  0.25500000920E-02 0. -1.
    10030    2    1    2    0    0  0.00000000000E+00  0.00000000000E+00 -0.75796904464E+03  0.29968301212E+04  0.28993919540E+04 0.  0.
        3    1    3    3  502    0 -0.99252141721E+01  0.12352996109E+04 -0.11631334035E+04  0.16967448138E+04  0.10100000352E+00 0. -1.
       -3    1    3    3    0  502  0.99252141721E+01 -0.12352996109E+04  0.40516435888E+03  0.13000853074E+04  0.10100000352E+00 0.  1.
</event>
<event>
 5   0  0.9443352E-08  0.2904318E+04  0.7818609E-02  0.8271594E-01
        1   -1    0    0  501    0  0.00000000000E+00  0.00000000000E+00  0.11938860823E+04  0.11938860823E+04  0.50400001928E-02 0.  1.
       -1   -1    0    0    0  501  0.00000000000E+00  0.00000000000E+00 -0.17663034683E+04  0.17663034684E+04  0.50400001928E-02 0. -1.
    10030    2    1    2    0    0  0.00000000000E+00  0.00000000000E+00 -0.57241738605E+03  0.29601895507E+04  0.29043175639E+04 0.  0.
        4    1    3    3  502    0  0.12854495874E+04  0.50707006273E+03 -0.74118476974E+03  0.15680743496E+04  0.12699999809E+01 0.  1.
       -4    1    3    3    0  502 -0.12854495874E+04 -0.50707006273E+03  0.16876738368E+03  0.13921152010E+04  0.12699999809E+01 0. -1.
</event>
<event>
 5   0  0.9421924E-08  0.2899899E+04  0.7818609E-02  0.8272907E-01
        1   -1    0    0  501    0  0.00000000000E+00  0.00000000000E+00  0.18507796146E+04  0.18507796146E+04  0.50400001928E-02 0.  1.
       -1   -1    0    0    0  501  0.00000000000E+00  0.00000000000E+00 -0.11359289476E+04  0.11359289476E+04  0.50400001928E-02 0. -1.
    10030    2    1    2    0    0  0.00000000000E+00  0.00000000000E+00  0.71485066697E+03  0.29867085622E+04  0.28998994051E+04 0.  0.
        1    1    3    3  502    0 -0.81447036365E+03 -0.61741640351E+03  0.14167021525E+04  0.17468857941E+04  0.50400001928E-02 0.  1.
       -1    1    3    3    0  502  0.81447036365E+03  0.61741640351E+03 -0.70185148553E+03  0.12398227681E+04  0.50400001928E-02 0. -1.
</event>
<event>
 5   0  0.2534588E-07  0.2899329E+04  0.7818609E-02  0.8273077E-01
       -2   -1    0    0    0  501  0.00000000000E+00  0.00000000000E+00  0.14441017351E+04  0.14441017351E+04  0.25500000920E-02 0.  1.
        2   -1    0    0  501    0  0.00000000000E+00  0.00000000000E+00 -0.14552481920E+04  0.14552481920E+04  0.25500000920E-02 0. -1.
    10030    2    1    2    0    0  0.00000000000E+00  0.00000000000E+00 -0.11146456863E+02  0.28993499271E+04  0.28993285009E+04 0.  0.
        3    1    3    3  502    0  0.14199252823E+04  0.12262423750E+03 -0.27072027607E+03  0.14506943128E+04  0.10100000352E+00 0. -1.
       -3    1    3    3    0  502 -0.14199252823E+04 -0.12262423750E+03  0.25957381921E+03  0.14486556143E+04  0.10100000352E+00 0.  1.
</event>
<event>
 5   0  0.2678723E-07  0.2900121E+04  0.7818609E-02  0.8272841E-01
        2   -1    0    0  501    0  0.00000000000E+00  0.00000000000E+00  0.19137944466E+04  0.19137944466E+04  0.25500000920E-02 0.  1.
       -2   -1    0    0    0  501  0.00000000000E+00  0.00000000000E+00 -0.10986947847E+04  0.10986947847E+04  0.25500000920E-02 0. -1.
    10030    2    1    2    0    0  0.00000000000E+00  0.00000000000E+00  0.81509966194E+03  0.30124892313E+04  0.29001213613E+04 0.  0.
        5    1    3    3  502    0 -0.83444857596E+03  0.11782600239E+04  0.54711638284E+03  0.15440076218E+04  0.46999998093E+01 0.  1.
       -5    1    3    3    0  502  0.83444857596E+03 -0.11782600239E+04  0.26798327911E+03  0.14684816096E+04  0.46999998093E+01 0. -1.
</event>
<event>
 5   0  0.9763851E-08  0.2897072E+04  0.7818609E-02  0.8273749E-01
        1   -1    0    0  501    0  0.00000000000E+00  0.00000000000E+00  0.12688153695E+04  0.12688153695E+04  0.50400001928E-02 0. -1.
       -1   -1    0    0    0  501  0.00000000000E+00  0.00000000000E+00 -0.16537136060E+04  0.16537136060E+04  0.50400001928E-02 0.  1.
    10030    2    1    2    0    0  0.00000000000E+00  0.00000000000E+00 -0.38489823649E+03  0.29225289754E+04  0.28970724809E+04 0.  0.
        3    1    3    3  502    0  0.83132690737E+03 -0.33244023702E+03 -0.13411542237E+04  0.16125494102E+04  0.10100000352E+00 0.  1.
       -3    1    3    3    0  502 -0.83132690737E+03  0.33244023702E+03  0.95625598726E+03  0.13099795653E+04  0.10100000352E+00 0. -1.
</event>
<event>
 5   0  0.9443352E-08  0.2899141E+04  0.7818609E-02  0.8273133E-01
        1   -1    0    0  501    0  0.00000000000E+00  0.00000000000E+00  0.16710335866E+04  0.16710335866E+04  0.50400001928E-02 0. -1.
       -1   -1    0    0    0  501  0.00000000000E+00  0.00000000000E+00 -0.12574580081E+04  0.12574580081E+04  0.50400001928E-02 0.  1.
    10030    2    1    2    0    0  0.00000000000E+00  0.00000000000E+00  0.41357557855E+03  0.29284915947E+04  0.28991409523E+04 0.  0.
        4    1    3    3  502    0 -0.98366736239E+03  0.33752280530E+03  0.12268278132E+04  0.16083007244E+04  0.12699999809E+01 0. -1.
       -4    1    3    3    0  502  0.98366736239E+03 -0.33752280530E+03 -0.81325223467E+03  0.13201908703E+04  0.12699999809E+01 0.  1.
</event>
<event>
 5   0  0.9395744E-08  0.2898452E+04  0.7818609E-02  0.8273338E-01
        1   -1    0    0  501    0  0.00000000000E+00  0.00000000000E+00  0.15270799482E+04  0.15270799482E+04  0.50400001928E-02 0. -1.
       -1   -1    0    0    0  501  0.00000000000E+00  0.00000000000E+00 -0.13753411696E+04  0.13753411696E+04  0.50400001928E-02 0.  1.
    10030    2    1    2    0    0  0.00000000000E+00  0.00000000000E+00  0.15173877860E+03  0.29024211178E+04  0.28984519469E+04 0.  0.
        2    1    3    3  502    0  0.14409786768E+04 -0.21498820449E+02 -0.77226127946E+02  0.14432067146E+04  0.25500000920E-02 0.  1.
       -2    1    3    3    0  502 -0.14409786768E+04  0.21498820449E+02  0.22896490654E+03  0.14592144033E+04  0.25500000920E-02 0. -1.
</event>
<event>
 5   0  0.2492232E-07  0.2898540E+04  0.7818609E-02  0.8273312E-01
       -2   -1    0    0    0  501  0.00000000000E+00  0.00000000000E+00  0.17134515264E+04  0.17134515264E+04  0.25500000920E-02 0.  1.
        2   -1    0    0  501    0  0.00000000000E+00  0.00000000000E+00 -0.12258205314E+04  0.12258205314E+04  0.25500000920E-02 0. -1.
    10030    2    1    2    0    0  0.00000000000E+00  0.00000000000E+00  0.48763099497E+03  0.29392720578E+04  0.28985403642E+04 0.  0.
        4    1    3    3  502    0 -0.89550065278E+03  0.11348988485E+04  0.34755476325E+03  0.14868465764E+04  0.12699999809E+01 0.  1.
       -4    1    3    3    0  502  0.89550065278E+03 -0.11348988485E+04  0.14007623172E+03  0.14524254814E+04  0.12699999809E+01 0. -1.
</event>
<event>
 5   0  0.9388076E-08  0.2902038E+04  0.7818609E-02  0.8272271E-01
        1   -1    0    0  501    0  0.00000000000E+00  0.00000000000E+00  0.14284593824E+04  0.14284593824E+04  0.50400001928E-02 0.  1.
       -1   -1    0    0    0  501  0.00000000000E+00  0.00000000000E+00 -0.14739345334E+04  0.14739345335E+04  0.50400001928E-02 0. -1.
    10030    2    1    2    0    0  0.00000000000E+00  0.00000000000E+00 -0.45475151029E+02  0.29023939159E+04  0.29020376382E+04 0.  0.
        5    1    3    3  502    0 -0.12920254784E+04 -0.18018040433E+03 -0.65814124448E+03  0.14611525596E+04  0.46999998093E+01 0. -1.
       -5    1    3    3    0  502  0.12920254784E+04  0.18018040433E+03  0.61266609345E+03  0.14412413562E+04  0.46999998093E+01 0.  1.
</event>
<event>
 5   0  0.2678723E-07  0.2900725E+04  0.7818609E-02  0.8272662E-01
        2   -1    0    0  501    0  0.00000000000E+00  0.00000000000E+00  0.21369343415E+04  0.21369343415E+04  0.25500000920E-02 0. -1.
       -2   -1    0    0    0  501  0.00000000000E+00  0.00000000000E+00 -0.98437797524E+03  0.98437797524E+03  0.25500000920E-02 0.  1.
    10030    2    1    2    0    0  0.00000000000E+00  0.00000000000E+00  0.11525563663E+04  0.31213123167E+04  0.29007248062E+04 0.  0.
        5    1    3    3  502    0  0.29818262084E+03  0.60946297473E+03  0.19556205638E+04  0.20699835440E+04  0.46999998093E+01 0. -1.
       -5    1    3    3    0  502 -0.29818262084E+03 -0.60946297473E+03 -0.80306419756E+03  0.10513287727E+04  0.46999998093E+01 0.  1.
</event>
<event>
 5   0  0.9395744E-08  0.2894004E+04  0.7818609E-02  0.8274664E-01
       -1   -1    0    0    0  501  0.00000000000E+00  0.00000000000E+00  0.96617799950E+03  0.96617799951E+03  0.50400001928E-02 0.  1.
        1   -1    0    0  501    0  0.00000000000E+00  0.00000000000E+00 -0.21671108519E+04  0.21671108519E+04  0.50400001928E-02 0. -1.
    10030    2    1    2    0    0  0.00000000000E+00  0.00000000000E+00 -0.12009328524E+04  0.31332888514E+04  0.28940040274E+04 0.  0.
        2    1    3    3  502    0 -0.10482640012E+04 -0.91251718593E+03 -0.16433222155E+03  0.13994820863E+04  0.25500000920E-02 0.  1.
       -2    1    3    3    0  502  0.10482640012E+04  0.91251718593E+03 -0.10366006309E+04  0.17338067651E+04  0.25500000920E-02 0. -1.
</event>
<event>
 5   0  0.2546841E-07  0.2900743E+04  0.7818609E-02  0.8272656E-01
        2   -1    0    0  501    0  0.00000000000E+00  0.00000000000E+00  0.18076795232E+04  0.18076795232E+04  0.25500000920E-02 0. -1.
       -2   -1    0    0    0  501  0.00000000000E+00  0.00000000000E+00 -0.11636893227E+04  0.11636893227E+04  0.25500000920E-02 0.  1.
    10030    2    1    2    0    0  0.00000000000E+00  0.00000000000E+00  0.64399020055E+03  0.29713688459E+04  0.29007429117E+04 0.  0.
        1    1    3    3  502    0 -0.12640886314E+04  0.51752947919E+03 -0.17754688703E+03  0.13774177750E+04  0.50400001928E-02 0.  1.
       -1    1    3    3    0  502  0.12640886314E+04 -0.51752947919E+03  0.82153708758E+03  0.15939510708E+04  0.50400001928E-02 0. -1.
</event>
<event>
 5   0  0.9388076E-08  0.2899803E+04  0.7818609E-02  0.8272936E-01
        1   -1    0    0  501    0  0.00000000000E+00  0.00000000000E+00  0.75337378867E+03  0.75337378868E+03  0.50400001928E-02 0. -1.
       -1   -1    0    0    0  501  0.00000000000E+00  0.00000000000E+00 -0.27903997001E+04  0.27903997002E+04  0.50400001928E-02 0.  1.
    10030    2    1    2    0    0  0.00000000000E+00  0.00000000000E+00 -0.20370259115E+04  0.35437734888E+04  0.28998027478E+04 0.  0.
        5    1    3    3  502    0  0.24226820413E+03  0.11508539007E+04 -0.20547807616E+04  0.23675524602E+04  0.46999998093E+01 0. -1.
       -5    1    3    3    0  502 -0.24226820413E+03 -0.11508539007E+04  0.17754850101E+02  0.11762210287E+04  0.46999998093E+01 0.  1.
</event>
<event>
 5   0  0.9395744E-08  0.2899639E+04  0.7818609E-02  0.8272985E-01
        1   -1    0    0  501    0  0.00000000000E+00  0.00000000000E+00  0.18184895057E+04  0.18184895057E+04  0.50400001928E-02 0. -1.
       -1   -1    0    0    0  501  0.00000000000E+00  0.00000000000E+00 -0.11558916633E+04  0.11558916633E+04  0.50400001928E-02 0.  1.
    10030    2    1    2    0    0  0.00000000000E+00  0.00000000000E+00  0.66259784246E+03  0.29743811690E+04  0.28996391910E+04 0.  0.
        2    1    3    3  502    0  0.10780184717E+04 -0.10336796904E+03 -0.65748138279E+03  0.12669216752E+04  0.25500000920E-02 0.  1.
       -2    1    3    3    0  502 -0.10780184717E+04  0.10336796904E+03  0.13200792252E+04  0.17074594939E+04  0.25500000920E-02 0. -1.
</event>
<event>
 5   0  0.2608591E-07  0.2899749E+04  0.7818609E-02  0.8272952E-01
       -2   -1    0    0    0  501  0.00000000000E+00  0.00000000000E+00  0.86609046644E+03  0.86609046645E+03  0.25500000920E-02 0.  1.
        2   -1    0    0  501    0  0.00000000000E+00  0.00000000000E+00 -0.24271558633E+04  0.24271558633E+04  0.25500000920E-02 0. -1.
    10030    2    1    2    0    0  0.00000000000E+00  0.00000000000E+00 -0.15610653969E+04  0.32932463297E+04  0.28997493366E+04 0.  0.
        2    1    3    3  502    0  0.35952159603E+03  0.13449428391E+04 -0.32059574120E+03  0.14286037406E+04  0.25500000920E-02 0.  1.
       -2    1    3    3    0  502 -0.35952159603E+03 -0.13449428391E+04 -0.12404696557E+04  0.18646425891E+04  0.25500000920E-02 0. -1.
</event>
<event>
 5   0  0.2608591E-07  0.2900313E+04  0.7818609E-02  0.8272784E-01
       -2   -1    0    0    0  501  0.00000000000E+00  0.00000000000E+00  0.14317017956E+04  0.14317017956E+04  0.25500000920E-02 0.  1.
        2   -1    0    0  501    0  0.00000000000E+00  0.00000000000E+00 -0.14688495071E+04  0.14688495071E+04  0.25500000920E-02 0. -1.
    10030    2    1    2    0    0  0.00000000000E+00  0.00000000000E+00 -0.37147711489E+02  0.29005513027E+04  0.29003134153E+04 0.  0.
        2    1    3    3  502    0 -0.55303724805E+03 -0.13363693668E+04 -0.12451268438E+03  0.14516324227E+04  0.25500000920E-02 0.  1.
       -2    1    3    3    0  502  0.55303724805E+03  0.13363693668E+04  0.87364972887E+02  0.14489188799E+04  0.25500000920E-02 0. -1.
</event>
<event>
 5   0  0.2492232E-07  0.2900559E+04  0.7818609E-02  0.8272711E-01
       -2   -1    0    0    0  501  0.00000000000E+00  0.00000000000E+00  0.93070963799E+03  0.93070963799E+03  0.25500000920E-02 0.  1.
        2   -1    0    0  501    0  0.00000000000E+00  0.00000000000E+00 -0.22599003194E+04  0.22599003194E+04  0.25500000920E-02 0. -1.
    10030    2    1    2    0    0  0.00000000000E+00  0.00000000000E+00 -0.13291906814E+04  0.31906099573E+04  0.29005592620E+04 0.  0.
        4    1    3    3  502    0  0.84056951838E+03  0.92502235460E+03 -0.14737379861E+04  0.19323893853E+04  0.12699999809E+01 0. -1.
       -4    1    3    3    0  502 -0.84056951838E+03 -0.92502235460E+03  0.14454730475E+03  0.12582205721E+04  0.12699999809E+01 0.  1.
</event>
<event>
 5   0  0.2608591E-07  0.2900447E+04  0.7818609E-02  0.8272745E-01
       -2   -1    0    0    0  501  0.00000000000E+00  0.00000000000E+00  0.11836069616E+04  0.11836069616E+04  0.25500000920E-02 0. -1.
        2   -1    0    0  501    0  0.00000000000E+00  0.00000000000E+00 -0.17768970595E+04  0.17768970595E+04  0.25500000920E-02 0.  1.
    10030    2    1    2    0    0  0.00000000000E+00  0.00000000000E+00 -0.59329009789E+03  0.29605040211E+04  0.29004466757E+04 0.  0.
        2    1    3    3  502    0 -0.12062215257E+04 -0.31032847311E+03  0.46161919835E+03  0.13282945512E+04  0.25500000920E-02 0. -1.
       -2    1    3    3    0  502  0.12062215257E+04  0.31032847311E+03 -0.10549092962E+04  0.16322094699E+04  0.25500000920E-02 0.  1.
</event>
<event>
 5   0  0.2608591E-07  0.2899497E+04  0.7818609E-02  0.8273027E-01
       -2   -1    0    0    0  501  0.00000000000E+00  0.00000000000E+00  0.10617357827E+04  0.10617357827E+04  0.25500000920E-02 0. -1.
        2   -1    0    0  501    0  0.00000000000E+00  0.00000000000E+00 -0.19795605483E+04  0.19795605483E+04  0.25500000920E-02 0.  1.
    10030    2    1    2    0    0  0.00000000000E+00  0.00000000000E+00 -0.91782476564E+03  0.30412963310E+04  0.28994966930E+04 0.  0.
        2    1    3    3  502    0 -0.12352649345E+04  0.74042008331E+03 -0.63338695584E+03  0.15733023848E+04  0.25500000920E-02 0. -1.
       -2    1    3    3    0  502  0.12352649345E+04 -0.74042008331E+03 -0.28443780980E+03  0.14679939462E+04  0.25500000920E-02 0.  1.
</event>
<event>
 5   0  0.2534588E-07  0.2900785E+04  0.7818609E-02  0.8272644E-01
       -2   -1    0    0    0  501  0.00000000000E+00  0.00000000000E+00  0.10804013671E+04  0.10804013671E+04  0.25500000920E-02 0. -1.
        2   -1    0    0  501    0  0.00000000000E+00  0.00000000000E+00 -0.19470892634E+04  0.19470892634E+04  0.25500000920E-02 0.  1.
    10030    2    1    2    0    0  0.00000000000E+00  0.00000000000E+00 -0.86668789631E+03  0.30274906305E+04  0.29007846539E+04 0.  0.
        3    1    3    3  502    0 -0.87324440180E+02 -0.14277494014E+03  0.10702897228E+04  0.10832960548E+04  0.10100000352E+00 0. -1.
       -3    1    3    3    0  502  0.87324440180E+02  0.14277494014E+03 -0.19369776191E+04  0.19441945758E+04  0.10100000352E+00 0.  1.
</event>
<event>
 5   0  0.9443352E-08  0.2898339E+04  0.7818609E-02  0.8273372E-01
       -1   -1    0    0    0  501  0.00000000000E+00  0.00000000000E+00  0.16362640649E+04  0.16362640649E+04  0.50400001928E-02 0. -1.
        1   -1    0    0  501    0  0.00000000000E+00  0.00000000000E+00 -0.12834678157E+04  0.12834678157E+04  0.50400001928E-02 0.  1.
    10030    2    1    2    0    0  0.00000000000E+00  0.00000000000E+00  0.35279624927E+03  0.29197318806E+04  0.28983390176E+04 0.  0.
        4    1    3    3  502    0  0.86753140381E+02 -0.11126809414E+04 -0.75481966162E+03  0.13473452858E+04  0.12699999809E+01 0.  1.
       -4    1    3    3    0  502 -0.86753140381E+02  0.11126809414E+04  0.11076159109E+04  0.15723865948E+04  0.12699999809E+01 0. -1.
</event>
<event>
 5   0  0.9421924E-08  0.2900469E+04  0.7818609E-02  0.8272738E-01
       -1   -1    0    0    0  501  0.00000000000E+00  0.00000000000E+00  0.11625280429E+04  0.11625280429E+04  0.50400001928E-02 0. -1.
        1   -1    0    0  501    0  0.00000000000E+00  0.00000000000E+00 -0.18091437649E+04  0.18091437649E+04  0.50400001928E-02 0.  1.
    10030    2    1    2    0    0  0.00000000000E+00  0.00000000000E+00 -0.64661572205E+03  0.29716718078E+04  0.29004691761E+04 0.  0.
        1    1    3    3  502    0 -0.67916033905E+03 -0.44410473861E+03 -0.15547678619E+04  0.17537932859E+04  0.50400001928E-02 0.  1.
       -1    1    3    3    0  502  0.67916033905E+03  0.44410473861E+03  0.90815213989E+03  0.12178785219E+04  0.50400001928E-02 0. -1.
</event>
<event>
 5   0  0.9763851E-08  0.2900046E+04  0.7818609E-02  0.8272864E-01
       -1   -1    0    0    0  501  0.00000000000E+00  0.00000000000E+00  0.14478733128E+04  0.14478733128E+04  0.50400001928E-02 0.  1.
        1   -1    0    0  501    0  0.00000000000E+00  0.00000000000E+00 -0.14521760446E+04  0.14521760446E+04  0.50400001928E-02 0. -1.
    10030    2    1    2    0    0  0.00000000000E+00  0.00000000000E+00 -0.43027318523E+01  0.29000493574E+04  0.29000461655E+04 0.  0.
        3    1    3    3  502    0 -0.94751339580E+03 -0.54828078983E+03 -0.95303277860E+03  0.14514354781E+04  0.10100000352E+00 0. -1.
       -3    1    3    3    0  502  0.94751339580E+03  0.54828078983E+03  0.94873004675E+03  0.14486138794E+04  0.10100000352E+00 0.  1.
</event>
<event>
 5   0  0.9395744E-08  0.2900332E+04  0.7818609E-02  0.8272779E-01
       -1   -1    0    0    0  501  0.00000000000E+00  0.00000000000E+00  0.96544758031E+03  0.96544758032E+03  0.50400001928E-02 0.  1.
        1   -1    0    0  501    0  0.00000000000E+00  0.00000000000E+00 -0.21782450979E+04  0.21782450979E+04  0.50400001928E-02 0. -1.
    10030    2    1    2    0    0  0.00000000000E+00  0.00000000000E+00 -0.12127975176E+04  0.31436926783E+04  0.29003320218E+04 0.  0.
        2    1    3    3  502    0 -0.35992999345E+03  0.29590931838E+03  0.88209901130E+03  0.99760242112E+03  0.25500000920E-02 0.  1.
       -2    1    3    3    0  502  0.35992999345E+03 -0.29590931838E+03 -0.20948965289E+04  0.21460902571E+04  0.25500000920E-02 0. -1.
</event>
<event>
 5   0  0.9763851E-08  0.2899385E+04  0.7818609E-02  0.8273061E-01
       -1   -1    0    0    0  501  0.00000000000E+00  0.00000000000E+00  0.14880470396E+04  0.14880470396E+04  0.50400001928E-02 0. -1.
        1   -1    0    0  501    0  0.00000000000E+00  0.00000000000E+00 -0.14123260956E+04  0.14123260956E+04  0.50400001928E-02 0.  1.
    10030    2    1    2    0    0  0.00000000000E+00  0.00000000000E+00  0.75720943953E+02  0.29003731352E+04  0.28993845316E+04 0.  0.
        3    1    3    3  502    0 -0.28308720854E+03 -0.11504512090E+04  0.87356815530E+03  0.14720046481E+04  0.10100000352E+00 0. -1.
       -3    1    3    3    0  502  0.28308720854E+03  0.11504512090E+04 -0.79784721135E+03  0.14283684871E+04  0.10100000352E+00 0.  1.
</event>
<event>
 5   0  0.2492232E-07  0.2901004E+04  0.7818609E-02  0.8272579E-01
       -2   -1    0    0    0  501  0.00000000000E+00  0.00000000000E+00  0.11049666968E+04  0.11049666968E+04  0.25500000920E-02 0. -1.
        2   -1    0    0  501    0  0.00000000000E+00  0.00000000000E+00 -0.19040899725E+04  0.19040899725E+04  0.25500000920E-02 0.  1.
    10030    2    1    2    0    0  0.00000000000E+00  0.00000000000E+00 -0.79912327571E+03  0.30090566693E+04  0.29010039692E+04 0.  0.
        4    1    3    3  502    0  0.12939730154E+04 -0.74274059855E+02  0.27590147181E+03  0.13251437792E+04  0.12699999809E+01 0. -1.
       -4    1    3    3    0  502 -0.12939730154E+04  0.74274059855E+02 -0.10750247475E+04  0.16839128901E+04  0.12699999809E+01 0.  1.
</event>
<event>
 5   0  0.2492232E-07  0.2892559E+04  0.7818609E-02  0.8275095E-01
       -2   -1    0    0    0  501  0.00000000000E+00  0.00000000000E+00  0.89424786550E+03  0.89424786551E+03  0.25500000920E-02 0.  1.
        2   -1    0    0  501    0  0.00000000000E+00  0.00000000000E+00 -0.23390873641E+04  0.23390873641E+04  0.25500000920E-02 0. -1.
    10030    2    1    2    0    0  0.00000000000E+00  0.00000000000E+00 -0.14448394985E+04  0.32333352296E+04  0.28925586477E+04 0.  0.
        4    1    3    3  502    0 -0.14321634154E+03  0.63023538167E+03 -0.21686858153E+04  0.22629421855E+04  0.12699999809E+01 0. -1.
       -4    1    3    3    0  502  0.14321634154E+03 -0.63023538167E+03  0.72384631672E+03  0.97039304404E+03  0.12699999809E+01 0.  1.
</event>
<event>
 5   0  0.2608591E-07  0.2900196E+04  0.7818609E-02  0.8272819E-01
       -2   -1    0    0    0  501  0.00000000000E+00  0.00000000000E+00  0.12385913935E+04  0.12385913935E+04  0.25500000920E-02 0.  1.
        2   -1    0    0  501    0  0.00000000000E+00  0.00000000000E+00 -0.16977228465E+04  0.16977228465E+04  0.25500000920E-02 0. -1.
    10030    2    1    2    0    0  0.00000000000E+00  0.00000000000E+00 -0.45913145299E+03  0.29363142401E+04  0.29001964805E+04 0.  0.
        2    1    3    3  502    0  0.19906593479E+03 -0.13456385856E+04  0.27909970318E+03  0.13886205723E+04  0.25500000920E-02 0.  1.
       -2    1    3    3    0  502 -0.19906593479E+03  0.13456385856E+04 -0.73823115617E+03  0.15476936678E+04  0.25500000920E-02 0. -1.
</event>
<event>
 5   0  0.8407500E-08  0.2900278E+04  0.7818609E-02  0.8272795E-01
       -3   -1    0    0    0  501  0.00000000000E+00  0.00000000000E+00  0.17903590347E+04  0.17903590375E+04  0.10100000352E+00 0. -1.
        3   -1    0    0  501    0  0.00000000000E+00  0.00000000000E+00 -0.11745703256E+04  0.11745703299E+04  0.10100000352E+00 0.  1.
    10030    2    1    2    0    0  0.00000000000E+00  0.00000000000E+00  0.61578870909E+03  0.29649293675E+04  0.29002776453E+04 0.  0.
        5    1    3    3  502    0 -0.20678769531E+03 -0.85968082974E+03  0.14828930966E+04  0.17265011746E+04  0.46999998093E+01 0. -1.
       -5    1    3    3    0  502  0.20678769531E+03  0.85968082974E+03 -0.86710438754E+03  0.12384281928E+04  0.46999998093E+01 0.  1.
</event>
<event>
 5   0  0.9443352E-08  0.2899343E+04  0.7818609E-02  0.8273073E-01
       -1   -1    0    0    0  501  0.00000000000E+00  0.00000000000E+00  0.13135159773E+04  0.13135159773E+04  0.50400001928E-02 0. -1.
        1   -1    0    0  501    0  0.00000000000E+00  0.00000000000E+00 -0.15999401109E+04  0.15999401110E+04  0.50400001928E-02 0.  1.
    10030    2    1    2    0    0  0.00000000000E+00  0.00000000000E+00 -0.28642413364E+03  0.29134560883E+04  0.28993426141E+04 0.  0.
        4    1    3    3  502    0  0.13033357302E+03 -0.50243695960E+03  0.12169334301E+04  0.13230110826E+04  0.12699999809E+01 0. -1.
       -4    1    3    3    0  502 -0.13033357302E+03  0.50243695960E+03 -0.15033575637E+04  0.15904450056E+04  0.12699999809E+01 0.  1.
</event>
<event>
 5   0  0.9763851E-08  0.2903385E+04  0.7818609E-02  0.8271871E-01
       -1   -1    0    0    0  501  0.00000000000E+00  0.00000000000E+00  0.26099986249E+04  0.26099986249E+04  0.50400001928E-02 0.  1.
        1   -1    0    0  501    0  0.00000000000E+00  0.00000000000E+00 -0.80743782094E+03  0.80743782096E+03  0.50400001928E-02 0. -1.
    10030    2    1    2    0    0  0.00000000000E+00  0.00000000000E+00  0.18025608040E+04  0.34174364459E+04  0.29033853361E+04 0.  0.
        3    1    3    3  502    0  0.30548598067E+03 -0.79228419518E+03 -0.48463343413E+03  0.97770420169E+03  0.10100000352E+00 0. -1.
       -3    1    3    3    0  502 -0.30548598067E+03  0.79228419518E+03  0.22871942381E+04  0.24397322442E+04  0.10100000352E+00 0.  1.
</event>
<event>
 5   0  0.9443352E-08  0.2899912E+04  0.7818609E-02  0.8272904E-01
        1   -1    0    0  501    0  0.00000000000E+00  0.00000000000E+00  0.20955397552E+04  0.20955397553E+04  0.50400001928E-02 0.  1.
       -1   -1    0    0    0  501  0.00000000000E+00  0.00000000000E+00 -0.10032606543E+04  0.10032606543E+04  0.50400001928E-02 0. -1.
    10030    2    1    2    0    0  0.00000000000E+00  0.00000000000E+00  0.10922791009E+04  0.30988004096E+04  0.28999121270E+04 0.  0.
        4    1    3    3  502    0  0.98170324708E+03 -0.52858534158E+03  0.15366584950E+04  0.18985427758E+04  0.12699999809E+01 0.  1.
       -4    1    3    3    0  502 -0.98170324708E+03  0.52858534158E+03 -0.44437939404E+03  0.12002576338E+04  0.12699999809E+01 0. -1.
</event>
<event>
 5   0  0.9443352E-08  0.2897612E+04  0.7818609E-02  0.8273588E-01
        1   -1    0    0  501    0  0.00000000000E+00  0.00000000000E+00  0.13520864867E+04  0.13520864867E+04  0.50400001928E-02 0.  1.
       -1   -1    0    0    0  501  0.00000000000E+00  0.00000000000E+00 -0.15524439433E+04  0.15524439433E+04  0.50400001928E-02 0. -1.
    10030    2    1    2    0    0  0.00000000000E+00  0.00000000000E+00 -0.20035745664E+03  0.29045304300E+04  0.28976117594E+04 0.  0.
        4    1    3    3  502    0  0.13603331800E+04  0.11907075687E+03  0.38507700757E+03  0.14187917819E+04  0.12699999809E+01 0.  1.
       -4    1    3    3    0  502 -0.13603331800E+04 -0.11907075687E+03 -0.58543446421E+03  0.14857386481E+04  0.12699999809E+01 0. -1.
</event>
<event>
 5   0  0.2546841E-07  0.2901935E+04  0.7818609E-02  0.8272302E-01
        2   -1    0    0  501    0  0.00000000000E+00  0.00000000000E+00  0.13033686821E+04  0.13033686821E+04  0.25500000920E-02 0.  1.
       -2   -1    0    0    0  501  0.00000000000E+00  0.00000000000E+00 -0.16152804945E+04  0.16152804945E+04  0.25500000920E-02 0. -1.
    10030    2    1    2    0    0  0.00000000000E+00  0.00000000000E+00 -0.31191181237E+03  0.29186491766E+04  0.29019345336E+04 0.  0.
        1    1    3    3  502    0 -0.10843645867E+04 -0.78538970922E+03  0.40639107878E+03  0.13992273801E+04  0.50400001928E-02 0.  1.
       -1    1    3    3    0  502  0.10843645867E+04  0.78538970922E+03 -0.71830289115E+03  0.15194217965E+04  0.50400001928E-02 0. -1.
</event>
<event>
 5   0  0.2608591E-07  0.2899512E+04  0.7818609E-02  0.8273023E-01
        2   -1    0    0  501    0  0.00000000000E+00  0.00000000000E+00  0.14356232551E+04  0.14356232551E+04  0.25500000920E-02 0. -1.
       -2   -1    0    0    0  501  0.00000000000E+00  0.00000000000E+00 -0.14640280591E+04  0.14640280591E+04  0.25500000920E-02 0.  1.
    10030    2    1    2    0    0  0.00000000000E+00  0.00000000000E+00 -0.28404804026E+02  0.28996513142E+04  0.28995121850E+04 0.  0.
        2    1    3    3  502    0  0.34360056790E+02  0.99154035481E+03  0.10429480514E+04  0.14394698770E+04  0.25500000920E-02 0. -1.
       -2    1    3    3    0  502 -0.34360056790E+02 -0.99154035481E+03 -0.10713528554E+04  0.14601814372E+04  0.25500000920E-02 0.  1.
</event>
<event>
 5   0  0.2534588E-07  0.2901559E+04  0.7818609E-02  0.8272414E-01
       -2   -1    0    0    0  501  0.00000000000E+00  0.00000000000E+00  0.16305312974E+04  0.16305312974E+04  0.25500000920E-02 0.  1.
        2   -1    0    0  501    0  0.00000000000E+00  0.00000000000E+00 -0.12908440397E+04  0.12908440397E+04  0.25500000920E-02 0. -1.
    10030    2    1    2    0    0  0.00000000000E+00  0.00000000000E+00  0.33968725768E+03  0.29213753371E+04  0.29015593096E+04 0.  0.
        3    1    3    3  502    0  0.13893945593E+04 -0.23562386955E+03  0.51690891984E+03  0.15010432009E+04  0.10100000352E+00 0.  1.
       -3    1    3    3    0  502 -0.13893945593E+04  0.23562386955E+03 -0.17722166216E+03  0.14203321362E+04  0.10100000352E+00 0. -1.
</event>
<event>
 5   0  0.2678723E-07  0.2901689E+04  0.7818609E-02  0.8272375E-01
        2   -1    0    0  501    0  0.00000000000E+00  0.00000000000E+00  0.10756019004E+04  0.10756019004E+04  0.25500000920E-02 0.  1.
       -2   -1    0    0    0  501  0.00000000000E+00  0.00000000000E+00 -0.19569976513E+04  0.19569976513E+04  0.25500000920E-02 0. -1.
    10030    2    1    2    0    0  0.00000000000E+00  0.00000000000E+00 -0.88139575090E+03  0.30325995516E+04  0.29016894339E+04 0.  0.
        5    1    3    3  502    0  0.11920091487E+04 -0.82564052958E+03 -0.38992412176E+03  0.15015428750E+04  0.46999998093E+01 0.  1.
       -5    1    3    3    0  502 -0.11920091487E+04  0.82564052958E+03 -0.49147162914E+03  0.15310566766E+04  0.46999998093E+01 0. -1.
</event>
<event>
 5   0  0.9388076E-08  0.2900093E+04  0.7818609E-02  0.8272850E-01
       -1   -1    0    0    0  501  0.00000000000E+00  0.00000000000E+00  0.22289781193E+04  0.22289781193E+04  0.50400001928E-02 0.  1.
        1   -1    0    0  501    0  0.00000000000E+00  0.00000000000E+00 -0.94331764938E+03  0.94331764939E+03  0.50400001928E-02 0. -1.
    10030    2    1    2    0    0  0.00000000000E+00  0.00000000000E+00  0.12856604699E+04  0.31722957687E+04  0.29000926882E+04 0.  0.
        5    1    3    3  502    0  0.99736257188E+03 -0.10253168723E+04  0.38257996309E+03  0.14806742743E+04  0.46999998093E+01 0. -1.
       -5    1    3    3    0  502 -0.99736257188E+03  0.10253168723E+04  0.90308050685E+03  0.16916214944E+04  0.46999998093E+01 0.  1.
</event>
<event>
 5   0  0.9395744E-08  0.2899868E+04  0.7818609E-02  0.8272917E-01
       -1   -1    0    0    0  501  0.00000000000E+00  0.00000000000E+00  0.10677467860E+04  0.10677467860E+04  0.50400001928E-02 0. -1.
        1   -1    0    0  501    0  0.00000000000E+00  0.00000000000E+00 -0.19689210785E+04  0.19689210785E+04  0.50400001928E-02 0.  1.
    10030    2    1    2    0    0  0.00000000000E+00  0.00000000000E+00 -0.90117429247E+03  0.30366678645E+04  0.28998683787E+04 0.  0.
        2    1    3    3  502    0 -0.46479135446E+03 -0.13363100366E+04 -0.78264816606E+03  0.16168777533E+04  0.25500000920E-02 0. -1.
       -2    1    3    3    0  502  0.46479135446E+03  0.13363100366E+04 -0.11852612641E+03  0.14197901112E+04  0.25500000920E-02 0.  1.
</event>
<event>
 5   0  0.9388076E-08  0.2909546E+04  0.7818609E-02  0.8270043E-01
       -1   -1    0    0    0  501  0.00000000000E+00  0.00000000000E+00  0.14272715330E+04  0.14272715330E+04  0.50400001928E-02 0. -1.
        1   -1    0    0  501    0  0.00000000000E+00  0.00000000000E+00 -0.14828046876E+04  0.14828046876E+04  0.50400001928E-02 0.  1.
    10030    2    1    2    0    0  0.00000000000E+00  0.00000000000E+00 -0.55533154589E+02  0.29100762207E+04  0.29095463012E+04 0.  0.
        5    1    3    3  502    0  0.78000663160E+03  0.22210861626E+03 -0.12357117784E+04  0.14780893992E+04  0.46999998093E+01 0.  1.
       -5    1    3    3    0  502 -0.78000663160E+03 -0.22210861626E+03  0.11801786238E+04  0.14319868215E+04  0.46999998093E+01 0. -1.
</event>
<event>
 5   0  0.2608591E-07  0.2899671E+04  0.7818609E-02  0.8272975E-01
       -2   -1    0    0    0  501  0.00000000000E+00  0.00000000000E+00  0.10717078399E+04  0.10717078399E+04  0.25500000920E-02 0.  1.
        2   -1    0    0  501    0  0.00000000000E+00  0.00000000000E+00 -0.19613771758E+04  0.19613771758E+04  0.25500000920E-02 0. -1.
    10030    2    1    2    0    0  0.00000000000E+00  0.00000000000E+00 -0.88966933586E+03  0.30330850158E+04  0.28996712203E+04 0.  0.
        2    1    3    3  502    0 -0.93637142316E+03 -0.99044562336E+03 -0.96178939196E+03  0.16681764923E+04  0.25500000920E-02 0. -1.
       -2    1    3    3    0  502  0.93637142316E+03  0.99044562336E+03  0.72120056108E+02  0.13649085235E+04  0.25500000920E-02 0.  1.
</event>
<event>
 5   0  0.2546841E-07  0.2899828E+04  0.7818609E-02  0.8272929E-01
        2   -1    0    0  501    0  0.00000000000E+00  0.00000000000E+00  0.93464552495E+03  0.93464552496E+03  0.25500000920E-02 0. -1.
       -2   -1    0    0    0  501  0.00000000000E+00  0.00000000000E+00 -0.22492483934E+04  0.22492483934E+04  0.25500000920E-02 0.  1.
    10030    2    1    2    0    0  0.00000000000E+00  0.00000000000E+00 -0.13146028684E+04  0.31838939183E+04  0.28998275434E+04 0.  0.
        1    1    3    3  502    0  0.34101138284E+03  0.12768708841E+04 -0.25988656702E+01  0.13216258063E+04  0.50400001928E-02 0. -1.
       -1    1    3    3    0  502 -0.34101138284E+03 -0.12768708841E+04 -0.13120040027E+04  0.18622681120E+04  0.50400001928E-02 0.  1.
</event>
<event>
 5   0  0.2546841E-07  0.2901413E+04  0.7818609E-02  0.8272457E-01
        2   -1    0    0  501    0  0.00000000000E+00  0.00000000000E+00  0.17226914001E+04  0.17226914001E+04  0.25500000920E-02 0.  1.
       -2   -1    0    0    0  501  0.00000000000E+00  0.00000000000E+00 -0.12216631716E+04  0.12216631716E+04  0.25500000920E-02 0. -1.
    10030    2    1    2    0    0  0.00000000000E+00  0.00000000000E+00  0.50102822850E+03  0.29443545717E+04  0.29014125109E+04 0.  0.
        1    1    3    3  502    0  0.52599362104E+03 -0.13497480089E+04  0.17151815931E+03  0.14587348820E+04  0.50400001928E-02 0.  1.
       -1    1    3    3    0  502 -0.52599362104E+03  0.13497480089E+04  0.32951006919E+03  0.14856196898E+04  0.50400001928E-02 0. -1.
</event>
<event>
 5   0  0.2534588E-07  0.2895240E+04  0.7818609E-02  0.8274295E-01
       -2   -1    0    0    0  501  0.00000000000E+00  0.00000000000E+00  0.10853854443E+04  0.10853854443E+04  0.25500000920E-02 0.  1.
        2   -1    0    0  501    0  0.00000000000E+00  0.00000000000E+00 -0.19307458840E+04  0.19307458840E+04  0.25500000920E-02 0. -1.
    10030    2    1    2    0    0  0.00000000000E+00  0.00000000000E+00 -0.84536043977E+03  0.30161313283E+04  0.28952398720E+04 0.  0.
        3    1    3    3  502    0  0.34160143441E+03  0.13038148193E+04 -0.97291917432E+03  0.16622864834E+04  0.10100000352E+00 0. -1.
       -3    1    3    3    0  502 -0.34160143441E+03 -0.13038148193E+04  0.12755873455E+03  0.13538448449E+04  0.10100000352E+00 0.  1.
</event>
<event>
 5   0  0.9443352E-08  0.2899665E+04  0.7818609E-02  0.8272977E-01
        1   -1    0    0  501    0  0.00000000000E+00  0.00000000000E+00  0.19954564166E+04  0.19954564166E+04  0.50400001928E-02 0. -1.
       -1   -1    0    0    0  501  0.00000000000E+00  0.00000000000E+00 -0.10534004851E+04  0.10534004851E+04  0.50400001928E-02 0.  1.
    10030    2    1    2    0    0  0.00000000000E+00  0.00000000000E+00  0.94205593150E+03  0.30488569018E+04  0.28996653306E+04 0.  0.
        4    1    3    3  502    0  0.80805868593E+03 -0.32982766471E+03 -0.74623663393E+03  0.11483099995E+04  0.12699999809E+01 0.  1.
       -4    1    3    3    0  502 -0.80805868593E+03  0.32982766471E+03  0.16882925654E+04  0.19005469023E+04  0.12699999809E+01 0. -1.
</event>
<event>
 5   0  0.2534588E-07  0.2902688E+04  0.7818609E-02  0.8272078E-01
       -2   -1    0    0    0  501  0.00000000000E+00  0.00000000000E+00  0.17754535139E+04  0.17754535139E+04  0.25500000920E-02 0.  1.
        2   -1    0    0  501    0  0.00000000000E+00  0.00000000000E+00 -0.11864009590E+04  0.11864009590E+04  0.25500000920E-02 0. -1.
    10030    2    1    2    0    0  0.00000000000E+00  0.00000000000E+00  0.58905255485E+03  0.29618544729E+04  0.29026882379E+04 0.  0.
        3    1    3    3  502    0  0.58209536759E+03  0.62422946172E+03  0.14922938086E+04  0.17191388133E+04  0.10100000352E+00 0.  1.
       -3    1    3    3    0  502 -0.58209536759E+03 -0.62422946172E+03 -0.90324125380E+03  0.12427156596E+04  0.10100000352E+00 0. -1.
</event>
<event>
 5   0  0.9395744E-08  0.2900381E+04  0.7818609E-02  0.8272764E-01
        1   -1    0    0  501    0  0.00000000000E+00  0.00000000000E+00  0.22583141498E+04  0.22583141498E+04  0.50400001928E-02 0. -1.
       -1   -1    0    0    0  501  0.00000000000E+00  0.00000000000E+00 -0.93124882751E+03  0.93124882752E+03  0.50400001928E-02 0.  1.
    10030    2    1    2    0    0  0.00000000000E+00  0.00000000000E+00  0.13270653223E+04  0.31895629774E+04  0.29003809434E+04 0.  0.
        2    1    3    3  502    0 -0.10087286395E+04 -0.98014491956E+03  0.27498517808E+03  0.14331205042E+04  0.25500000920E-02 0.  1.
       -2    1    3    3    0  502  0.10087286395E+04  0.98014491956E+03  0.10520801442E+04  0.17564424731E+04  0.25500000920E-02 0. -1.
</event>
<event>
 5   0  0.8407500E-08  0.2901931E+04  0.7818609E-02  0.8272303E-01
       -4   -1    0    0    0  501  0.00000000000E+00  0.00000000000E+00  0.13729071203E+04  0.13729077077E+04  0.12699999809E+01 0. -1.
        4   -1    0    0  501    0  0.00000000000E+00  0.00000000000E+00 -0.15334612568E+04  0.15334617827E+04  0.12699999809E+01 0.  1.
    10030    2    1    2    0    0  0.00000000000E+00  0.00000000000E+00 -0.16055413651E+03  0.29063694904E+04  0.29019314231E+04 0.  0.
        4    1    3    3  502    0 -0.86836793016E+03  0.25531534752E+03  0.10554992061E+04  0.13904420074E+04  0.12699999809E+01 0. -1.
       -4    1    3    3    0  502  0.86836793016E+03 -0.25531534752E+03 -0.12160533426E+04  0.15159274831E+04  0.12699999809E+01 0.  1.
</event>
<event>
 5   0  0.2534588E-07  0.2901051E+04  0.7818609E-02  0.8272565E-01
        2   -1    0    0  501    0  0.00000000000E+00  0.00000000000E+00  0.22149526029E+04  0.22149526029E+04  0.25500000920E-02 0.  1.
       -2   -1    0    0    0  501  0.00000000000E+00  0.00000000000E+00 -0.94991837449E+03  0.94991837450E+03  0.25500000920E-02 0. -1.
    10030    2    1    2    0    0  0.00000000000E+00  0.00000000000E+00  0.12650342284E+04  0.31648709774E+04  0.29010509655E+04 0.  0.
        3    1    3    3  502    0 -0.13958914749E+03 -0.42847948329E+03  0.21366470501E+04  0.21836530001E+04  0.10100000352E+00 0.  1.
       -3    1    3    3    0  502  0.13958914749E+03  0.42847948329E+03 -0.87161282176E+03  0.98121797729E+03  0.10100000352E+00 0. -1.
</event>
<event>
 5   0  0.9395744E-08  0.2900666E+04  0.7818609E-02  0.8272679E-01
        1   -1    0    0  501    0  0.00000000000E+00  0.00000000000E+00  0.16582089564E+04  0.16582089565E+04  0.50400001928E-02 0.  1.
       -1   -1    0    0    0  501  0.00000000000E+00  0.00000000000E+00 -0.12685164824E+04  0.12685164824E+04  0.50400001928E-02 0. -1.
    10030    2    1    2    0    0  0.00000000000E+00  0.00000000000E+00  0.38969247402E+03  0.29267254389E+04  0.29006657116E+04 0.  0.
        2    1    3    3  502    0  0.91175819465E+03 -0.10630722567E+04 -0.18542131797E+03  0.14127302268E+04  0.25500000920E-02 0. -1.
       -2    1    3    3    0  502 -0.91175819465E+03  0.10630722567E+04  0.57511379200E+03  0.15139952121E+04  0.25500000920E-02 0.  1.
</event>
<event>
 5   0  0.9395744E-08  0.2900435E+04  0.7818609E-02  0.8272748E-01
        1   -1    0    0  501    0  0.00000000000E+00  0.00000000000E+00  0.15539126995E+04  0.15539126995E+04  0.50400001928E-02 0. -1.
       -1   -1    0    0    0  501  0.00000000000E+00  0.00000000000E+00 -0.13534418063E+04  0.13534418063E+04  0.50400001928E-02 0.  1.
    10030    2    1    2    0    0  0.00000000000E+00  0.00000000000E+00  0.20047089318E+03  0.29073545058E+04  0.29004347335E+04 0.  0.
        2    1    3    3  502    0  0.48456828058E+03  0.92980632644E+03 -0.90404514117E+03  0.13844290666E+04  0.25500000920E-02 0.  1.
       -2    1    3    3    0  502 -0.48456828058E+03 -0.92980632644E+03  0.11045160343E+04  0.15229254392E+04  0.25500000920E-02 0. -1.
</event>
<event>
 5   0  0.8407500E-08  0.2899158E+04  0.7818609E-02  0.8273128E-01
       -3   -1    0    0    0  501  0.00000000000E+00  0.00000000000E+00  0.10869112104E+04  0.10869112151E+04  0.10100000352E+00 0. -1.
        3   -1    0    0  501    0  0.00000000000E+00  0.00000000000E+00 -0.19332568703E+04  0.19332568729E+04  0.10100000352E+00 0.  1.
    10030    2    1    2    0    0  0.00000000000E+00  0.00000000000E+00 -0.84634565989E+03  0.30201680880E+04  0.28991575162E+04 0.  0.
        4    1    3    3  502    0  0.10011936566E+04  0.54810174815E+03  0.50769782157E+03  0.12492249418E+04  0.12699999809E+01 0. -1.
       -4    1    3    3    0  502 -0.10011936566E+04 -0.54810174815E+03 -0.13540434815E+04  0.17709431462E+04  0.12699999809E+01 0.  1.
</event>
<event>
 5   0  0.2608591E-07  0.2901270E+04  0.7818609E-02  0.8272500E-01
        2   -1    0    0  501    0  0.00000000000E+00  0.00000000000E+00  0.26185222585E+04  0.26185222585E+04  0.25500000920E-02 0. -1.
       -2   -1    0    0    0  501  0.00000000000E+00  0.00000000000E+00 -0.80363737137E+03  0.80363737138E+03  0.25500000920E-02 0.  1.
    10030    2    1    2    0    0  0.00000000000E+00  0.00000000000E+00  0.18148848872E+04  0.34221596299E+04  0.29012703044E+04 0.  0.
        2    1    3    3  502    0  0.10087196788E+04 -0.68275326677E+03 -0.21832384409E+02  0.12182545164E+04  0.25500000920E-02 0.  1.
       -2    1    3    3    0  502 -0.10087196788E+04  0.68275326677E+03  0.18367172716E+04  0.22039051135E+04  0.25500000920E-02 0. -1.
</event>
<event>
 5   0  0.2608591E-07  0.2894940E+04  0.7818609E-02  0.8274385E-01
        2   -1    0    0  501    0  0.00000000000E+00  0.00000000000E+00  0.18765495734E+04  0.18765495734E+04  0.25500000920E-02 0.  1.
       -2   -1    0    0    0  501  0.00000000000E+00  0.00000000000E+00 -0.11165006405E+04  0.11165006405E+04  0.25500000920E-02 0. -1.
    10030    2    1    2    0    0  0.00000000000E+00  0.00000000000E+00  0.76004893286E+03  0.29930502139E+04  0.28949395853E+04 0.  0.
        2    1    3    3  502    0 -0.88307498152E+03 -0.73859807654E+03  0.12871537067E+04  0.17268796155E+04  0.25500000920E-02 0.  1.
       -2    1    3    3    0  502  0.88307498152E+03  0.73859807654E+03 -0.52710477385E+03  0.12661705984E+04  0.25500000920E-02 0. -1.
</event>
<event>
 5   0  0.9763851E-08  0.2893868E+04  0.7818609E-02  0.8274704E-01
        1   -1    0    0  501    0  0.00000000000E+00  0.00000000000E+00  0.16710041744E+04  0.16710041745E+04  0.50400001928E-02 0.  1.
       -1   -1    0    0    0  501  0.00000000000E+00  0.00000000000E+00 -0.12529103376E+04  0.12529103376E+04  0.50400001928E-02 0. -1.
    10030    2    1    2    0    0  0.00000000000E+00  0.00000000000E+00  0.41809383688E+03  0.29239145120E+04  0.28938682792E+04 0.  0.
        3    1    3    3  502    0  0.41644322233E+03 -0.13121618248E+04  0.65912085870E+03  0.15263138368E+04  0.10100000352E+00 0. -1.
       -3    1    3    3    0  502 -0.41644322233E+03  0.13121618248E+04 -0.24102702182E+03  0.13976006752E+04  0.10100000352E+00 0.  1.
</event>
<event>
 5   0  0.2492232E-07  0.2899287E+04  0.7818609E-02  0.8273090E-01
        2   -1    0    0  501    0  0.00000000000E+00  0.00000000000E+00  0.15418920208E+04  0.15418920208E+04  0.25500000920E-02 0. -1.
       -2   -1    0    0    0  501  0.00000000000E+00  0.00000000000E+00 -0.13629142534E+04  0.13629142534E+04  0.25500000920E-02 0.  1.
    10030    2    1    2    0    0  0.00000000000E+00  0.00000000000E+00  0.17897776744E+03  0.29048062742E+04  0.28992872313E+04 0.  0.
        4    1    3    3  502    0 -0.45025460759E+02  0.14367126073E+04  0.27771505590E+03  0.14640005715E+04  0.12699999809E+01 0.  1.
       -4    1    3    3    0  502  0.45025460759E+02 -0.14367126073E+04 -0.98737288454E+02  0.14408057028E+04  0.12699999809E+01 0. -1.
</event>
<event>
 5   0  0.9421924E-08  0.2899569E+04  0.7818609E-02  0.8273006E-01
        1   -1    0    0  501    0  0.00000000000E+00  0.00000000000E+00  0.91963581816E+03  0.91963581818E+03  0.50400001928E-02 0.  1.
       -1   -1    0    0    0  501  0.00000000000E+00  0.00000000000E+00 -0.22855519947E+04  0.22855519947E+04  0.50400001928E-02 0. -1.
    10030    2    1    2    0    0  0.00000000000E+00  0.00000000000E+00 -0.13659161766E+04  0.32051878129E+04  0.28995692636E+04 0.  0.
        1    1    3    3  502    0  0.76619048649E+03 -0.97980940764E+02 -0.20391496757E+04  0.21805456946E+04  0.50400001928E-02 0. -1.
       -1    1    3    3    0  502 -0.76619048649E+03  0.97980940764E+02  0.67323349910E+03  0.10246421183E+04  0.50400001928E-02 0.  1.
</event>
<event>
 5   0  0.2608591E-07  0.2899763E+04  0.7818609E-02  0.8272948E-01
       -2   -1    0    0    0  501  0.00000000000E+00  0.00000000000E+00  0.10409028828E+04  0.10409028828E+04  0.25500000920E-02 0.  1.
        2   -1    0    0  501    0  0.00000000000E+00  0.00000000000E+00 -0.20195510276E+04  0.20195510276E+04  0.25500000920E-02 0. -1.
    10030    2    1    2    0    0  0.00000000000E+00  0.00000000000E+00 -0.97864814482E+03  0.30604539104E+04  0.28997630845E+04 0.  0.
        2    1    3    3  502    0  0.83621240645E+03  0.86110992623E+03 -0.13476530566E+04  0.18046967210E+04  0.25500000920E-02 0. -1.
       -2    1    3    3    0  502 -0.83621240645E+03 -0.86110992623E+03  0.36900491179E+03  0.12557571894E+04  0.25500000920E-02 0.  1.
</event>
<event>
 5   0  0.9388076E-08  0.2900731E+04  0.7818609E-02  0.8272660E-01
       -1   -1    0    0    0  501  0.00000000000E+00  0.00000000000E+00  0.10135174367E+04  0.10135174367E+04  0.50400001928E-02 0. -1.
        1   -1    0    0  501    0  0.00000000000E+00  0.00000000000E+00 -0.20755039837E+04  0.20755039837E+04  0.50400001928E-02 0.  1.
    10030    2    1    2    0    0  0.00000000000E+00  0.00000000000E+00 -0.10619865470E+04  0.30890214204E+04  0.29007305821E+04 0.  0.
        5    1    3    3  502    0 -0.22020528239E+03 -0.72810068701E+03 -0.18460259523E+04  0.19966108493E+04  0.46999998093E+01 0.  1.
       -5    1    3    3    0  502  0.22020528239E+03  0.72810068701E+03  0.78403940535E+03  0.10924105712E+04  0.46999998093E+01 0. -1.
</event>
<event>
 5   0  0.2546841E-07  0.2900781E+04  0.7818609E-02  0.8272645E-01
        2   -1    0    0  501    0  0.00000000000E+00  0.00000000000E+00  0.12996261097E+04  0.12996261097E+04  0.25500000920E-02 0.  1.
       -2   -1    0    0    0  501  0.00000000000E+00  0.00000000000E+00 -0.16186441437E+04  0.16186441437E+04  0.25500000920E-02 0. -1.
    10030    2    1    2    0    0  0.00000000000E+00  0.00000000000E+00 -0.31901803403E+03  0.29182702534E+04  0.29007807166E+04 0.  0.
        1    1    3    3  502    0 -0.35142527653E+02 -0.48566881673E+03 -0.15339537484E+04  0.16093860007E+04  0.50400001928E-02 0. -1.
       -1    1    3    3    0  502  0.35142527653E+02  0.48566881673E+03  0.12149357144E+04  0.13088842527E+04  0.50400001928E-02 0.  1.
</event>
<event>
 5   0  0.8407500E-08  0.2900031E+04  0.7818609E-02  0.8272868E-01
        4   -1    0    0  501    0  0.00000000000E+00  0.00000000000E+00  0.87754936380E+03  0.87755028278E+03  0.12699999809E+01 0.  1.
       -4   -1    0    0    0  501  0.00000000000E+00  0.00000000000E+00 -0.23959255060E+04  0.23959258426E+04  0.12699999809E+01 0. -1.
    10030    2    1    2    0    0  0.00000000000E+00  0.00000000000E+00 -0.15183761422E+04  0.32734761254E+04  0.29000310057E+04 0.  0.
        1    1    3    3  502    0 -0.27592886577E+03  0.86423507166E+03  0.51762609739E+03  0.10444978577E+04  0.50400001928E-02 0.  1.
       -1    1    3    3    0  502  0.27592886577E+03 -0.86423507166E+03 -0.20360022396E+04  0.22289782677E+04  0.50400001928E-02 0. -1.
</event>
<event>
 5   0  0.9421924E-08  0.2900222E+04  0.7818609E-02  0.8272811E-01
        1   -1    0    0  501    0  0.00000000000E+00  0.00000000000E+00  0.21969709846E+04  0.21969709846E+04  0.50400001928E-02 0. -1.
       -1   -1    0    0    0  501  0.00000000000E+00  0.00000000000E+00 -0.95714606962E+03  0.95714606963E+03  0.50400001928E-02 0.  1.
    10030    2    1    2    0    0  0.00000000000E+00  0.00000000000E+00  0.12398249150E+04  0.31541170543E+04  0.29002221591E+04 0.  0.
        1    1    3    3  502    0 -0.12812436251E+04  0.67787817293E+03  0.66499107858E+03  0.15947780970E+04  0.50400001928E-02 0.  1.
       -1    1    3    3    0  502  0.12812436251E+04 -0.67787817293E+03  0.57483383643E+03  0.15593389573E+04  0.50400001928E-02 0. -1.
</event>
<event>
 5   0  0.9443352E-08  0.2900583E+04  0.7818609E-02  0.8272704E-01
       -1   -1    0    0    0  501  0.00000000000E+00  0.00000000000E+00  0.14898171029E+04  0.14898171029E+04  0.50400001928E-02 0. -1.
        1   -1    0    0  501    0  0.00000000000E+00  0.00000000000E+00 -0.14118148641E+04  0.14118148641E+04  0.50400001928E-02 0.  1.
    10030    2    1    2    0    0  0.00000000000E+00  0.00000000000E+00  0.78002238778E+02  0.29016319670E+04  0.29005833418E+04 0.  0.
        4    1    3    3  502    0  0.89329004113E+03 -0.32274972121E+03  0.11353945354E+04  0.14802894460E+04  0.12699999809E+01 0. -1.
       -4    1    3    3    0  502 -0.89329004113E+03  0.32274972121E+03 -0.10573922966E+04  0.14213425210E+04  0.12699999809E+01 0.  1.
</event>
<event>
 5   0  0.9443352E-08  0.2899930E+04  0.7818609E-02  0.8272898E-01
       -1   -1    0    0    0  501  0.00000000000E+00  0.00000000000E+00  0.10833603552E+04  0.10833603553E+04  0.50400001928E-02 0. -1.
        1   -1    0    0  501    0  0.00000000000E+00  0.00000000000E+00 -0.19406267485E+04  0.19406267485E+04  0.50400001928E-02 0.  1.
    10030    2    1    2    0    0  0.00000000000E+00  0.00000000000E+00 -0.85726639322E+03  0.30239871037E+04  0.28999297120E+04 0.  0.
        4    1    3    3  502    0 -0.15170523867E+03 -0.83842937701E+03  0.79476450921E+03  0.11651740375E+04  0.12699999809E+01 0. -1.
       -4    1    3    3    0  502  0.15170523867E+03  0.83842937701E+03 -0.16520309024E+04  0.18588130662E+04  0.12699999809E+01 0.  1.
</event>
<event>
 5   0  0.2608591E-07  0.2902341E+04  0.7818609E-02  0.8272181E-01
        2   -1    0    0  501    0  0.00000000000E+00  0.00000000000E+00  0.14034002700E+04  0.14034002700E+04  0.25500000920E-02 0.  1.
       -2   -1    0    0    0  501  0.00000000000E+00  0.00000000000E+00 -0.15005671866E+04  0.15005671866E+04  0.25500000920E-02 0. -1.
    10030    2    1    2    0    0  0.00000000000E+00  0.00000000000E+00 -0.97166916620E+02  0.29039674566E+04  0.29023413961E+04 0.  0.
        2    1    3    3  502    0  0.13664817963E+04  0.24393406613E+03 -0.47204636088E+03  0.14661528212E+04  0.25500000920E-02 0.  1.
       -2    1    3    3    0  502 -0.13664817963E+04 -0.24393406613E+03  0.37487944426E+03  0.14378146355E+04  0.25500000920E-02 0. -1.
</event>
<event>
 5   0  0.2608591E-07  0.2900620E+04  0.7818609E-02  0.8272693E-01
        2   -1    0    0  501    0  0.00000000000E+00  0.00000000000E+00  0.28538266179E+04  0.28538266179E+04  0.25500000920E-02 0. -1.
       -2   -1    0    0    0  501  0.00000000000E+00  0.00000000000E+00 -0.73704516777E+03  0.73704516777E+03  0.25500000920E-02 0.  1.
    10030    2    1    2    0    0  0.00000000000E+00  0.00000000000E+00  0.21167814501E+04  0.35908717856E+04  0.29006200153E+04 0.  0.
        2    1    3    3  502    0 -0.13038246023E+04 -0.39728114209E+03  0.44486820728E+03  0.14337707702E+04  0.25500000920E-02 0.  1.
       -2    1    3    3    0  502  0.13038246023E+04  0.39728114209E+03  0.16719132428E+04  0.21571010155E+04  0.25500000920E-02 0. -1.
</event>
<event>
 5   0  0.2492232E-07  0.2898023E+04  0.7818609E-02  0.8273466E-01
       -2   -1    0    0    0  501  0.00000000000E+00  0.00000000000E+00  0.97454225275E+03  0.97454225275E+03  0.25500000920E-02 0. -1.
        2   -1    0    0  501    0  0.00000000000E+00  0.00000000000E+00 -0.21544820273E+04  0.21544820273E+04  0.25500000920E-02 0.  1.
    10030    2    1    2    0    0  0.00000000000E+00  0.00000000000E+00 -0.11799397746E+04  0.31290242801E+04  0.28980226144E+04 0.  0.
        4    1    3    3  502    0 -0.43024769938E+03  0.10017420940E+04  0.44059168199E+03  0.11758924053E+04  0.12699999809E+01 0. -1.
       -4    1    3    3    0  502  0.43024769938E+03 -0.10017420940E+04 -0.16205314566E+04  0.19531318748E+04  0.12699999809E+01 0.  1.
</event>
<event>
 5   0  0.2678723E-07  0.2899093E+04  0.7818609E-02  0.8273147E-01
        2   -1    0    0  501    0  0.00000000000E+00  0.00000000000E+00  0.71661904154E+03  0.71661904154E+03  0.25500000920E-02 0. -1.
       -2   -1    0    0    0  501  0.00000000000E+00  0.00000000000E+00 -0.29320804042E+04  0.29320804042E+04  0.25500000920E-02 0.  1.
    10030    2    1    2    0    0  0.00000000000E+00  0.00000000000E+00 -0.22154613627E+04  0.36486994458E+04  0.28990927195E+04 0.  0.
        5    1    3    3  502    0 -0.67871962501E+03 -0.12073094372E+04 -0.16459882466E+04  0.21511754472E+04  0.46999998093E+01 0. -1.
       -5    1    3    3    0  502  0.67871962501E+03  0.12073094372E+04 -0.56947311608E+03  0.14975239986E+04  0.46999998093E+01 0.  1.
</event>
<event>
 5   0  0.2608591E-07  0.2901900E+04  0.7818609E-02  0.8272312E-01
        2   -1    0    0  501    0  0.00000000000E+00  0.00000000000E+00  0.16937084743E+04  0.16937084743E+04  0.25500000920E-02 0. -1.
       -2   -1    0    0    0  501  0.00000000000E+00  0.00000000000E+00 -0.12429857019E+04  0.12429857019E+04  0.25500000920E-02 0.  1.
    10030    2    1    2    0    0  0.00000000000E+00  0.00000000000E+00  0.45072277233E+03  0.29366941762E+04  0.29018996652E+04 0.  0.
        2    1    3    3  502    0  0.10596986723E+04  0.66767726771E+03  0.96660622289E+03  0.15821130807E+04  0.25500000920E-02 0. -1.
       -2    1    3    3    0  502 -0.10596986723E+04 -0.66767726771E+03 -0.51588345056E+03  0.13545810955E+04  0.25500000920E-02 0.  1.
</event>
<event>
 5   0  0.2546841E-07  0.2900420E+04  0.7818609E-02  0.8272753E-01
       -2   -1    0    0    0  501  0.00000000000E+00  0.00000000000E+00  0.11565160733E+04  0.11565160733E+04  0.25500000920E-02 0. -1.
        2   -1    0    0  501    0  0.00000000000E+00  0.00000000000E+00 -0.18184866744E+04  0.18184866744E+04  0.25500000920E-02 0.  1.
    10030    2    1    2    0    0  0.00000000000E+00  0.00000000000E+00 -0.66197060106E+03  0.29750027477E+04  0.29004200165E+04 0.  0.
        1    1    3    3  502    0 -0.13485689040E+04  0.48898005812E+03 -0.54946364098E+03  0.15361151906E+04  0.50400001928E-02 0.  1.
       -1    1    3    3    0  502  0.13485689040E+04 -0.48898005812E+03 -0.11250696009E+03  0.14388875571E+04  0.50400001928E-02 0. -1.
</event>
<event>
 5   0  0.2492232E-07  0.2900164E+04  0.7818609E-02  0.8272829E-01
        2   -1    0    0  501    0  0.00000000000E+00  0.00000000000E+00  0.17015994029E+04  0.17015994029E+04  0.25500000920E-02 0.  1.
       -2   -1    0    0    0  501  0.00000000000E+00  0.00000000000E+00 -0.12357417814E+04  0.12357417814E+04  0.25500000920E-02 0. -1.
    10030    2    1    2    0    0  0.00000000000E+00  0.00000000000E+00  0.46585762142E+03  0.29373411843E+04  0.29001637729E+04 0.  0.
        4    1    3    3  502    0  0.48438484534E+03 -0.83891141869E+03  0.13258046214E+04  0.16419989506E+04  0.12699999809E+01 0.  1.
       -4    1    3    3    0  502 -0.48438484534E+03  0.83891141869E+03 -0.85994699994E+03  0.12953422337E+04  0.12699999809E+01 0. -1.
</event>
<event>
 5   0  0.2492232E-07  0.2898593E+04  0.7818609E-02  0.8273296E-01
        2   -1    0    0  501    0  0.00000000000E+00  0.00000000000E+00  0.23805542780E+04  0.23805542780E+04  0.25500000920E-02 0. -1.
       -2   -1    0    0    0  501  0.00000000000E+00  0.00000000000E+00 -0.88234089326E+03  0.88234089326E+03  0.25500000920E-02 0.  1.
    10030    2    1    2    0    0  0.00000000000E+00  0.00000000000E+00  0.14982133847E+04  0.32628951712E+04  0.28985930298E+04 0.  0.
        4    1    3    3  502    0  0.68292938016E+03 -0.95500956187E+03 -0.20740742855E+03  0.11922479842E+04  0.12699999809E+01 0. -1.
       -4    1    3    3    0  502 -0.68292938016E+03  0.95500956187E+03  0.17056208133E+04  0.20706471870E+04  0.12699999809E+01 0.  1.
</event>
<event>
 5   0  0.2678723E-07  0.2900565E+04  0.7818609E-02  0.8272709E-01
       -2   -1    0    0    0  501  0.00000000000E+00  0.00000000000E+00  0.70710741169E+03  0.70710741170E+03  0.25500000920E-02 0.  1.
        2   -1    0    0  501    0  0.00000000000E+00  0.00000000000E+00 -0.29745402243E+04  0.29745402243E+04  0.25500000920E-02 0. -1.
    10030    2    1    2    0    0  0.00000000000E+00  0.00000000000E+00 -0.22674328126E+04  0.36816476360E+04  0.29005650753E+04 0.  0.
        5    1    3    3  502    0 -0.79271970264E+03 -0.11780279389E+04 -0.75902316993E+03  0.16100598170E+04  0.46999998093E+01 0.  1.
       -5    1    3    3    0  502  0.79271970264E+03  0.11780279389E+04 -0.15084096427E+04  0.20715878190E+04  0.46999998093E+01 0. -1.
</event>
<event>
 5   0  0.9443352E-08  0.2899917E+04  0.7818609E-02  0.8272902E-01
       -1   -1    0    0    0  501  0.00000000000E+00  0.00000000000E+00  0.13845487654E+04  0.13845487654E+04  0.50400001928E-02 0.  1.
        1   -1    0    0  501    0  0.00000000000E+00  0.00000000000E+00 -0.15184582114E+04  0.15184582114E+04  0.50400001928E-02 0. -1.
    10030    2    1    2    0    0  0.00000000000E+00  0.00000000000E+00 -0.13390944603E+03  0.29030069769E+04  0.28999168554E+04 0.  0.
        4    1    3    3  502    0  0.30347182584E+03 -0.12210512579E+04  0.65444936061E+03  0.14182266751E+04  0.12699999809E+01 0. -1.
       -4    1    3    3    0  502 -0.30347182584E+03  0.12210512579E+04 -0.78835880664E+03  0.14847803017E+04  0.12699999809E+01 0.  1.
</event>
<event>
 5   0  0.2678723E-07  0.2899833E+04  0.7818609E-02  0.8272927E-01
        2   -1    0    0  501    0  0.00000000000E+00  0.00000000000E+00  0.21109696886E+04  0.21109696887E+04  0.25500000920E-02 0. -1.
       -2   -1    0    0    0  501  0.00000000000E+00  0.00000000000E+00 -0.99587286234E+03  0.99587286234E+03  0.25500000920E-02 0.  1.
    10030    2    1    2    0    0  0.00000000000E+00  0.00000000000E+00  0.11150968263E+04  0.31068425510E+04  0.28998327029E+04 0.  0.
        5    1    3    3  502    0  0.34361671601E+03  0.29525656262E+03 -0.91808477998E+03  0.10237922829E+04  0.46999998093E+01 0.  1.
       -5    1    3    3    0  502 -0.34361671601E+03 -0.29525656262E+03  0.20331816063E+04  0.20830502681E+04  0.46999998093E+01 0. -1.
</event>
<event>
 5   0  0.2534588E-07  0.2899752E+04  0.7818609E-02  0.8272951E-01
        2   -1    0    0  501    0  0.00000000000E+00  0.00000000000E+00  0.15218129659E+04  0.15218129659E+04  0.25500000920E-02 0.  1.
       -2   -1    0    0    0  501  0.00000000000E+00  0.00000000000E+00 -0.13813399504E+04  0.13813399504E+04  0.25500000920E-02 0. -1.
    10030    2    1    2    0    0  0.00000000000E+00  0.00000000000E+00  0.14047301549E+03  0.29031529163E+04  0.28997524355E+04 0.  0.
        3    1    3    3  502    0  0.94121814438E+03  0.96179973338E+03 -0.47001719328E+03  0.14254355456E+04  0.10100000352E+00 0. -1.
       -3    1    3    3    0  502 -0.94121814438E+03 -0.96179973338E+03  0.61049020877E+03  0.14777173707E+04  0.10100000352E+00 0.  1.
</event>
<event>
 5   0  0.9395744E-08  0.2891031E+04  0.7818609E-02  0.8275551E-01
        1   -1    0    0  501    0  0.00000000000E+00  0.00000000000E+00  0.18691191740E+04  0.18691191740E+04  0.50400001928E-02 0. -1.
       -1   -1    0    0    0  501  0.00000000000E+00  0.00000000000E+00 -0.11179139319E+04  0.11179139319E+04  0.50400001928E-02 0.  1.
    10030    2    1    2    0    0  0.00000000000E+00  0.00000000000E+00  0.75120524204E+03  0.29870331059E+04  0.28910305187E+04 0.  0.
        2    1    3    3  502    0 -0.56894968665E+03 -0.12538880128E+04 -0.78979678743E+02  0.13791942156E+04  0.25500000920E-02 0.  1.
       -2    1    3    3    0  502  0.56894968665E+03  0.12538880128E+04  0.83018492078E+03  0.16078388903E+04  0.25500000920E-02 0. -1.
</event>
<event>
 5   0  0.9421924E-08  0.2900924E+04  0.7818609E-02  0.8272603E-01
        1   -1    0    0  501    0  0.00000000000E+00  0.00000000000E+00  0.13814839794E+04  0.13814839794E+04  0.50400001928E-02 0.  1.
       -1   -1    0    0    0  501  0.00000000000E+00  0.00000000000E+00 -0.15228839059E+04  0.15228839059E+04  0.50400001928E-02 0. -1.
    10030    2    1    2    0    0  0.00000000000E+00  0.00000000000E+00 -0.14139992650E+03  0.29043678854E+04  0.29009237967E+04 0.  0.
        1    1    3    3  502    0 -0.64591746530E+03  0.11022898549E+04  0.61683757072E+03  0.14187109942E+04  0.50400001928E-02 0.  1.
       -1    1    3    3    0  502  0.64591746530E+03 -0.11022898549E+04 -0.75823749722E+03  0.14856568912E+04  0.50400001928E-02 0. -1.
</event>
<event>
 5   0  0.9388076E-08  0.2878076E+04  0.7818609E-02  0.8279431E-01
        1   -1    0    0  501    0  0.00000000000E+00  0.00000000000E+00  0.14585470947E+04  0.14585470947E+04  0.50400001928E-02 0.  1.
       -1   -1    0    0    0  501  0.00000000000E+00  0.00000000000E+00 -0.14197899150E+04  0.14197899150E+04  0.50400001928E-02 0. -1.
    10030    2    1    2    0    0  0.00000000000E+00  0.00000000000E+00  0.38757179662E+02  0.28783370097E+04  0.28780760627E+04 0.  0.
        5    1    3    3  502    0 -0.65972590006E+03 -0.10714003605E+04 -0.67901943821E+03  0.14297644852E+04  0.46999998093E+01 0. -1.
       -5    1    3    3    0  502  0.65972590006E+03  0.10714003605E+04  0.71777661788E+03  0.14485725245E+04  0.46999998093E+01 0.  1.
</event>
<event>
 5   0  0.9388076E-08  0.2900388E+04  0.7818609E-02  0.8272762E-01
       -1   -1    0    0    0  501  0.00000000000E+00  0.00000000000E+00  0.87077451462E+03  0.87077451464E+03  0.50400001928E-02 0. -1.
        1   -1    0    0  501    0  0.00000000000E+00  0.00000000000E+00 -0.24151634221E+04  0.24151634221E+04  0.50400001928E-02 0.  1.
    10030    2    1    2    0    0  0.00000000000E+00  0.00000000000E+00 -0.15443889075E+04  0.32859379368E+04  0.29003880821E+04 0.  0.
        5    1    3    3  502    0 -0.45978638807E+03 -0.13258000500E+04 -0.11867469548E+04  0.18378084013E+04  0.46999998093E+01 0.  1.
       -5    1    3    3    0  502  0.45978638807E+03  0.13258000500E+04 -0.35764195274E+03  0.14481295355E+04  0.46999998093E+01 0. -1.
</event>
<event>
 5   0  0.2546841E-07  0.2897974E+04  0.7818609E-02  0.8273480E-01
        2   -1    0    0  501    0  0.00000000000E+00  0.00000000000E+00  0.13195903911E+04  0.13195903911E+04  0.25500000920E-02 0.  1.
       -2   -1    0    0    0  501  0.00000000000E+00  0.00000000000E+00 -0.15910722791E+04  0.15910722791E+04  0.25500000920E-02 0. -1.
    10030    2    1    2    0    0  0.00000000000E+00  0.00000000000E+00 -0.27148188800E+03  0.29106626701E+04  0.28979742517E+04 0.  0.
        1    1    3    3  502    0 -0.14755951123E+03 -0.11086962893E+04  0.78947768504E+03  0.13690348010E+04  0.50400001928E-02 0.  1.
       -1    1    3    3    0  502  0.14755951123E+03  0.11086962893E+04 -0.10609595730E+04  0.15416278691E+04  0.50400001928E-02 0. -1.
</event>
<event>
 5   0  0.2546841E-07  0.2900651E+04  0.7818609E-02  0.8272684E-01
        2   -1    0    0  501    0  0.00000000000E+00  0.00000000000E+00  0.26741985620E+04  0.26741985620E+04  0.25500000920E-02 0. -1.
       -2   -1    0    0    0  501  0.00000000000E+00  0.00000000000E+00 -0.78656988384E+03  0.78656988385E+03  0.25500000920E-02 0.  1.
    10030    2    1    2    0    0  0.00000000000E+00  0.00000000000E+00  0.18876286781E+04  0.34607684458E+04  0.29006509975E+04 0.  0.
        1    1    3    3  502    0 -0.13539412374E+04 -0.25607239485E+03  0.14836367983E+04  0.20248229787E+04  0.50400001928E-02 0. -1.
       -1    1    3    3    0  502  0.13539412374E+04  0.25607239485E+03  0.40399187980E+03  0.14359454671E+04  0.50400001928E-02 0.  1.
</event>
<event>
 5   0  0.9443352E-08  0.2899470E+04  0.7818609E-02  0.8273035E-01
       -1   -1    0    0    0  501  0.00000000000E+00  0.00000000000E+00  0.95788534052E+03  0.95788534053E+03  0.50400001928E-02 0.  1.
        1   -1    0    0  501    0  0.00000000000E+00  0.00000000000E+00 -0.21941367819E+04  0.21941367819E+04  0.50400001928E-02 0. -1.
    10030    2    1    2    0    0  0.00000000000E+00  0.00000000000E+00 -0.12362514414E+04  0.31520221225E+04  0.28994699230E+04 0.  0.
        4    1    3    3  502    0  0.10822937905E+02 -0.14271559363E+04 -0.89493943800E+03  0.16845798922E+04  0.12699999809E+01 0.  1.
       -4    1    3    3    0  502 -0.10822937905E+02  0.14271559363E+04 -0.34131200341E+03  0.14674422303E+04  0.12699999809E+01 0. -1.
</event>
<event>
 5   0  0.2608591E-07  0.2899339E+04  0.7818609E-02  0.8273074E-01
       -2   -1    0    0    0  501  0.00000000000E+00  0.00000000000E+00  0.14622111210E+04  0.14622111210E+04  0.25500000920E-02 0. -1.
        2   -1    0    0  501    0  0.00000000000E+00  0.00000000000E+00 -0.14372352075E+04  0.14372352075E+04  0.25500000920E-02 0.  1.
    10030    2    1    2    0    0  0.00000000000E+00  0.00000000000E+00  0.24975913532E+02  0.28994463285E+04  0.28993387549E+04 0.  0.
        2    1    3    3  502    0 -0.99285444484E+03 -0.10576509720E+03 -0.10385482311E+04  0.14406695085E+04  0.25500000920E-02 0.  1.
       -2    1    3    3    0  502  0.99285444484E+03  0.10576509720E+03  0.10635241446E+04  0.14587768200E+04  0.25500000920E-02 0. -1.
</event>
<event>
 5   0  0.2678723E-07  0.2900234E+04  0.7818609E-02  0.8272808E-01
        2   -1    0    0  501    0  0.00000000000E+00  0.00000000000E+00  0.32009291465E+04  0.32009291465E+04  0.25500000920E-02 0.  1.
       -2   -1    0    0    0  501  0.00000000000E+00  0.00000000000E+00 -0.65694665079E+03  0.65694665080E+03  0.25500000920E-02 0. -1.
    10030    2    1    2    0    0  0.00000000000E+00  0.00000000000E+00  0.25439824958E+04  0.38578757973E+04  0.29002342542E+04 0.  0.
        5    1    3    3  502    0  0.74966185665E+03 -0.84465831648E+03  0.24819397648E+04  0.27268090613E+04  0.46999998093E+01 0.  1.
       -5    1    3    3    0  502 -0.74966185665E+03  0.84465831648E+03  0.62042731000E+02  0.11310667360E+04  0.46999998093E+01 0. -1.
</event>
<event>
 5   0  0.2678723E-07  0.2900522E+04  0.7818609E-02  0.8272722E-01
        2   -1    0    0  501    0  0.00000000000E+00  0.00000000000E+00  0.14766264361E+04  0.14766264361E+04  0.25500000920E-02 0.  1.
       -2   -1    0    0    0  501  0.00000000000E+00  0.00000000000E+00 -0.14243664345E+04  0.14243664345E+04  0.25500000920E-02 0. -1.
    10030    2    1    2    0    0  0.00000000000E+00  0.00000000000E+00  0.52260001538E+02  0.29009928706E+04  0.29005221129E+04 0.  0.
        5    1    3    3  502    0  0.82956012875E+03 -0.10079285455E+04  0.65801183747E+03  0.14618794849E+04  0.46999998093E+01 0.  1.
       -5    1    3    3    0  502 -0.82956012875E+03  0.10079285455E+04 -0.60575183594E+03  0.14391133857E+04  0.46999998093E+01 0. -1.
</event>
<event>
 5   0  0.9421924E-08  0.2899779E+04  0.7818609E-02  0.8272943E-01
       -1   -1    0    0    0  501  0.00000000000E+00  0.00000000000E+00  0.74414501340E+03  0.74414501342E+03  0.50400001928E-02 0.  1.
        1   -1    0    0  501    0  0.00000000000E+00  0.00000000000E+00 -0.28249602556E+04  0.28249602556E+04  0.50400001928E-02 0. -1.
    10030    2    1    2    0    0  0.00000000000E+00  0.00000000000E+00 -0.20808152422E+04  0.35691052690E+04  0.28997793621E+04 0.  0.
        1    1    3    3  502    0 -0.10304316176E+04  0.15034946197E+03 -0.22821245388E+04  0.25084829459E+04  0.50400001928E-02 0. -1.
       -1    1    3    3    0  502  0.10304316176E+04 -0.15034946197E+03  0.20130929660E+03  0.10606223231E+04  0.50400001928E-02 0.  1.
</event>
<event>
 5   0  0.9443352E-08  0.2900126E+04  0.7818609E-02  0.8272840E-01
        1   -1    0    0  501    0  0.00000000000E+00  0.00000000000E+00  0.15484254372E+04  0.15484254372E+04  0.50400001928E-02 0. -1.
       -1   -1    0    0    0  501  0.00000000000E+00  0.00000000000E+00 -0.13579489985E+04  0.13579489985E+04  0.50400001928E-02 0.  1.
    10030    2    1    2    0    0  0.00000000000E+00  0.00000000000E+00  0.19047643868E+03  0.29063744357E+04  0.29001260467E+04 0.  0.
        4    1    3    3  502    0  0.50917281251E+03  0.48737050860E+03 -0.11747308828E+04  0.13699566510E+04  0.12699999809E+01 0.  1.
       -4    1    3    3    0  502 -0.50917281251E+03 -0.48737050860E+03  0.13652073215E+04  0.15364177847E+04  0.12699999809E+01 0. -1.
</event>
<event>
 5   0  0.2534588E-07  0.2899899E+04  0.7818609E-02  0.8272907E-01
       -2   -1    0    0    0  501  0.00000000000E+00  0.00000000000E+00  0.90025363688E+03  0.90025363688E+03  0.25500000920E-02 0.  1.
        2   -1    0    0  501    0  0.00000000000E+00  0.00000000000E+00 -0.23352906259E+04  0.23352906259E+04  0.25500000920E-02 0. -1.
    10030    2    1    2    0    0  0.00000000000E+00  0.00000000000E+00 -0.14350369891E+04  0.32355442628E+04  0.28998992253E+04 0.  0.
        3    1    3    3  502    0  0.10606949578E+03  0.60035412876E+03  0.75030076690E+03  0.96676112296E+03  0.10100000352E+00 0.  1.
       -3    1    3    3    0  502 -0.10606949578E+03 -0.60035412876E+03 -0.21853377560E+04  0.22687831399E+04  0.10100000352E+00 0. -1.
</event>
<event>
 5   0  0.2546841E-07  0.2900524E+04  0.7818609E-02  0.8272721E-01
       -2   -1    0    0    0  501  0.00000000000E+00  0.00000000000E+00  0.11106751696E+04  0.11106751696E+04  0.25500000920E-02 0.  1.
        2   -1    0    0  501    0  0.00000000000E+00  0.00000000000E+00 -0.18936772807E+04  0.18936772807E+04  0.25500000920E-02 0. -1.
    10030    2    1    2    0    0  0.00000000000E+00  0.00000000000E+00 -0.78300211110E+03  0.30043524503E+04  0.29005243215E+04 0.  0.
        1    1    3    3  502    0 -0.12667134529E+04  0.51972533573E+02  0.33797921621E+03  0.13120571888E+04  0.50400001928E-02 0.  1.
       -1    1    3    3    0  502  0.12667134529E+04 -0.51972533573E+02 -0.11209813273E+04  0.16922952615E+04  0.50400001928E-02 0. -1.
</event>
<event>
 5   0  0.2678723E-07  0.2899487E+04  0.7818609E-02  0.8273030E-01
        2   -1    0    0  501    0  0.00000000000E+00  0.00000000000E+00  0.18376734533E+04  0.18376734533E+04  0.25500000920E-02 0. -1.
       -2   -1    0    0    0  501  0.00000000000E+00  0.00000000000E+00 -0.11437045578E+04  0.11437045578E+04  0.25500000920E-02 0.  1.
    10030    2    1    2    0    0  0.00000000000E+00  0.00000000000E+00  0.69396889551E+03  0.29813780111E+04  0.28994865092E+04 0.  0.
        5    1    3    3  502    0  0.35079857362E+03 -0.13659962071E+04  0.69221730036E+03  0.15710481081E+04  0.46999998093E+01 0. -1.
       -5    1    3    3    0  502 -0.35079857362E+03  0.13659962071E+04  0.17515951444E+01  0.14103299030E+04  0.46999998093E+01 0.  1.
</event>
<event>
 5   0  0.9395744E-08  0.2900373E+04  0.7818609E-02  0.8272767E-01
        1   -1    0    0  501    0  0.00000000000E+00  0.00000000000E+00  0.25952799550E+04  0.25952799550E+04  0.50400001928E-02 0. -1.
       -1   -1    0    0    0  501  0.00000000000E+00  0.00000000000E+00 -0.81033278576E+03  0.81033278577E+03  0.50400001928E-02 0.  1.
    10030    2    1    2    0    0  0.00000000000E+00  0.00000000000E+00  0.17849471692E+04  0.34056127408E+04  0.29003726904E+04 0.  0.
        2    1    3    3  502    0  0.67017421044E+03  0.70770526474E+03 -0.36838810663E+03  0.10419644961E+04  0.25500000920E-02 0. -1.
       -2    1    3    3    0  502 -0.67017421044E+03 -0.70770526474E+03  0.21533352758E+04  0.23636482446E+04  0.25500000920E-02 0.  1.
</event>
<event>
 5   0  0.2534588E-07  0.2902156E+04  0.7818609E-02  0.8272236E-01
        2   -1    0    0  501    0  0.00000000000E+00  0.00000000000E+00  0.23933819536E+04  0.23933819536E+04  0.25500000920E-02 0.  1.
       -2   -1    0    0    0  501  0.00000000000E+00  0.00000000000E+00 -0.87977064285E+03  0.87977064285E+03  0.25500000920E-02 0. -1.
    10030    2    1    2    0    0  0.00000000000E+00  0.00000000000E+00  0.15136113107E+04  0.32731525964E+04  0.29021558744E+04 0.  0.
        3    1    3    3  502    0 -0.13155969326E+04 -0.60939069398E+03  0.82328922733E+03  0.16673204458E+04  0.10100000352E+00 0.  1.
       -3    1    3    3    0  502  0.13155969326E+04  0.60939069398E+03  0.69032208338E+03  0.16058321506E+04  0.10100000352E+00 0. -1.
</event>
<event>
 5   0  0.2492232E-07  0.2898993E+04  0.7818609E-02  0.8273177E-01
       -2   -1    0    0    0  501  0.00000000000E+00  0.00000000000E+00  0.15674712315E+04  0.15674712315E+04  0.25500000920E-02 0. -1.
        2   -1    0    0  501    0  0.00000000000E+00  0.00000000000E+00 -0.13404014668E+04  0.13404014668E+04  0.25500000920E-02 0.  1.
    10030    2    1    2    0    0  0.00000000000E+00  0.00000000000E+00  0.22706976469E+03  0.29078726983E+04  0.28989934377E+04 0.  0.
        4    1    3    3  502    0  0.87662812387E+02 -0.54682758669E+03  0.14571651993E+04  0.15588576616E+04  0.12699999809E+01 0. -1.
       -4    1    3    3    0  502 -0.87662812387E+02  0.54682758669E+03 -0.12300954346E+04  0.13490150367E+04  0.12699999809E+01 0.  1.
</event>
<event>
 5   0  0.8407500E-08  0.2902691E+04  0.7818609E-02  0.8272077E-01
       -3   -1    0    0    0  501  0.00000000000E+00  0.00000000000E+00  0.12254587494E+04  0.12254587536E+04  0.10100000352E+00 0.  1.
        3   -1    0    0  501    0  0.00000000000E+00  0.00000000000E+00 -0.17188698876E+04  0.17188698906E+04  0.10100000352E+00 0. -1.
    10030    2    1    2    0    0  0.00000000000E+00  0.00000000000E+00 -0.49341113823E+03  0.29443286442E+04  0.29026912708E+04 0.  0.
        3    1    3    3  502    0 -0.16652515568E+03 -0.18608912622E+02  0.12156143655E+04  0.12271084772E+04  0.10100000352E+00 0.  1.
       -3    1    3    3    0  502  0.16652515568E+03  0.18608912622E+02 -0.17090255037E+04  0.17172201669E+04  0.10100000352E+00 0. -1.
</event>
<event>
 5   0  0.2534588E-07  0.2898988E+04  0.7818609E-02  0.8273179E-01
       -2   -1    0    0    0  501  0.00000000000E+00  0.00000000000E+00  0.16510313398E+04  0.16510313398E+04  0.25500000920E-02 0. -1.
        2   -1    0    0  501    0  0.00000000000E+00  0.00000000000E+00 -0.12725581781E+04  0.12725581781E+04  0.25500000920E-02 0.  1.
    10030    2    1    2    0    0  0.00000000000E+00  0.00000000000E+00  0.37847316168E+03  0.29235895178E+04  0.28989883985E+04 0.  0.
        3    1    3    3  502    0  0.60930457401E+03 -0.14602072889E+03 -0.11289358922E+04  0.12911507952E+04  0.10100000352E+00 0.  1.
       -3    1    3    3    0  502 -0.60930457401E+03  0.14602072889E+03  0.15074090539E+04  0.16324387226E+04  0.10100000352E+00 0. -1.
</event>
<event>
 5   0  0.2492232E-07  0.2895336E+04  0.7818609E-02  0.8274266E-01
        2   -1    0    0  501    0  0.00000000000E+00  0.00000000000E+00  0.28446241545E+04  0.28446241545E+04  0.25500000920E-02 0. -1.
       -2   -1    0    0    0  501  0.00000000000E+00  0.00000000000E+00 -0.73673814108E+03  0.73673814108E+03  0.25500000920E-02 0.  1.
    10030    2    1    2    0    0  0.00000000000E+00  0.00000000000E+00  0.21078860135E+04  0.35813622956E+04  0.28953363271E+04 0.  0.
        4    1    3    3  502    0  0.11494015905E+04  0.18429115655E+03 -0.10584770003E+02  0.11641309621E+04  0.12699999809E+01 0.  1.
       -4    1    3    3    0  502 -0.11494015905E+04 -0.18429115655E+03  0.21184707835E+04  0.24172313335E+04  0.12699999809E+01 0. -1.
</event>
<event>
 5   0  0.2546841E-07  0.2917167E+04  0.7818609E-02  0.8267788E-01
        2   -1    0    0  501    0  0.00000000000E+00  0.00000000000E+00  0.20195644610E+04  0.20195644610E+04  0.25500000920E-02 0. -1.
       -2   -1    0    0    0  501  0.00000000000E+00  0.00000000000E+00 -0.10534276982E+04  0.10534276982E+04  0.25500000920E-02 0.  1.
    10030    2    1    2    0    0  0.00000000000E+00  0.00000000000E+00  0.96613676284E+03  0.30729921592E+04  0.29171665304E+04 0.  0.
        1    1    3    3  502    0  0.11995381705E+04 -0.62427370772E+03  0.10589470215E+04  0.17175500805E+04  0.50400001928E-02 0. -1.
       -1    1    3    3    0  502 -0.11995381705E+04  0.62427370772E+03 -0.92810258690E+02  0.13554420787E+04  0.50400001928E-02 0.  1.
</event>
<event>
 5   0  0.9443352E-08  0.2901587E+04  0.7818609E-02  0.8272406E-01
       -1   -1    0    0    0  501  0.00000000000E+00  0.00000000000E+00  0.95994568696E+03  0.95994568697E+03  0.50400001928E-02 0.  1.
        1   -1    0    0  501    0  0.00000000000E+00  0.00000000000E+00 -0.21926256545E+04  0.21926256545E+04  0.50400001928E-02 0. -1.
    10030    2    1    2    0    0  0.00000000000E+00  0.00000000000E+00 -0.12326799675E+04  0.31525713414E+04  0.29015868349E+04 0.  0.
        4    1    3    3  502    0  0.29756610091E+03 -0.13136689456E+04 -0.12019702733E+04  0.18052716787E+04  0.12699999809E+01 0. -1.
       -4    1    3    3    0  502 -0.29756610091E+03  0.13136689456E+04 -0.30709694213E+02  0.13472996628E+04  0.12699999809E+01 0.  1.
</event>
<event>
 5   0  0.2534588E-07  0.2899496E+04  0.7818609E-02  0.8273028E-01
       -2   -1    0    0    0  501  0.00000000000E+00  0.00000000000E+00  0.18318696243E+04  0.18318696243E+04  0.25500000920E-02 0. -1.
        2   -1    0    0  501    0  0.00000000000E+00  0.00000000000E+00 -0.11473352364E+04  0.11473352364E+04  0.25500000920E-02 0.  1.
    10030    2    1    2    0    0  0.00000000000E+00  0.00000000000E+00  0.68453438790E+03  0.29792048608E+04  0.28994955206E+04 0.  0.
        3    1    3    3  502    0  0.10828654697E+03  0.14326124376E+04  0.14285935955E+03  0.14437843258E+04  0.10100000352E+00 0.  1.
       -3    1    3    3    0  502 -0.10828654697E+03 -0.14326124376E+04  0.54167502835E+03  0.15354205350E+04  0.10100000352E+00 0. -1.
</event>
<event>
 5   0  0.2678723E-07  0.2899067E+04  0.7818609E-02  0.8273155E-01
        2   -1    0    0  501    0  0.00000000000E+00  0.00000000000E+00  0.23202083296E+04  0.23202083296E+04  0.25500000920E-02 0.  1.
       -2   -1    0    0    0  501  0.00000000000E+00  0.00000000000E+00 -0.90558589645E+03  0.90558589645E+03  0.25500000920E-02 0. -1.
    10030    2    1    2    0    0  0.00000000000E+00  0.00000000000E+00  0.14146224331E+04  0.32257942260E+04  0.28990673949E+04 0.  0.
        5    1    3    3  502    0 -0.91963675330E+03 -0.94918344706E+03  0.44861833785E+02  0.13223901271E+04  0.46999998093E+01 0. -1.
       -5    1    3    3    0  502  0.91963675330E+03  0.94918344706E+03  0.13697605993E+04  0.19034040989E+04  0.46999998093E+01 0.  1.
</event>
<event>
 5   0  0.9763851E-08  0.2900588E+04  0.7818609E-02  0.8272703E-01
        1   -1    0    0  501    0  0.00000000000E+00  0.00000000000E+00  0.16445442332E+04  0.16445442332E+04  0.50400001928E-02 0.  1.
       -1   -1    0    0    0  501  0.00000000000E+00  0.00000000000E+00 -0.12789882120E+04  0.12789882120E+04  0.50400001928E-02 0. -1.
    10030    2    1    2    0    0  0.00000000000E+00  0.00000000000E+00  0.36555602121E+03  0.29235324452E+04  0.29005880014E+04 0.  0.
        3    1    3    3  502    0 -0.12300993290E+04 -0.85585396458E+02 -0.58672927735E+03  0.13655476830E+04  0.10100000352E+00 0. -1.
       -3    1    3    3    0  502  0.12300993290E+04  0.85585396458E+02  0.95228529856E+03  0.15579847623E+04  0.10100000352E+00 0.  1.
</event>
<event>
 5   0  0.9443352E-08  0.2900226E+04  0.7818609E-02  0.8272810E-01
       -1   -1    0    0    0  501  0.00000000000E+00  0.00000000000E+00  0.15684054076E+04  0.15684054076E+04  0.50400001928E-02 0. -1.
        1   -1    0    0  501    0  0.00000000000E+00  0.00000000000E+00 -0.13407424433E+04  0.13407424434E+04  0.50400001928E-02 0.  1.
    10030    2    1    2    0    0  0.00000000000E+00  0.00000000000E+00  0.22766296427E+03  0.29091478510E+04  0.29002259901E+04 0.  0.
        4    1    3    3  502    0 -0.70532303459E+03  0.87781418367E+03 -0.80264640432E+03  0.13828525545E+04  0.12699999809E+01 0.  1.
       -4    1    3    3    0  502  0.70532303459E+03 -0.87781418367E+03  0.10303093686E+04  0.15262952965E+04  0.12699999809E+01 0. -1.
</event>
<event>
 5   0  0.2492232E-07  0.2900482E+04  0.7818609E-02  0.8272734E-01
        2   -1    0    0  501    0  0.00000000000E+00  0.00000000000E+00  0.20213090943E+04  0.20213090943E+04  0.25500000920E-02 0. -1.
       -2   -1    0    0    0  501  0.00000000000E+00  0.00000000000E+00 -0.10405131547E+04  0.10405131547E+04  0.25500000920E-02 0.  1.
    10030    2    1    2    0    0  0.00000000000E+00  0.00000000000E+00  0.98079593965E+03  0.30618222490E+04  0.29004818236E+04 0.  0.
        4    1    3    3  502    0  0.41908919190E+03  0.96168252598E+03  0.15474622802E+04  0.18695213700E+04  0.12699999809E+01 0. -1.
       -4    1    3    3    0  502 -0.41908919190E+03 -0.96168252598E+03 -0.56666634054E+03  0.11923008789E+04  0.12699999809E+01 0.  1.
</event>
<event>
 5   0  0.9763851E-08  0.2899191E+04  0.7818609E-02  0.8273118E-01
       -1   -1    0    0    0  501  0.00000000000E+00  0.00000000000E+00  0.74956059670E+03  0.74956059672E+03  0.50400001928E-02 0.  1.
        1   -1    0    0  501    0  0.00000000000E+00  0.00000000000E+00 -0.28034110065E+04  0.28034110065E+04  0.50400001928E-02 0. -1.
    10030    2    1    2    0    0  0.00000000000E+00  0.00000000000E+00 -0.20538504098E+04  0.35529716032E+04  0.28991905262E+04 0.  0.
        3    1    3    3  502    0  0.11625636199E+04 -0.84373366362E+03 -0.78838975484E+03  0.16385966805E+04  0.10100000352E+00 0. -1.
       -3    1    3    3    0  502 -0.11625636199E+04  0.84373366362E+03 -0.12654606549E+04  0.19143749228E+04  0.10100000352E+00 0.  1.
</event>
<event>
 5   0  0.2678723E-07  0.2900462E+04  0.7818609E-02  0.8272740E-01
       -2   -1    0    0    0  501  0.00000000000E+00  0.00000000000E+00  0.86775166842E+03  0.86775166842E+03  0.25500000920E-02 0.  1.
        2   -1    0    0  501    0  0.00000000000E+00  0.00000000000E+00 -0.24237003903E+04  0.24237003903E+04  0.25500000920E-02 0. -1.
    10030    2    1    2    0    0  0.00000000000E+00  0.00000000000E+00 -0.15559487219E+04  0.32914520587E+04  0.29004620718E+04 0.  0.
        5    1    3    3  502    0  0.10549693610E+04 -0.24145546598E+02  0.35091452497E+03  0.11120730434E+04  0.46999998093E+01 0.  1.
       -5    1    3    3    0  502 -0.10549693610E+04  0.24145546598E+02 -0.19068632468E+04  0.21793790153E+04  0.46999998093E+01 0. -1.
</event>
<event>
 5   0  0.2608591E-07  0.2893873E+04  0.7818609E-02  0.8274703E-01
        2   -1    0    0  501    0  0.00000000000E+00  0.00000000000E+00  0.14461675234E+04  0.14461675234E+04  0.25500000920E-02 0.  1.
       -2   -1    0    0    0  501  0.00000000000E+00  0.00000000000E+00 -0.14477061477E+04  0.14477061477E+04  0.25500000920E-02 0. -1.
    10030    2    1    2    0    0  0.00000000000E+00  0.00000000000E+00 -0.15386242918E+01  0.28938736712E+04  0.28938732621E+04 0.  0.
        2    1    3    3  502    0 -0.72834768133E+03 -0.83244596326E+01  0.12494572332E+04  0.14462721110E+04  0.25500000920E-02 0.  1.
       -2    1    3    3    0  502  0.72834768133E+03  0.83244596326E+01 -0.12509958575E+04  0.14476015602E+04  0.25500000920E-02 0. -1.
</event>
<event>
 5   0  0.2678723E-07  0.2892823E+04  0.7818609E-02  0.8275016E-01
       -2   -1    0    0    0  501  0.00000000000E+00  0.00000000000E+00  0.96971746200E+03  0.96971746200E+03  0.25500000920E-02 0.  1.
        2   -1    0    0  501    0  0.00000000000E+00  0.00000000000E+00 -0.21574388993E+04  0.21574388993E+04  0.25500000920E-02 0. -1.
    10030    2    1    2    0    0  0.00000000000E+00  0.00000000000E+00 -0.11877214373E+04  0.31271563613E+04  0.28928229630E+04 0.  0.
        5    1    3    3  502    0 -0.86735687322E+03  0.10435422446E+04 -0.11352227622E+04  0.17691922370E+04  0.46999998093E+01 0. -1.
       -5    1    3    3    0  502  0.86735687322E+03 -0.10435422446E+04 -0.52498675064E+02  0.13579641242E+04  0.46999998093E+01 0.  1.
</event>
<event>
 5   0  0.9388076E-08  0.2900117E+04  0.7818609E-02  0.8272843E-01
        1   -1    0    0  501    0  0.00000000000E+00  0.00000000000E+00  0.16675560370E+04  0.16675560370E+04  0.50400001928E-02 0. -1.
       -1   -1    0    0    0  501  0.00000000000E+00  0.00000000000E+00 -0.12609287772E+04  0.12609287772E+04  0.50400001928E-02 0.  1.
    10030    2    1    2    0    0  0.00000000000E+00  0.00000000000E+00  0.40662725985E+03  0.29284848142E+04  0.29001168216E+04 0.  0.
        5    1    3    3  502    0 -0.43065873728E+02  0.42930184496E+03  0.16012295566E+04  0.16583464434E+04  0.46999998093E+01 0. -1.
       -5    1    3    3    0  502  0.43065873728E+02 -0.42930184496E+03 -0.11946022967E+04  0.12701383708E+04  0.46999998093E+01 0.  1.
</event>
<event>
 5   0  0.9443352E-08  0.2900541E+04  0.7818609E-02  0.8272717E-01
        1   -1    0    0  501    0  0.00000000000E+00  0.00000000000E+00  0.17176627876E+04  0.17176627876E+04  0.50400001928E-02 0.  1.
       -1   -1    0    0    0  501  0.00000000000E+00  0.00000000000E+00 -0.12245034276E+04  0.12245034276E+04  0.50400001928E-02 0. -1.
    10030    2    1    2    0    0  0.00000000000E+00  0.00000000000E+00  0.49315936001E+03  0.29421662153E+04  0.29005406192E+04 0.  0.
        4    1    3    3  502    0 -0.94256431082E+03 -0.96848060557E+03  0.78034442209E+03  0.15605515670E+04  0.12699999809E+01 0.  1.
       -4    1    3    3    0  502  0.94256431082E+03  0.96848060557E+03 -0.28718506208E+03  0.13816146482E+04  0.12699999809E+01 0. -1.
</event>
<event>
 5   0  0.2534588E-07  0.2898314E+04  0.7818609E-02  0.8273379E-01
        2   -1    0    0  501    0  0.00000000000E+00  0.00000000000E+00  0.12244395561E+04  0.12244395561E+04  0.25500000920E-02 0.  1.
       -2   -1    0    0    0  501  0.00000000000E+00  0.00000000000E+00 -0.17151155336E+04  0.17151155336E+04  0.25500000920E-02 0. -1.
    10030    2    1    2    0    0  0.00000000000E+00  0.00000000000E+00 -0.49067597744E+03  0.29395550897E+04  0.28983135115E+04 0.  0.
        3    1    3    3  502    0 -0.68995550447E+03  0.11851833701E+04  0.22968219570E+03  0.13904862963E+04  0.10100000352E+00 0. -1.
       -3    1    3    3    0  502  0.68995550447E+03 -0.11851833701E+04 -0.72035817314E+03  0.15490687934E+04  0.10100000352E+00 0.  1.
</event>
<event>
 5   0  0.9395744E-08  0.2899844E+04  0.7818609E-02  0.8272924E-01
        1   -1    0    0  501    0  0.00000000000E+00  0.00000000000E+00  0.23166469933E+04  0.23166469933E+04  0.50400001928E-02 0. -1.
       -1   -1    0    0    0  501  0.00000000000E+00  0.00000000000E+00 -0.90746416854E+03  0.90746416855E+03  0.50400001928E-02 0.  1.
    10030    2    1    2    0    0  0.00000000000E+00  0.00000000000E+00  0.14091828248E+04  0.32241111619E+04  0.28998442287E+04 0.  0.
        2    1    3    3  502    0 -0.80078504633E+03  0.96049640450E+03 -0.11126497156E+03  0.12554640287E+04  0.25500000920E-02 0.  1.
       -2    1    3    3    0  502  0.80078504633E+03 -0.96049640450E+03  0.15204477963E+04  0.19686471332E+04  0.25500000920E-02 0. -1.
</event>
<event>
 5   0  0.2492232E-07  0.2900038E+04  0.7818609E-02  0.8272866E-01
        2   -1    0    0  501    0  0.00000000000E+00  0.00000000000E+00  0.17484348636E+04  0.17484348636E+04  0.25500000920E-02 0. -1.
       -2   -1    0    0    0  501  0.00000000000E+00  0.00000000000E+00 -0.12025352764E+04  0.12025352764E+04  0.25500000920E-02 0.  1.
    10030    2    1    2    0    0  0.00000000000E+00  0.00000000000E+00  0.54589958722E+03  0.29509701399E+04  0.29000376562E+04 0.  0.
        4    1    3    3  502    0  0.62193186577E+03 -0.22538763883E+03 -0.10400429253E+04  0.12325947155E+04  0.12699999809E+01 0.  1.
       -4    1    3    3    0  502 -0.62193186577E+03  0.22538763883E+03  0.15859425125E+04  0.17183754244E+04  0.12699999809E+01 0. -1.
</event>
<event>
 5   0  0.9443352E-08  0.2899369E+04  0.7818609E-02  0.8273065E-01
        1   -1    0    0  501    0  0.00000000000E+00  0.00000000000E+00  0.19449525035E+04  0.19449525035E+04  0.50400001928E-02 0.  1.
       -1   -1    0    0    0  501  0.00000000000E+00  0.00000000000E+00 -0.10805327483E+04  0.10805327483E+04  0.50400001928E-02 0. -1.
    10030    2    1    2    0    0  0.00000000000E+00  0.00000000000E+00  0.86441975519E+03  0.30254852518E+04  0.28993688098E+04 0.  0.
        4    1    3    3  502    0  0.12056404338E+04  0.78738826984E+03  0.25749293344E+03  0.14628237648E+04  0.12699999809E+01 0. -1.
       -4    1    3    3    0  502 -0.12056404338E+04 -0.78738826984E+03  0.60692682175E+03  0.15626614870E+04  0.12699999809E+01 0.  1.
</event>
<event>
 5   0  0.9421924E-08  0.2900482E+04  0.7818609E-02  0.8272734E-01
        1   -1    0    0  501    0  0.00000000000E+00  0.00000000000E+00  0.11654988114E+04  0.11654988114E+04  0.50400001928E-02 0.  1.
       -1   -1    0    0    0  501  0.00000000000E+00  0.00000000000E+00 -0.18045484994E+04  0.18045484994E+04  0.50400001928E-02 0. -1.
    10030    2    1    2    0    0  0.00000000000E+00  0.00000000000E+00 -0.63904968808E+03  0.29700473108E+04  0.29004821193E+04 0.  0.
        1    1    3    3  502    0 -0.13370204607E+04 -0.34478281354E+01  0.25569860082E+03  0.13612558078E+04  0.50400001928E-02 0.  1.
       -1    1    3    3    0  502  0.13370204607E+04  0.34478281354E+01 -0.89474828890E+03  0.16087915030E+04  0.50400001928E-02 0. -1.
</event>
<event>
 5   0  0.9388076E-08  0.2899335E+04  0.7818609E-02  0.8273075E-01
        1   -1    0    0  501    0  0.00000000000E+00  0.00000000000E+00  0.16323981962E+04  0.16323981962E+04  0.50400001928E-02 0. -1.
       -1   -1    0    0    0  501  0.00000000000E+00  0.00000000000E+00 -0.12873916915E+04  0.12873916915E+04  0.50400001928E-02 0.  1.
    10030    2    1    2    0    0  0.00000000000E+00  0.00000000000E+00  0.34500650464E+03  0.29197898877E+04  0.28993350100E+04 0.  0.
        5    1    3    3  502    0 -0.13345325342E+03 -0.13678973882E+04 -0.29179252798E+03  0.14050330975E+04  0.46999998093E+01 0.  1.
       -5    1    3    3    0  502  0.13345325342E+03  0.13678973882E+04  0.63679903262E+03  0.15147567902E+04  0.46999998093E+01 0. -1.
</event>
<event>
 5   0  0.9763851E-08  0.2902637E+04  0.7818609E-02  0.8272093E-01
        1   -1    0    0  501    0  0.00000000000E+00  0.00000000000E+00  0.23034811881E+04  0.23034811881E+04  0.50400001928E-02 0.  1.
       -1   -1    0    0    0  501  0.00000000000E+00  0.00000000000E+00 -0.91440958390E+03  0.91440958392E+03  0.50400001928E-02 0. -1.
    10030    2    1    2    0    0  0.00000000000E+00  0.00000000000E+00  0.13890716042E+04  0.32178907720E+04  0.29026369216E+04 0.  0.
        3    1    3    3  502    0  0.45154150523E+03 -0.83900540681E+03  0.19082001423E+04  0.21328496424E+04  0.10100000352E+00 0.  1.
       -3    1    3    3    0  502 -0.45154150523E+03  0.83900540681E+03 -0.51912853817E+03  0.10850411296E+04  0.10100000352E+00 0. -1.
</event>
<event>
 5   0  0.2608591E-07  0.2901062E+04  0.7818609E-02  0.8272561E-01
        2   -1    0    0  501    0  0.00000000000E+00  0.00000000000E+00  0.16434810867E+04  0.16434810867E+04  0.25500000920E-02 0.  1.
       -2   -1    0    0    0  501  0.00000000000E+00  0.00000000000E+00 -0.12802341147E+04  0.12802341147E+04  0.25500000920E-02 0. -1.
    10030    2    1    2    0    0  0.00000000000E+00  0.00000000000E+00  0.36324697198E+03  0.29237152014E+04  0.29010622565E+04 0.  0.
        2    1    3    3  502    0  0.32953528476E+03 -0.12843153302E+04 -0.41117113813E+03  0.13882078649E+04  0.25500000920E-02 0. -1.
       -2    1    3    3    0  502 -0.32953528476E+03  0.12843153302E+04  0.77441811011E+03  0.15355073365E+04  0.25500000920E-02 0.  1.
</event>
<event>
 5   0  0.9443352E-08  0.2912294E+04  0.7818609E-02  0.8269229E-01
       -1   -1    0    0    0  501  0.00000000000E+00  0.00000000000E+00  0.16891802754E+04  0.16891802754E+04  0.50400001928E-02 0. -1.
        1   -1    0    0  501    0  0.00000000000E+00  0.00000000000E+00 -0.12552624879E+04  0.12552624879E+04  0.50400001928E-02 0.  1.
    10030    2    1    2    0    0  0.00000000000E+00  0.00000000000E+00  0.43391778754E+03  0.29444427634E+04  0.29122943774E+04 0.  0.
        4    1    3    3  502    0 -0.30746094702E+03  0.13657020293E+04 -0.18832616044E+03  0.14124951760E+04  0.12699999809E+01 0.  1.
       -4    1    3    3    0  502  0.30746094702E+03 -0.13657020293E+04  0.62224394798E+03  0.15319475873E+04  0.12699999809E+01 0. -1.
</event>
<event>
 5   0  0.2534588E-07  0.2896312E+04  0.7818609E-02  0.8273976E-01
        2   -1    0    0  501    0  0.00000000000E+00  0.00000000000E+00  0.27162908196E+04  0.27162908196E+04  0.25500000920E-02 0. -1.
       -2   -1    0    0    0  501  0.00000000000E+00  0.00000000000E+00 -0.77206576686E+03  0.77206576686E+03  0.25500000920E-02 0.  1.
    10030    2    1    2    0    0  0.00000000000E+00  0.00000000000E+00  0.19442250527E+04  0.34883565864E+04  0.28963115541E+04 0.  0.
        3    1    3    3  502    0 -0.70920679966E+03 -0.75892270544E+03 -0.24322192147E+03  0.10668152937E+04  0.10100000352E+00 0.  1.
       -3    1    3    3    0  502  0.70920679966E+03  0.75892270544E+03  0.21874469742E+04  0.24215412928E+04  0.10100000352E+00 0. -1.
</event>
<event>
 5   0  0.2492232E-07  0.2885283E+04  0.7818609E-02  0.8277270E-01
       -2   -1    0    0    0  501  0.00000000000E+00  0.00000000000E+00  0.13855462801E+04  0.13855462801E+04  0.25500000920E-02 0. -1.
        2   -1    0    0  501    0  0.00000000000E+00  0.00000000000E+00 -0.15020893364E+04  0.15020893364E+04  0.25500000920E-02 0.  1.
    10030    2    1    2    0    0  0.00000000000E+00  0.00000000000E+00 -0.11654305637E+03  0.28876356165E+04  0.28852828579E+04 0.  0.
        4    1    3    3  502    0  0.95102652379E+03 -0.84460745548E+03 -0.73956113515E+03  0.14713142045E+04  0.12699999809E+01 0.  1.
       -4    1    3    3    0  502 -0.95102652379E+03  0.84460745548E+03  0.62301807878E+03  0.14163214120E+04  0.12699999809E+01 0. -1.
</event>
<event>
 5   0  0.9421924E-08  0.2899577E+04  0.7818609E-02  0.8273003E-01
        1   -1    0    0  501    0  0.00000000000E+00  0.00000000000E+00  0.20998421197E+04  0.20998421197E+04  0.50400001928E-02 0. -1.
       -1   -1    0    0    0  501  0.00000000000E+00  0.00000000000E+00 -0.10009736635E+04  0.10009736635E+04  0.50400001928E-02 0.  1.
    10030    2    1    2    0    0  0.00000000000E+00  0.00000000000E+00  0.10988684562E+04  0.31008157832E+04  0.28995769756E+04 0.  0.
        1    1    3    3  502    0  0.13393254030E+03  0.53368764747E+03 -0.88497192962E+03  0.10420824088E+04  0.50400001928E-02 0.  1.
       -1    1    3    3    0  502 -0.13393254030E+03 -0.53368764747E+03  0.19838403858E+04  0.20587333744E+04  0.50400001928E-02 0. -1.
</event>
<event>
 5   0  0.2678723E-07  0.2900439E+04  0.7818609E-02  0.8272747E-01
        2   -1    0    0  501    0  0.00000000000E+00  0.00000000000E+00  0.14234387529E+04  0.14234387529E+04  0.25500000920E-02 0. -1.
       -2   -1    0    0    0  501  0.00000000000E+00  0.00000000000E+00 -0.14775041088E+04  0.14775041088E+04  0.25500000920E-02 0.  1.
    10030    2    1    2    0    0  0.00000000000E+00  0.00000000000E+00 -0.54065355944E+02  0.29009428617E+04  0.29004390054E+04 0.  0.
        5    1    3    3  502    0 -0.68263763418E+03 -0.38938888975E+03  0.11919885797E+04  0.14277523283E+04  0.46999998093E+01 0. -1.
       -5    1    3    3    0  502  0.68263763418E+03  0.38938888975E+03 -0.12460539356E+04  0.14731905333E+04  0.46999998093E+01 0.  1.
</event>
<event>
 5   0  0.2546841E-07  0.2898496E+04  0.7818609E-02  0.8273325E-01
        2   -1    0    0  501    0  0.00000000000E+00  0.00000000000E+00  0.26297346803E+04  0.26297346803E+04  0.25500000920E-02 0. -1.
       -2   -1    0    0    0  501  0.00000000000E+00  0.00000000000E+00 -0.79868110315E+03  0.79868110316E+03  0.25500000920E-02 0.  1.
    10030    2    1    2    0    0  0.00000000000E+00  0.00000000000E+00  0.18310535771E+04  0.34284157834E+04  0.28984957447E+04 0.  0.
        1    1    3    3  502    0 -0.11353435165E+03 -0.86664647122E+03  0.22828823274E+04  0.24444872420E+04  0.50400001928E-02 0. -1.
       -1    1    3    3    0  502  0.11353435165E+03  0.86664647122E+03 -0.45182875032E+03  0.98392854148E+03  0.50400001928E-02 0.  1.
</event>
<event>
 5   0  0.2534588E-07  0.2900502E+04  0.7818609E-02  0.8272728E-01
        2   -1    0    0  501    0  0.00000000000E+00  0.00000000000E+00  0.13418123580E+04  0.13418123580E+04  0.25500000920E-02 0. -1.
       -2   -1    0    0    0  501  0.00000000000E+00  0.00000000000E+00 -0.15674534435E+04  0.15674534435E+04  0.25500000920E-02 0.  1.
    10030    2    1    2    0    0  0.00000000000E+00  0.00000000000E+00 -0.22564108549E+03  0.29092658015E+04  0.29005023021E+04 0.  0.
        3    1    3    3  502    0  0.10149090997E+04 -0.93703963756E+03 -0.55590701135E+03  0.14889984481E+04  0.10100000352E+00 0. -1.
       -3    1    3    3    0  502 -0.10149090997E+04  0.93703963756E+03  0.33026592586E+03  0.14202673534E+04  0.10100000352E+00 0.  1.
</event>
<event>
 5   0  0.9421924E-08  0.2900034E+04  0.7818609E-02  0.8272867E-01
       -1   -1    0    0    0  501  0.00000000000E+00  0.00000000000E+00  0.13158802065E+04  0.13158802065E+04  0.50400001928E-02 0. -1.
        1   -1    0    0  501    0  0.00000000000E+00  0.00000000000E+00 -0.15978272520E+04  0.15978272520E+04  0.50400001928E-02 0.  1.
    10030    2    1    2    0    0  0.00000000000E+00  0.00000000000E+00 -0.28194704548E+03  0.29137074585E+04  0.29000339683E+04 0.  0.
        1    1    3    3  502    0 -0.10539850245E+04  0.91726577920E+03 -0.53047173181E+03  0.14945438100E+04  0.50400001928E-02 0.  1.
       -1    1    3    3    0  502  0.10539850245E+04 -0.91726577920E+03  0.24852468633E+03  0.14191636486E+04  0.50400001928E-02 0. -1.
</event>
<event>
 5   0  0.9395744E-08  0.2900295E+04  0.7818609E-02  0.8272790E-01
        1   -1    0    0  501    0  0.00000000000E+00  0.00000000000E+00  0.27988786821E+04  0.27988786821E+04  0.50400001928E-02 0.  1.
       -1   -1    0    0    0  501  0.00000000000E+00  0.00000000000E+00 -0.75134662098E+03  0.75134662099E+03  0.50400001928E-02 0. -1.
    10030    2    1    2    0    0  0.00000000000E+00  0.00000000000E+00  0.20475320611E+04  0.35502253031E+04  0.29002951852E+04 0.  0.
        2    1    3    3  502    0 -0.13691812957E+04 -0.40695571560E+03  0.13301745371E+04  0.19518285463E+04  0.25500000920E-02 0.  1.
       -2    1    3    3    0  502  0.13691812957E+04  0.40695571560E+03  0.71735752398E+03  0.15983967568E+04  0.25500000920E-02 0. -1.
</event>
<event>
 5   0  0.2546841E-07  0.2914438E+04  0.7818609E-02  0.8268595E-01
        2   -1    0    0  501    0  0.00000000000E+00  0.00000000000E+00  0.11671161102E+04  0.11671161102E+04  0.25500000920E-02 0.  1.
       -2   -1    0    0    0  501  0.00000000000E+00  0.00000000000E+00 -0.18194315618E+04  0.18194315618E+04  0.25500000920E-02 0. -1.
    10030    2    1    2    0    0  0.00000000000E+00  0.00000000000E+00 -0.65231545165E+03  0.29865476720E+04  0.29144384620E+04 0.  0.
        1    1    3    3  502    0  0.12219641450E+04  0.58035958361E+03  0.22897851057E+03  0.13720221486E+04  0.50400001928E-02 0.  1.
       -1    1    3    3    0  502 -0.12219641450E+04 -0.58035958361E+03 -0.88129396222E+03  0.16145255234E+04  0.50400001928E-02 0. -1.
</event>
<event>
 5   0  0.2534588E-07  0.2899499E+04  0.7818609E-02  0.8273026E-01
        2   -1    0    0  501    0  0.00000000000E+00  0.00000000000E+00  0.13790756516E+04  0.13790756516E+04  0.25500000920E-02 0. -1.
       -2   -1    0    0    0  501  0.00000000000E+00  0.00000000000E+00 -0.15240456141E+04  0.15240456141E+04  0.25500000920E-02 0.  1.
    10030    2    1    2    0    0  0.00000000000E+00  0.00000000000E+00 -0.14496996249E+03  0.29031212656E+04  0.28994994039E+04 0.  0.
        3    1    3    3  502    0  0.36815271495E+02  0.12969756774E+04  0.57506310665E+03  0.14192247386E+04  0.10100000352E+00 0. -1.
       -3    1    3    3    0  502 -0.36815271495E+02 -0.12969756774E+04 -0.72003306914E+03  0.14838965270E+04  0.10100000352E+00 0.  1.
</event>
<event>
 5   0  0.9388076E-08  0.2900796E+04  0.7818609E-02  0.8272641E-01
       -1   -1    0    0    0  501  0.00000000000E+00  0.00000000000E+00  0.12086037935E+04  0.12086037935E+04  0.50400001928E-02 0. -1.
        1   -1    0    0  501    0  0.00000000000E+00  0.00000000000E+00 -0.17405652756E+04  0.17405652756E+04  0.50400001928E-02 0.  1.
    10030    2    1    2    0    0  0.00000000000E+00  0.00000000000E+00 -0.53196148211E+03  0.29491690691E+04  0.29007956115E+04 0.  0.
        5    1    3    3  502    0 -0.95805052204E+02  0.14256868626E+04 -0.51886560331E+03  0.15201990799E+04  0.46999998093E+01 0. -1.
       -5    1    3    3    0  502  0.95805052204E+02 -0.14256868626E+04 -0.13095878803E+02  0.14289699892E+04  0.46999998093E+01 0.  1.
</event>
<event>
 5   0  0.2534588E-07  0.2900312E+04  0.7818609E-02  0.8272785E-01
       -2   -1    0    0    0  501  0.00000000000E+00  0.00000000000E+00  0.26667021738E+04  0.26667021738E+04  0.25500000920E-02 0.  1.
        2   -1    0    0  501    0  0.00000000000E+00  0.00000000000E+00 -0.78859645928E+03  0.78859645929E+03  0.25500000920E-02 0. -1.
    10030    2    1    2    0    0  0.00000000000E+00  0.00000000000E+00  0.18781057145E+04  0.34552986331E+04  0.29003116331E+04 0.  0.
        3    1    3    3  502    0 -0.11683161147E+04 -0.75849894263E+03  0.14195523254E+04  0.19888217629E+04  0.10100000352E+00 0.  1.
       -3    1    3    3    0  502  0.11683161147E+04  0.75849894263E+03  0.45855338909E+03  0.14664768702E+04  0.10100000352E+00 0. -1.
</event>
<event>
 5   0  0.9443352E-08  0.2899030E+04  0.7818609E-02  0.8273166E-01
        1   -1    0    0  501    0  0.00000000000E+00  0.00000000000E+00  0.24649334565E+04  0.24649334565E+04  0.50400001928E-02 0. -1.
       -1   -1    0    0    0  501  0.00000000000E+00  0.00000000000E+00 -0.85239368809E+03  0.85239368811E+03  0.50400001928E-02 0.  1.
    10030    2    1    2    0    0  0.00000000000E+00  0.00000000000E+00  0.16125397684E+04  0.33173271446E+04  0.28990299895E+04 0.  0.
        4    1    3    3  502    0 -0.84343425763E+03 -0.61219429043E+03  0.19590683938E+04  0.22190344253E+04  0.12699999809E+01 0. -1.
       -4    1    3    3    0  502  0.84343425763E+03  0.61219429043E+03 -0.34652862540E+03  0.10982927193E+04  0.12699999809E+01 0.  1.
</event>
<event>
 5   0  0.9443352E-08  0.2899049E+04  0.7818609E-02  0.8273161E-01
        1   -1    0    0  501    0  0.00000000000E+00  0.00000000000E+00  0.22153858295E+04  0.22153858295E+04  0.50400001928E-02 0.  1.
       -1   -1    0    0    0  501  0.00000000000E+00  0.00000000000E+00 -0.94842216036E+03  0.94842216037E+03  0.50400001928E-02 0. -1.
    10030    2    1    2    0    0  0.00000000000E+00  0.00000000000E+00  0.12669636691E+04  0.31638079899E+04  0.28990488195E+04 0.  0.
        4    1    3    3  502    0 -0.14229219882E+04 -0.23917928347E+03  0.48224084268E+03  0.15213387386E+04  0.12699999809E+01 0.  1.
       -4    1    3    3    0  502  0.14229219882E+04  0.23917928347E+03  0.78472282644E+03  0.16424692513E+04  0.12699999809E+01 0. -1.
</event>
<event>
 5   0  0.2534588E-07  0.2900332E+04  0.7818609E-02  0.8272779E-01
       -2   -1    0    0    0  501  0.00000000000E+00  0.00000000000E+00  0.12835827106E+04  0.12835827106E+04  0.25500000920E-02 0.  1.
        2   -1    0    0  501    0  0.00000000000E+00  0.00000000000E+00 -0.16383689550E+04  0.16383689550E+04  0.25500000920E-02 0. -1.
    10030    2    1    2    0    0  0.00000000000E+00  0.00000000000E+00 -0.35478624436E+03  0.29219516656E+04  0.29003324390E+04 0.  0.
        3    1    3    3  502    0 -0.31777418209E+03  0.62290712280E+02  0.12466927993E+04  0.12880619199E+04  0.10100000352E+00 0.  1.
       -3    1    3    3    0  502  0.31777418209E+03 -0.62290712280E+02 -0.16014790436E+04  0.16338897457E+04  0.10100000352E+00 0. -1.
</event>
<event>
 5   0  0.9388076E-08  0.2905214E+04  0.7818609E-02  0.8271328E-01
       -1   -1    0    0    0  501  0.00000000000E+00  0.00000000000E+00  0.10280397016E+04  0.10280397016E+04  0.50400001928E-02 0. -1.
        1   -1    0    0  501    0  0.00000000000E+00  0.00000000000E+00 -0.20525146915E+04  0.20525146915E+04  0.50400001928E-02 0.  1.
    10030    2    1    2    0    0  0.00000000000E+00  0.00000000000E+00 -0.10244749899E+04  0.30805543931E+04  0.29052136520E+04 0.  0.
        5    1    3    3  502    0 -0.22581489387E+03  0.10175859416E+04 -0.15850153222E+04  0.18970422179E+04  0.46999998093E+01 0.  1.
       -5    1    3    3    0  502  0.22581489387E+03 -0.10175859416E+04  0.56054033228E+03  0.11835121752E+04  0.46999998093E+01 0. -1.
</event>
<event>
 5   0  0.9421924E-08  0.2900132E+04  0.7818609E-02  0.8272838E-01
       -1   -1    0    0    0  501  0.00000000000E+00  0.00000000000E+00  0.92998556036E+03  0.92998556038E+03  0.50400001928E-02 0.  1.
        1   -1    0    0  501    0  0.00000000000E+00  0.00000000000E+00 -0.22609942618E+04  0.22609942618E+04  0.50400001928E-02 0. -1.
    10030    2    1    2    0    0  0.00000000000E+00  0.00000000000E+00 -0.13310087015E+04  0.31909798222E+04  0.29001324215E+04 0.  0.
        1    1    3    3  502    0  0.37163470677E+03  0.11045847690E+04 -0.16148633182E+04  0.19914827149E+04  0.50400001928E-02 0. -1.
       -1    1    3    3    0  502 -0.37163470677E+03 -0.11045847690E+04  0.28385461670E+03  0.11994971074E+04  0.50400001928E-02 0.  1.
</event>
<event>
 5   0  0.9443352E-08  0.2903087E+04  0.7818609E-02  0.8271959E-01
       -1   -1    0    0    0  501  0.00000000000E+00  0.00000000000E+00  0.14674624680E+04  0.14674624680E+04  0.50400001928E-02 0.  1.
        1   -1    0    0  501    0  0.00000000000E+00  0.00000000000E+00 -0.14357975875E+04  0.14357975875E+04  0.50400001928E-02 0. -1.
    10030    2    1    2    0    0  0.00000000000E+00  0.00000000000E+00  0.31664880435E+02  0.29032600555E+04  0.29030873713E+04 0.  0.
        4    1    3    3  502    0  0.99580108068E+03 -0.37721798986E+03  0.10023313095E+04  0.14623894389E+04  0.12699999809E+01 0.  1.
       -4    1    3    3    0  502 -0.99580108068E+03  0.37721798986E+03 -0.97066642911E+03  0.14408706166E+04  0.12699999809E+01 0. -1.
</event>
<event>
 5   0  0.2608591E-07  0.2897437E+04  0.7818609E-02  0.8273640E-01
       -2   -1    0    0    0  501  0.00000000000E+00  0.00000000000E+00  0.17114985503E+04  0.17114985504E+04  0.25500000920E-02 0.  1.
        2   -1    0    0  501    0  0.00000000000E+00  0.00000000000E+00 -0.12262851424E+04  0.12262851424E+04  0.25500000920E-02 0. -1.
    10030    2    1    2    0    0  0.00000000000E+00  0.00000000000E+00  0.48521340796E+03  0.29377836927E+04  0.28974369664E+04 0.  0.
        2    1    3    3  502    0  0.52484206083E+03 -0.47423031136E+03  0.15245028932E+04  0.16806137714E+04  0.25500000920E-02 0.  1.
       -2    1    3    3    0  502 -0.52484206083E+03  0.47423031136E+03 -0.10392894853E+04  0.12571699214E+04  0.25500000920E-02 0. -1.
</event>
<event>
 5   0  0.2608591E-07  0.2899273E+04  0.7818609E-02  0.8273094E-01
       -2   -1    0    0    0  501  0.00000000000E+00  0.00000000000E+00  0.10035883582E+04  0.10035883583E+04  0.25500000920E-02 0. -1.
        2   -1    0    0  501    0  0.00000000000E+00  0.00000000000E+00 -0.20939324875E+04  0.20939324875E+04  0.25500000920E-02 0.  1.
    10030    2    1    2    0    0  0.00000000000E+00  0.00000000000E+00 -0.10903441293E+04  0.30975208458E+04  0.28992731968E+04 0.  0.
        2    1    3    3  502    0  0.76159400655E+03  0.53009889402E+03 -0.17350674406E+04  0.19676100456E+04  0.25500000920E-02 0.  1.
       -2    1    3    3    0  502 -0.76159400655E+03 -0.53009889402E+03  0.64472331128E+03  0.11299108002E+04  0.25500000920E-02 0. -1.
</event>
<event>
 5   0  0.2608591E-07  0.2900851E+04  0.7818609E-02  0.8272624E-01
        2   -1    0    0  501    0  0.00000000000E+00  0.00000000000E+00  0.16169405100E+04  0.16169405100E+04  0.25500000920E-02 0. -1.
       -2   -1    0    0    0  501  0.00000000000E+00  0.00000000000E+00 -0.13010583885E+04  0.13010583885E+04  0.25500000920E-02 0.  1.
    10030    2    1    2    0    0  0.00000000000E+00  0.00000000000E+00  0.31588212148E+03  0.29179988985E+04  0.29008509195E+04 0.  0.
        2    1    3    3  502    0 -0.10030879830E+04 -0.34236706927E+03 -0.83802970640E+03  0.13511826303E+04  0.25500000920E-02 0.  1.
       -2    1    3    3    0  502  0.10030879830E+04  0.34236706927E+03  0.11539118279E+04  0.15668162682E+04  0.25500000920E-02 0. -1.
</event>
<event>
 5   0  0.9395744E-08  0.2900534E+04  0.7818609E-02  0.8272719E-01
        1   -1    0    0  501    0  0.00000000000E+00  0.00000000000E+00  0.14706392115E+04  0.14706392115E+04  0.50400001928E-02 0. -1.
       -1   -1    0    0    0  501  0.00000000000E+00  0.00000000000E+00 -0.14301767573E+04  0.14301767573E+04  0.50400001928E-02 0.  1.
    10030    2    1    2    0    0  0.00000000000E+00  0.00000000000E+00  0.40462454136E+02  0.29008159688E+04  0.29005337569E+04 0.  0.
        2    1    3    3  502    0  0.38855510083E+03 -0.16099529557E+03 -0.13678445437E+04  0.14310462073E+04  0.25500000920E-02 0.  1.
       -2    1    3    3    0  502 -0.38855510083E+03  0.16099529557E+03  0.14083069979E+04  0.14697697615E+04  0.25500000920E-02 0. -1.
</event>
<event>
 5   0  0.9443352E-08  0.2891058E+04  0.7818609E-02  0.8275543E-01
        1   -1    0    0  501    0  0.00000000000E+00  0.00000000000E+00  0.25378354347E+04  0.25378354347E+04  0.50400001928E-02 0.  1.
       -1   -1    0    0    0  501  0.00000000000E+00  0.00000000000E+00 -0.82336084746E+03  0.82336084747E+03  0.50400001928E-02 0. -1.
    10030    2    1    2    0    0  0.00000000000E+00  0.00000000000E+00  0.17144745872E+04  0.33611962822E+04  0.28910581691E+04 0.  0.
        4    1    3    3  502    0  0.51744124679E+03 -0.13493494812E+04  0.89514746808E+03  0.16999353131E+04  0.12699999809E+01 0.  1.
       -4    1    3    3    0  502 -0.51744124679E+03  0.13493494812E+04  0.81932711914E+03  0.16612609690E+04  0.12699999809E+01 0. -1.
</event>
<event>
 5   0  0.9763851E-08  0.2899314E+04  0.7818609E-02  0.8273082E-01
       -1   -1    0    0    0  501  0.00000000000E+00  0.00000000000E+00  0.18079160127E+04  0.18079160127E+04  0.50400001928E-02 0.  1.
        1   -1    0    0  501    0  0.00000000000E+00  0.00000000000E+00 -0.11623910758E+04  0.11623910758E+04  0.50400001928E-02 0. -1.
    10030    2    1    2    0    0  0.00000000000E+00  0.00000000000E+00  0.64552493694E+03  0.29703070885E+04  0.28993140147E+04 0.  0.
        3    1    3    3  502    0  0.66741756773E+03 -0.56483604389E+03 -0.86184635032E+03  0.12277072566E+04  0.10100000352E+00 0. -1.
       -3    1    3    3    0  502 -0.66741756773E+03  0.56483604389E+03  0.15073712873E+04  0.17425998319E+04  0.10100000352E+00 0.  1.
</event>
<event>
 5   0  0.2678723E-07  0.2899808E+04  0.7818609E-02  0.8272935E-01
       -2   -1    0    0    0  501  0.00000000000E+00  0.00000000000E+00  0.89095502791E+03  0.89095502791E+03  0.25500000920E-02 0. -1.
        2   -1    0    0  501    0  0.00000000000E+00  0.00000000000E+00 -0.23595151726E+04  0.23595151726E+04  0.25500000920E-02 0.  1.
    10030    2    1    2    0    0  0.00000000000E+00  0.00000000000E+00 -0.14685601447E+04  0.32504702005E+04  0.28998082050E+04 0.  0.
        5    1    3    3  502    0  0.10456748150E+04  0.16265948016E+03  0.37668470204E+03  0.11233019985E+04  0.46999998093E+01 0. -1.
       -5    1    3    3    0  502 -0.10456748150E+04 -0.16265948016E+03 -0.18452448467E+04  0.21271682020E+04  0.46999998093E+01 0.  1.
</event>
<event>
 5   0  0.9443352E-08  0.2902529E+04  0.7818609E-02  0.8272125E-01
       -1   -1    0    0    0  501  0.00000000000E+00  0.00000000000E+00  0.23505259699E+04  0.23505259699E+04  0.50400001928E-02 0.  1.
        1   -1    0    0  501    0  0.00000000000E+00  0.00000000000E+00 -0.89604152863E+03  0.89604152865E+03  0.50400001928E-02 0. -1.
    10030    2    1    2    0    0  0.00000000000E+00  0.00000000000E+00  0.14544844413E+04  0.32465674986E+04  0.29025291614E+04 0.  0.
        4    1    3    3  502    0 -0.13612238379E+04 -0.38169057108E+03  0.36042347587E+03  0.14589464431E+04  0.12699999809E+01 0. -1.
       -4    1    3    3    0  502  0.13612238379E+04  0.38169057108E+03  0.10940609654E+04  0.17876210555E+04  0.12699999809E+01 0.  1.
</event>
<event>
 5   0  0.2678723E-07  0.2885889E+04  0.7818609E-02  0.8277088E-01
       -2   -1    0    0    0  501  0.00000000000E+00  0.00000000000E+00  0.92011570909E+03  0.92011570909E+03  0.25500000920E-02 0. -1.
        2   -1    0    0  501    0  0.00000000000E+00  0.00000000000E+00 -0.22628556272E+04  0.22628556272E+04  0.25500000920E-02 0.  1.
    10030    2    1    2    0    0  0.00000000000E+00  0.00000000000E+00 -0.13427399181E+04  0.31829713363E+04  0.28858891247E+04 0.  0.
        5    1    3    3  502    0  0.81905930589E+03  0.20585837634E+03  0.61904092775E+03  0.10471244329E+04  0.46999998093E+01 0. -1.
       -5    1    3    3    0  502 -0.81905930589E+03 -0.20585837634E+03 -0.19617808459E+04  0.21358469034E+04  0.46999998093E+01 0.  1.
</event>
<event>
 5   0  0.9443352E-08  0.2898823E+04  0.7818609E-02  0.8273228E-01
        1   -1    0    0  501    0  0.00000000000E+00  0.00000000000E+00  0.18586189470E+04  0.18586189470E+04  0.50400001928E-02 0.  1.
       -1   -1    0    0    0  501  0.00000000000E+00  0.00000000000E+00 -0.11302985648E+04  0.11302985648E+04  0.50400001928E-02 0. -1.
    10030    2    1    2    0    0  0.00000000000E+00  0.00000000000E+00  0.72832038224E+03  0.29889175118E+04  0.28988234360E+04 0.  0.
        4    1    3    3  502    0 -0.12011790601E+04 -0.66072297482E+03 -0.12100270085E+03  0.13762373525E+04  0.12699999809E+01 0. -1.
       -4    1    3    3    0  502  0.12011790601E+04  0.66072297482E+03  0.84932308310E+03  0.16126801593E+04  0.12699999809E+01 0.  1.
</event>
<event>
 5   0  0.8407500E-08  0.2898655E+04  0.7818609E-02  0.8273278E-01
        3   -1    0    0  501    0  0.00000000000E+00  0.00000000000E+00  0.10657306642E+04  0.10657306690E+04  0.10100000352E+00 0.  1.
       -3   -1    0    0    0  501  0.00000000000E+00  0.00000000000E+00 -0.19709960213E+04  0.19709960239E+04  0.10100000352E+00 0. -1.
    10030    2    1    2    0    0  0.00000000000E+00  0.00000000000E+00 -0.90526535707E+03  0.30367266929E+04  0.28986554885E+04 0.  0.
        4    1    3    3  502    0  0.11535685915E+04  0.83428086910E+03 -0.16802294919E+03  0.14335195807E+04  0.12699999809E+01 0.  1.
       -4    1    3    3    0  502 -0.11535685915E+04 -0.83428086910E+03 -0.73724240788E+03  0.16032071122E+04  0.12699999809E+01 0. -1.
</event>
<event>
 5   0  0.9763851E-08  0.2898795E+04  0.7818609E-02  0.8273236E-01
        1   -1    0    0  501    0  0.00000000000E+00  0.00000000000E+00  0.71615118214E+03  0.71615118215E+03  0.50400001928E-02 0.  1.
       -1   -1    0    0    0  501  0.00000000000E+00  0.00000000000E+00 -0.29333932553E+04  0.29333932553E+04  0.50400001928E-02 0. -1.
    10030    2    1    2    0    0  0.00000000000E+00  0.00000000000E+00 -0.22172420732E+04  0.36495444375E+04  0.28987949548E+04 0.  0.
        3    1    3    3  502    0 -0.73593181245E+03  0.60954029440E+03  0.26339614872E+03  0.99121770789E+03  0.10100000352E+00 0.  1.
       -3    1    3    3    0  502  0.73593181245E+03 -0.60954029440E+03 -0.24806382219E+04  0.26583267296E+04  0.10100000352E+00 0. -1.
</event>
<event>
 5   0  0.9763851E-08  0.2899132E+04  0.7818609E-02  0.8273136E-01
       -1   -1    0    0    0  501  0.00000000000E+00  0.00000000000E+00  0.13777275057E+04  0.13777275057E+04  0.50400001928E-02 0.  1.
        1   -1    0    0  501    0  0.00000000000E+00  0.00000000000E+00 -0.15251504753E+04  0.15251504753E+04  0.50400001928E-02 0. -1.
    10030    2    1    2    0    0  0.00000000000E+00  0.00000000000E+00 -0.14742296959E+03  0.29028779810E+04  0.28991321185E+04 0.  0.
        3    1    3    3  502    0  0.62264120053E+03 -0.92501240078E+03  0.85372052281E+03  0.14043392565E+04  0.10100000352E+00 0.  1.
       -3    1    3    3    0  502 -0.62264120053E+03  0.92501240078E+03 -0.10011434924E+04  0.14985387245E+04  0.10100000352E+00 0. -1.
</event>
<event>
 5   0  0.2492232E-07  0.2900416E+04  0.7818609E-02  0.8272754E-01
       -2   -1    0    0    0  501  0.00000000000E+00  0.00000000000E+00  0.13052126382E+04  0.13052126382E+04  0.25500000920E-02 0. -1.
        2   -1    0    0  501    0  0.00000000000E+00  0.00000000000E+00 -0.16113112927E+04  0.16113112927E+04  0.25500000920E-02 0.  1.
    10030    2    1    2    0    0  0.00000000000E+00  0.00000000000E+00 -0.30609865446E+03  0.29165239309E+04  0.29004164276E+04 0.  0.
        4    1    3    3  502    0  0.14437111007E+04 -0.10797856235E+03 -0.23802388471E+03  0.14671803211E+04  0.12699999809E+01 0.  1.
       -4    1    3    3    0  502 -0.14437111007E+04  0.10797856235E+03 -0.68074769751E+02  0.14493436098E+04  0.12699999809E+01 0. -1.
</event>
<event>
 5   0  0.2608591E-07  0.2899940E+04  0.7818609E-02  0.8272895E-01
       -2   -1    0    0    0  501  0.00000000000E+00  0.00000000000E+00  0.10282712453E+04  0.10282712453E+04  0.25500000920E-02 0. -1.
        2   -1    0    0  501    0  0.00000000000E+00  0.00000000000E+00 -0.20446091203E+04  0.20446091203E+04  0.25500000920E-02 0.  1.
    10030    2    1    2    0    0  0.00000000000E+00  0.00000000000E+00 -0.10163378750E+04  0.30728803656E+04  0.28999398382E+04 0.  0.
        2    1    3    3  502    0 -0.32743544235E+03  0.12049501726E+04  0.27287249053E+03  0.12781151292E+04  0.25500000920E-02 0. -1.
       -2    1    3    3    0  502  0.32743544235E+03 -0.12049501726E+04 -0.12892103655E+04  0.17947652364E+04  0.25500000920E-02 0.  1.
</event>
<event>
 5   0  0.9763851E-08  0.2900059E+04  0.7818609E-02  0.8272860E-01
        1   -1    0    0  501    0  0.00000000000E+00  0.00000000000E+00  0.16914566358E+04  0.16914566358E+04  0.50400001928E-02 0.  1.
       -1   -1    0    0    0  501  0.00000000000E+00  0.00000000000E+00 -0.12430618349E+04  0.12430618349E+04  0.50400001928E-02 0. -1.
    10030    2    1    2    0    0  0.00000000000E+00  0.00000000000E+00  0.44839480086E+03  0.29345184707E+04  0.29000587507E+04 0.  0.
        3    1    3    3  502    0 -0.56239088022E+03 -0.59678606884E+03 -0.98590062626E+03  0.12823561008E+04  0.10100000352E+00 0. -1.
       -3    1    3    3    0  502  0.56239088022E+03  0.59678606884E+03  0.14342954271E+04  0.16521623699E+04  0.10100000352E+00 0.  1.
</event>
<event>
 5   0  0.2534588E-07  0.2899580E+04  0.7818609E-02  0.8273002E-01
       -2   -1    0    0    0  501  0.00000000000E+00  0.00000000000E+00  0.13121615226E+04  0.13121615226E+04  0.25500000920E-02 0. -1.
        2   -1    0    0  501    0  0.00000000000E+00  0.00000000000E+00 -0.16018543931E+04  0.16018543931E+04  0.25500000920E-02 0.  1.
    10030    2    1    2    0    0  0.00000000000E+00  0.00000000000E+00 -0.28969287046E+03  0.29140159157E+04  0.28995804521E+04 0.  0.
        3    1    3    3  502    0  0.99974960910E+03  0.19391039056E+03  0.89217796843E+03  0.13539136080E+04  0.10100000352E+00 0. -1.
       -3    1    3    3    0  502 -0.99974960910E+03 -0.19391039056E+03 -0.11818708389E+04  0.15601023077E+04  0.10100000352E+00 0.  1.
</event>
<event>
 5   0  0.9421924E-08  0.2900265E+04  0.7818609E-02  0.8272799E-01
        1   -1    0    0  501    0  0.00000000000E+00  0.00000000000E+00  0.15053067713E+04  0.15053067713E+04  0.50400001928E-02 0.  1.
       -1   -1    0    0    0  501  0.00000000000E+00  0.00000000000E+00 -0.13969802966E+04  0.13969802966E+04  0.50400001928E-02 0. -1.
    10030    2    1    2    0    0  0.00000000000E+00  0.00000000000E+00  0.10832647465E+03  0.29022870679E+04  0.29002647464E+04 0.  0.
        1    1    3    3  502    0 -0.11848619494E+04  0.22778151910E+03  0.85915043472E+03  0.14811892955E+04  0.50400001928E-02 0.  1.
       -1    1    3    3    0  502  0.11848619494E+04 -0.22778151910E+03 -0.75082396007E+03  0.14210977724E+04  0.50400001928E-02 0. -1.
</event>
<event>
 5   0  0.9443352E-08  0.2900070E+04  0.7818609E-02  0.8272857E-01
        1   -1    0    0  501    0  0.00000000000E+00  0.00000000000E+00  0.19254774946E+04  0.19254774946E+04  0.50400001928E-02 0. -1.
       -1   -1    0    0    0  501  0.00000000000E+00  0.00000000000E+00 -0.10919893501E+04  0.10919893502E+04  0.50400001928E-02 0.  1.
    10030    2    1    2    0    0  0.00000000000E+00  0.00000000000E+00  0.83348814447E+03  0.30174668448E+04  0.29000695979E+04 0.  0.
        4    1    3    3  502    0 -0.91904438509E+03  0.11111123606E+04  0.57585957038E+03  0.15526844873E+04  0.12699999809E+01 0. -1.
       -4    1    3    3    0  502  0.91904438509E+03 -0.11111123606E+04  0.25762857409E+03  0.14647823574E+04  0.12699999809E+01 0.  1.
</event>
<event>
 5   0  0.9388076E-08  0.2900419E+04  0.7818609E-02  0.8272753E-01
       -1   -1    0    0    0  501  0.00000000000E+00  0.00000000000E+00  0.11355888006E+04  0.11355888006E+04  0.50400001928E-02 0.  1.
        1   -1    0    0  501    0  0.00000000000E+00  0.00000000000E+00 -0.18519975747E+04  0.18519975747E+04  0.50400001928E-02 0. -1.
    10030    2    1    2    0    0  0.00000000000E+00  0.00000000000E+00 -0.71640877412E+03  0.29875863752E+04  0.29004190763E+04 0.  0.
        5    1    3    3  502    0 -0.24912420815E+03  0.10948681523E+04  0.58713908637E+03  0.12671043914E+04  0.46999998093E+01 0.  1.
       -5    1    3    3    0  502  0.24912420815E+03 -0.10948681523E+04 -0.13035478605E+04  0.17204819838E+04  0.46999998093E+01 0. -1.
</event>
<event>
 5   0  0.2534588E-07  0.2900033E+04  0.7818609E-02  0.8272868E-01
        2   -1    0    0  501    0  0.00000000000E+00  0.00000000000E+00  0.15701930043E+04  0.15701930044E+04  0.25500000920E-02 0.  1.
       -2   -1    0    0    0  501  0.00000000000E+00  0.00000000000E+00 -0.13390377278E+04  0.13390377278E+04  0.25500000920E-02 0. -1.
    10030    2    1    2    0    0  0.00000000000E+00  0.00000000000E+00  0.23115527651E+03  0.29092307322E+04  0.29000328776E+04 0.  0.
        3    1    3    3  502    0  0.50955265867E+03  0.12633610987E+04  0.61396567068E+03  0.14942151896E+04  0.10100000352E+00 0.  1.
       -3    1    3    3    0  502 -0.50955265867E+03 -0.12633610987E+04 -0.38281039416E+03  0.14150155426E+04  0.10100000352E+00 0. -1.
</event>
<event>
 5   0  0.9421924E-08  0.2901485E+04  0.7818609E-02  0.8272436E-01
       -1   -1    0    0    0  501  0.00000000000E+00  0.00000000000E+00  0.11463238446E+04  0.11463238446E+04  0.50400001928E-02 0.  1.
        1   -1    0    0  501    0  0.00000000000E+00  0.00000000000E+00 -0.18360023210E+04  0.18360023210E+04  0.50400001928E-02 0. -1.
    10030    2    1    2    0    0  0.00000000000E+00  0.00000000000E+00 -0.68967847646E+03  0.29823261656E+04  0.29014846126E+04 0.  0.
        1    1    3    3  502    0  0.30964803328E+03 -0.46932972069E+03 -0.17194490973E+04  0.18090487803E+04  0.50400001928E-02 0. -1.
       -1    1    3    3    0  502 -0.30964803328E+03  0.46932972069E+03  0.10297706208E+04  0.11732773853E+04  0.50400001928E-02 0.  1.
</event>
<event>
 5   0  0.2546841E-07  0.2900896E+04  0.7818609E-02  0.8272611E-01
       -2   -1    0    0    0  501  0.00000000000E+00  0.00000000000E+00  0.93379028558E+03  0.93379028558E+03  0.25500000920E-02 0. -1.
        2   -1    0    0  501    0  0.00000000000E+00  0.00000000000E+00 -0.22529683482E+04  0.22529683482E+04  0.25500000920E-02 0.  1.
    10030    2    1    2    0    0  0.00000000000E+00  0.00000000000E+00 -0.13191780626E+04  0.31867586337E+04  0.29008963837E+04 0.  0.
        1    1    3    3  502    0 -0.69747398023E+02 -0.15313481244E+03 -0.22422094061E+04  0.22485146189E+04  0.50400001928E-02 0.  1.
       -1    1    3    3    0  502  0.69747398023E+02  0.15313481244E+03  0.92303134353E+03  0.93824401489E+03  0.50400001928E-02 0. -1.
</event>
<event>
 5   0  0.9443352E-08  0.2898890E+04  0.7818609E-02  0.8273208E-01
        1   -1    0    0  501    0  0.00000000000E+00  0.00000000000E+00  0.24687564627E+04  0.24687564627E+04  0.50400001928E-02 0. -1.
       -1   -1    0    0    0  501  0.00000000000E+00  0.00000000000E+00 -0.85099130966E+03  0.85099130968E+03  0.50400001928E-02 0.  1.
    10030    2    1    2    0    0  0.00000000000E+00  0.00000000000E+00  0.16177651530E+04  0.33197477723E+04  0.28988896463E+04 0.  0.
        4    1    3    3  502    0 -0.34860020154E+03 -0.32111850444E+03  0.23775060092E+04  0.24242886856E+04  0.12699999809E+01 0. -1.
       -4    1    3    3    0  502  0.34860020154E+03  0.32111850444E+03 -0.75974085625E+03  0.89545908670E+03  0.12699999809E+01 0.  1.
</event>
<event>
 5   0  0.9388076E-08  0.2902766E+04  0.7818609E-02  0.8272055E-01
        1   -1    0    0  501    0  0.00000000000E+00  0.00000000000E+00  0.17622840806E+04  0.17622840806E+04  0.50400001928E-02 0. -1.
       -1   -1    0    0    0  501  0.00000000000E+00  0.00000000000E+00 -0.11953308041E+04  0.11953308041E+04  0.50400001928E-02 0.  1.
    10030    2    1    2    0    0  0.00000000000E+00  0.00000000000E+00  0.56695327648E+03  0.29576148847E+04  0.29027658859E+04 0.  0.
        5    1    3    3  502    0  0.11462877287E+04 -0.89019755870E+03  0.29157070144E+03  0.14803590154E+04  0.46999998093E+01 0.  1.
       -5    1    3    3    0  502 -0.11462877287E+04  0.89019755870E+03  0.27538257504E+03  0.14772558692E+04  0.46999998093E+01 0. -1.
</event>
<event>
 5   0  0.9395744E-08  0.2900608E+04  0.7818609E-02  0.8272697E-01
       -1   -1    0    0    0  501  0.00000000000E+00  0.00000000000E+00  0.11693961974E+04  0.11693961974E+04  0.50400001928E-02 0. -1.
        1   -1    0    0  501    0  0.00000000000E+00  0.00000000000E+00 -0.17986907565E+04  0.17986907565E+04  0.50400001928E-02 0.  1.
    10030    2    1    2    0    0  0.00000000000E+00  0.00000000000E+00 -0.62929455908E+03  0.29680869540E+04  0.29006083024E+04 0.  0.
        2    1    3    3  502    0  0.86842238495E+02  0.13888417932E+04  0.10346458441E+03  0.13953952921E+04  0.25500000920E-02 0.  1.
       -2    1    3    3    0  502 -0.86842238495E+02 -0.13888417932E+04 -0.73275914349E+03  0.15726916619E+04  0.25500000920E-02 0. -1.
</event>
<event>
 5   0  0.9443352E-08  0.2904246E+04  0.7818609E-02  0.8271615E-01
        1   -1    0    0  501    0  0.00000000000E+00  0.00000000000E+00  0.20619825083E+04  0.20619825083E+04  0.50400001928E-02 0. -1.
       -1   -1    0    0    0  501  0.00000000000E+00  0.00000000000E+00 -0.10226378011E+04  0.10226378012E+04  0.50400001928E-02 0.  1.
    10030    2    1    2    0    0  0.00000000000E+00  0.00000000000E+00  0.10393447072E+04  0.30846203095E+04  0.29042460353E+04 0.  0.
        4    1    3    3  502    0 -0.37588893676E+02 -0.40644438482E+03 -0.96045292745E+03  0.10435906293E+04  0.12699999809E+01 0.  1.
       -4    1    3    3    0  502  0.37588893676E+02  0.40644438482E+03  0.19997976346E+04  0.20410296802E+04  0.12699999809E+01 0. -1.
</event>
<event>
 5   0  0.9388076E-08  0.2900308E+04  0.7818609E-02  0.8272786E-01
       -1   -1    0    0    0  501  0.00000000000E+00  0.00000000000E+00  0.12056672389E+04  0.12056672389E+04  0.50400001928E-02 0.  1.
        1   -1    0    0  501    0  0.00000000000E+00  0.00000000000E+00 -0.17442179304E+04  0.17442179304E+04  0.50400001928E-02 0. -1.
    10030    2    1    2    0    0  0.00000000000E+00  0.00000000000E+00 -0.53855069152E+03  0.29498851693E+04  0.29003078569E+04 0.  0.
        5    1    3    3  502    0 -0.45470441644E+03  0.37310090317E+03  0.10788877506E+04  0.12288129470E+04  0.46999998093E+01 0.  1.
       -5    1    3    3    0  502  0.45470441644E+03 -0.37310090317E+03 -0.16174384421E+04  0.17210722223E+04  0.46999998093E+01 0. -1.
</event>
<event>
 5   0  0.2608591E-07  0.2900824E+04  0.7818609E-02  0.8272632E-01
        2   -1    0    0  501    0  0.00000000000E+00  0.00000000000E+00  0.15613819369E+04  0.15613819369E+04  0.25500000920E-02 0.  1.
       -2   -1    0    0    0  501  0.00000000000E+00  0.00000000000E+00 -0.13473291442E+04  0.13473291442E+04  0.25500000920E-02 0. -1.
    10030    2    1    2    0    0  0.00000000000E+00  0.00000000000E+00  0.21405279274E+03  0.29087110811E+04  0.29008242889E+04 0.  0.
        2    1    3    3  502    0  0.13109476204E+04 -0.11194518775E+03 -0.50502646353E+03  0.14093144140E+04  0.25500000920E-02 0.  1.
       -2    1    3    3    0  502 -0.13109476204E+04  0.11194518775E+03  0.71907925626E+03  0.14993966671E+04  0.25500000920E-02 0. -1.
</event>
<event>
 5   0  0.9421924E-08  0.2899890E+04  0.7818609E-02  0.8272910E-01
       -1   -1    0    0    0  501  0.00000000000E+00  0.00000000000E+00  0.10014725605E+04  0.10014725605E+04  0.50400001928E-02 0. -1.
        1   -1    0    0  501    0  0.00000000000E+00  0.00000000000E+00 -0.20992489509E+04  0.20992489510E+04  0.50400001928E-02 0.  1.
    10030    2    1    2    0    0  0.00000000000E+00  0.00000000000E+00 -0.10977763904E+04  0.31007215115E+04  0.28998898063E+04 0.  0.
        1    1    3    3  502    0 -0.13312542372E+03 -0.61096138939E+03 -0.19476698513E+04  0.20455840358E+04  0.50400001928E-02 0.  1.
       -1    1    3    3    0  502  0.13312542372E+03  0.61096138939E+03  0.84989346088E+03  0.10551374757E+04  0.50400001928E-02 0. -1.
</event>
<event>
 5   0  0.9421924E-08  0.2900477E+04  0.7818609E-02  0.8272735E-01
       -1   -1    0    0    0  501  0.00000000000E+00  0.00000000000E+00  0.13863175901E+04  0.13863175901E+04  0.50400001928E-02 0.  1.
        1   -1    0    0  501    0  0.00000000000E+00  0.00000000000E+00 -0.15171071109E+04  0.15171071109E+04  0.50400001928E-02 0. -1.
    10030    2    1    2    0    0  0.00000000000E+00  0.00000000000E+00 -0.13078952073E+03  0.29034247010E+04  0.29004773910E+04 0.  0.
        1    1    3    3  502    0 -0.11260291254E+04  0.68239812918E+03 -0.67394628618E+03  0.14791255506E+04  0.50400001928E-02 0. -1.
       -1    1    3    3    0  502  0.11260291254E+04 -0.68239812918E+03  0.54315676545E+03  0.14242991504E+04  0.50400001928E-02 0.  1.
</event>
<event>
 5   0  0.9421924E-08  0.2899443E+04  0.7818609E-02  0.8273043E-01
       -1   -1    0    0    0  501  0.00000000000E+00  0.00000000000E+00  0.11416701313E+04  0.11416701313E+04  0.50400001928E-02 0. -1.
        1   -1    0    0  501    0  0.00000000000E+00  0.00000000000E+00 -0.18408924900E+04  0.18408924900E+04  0.50400001928E-02 0.  1.
    10030    2    1    2    0    0  0.00000000000E+00  0.00000000000E+00 -0.69922235875E+03  0.29825626213E+04  0.28994426849E+04 0.  0.
        1    1    3    3  502    0 -0.53578328841E+03  0.78439147024E+03 -0.14761586786E+04  0.17553854720E+04  0.50400001928E-02 0.  1.
       -1    1    3    3    0  502  0.53578328841E+03 -0.78439147024E+03  0.77693631986E+03  0.12271771493E+04  0.50400001928E-02 0. -1.
</event>
<event>
 5   0  0.2492232E-07  0.2899074E+04  0.7818609E-02  0.8273153E-01
        2   -1    0    0  501    0  0.00000000000E+00  0.00000000000E+00  0.14885639784E+04  0.14885639784E+04  0.25500000920E-02 0.  1.
       -2   -1    0    0    0  501  0.00000000000E+00  0.00000000000E+00 -0.14115329948E+04  0.14115329948E+04  0.25500000920E-02 0. -1.
    10030    2    1    2    0    0  0.00000000000E+00  0.00000000000E+00  0.77030983581E+02  0.29000969732E+04  0.28990737627E+04 0.  0.
        4    1    3    3  502    0 -0.86253757250E+02 -0.13271824801E+04  0.61517580872E+03  0.14653654611E+04  0.12699999809E+01 0.  1.
       -4    1    3    3    0  502  0.86253757250E+02  0.13271824801E+04 -0.53814482514E+03  0.14347315121E+04  0.12699999809E+01 0. -1.
</event>
<event>
 5   0  0.9763851E-08  0.2899730E+04  0.7818609E-02  0.8272958E-01
       -1   -1    0    0    0  501  0.00000000000E+00  0.00000000000E+00  0.12139245279E+04  0.12139245279E+04  0.50400001928E-02 0. -1.
        1   -1    0    0  501    0  0.00000000000E+00  0.00000000000E+00 -0.17316631303E+04  0.17316631303E+04  0.50400001928E-02 0.  1.
    10030    2    1    2    0    0  0.00000000000E+00  0.00000000000E+00 -0.51773860248E+03  0.29455876582E+04  0.28997298826E+04 0.  0.
        3    1    3    3  502    0  0.95390024273E+03 -0.76220266900E+03 -0.10530451058E+04  0.16123841312E+04  0.10100000352E+00 0.  1.
       -3    1    3    3    0  502 -0.95390024273E+03  0.76220266900E+03  0.53530650328E+03  0.13332035270E+04  0.10100000352E+00 0. -1.
</event>
<event>
 5   0  0.2492232E-07  0.2898874E+04  0.7818609E-02  0.8273212E-01
        2   -1    0    0  501    0  0.00000000000E+00  0.00000000000E+00  0.13240630896E+04  0.13240630896E+04  0.25500000920E-02 0. -1.
       -2   -1    0    0    0  501  0.00000000000E+00  0.00000000000E+00 -0.15866828236E+04  0.15866828236E+04  0.25500000920E-02 0.  1.
    10030    2    1    2    0    0  0.00000000000E+00  0.00000000000E+00 -0.26261973403E+03  0.29107459132E+04  0.28988743758E+04 0.  0.
        4    1    3    3  502    0  0.76477901110E+03 -0.10365632294E+04  0.53587819084E+03  0.13951764450E+04  0.12699999809E+01 0. -1.
       -4    1    3    3    0  502 -0.76477901110E+03  0.10365632294E+04 -0.79849792487E+03  0.15155694683E+04  0.12699999809E+01 0.  1.
</event>
<event>
 5   0  0.2534588E-07  0.2900569E+04  0.7818609E-02  0.8272708E-01
        2   -1    0    0  501    0  0.00000000000E+00  0.00000000000E+00  0.23325692504E+04  0.23325692504E+04  0.25500000920E-02 0. -1.
       -2   -1    0    0    0  501  0.00000000000E+00  0.00000000000E+00 -0.90172004769E+03  0.90172004770E+03  0.25500000920E-02 0.  1.
    10030    2    1    2    0    0  0.00000000000E+00  0.00000000000E+00  0.14308492027E+04  0.32342892981E+04  0.29005685344E+04 0.  0.
        3    1    3    3  502    0 -0.36569706311E+03  0.92908438380E+03  0.18882957598E+04  0.21360227107E+04  0.10100000352E+00 0. -1.
       -3    1    3    3    0  502  0.36569706311E+03 -0.92908438380E+03 -0.45744655706E+03  0.10982665874E+04  0.10100000352E+00 0.  1.
</event>
<event>
 5   0  0.2546841E-07  0.2900857E+04  0.7818609E-02  0.8272622E-01
        2   -1    0    0  501    0  0.00000000000E+00  0.00000000000E+00  0.90979357028E+03  0.90979357028E+03  0.25500000920E-02 0. -1.
       -2   -1    0    0    0  501  0.00000000000E+00  0.00000000000E+00 -0.23123302378E+04  0.23123302378E+04  0.25500000920E-02 0.  1.
    10030    2    1    2    0    0  0.00000000000E+00  0.00000000000E+00 -0.14025366675E+04  0.32221238081E+04  0.29008572407E+04 0.  0.
        1    1    3    3  502    0 -0.28551983047E+03  0.11975900133E+04 -0.15530032382E+04  0.19818078795E+04  0.50400001928E-02 0.  1.
       -1    1    3    3    0  502  0.28551983047E+03 -0.11975900133E+04  0.15046657066E+03  0.12403159285E+04  0.50400001928E-02 0. -1.
</event>
<event>
 5   0  0.2492232E-07  0.2896573E+04  0.7818609E-02  0.8273898E-01
        2   -1    0    0  501    0  0.00000000000E+00  0.00000000000E+00  0.22958122162E+04  0.22958122162E+04  0.25500000920E-02 0. -1.
       -2   -1    0    0    0  501  0.00000000000E+00  0.00000000000E+00 -0.91363500518E+03  0.91363500519E+03  0.25500000920E-02 0.  1.
    10030    2    1    2    0    0  0.00000000000E+00  0.00000000000E+00  0.13821772111E+04  0.32094472214E+04  0.28965734281E+04 0.  0.
        4    1    3    3  502    0 -0.48725109664E+03 -0.55971180424E+03 -0.68697306614E+03  0.10112490007E+04  0.12699999809E+01 0.  1.
       -4    1    3    3    0  502  0.48725109664E+03  0.55971180424E+03  0.20691502772E+04  0.21981982207E+04  0.12699999809E+01 0. -1.
</event>
<event>
 5   0  0.9763851E-08  0.2889184E+04  0.7818609E-02  0.8276103E-01
       -1   -1    0    0    0  501  0.00000000000E+00  0.00000000000E+00  0.31353279014E+04  0.31353279014E+04  0.50400001928E-02 0.  1.
        1   -1    0    0  501    0  0.00000000000E+00  0.00000000000E+00 -0.66559097523E+03  0.66559097525E+03  0.50400001928E-02 0. -1.
    10030    2    1    2    0    0  0.00000000000E+00  0.00000000000E+00  0.24697369261E+04  0.38009188766E+04  0.28891839371E+04 0.  0.
        3    1    3    3  502    0 -0.87053421388E+03  0.55358486692E+02 -0.28000807387E+03  0.91613258387E+03  0.10100000352E+00 0. -1.
       -3    1    3    3    0  502  0.87053421388E+03 -0.55358486692E+02  0.27497450000E+04  0.28847862928E+04  0.10100000352E+00 0.  1.
</event>
<event>
 5   0  0.2534588E-07  0.2899636E+04  0.7818609E-02  0.8272986E-01
       -2   -1    0    0    0  501  0.00000000000E+00  0.00000000000E+00  0.11988809489E+04  0.11988809489E+04  0.25500000920E-02 0. -1.
        2   -1    0    0  501    0  0.00000000000E+00  0.00000000000E+00 -0.17532780195E+04  0.17532780195E+04  0.25500000920E-02 0.  1.
    10030    2    1    2    0    0  0.00000000000E+00  0.00000000000E+00 -0.55439707060E+03  0.29521589684E+04  0.28996355742E+04 0.  0.
        3    1    3    3  502    0  0.14889883450E+02  0.12600564858E+04  0.45273122264E+03  0.13390032211E+04  0.10100000352E+00 0. -1.
       -3    1    3    3    0  502 -0.14889883450E+02 -0.12600564858E+04 -0.10071282932E+04  0.16131557473E+04  0.10100000352E+00 0.  1.
</event>
<event>
 5   0  0.9763851E-08  0.2900304E+04  0.7818609E-02  0.8272787E-01
       -1   -1    0    0    0  501  0.00000000000E+00  0.00000000000E+00  0.12622717353E+04  0.12622717353E+04  0.50400001928E-02 0.  1.
        1   -1    0    0  501    0  0.00000000000E+00  0.00000000000E+00 -0.16659968732E+04  0.16659968732E+04  0.50400001928E-02 0. -1.
    10030    2    1    2    0    0  0.00000000000E+00  0.00000000000E+00 -0.40372513792E+03  0.29282686085E+04  0.29003039593E+04 0.  0.
        3    1    3    3  502    0  0.10386031848E+03 -0.13415215499E+04 -0.74788542254E+03  0.15394153598E+04  0.10100000352E+00 0. -1.
       -3    1    3    3    0  502 -0.10386031848E+03  0.13415215499E+04  0.34416028463E+03  0.13888532487E+04  0.10100000352E+00 0.  1.
</event>
<event>
 5   0  0.2492232E-07  0.2899948E+04  0.7818609E-02  0.8272893E-01
        2   -1    0    0  501    0  0.00000000000E+00  0.00000000000E+00  0.27283402832E+04  0.27283402832E+04  0.25500000920E-02 0. -1.
       -2   -1    0    0    0  501  0.00000000000E+00  0.00000000000E+00 -0.77058731260E+03  0.77058731260E+03  0.25500000920E-02 0.  1.
    10030    2    1    2    0    0  0.00000000000E+00  0.00000000000E+00  0.19577529706E+04  0.34989275958E+04  0.28999478662E+04 0.  0.
        4    1    3    3  502    0 -0.34530889529E+03 -0.88689416202E+03  0.22987121641E+04  0.24879507057E+04  0.12699999809E+01 0. -1.
       -4    1    3    3    0  502  0.34530889529E+03  0.88689416202E+03 -0.34095919349E+03  0.10109768901E+04  0.12699999809E+01 0.  1.
</event>
<event>
 5   0  0.2608591E-07  0.2899928E+04  0.7818609E-02  0.8272899E-01
       -2   -1    0    0    0  501  0.00000000000E+00  0.00000000000E+00  0.81304072125E+03  0.81304072125E+03  0.25500000920E-02 0. -1.
        2   -1    0    0  501    0  0.00000000000E+00  0.00000000000E+00 -0.25858428613E+04  0.25858428613E+04  0.25500000920E-02 0.  1.
    10030    2    1    2    0    0  0.00000000000E+00  0.00000000000E+00 -0.17728021400E+04  0.33988835825E+04  0.28999279611E+04 0.  0.
        2    1    3    3  502    0  0.94014150755E+03  0.53175094385E+03 -0.20201939817E+04  0.22908096482E+04  0.25500000920E-02 0.  1.
       -2    1    3    3    0  502 -0.94014150755E+03 -0.53175094385E+03  0.24739184172E+03  0.11080739343E+04  0.25500000920E-02 0. -1.
</event>
<event>
 5   0  0.2546841E-07  0.2900656E+04  0.7818609E-02  0.8272682E-01
       -2   -1    0    0    0  501  0.00000000000E+00  0.00000000000E+00  0.15741639273E+04  0.15741639273E+04  0.25500000920E-02 0.  1.
        2   -1    0    0  501    0  0.00000000000E+00  0.00000000000E+00 -0.13362339870E+04  0.13362339870E+04  0.25500000920E-02 0. -1.
    10030    2    1    2    0    0  0.00000000000E+00  0.00000000000E+00  0.23792994023E+03  0.29103979143E+04  0.29006560229E+04 0.  0.
        1    1    3    3  502    0 -0.13925384307E+04  0.23195559983E+03  0.45247364193E+03  0.14824638538E+04  0.50400001928E-02 0.  1.
       -1    1    3    3    0  502  0.13925384307E+04 -0.23195559983E+03 -0.21454370170E+03  0.14279340605E+04  0.50400001928E-02 0. -1.
</event>
<event>
 5   0  0.2534588E-07  0.2901232E+04  0.7818609E-02  0.8272511E-01
        2   -1    0    0  501    0  0.00000000000E+00  0.00000000000E+00  0.18378644254E+04  0.18378644254E+04  0.25500000920E-02 0. -1.
       -2   -1    0    0    0  501  0.00000000000E+00  0.00000000000E+00 -0.11449628376E+04  0.11449628376E+04  0.25500000920E-02 0.  1.
    10030    2    1    2    0    0  0.00000000000E+00  0.00000000000E+00  0.69290158785E+03  0.29828272630E+04  0.29012317850E+04 0.  0.
        3    1    3    3  502    0  0.13876616177E+01 -0.13800395140E+04  0.80598385216E+03  0.15981617458E+04  0.10100000352E+00 0. -1.
       -3    1    3    3    0  502 -0.13876616177E+01  0.13800395140E+04 -0.11308226431E+03  0.13846655171E+04  0.10100000352E+00 0.  1.
</event>
<event>
 5   0  0.2608591E-07  0.2900386E+04  0.7818609E-02  0.8272763E-01
        2   -1    0    0  501    0  0.00000000000E+00  0.00000000000E+00  0.17478380346E+04  0.17478380346E+04  0.25500000920E-02 0. -1.
       -2   -1    0    0    0  501  0.00000000000E+00  0.00000000000E+00 -0.12032346492E+04  0.12032346492E+04  0.25500000920E-02 0.  1.
    10030    2    1    2    0    0  0.00000000000E+00  0.00000000000E+00  0.54460338545E+03  0.29510726838E+04  0.29003856878E+04 0.  0.
        2    1    3    3  502    0 -0.57105595400E+02 -0.88605933178E+03 -0.89433868813E+03  0.12602396112E+04  0.25500000920E-02 0.  1.
       -2    1    3    3    0  502  0.57105595400E+02  0.88605933178E+03  0.14389420736E+04  0.16908330727E+04  0.25500000920E-02 0. -1.
</event>
<event>
 5   0  0.9395744E-08  0.2901096E+04  0.7818609E-02  0.8272551E-01
       -1   -1    0    0    0  501  0.00000000000E+00  0.00000000000E+00  0.32999346971E+04  0.32999346971E+04  0.50400001928E-02 0. -1.
        1   -1    0    0  501    0  0.00000000000E+00  0.00000000000E+00 -0.63761562200E+03  0.63761562202E+03  0.50400001928E-02 0.  1.
    10030    2    1    2    0    0  0.00000000000E+00  0.00000000000E+00  0.26623190751E+04  0.39375503191E+04  0.29010962855E+04 0.  0.
        2    1    3    3  502    0  0.59098721430E+03 -0.12381231196E+04  0.69183948979E+03  0.15365079324E+04  0.25500000920E-02 0.  1.
       -2    1    3    3    0  502 -0.59098721430E+03  0.12381231196E+04  0.19704795853E+04  0.24010423867E+04  0.25500000920E-02 0. -1.
</event>
<event>
 5   0  0.9395744E-08  0.2899553E+04  0.7818609E-02  0.8273011E-01
       -1   -1    0    0    0  501  0.00000000000E+00  0.00000000000E+00  0.19064099130E+04  0.19064099131E+04  0.50400001928E-02 0.  1.
        1   -1    0    0  501    0  0.00000000000E+00  0.00000000000E+00 -0.11025180789E+04  0.11025180789E+04  0.50400001928E-02 0. -1.
    10030    2    1    2    0    0  0.00000000000E+00  0.00000000000E+00  0.80389183414E+03  0.30089279920E+04  0.28995526517E+04 0.  0.
        2    1    3    3  502    0 -0.50347619808E+03  0.73600075303E+03 -0.78426820850E+03  0.11875445311E+04  0.25500000920E-02 0. -1.
       -2    1    3    3    0  502  0.50347619808E+03 -0.73600075303E+03  0.15881600426E+04  0.18213834609E+04  0.25500000920E-02 0.  1.
</event>
<event>
 5   0  0.9443352E-08  0.2899643E+04  0.7818609E-02  0.8272984E-01
       -1   -1    0    0    0  501  0.00000000000E+00  0.00000000000E+00  0.15195073092E+04  0.15195073093E+04  0.50400001928E-02 0.  1.
        1   -1    0    0  501    0  0.00000000000E+00  0.00000000000E+00 -0.13833313096E+04  0.13833313096E+04  0.50400001928E-02 0. -1.
    10030    2    1    2    0    0  0.00000000000E+00  0.00000000000E+00  0.13617599963E+03  0.29028386189E+04  0.28996427615E+04 0.  0.
        4    1    3    3  502    0 -0.56667539641E+03 -0.13313875129E+04 -0.22933652421E+02  0.14471493633E+04  0.12699999809E+01 0.  1.
       -4    1    3    3    0  502  0.56667539641E+03  0.13313875129E+04  0.15910965205E+03  0.14556892555E+04  0.12699999809E+01 0. -1.
</event>
<event>
 5   0  0.9388076E-08  0.2899355E+04  0.7818609E-02  0.8273069E-01
        1   -1    0    0  501    0  0.00000000000E+00  0.00000000000E+00  0.26481432960E+04  0.26481432960E+04  0.50400001928E-02 0.  1.
       -1   -1    0    0    0  501  0.00000000000E+00  0.00000000000E+00 -0.79359938839E+03  0.79359938841E+03  0.50400001928E-02 0. -1.
    10030    2    1    2    0    0  0.00000000000E+00  0.00000000000E+00  0.18545439076E+04  0.34417426845E+04  0.28993550318E+04 0.  0.
        5    1    3    3  502    0 -0.75230189195E+03 -0.88349535470E+03  0.19587414970E+04  0.22766669762E+04  0.46999998093E+01 0.  1.
       -5    1    3    3    0  502  0.75230189195E+03  0.88349535470E+03 -0.10419758933E+03  0.11650757083E+04  0.46999998093E+01 0. -1.
</event>
<event>
 5   0  0.9388076E-08  0.2899677E+04  0.7818609E-02  0.8272974E-01
        1   -1    0    0  501    0  0.00000000000E+00  0.00000000000E+00  0.20229082630E+04  0.20229082630E+04  0.50400001928E-02 0. -1.
       -1   -1    0    0    0  501  0.00000000000E+00  0.00000000000E+00 -0.10391136685E+04  0.10391136685E+04  0.50400001928E-02 0.  1.
    10030    2    1    2    0    0  0.00000000000E+00  0.00000000000E+00  0.98379459449E+03  0.30620219315E+04  0.28996769656E+04 0.  0.
        5    1    3    3  502    0 -0.63646641051E+03  0.13022507705E+04  0.52632596941E+03  0.15420725265E+04  0.46999998093E+01 0.  1.
       -5    1    3    3    0  502  0.63646641051E+03 -0.13022507705E+04  0.45746862508E+03  0.15199494050E+04  0.46999998093E+01 0. -1.
</event>
<event>
 5   0  0.2534588E-07  0.2900491E+04  0.7818609E-02  0.8272732E-01
        2   -1    0    0  501    0  0.00000000000E+00  0.00000000000E+00  0.17758324981E+04  0.17758324981E+04  0.25500000920E-02 0.  1.
       -2   -1    0    0    0  501  0.00000000000E+00  0.00000000000E+00 -0.11843523172E+04  0.11843523172E+04  0.25500000920E-02 0. -1.
    10030    2    1    2    0    0  0.00000000000E+00  0.00000000000E+00  0.59148018097E+03  0.29601848153E+04  0.29004905337E+04 0.  0.
        3    1    3    3  502    0  0.21902151545E+03 -0.12859379573E+04 -0.35102510774E+03  0.13508610183E+04  0.10100000352E+00 0. -1.
       -3    1    3    3    0  502 -0.21902151545E+03  0.12859379573E+04  0.94250528870E+03  0.16093237970E+04  0.10100000352E+00 0.  1.
</event>
<event>
 5   0  0.2534588E-07  0.2900260E+04  0.7818609E-02  0.8272800E-01
        2   -1    0    0  501    0  0.00000000000E+00  0.00000000000E+00  0.15626106117E+04  0.15626106117E+04  0.25500000920E-02 0. -1.
       -2   -1    0    0    0  501  0.00000000000E+00  0.00000000000E+00 -0.13457461853E+04  0.13457461853E+04  0.25500000920E-02 0.  1.
    10030    2    1    2    0    0  0.00000000000E+00  0.00000000000E+00  0.21686442645E+03  0.29083567970E+04  0.29002601744E+04 0.  0.
        3    1    3    3  502    0 -0.12341073935E+04  0.26737020079E+03 -0.60655852538E+03  0.14008644252E+04  0.10100000352E+00 0.  1.
       -3    1    3    3    0  502  0.12341073935E+04 -0.26737020079E+03  0.82342295183E+03  0.15074923717E+04  0.10100000352E+00 0. -1.
</event>
<event>
 5   0  0.8407500E-08  0.2899532E+04  0.7818609E-02  0.8273017E-01
       -3   -1    0    0    0  501  0.00000000000E+00  0.00000000000E+00  0.21142275982E+04  0.21142276006E+04  0.10100000352E+00 0.  1.
        3   -1    0    0  501    0  0.00000000000E+00  0.00000000000E+00 -0.99413200525E+03  0.99413201038E+03  0.10100000352E+00 0. -1.
    10030    2    1    2    0    0  0.00000000000E+00  0.00000000000E+00  0.11200955930E+04  0.31083596110E+04  0.28995319163E+04 0.  0.
        4    1    3    3  502    0  0.39218445291E+03 -0.37739285747E+03 -0.88044940116E+03  0.10350974712E+04  0.12699999809E+01 0. -1.
       -4    1    3    3    0  502 -0.39218445291E+03  0.37739285747E+03  0.20005449941E+04  0.20732621398E+04  0.12699999809E+01 0.  1.
</event>
<event>
 5   0  0.2546841E-07  0.2900021E+04  0.7818609E-02  0.8272871E-01
       -2   -1    0    0    0  501  0.00000000000E+00  0.00000000000E+00  0.79212124280E+03  0.79212124281E+03  0.25500000920E-02 0. -1.
        2   -1    0    0  501    0  0.00000000000E+00  0.00000000000E+00 -0.26543047303E+04  0.26543047303E+04  0.25500000920E-02 0.  1.
    10030    2    1    2    0    0  0.00000000000E+00  0.00000000000E+00 -0.18621834875E+04  0.34464259732E+04  0.29000214908E+04 0.  0.
        1    1    3    3  502    0  0.17518476937E+03 -0.11226290388E+04 -0.20016841909E+04  0.23016787922E+04  0.50400001928E-02 0.  1.
       -1    1    3    3    0  502 -0.17518476937E+03  0.11226290388E+04  0.13950070338E+03  0.11447471810E+04  0.50400001928E-02 0. -1.
</event>
<event>
 5   0  0.9395744E-08  0.2899237E+04  0.7818609E-02  0.8273105E-01
        1   -1    0    0  501    0  0.00000000000E+00  0.00000000000E+00  0.15671892631E+04  0.15671892631E+04  0.50400001928E-02 0. -1.
       -1   -1    0    0    0  501  0.00000000000E+00  0.00000000000E+00 -0.13408677595E+04  0.13408677595E+04  0.50400001928E-02 0.  1.
    10030    2    1    2    0    0  0.00000000000E+00  0.00000000000E+00  0.22632150354E+03  0.29080570226E+04  0.28992368347E+04 0.  0.
        2    1    3    3  502    0 -0.76471932134E+03  0.71139924258E+02  0.13463468478E+04  0.15500020528E+04  0.25500000920E-02 0. -1.
       -2    1    3    3    0  502  0.76471932134E+03 -0.71139924258E+02 -0.11200253442E+04  0.13580549698E+04  0.25500000920E-02 0.  1.
</event>
<event>
 5   0  0.2534588E-07  0.2904483E+04  0.7818609E-02  0.8271545E-01
       -2   -1    0    0    0  501  0.00000000000E+00  0.00000000000E+00  0.10599984399E+04  0.10599984399E+04  0.25500000920E-02 0.  1.
        2   -1    0    0  501    0  0.00000000000E+00  0.00000000000E+00 -0.19896304321E+04  0.19896304321E+04  0.25500000920E-02 0. -1.
    10030    2    1    2    0    0  0.00000000000E+00  0.00000000000E+00 -0.92963199220E+03  0.30496288721E+04  0.29044828484E+04 0.  0.
        3    1    3    3  502    0  0.29205815161E+03  0.61576325587E+03  0.88166666032E+03  0.11143601129E+04  0.10100000352E+00 0.  1.
       -3    1    3    3    0  502 -0.29205815161E+03 -0.61576325587E+03 -0.18112986525E+04  0.19352687591E+04  0.10100000352E+00 0. -1.
</event>
<event>
 5   0  0.2492232E-07  0.2900982E+04  0.7818609E-02  0.8272585E-01
        2   -1    0    0  501    0  0.00000000000E+00  0.00000000000E+00  0.18031356237E+04  0.18031356237E+04  0.25500000920E-02 0.  1.
       -2   -1    0    0    0  501  0.00000000000E+00  0.00000000000E+00 -0.11668138792E+04  0.11668138792E+04  0.25500000920E-02 0. -1.
    10030    2    1    2    0    0  0.00000000000E+00  0.00000000000E+00  0.63632174451E+03  0.29699495029E+04  0.29009816765E+04 0.  0.
        4    1    3    3  502    0  0.93360091839E+03 -0.68576709043E+02 -0.81615509117E+03  0.12419437127E+04  0.12699999809E+01 0. -1.
       -4    1    3    3    0  502 -0.93360091839E+03  0.68576709043E+02  0.14524768357E+04  0.17280057902E+04  0.12699999809E+01 0.  1.
</event>
<event>
 5   0  0.2678723E-07  0.2894973E+04  0.7818609E-02  0.8274375E-01
       -2   -1    0    0    0  501  0.00000000000E+00  0.00000000000E+00  0.11790274980E+04  0.11790274980E+04  0.25500000920E-02 0.  1.
        2   -1    0    0  501    0  0.00000000000E+00  0.00000000000E+00 -0.17770725646E+04  0.17770725646E+04  0.25500000920E-02 0. -1.
    10030    2    1    2    0    0  0.00000000000E+00  0.00000000000E+00 -0.59804506664E+03  0.29561000626E+04  0.28949731740E+04 0.  0.
        5    1    3    3  502    0 -0.11602327932E+04 -0.50520024060E+03 -0.10165894438E+04  0.16232201344E+04  0.46999998093E+01 0. -1.
       -5    1    3    3    0  502  0.11602327932E+04  0.50520024060E+03  0.41854437711E+03  0.13328799282E+04  0.46999998093E+01 0.  1.
</event>
<event>
 5   0  0.9421924E-08  0.2896210E+04  0.7818609E-02  0.8274006E-01
       -1   -1    0    0    0  501  0.00000000000E+00  0.00000000000E+00  0.10379984991E+04  0.10379984991E+04  0.50400001928E-02 0. -1.
        1   -1    0    0  501    0  0.00000000000E+00  0.00000000000E+00 -0.20202421249E+04  0.20202421249E+04  0.50400001928E-02 0.  1.
    10030    2    1    2    0    0  0.00000000000E+00  0.00000000000E+00 -0.98224362577E+03  0.30582406240E+04  0.28962101398E+04 0.  0.
        1    1    3    3  502    0 -0.49811286450E+02 -0.10880883671E+04  0.51651313228E+03  0.12054888115E+04  0.50400001928E-02 0. -1.
       -1    1    3    3    0  502  0.49811286450E+02  0.10880883671E+04 -0.14987567580E+04  0.18527518125E+04  0.50400001928E-02 0.  1.
</event>
<event>
 5   0  0.9763851E-08  0.2911671E+04  0.7818609E-02  0.8269413E-01
        1   -1    0    0  501    0  0.00000000000E+00  0.00000000000E+00  0.18937722146E+04  0.18937722146E+04  0.50400001928E-02 0. -1.
       -1   -1    0    0    0  501  0.00000000000E+00  0.00000000000E+00 -0.11191722612E+04  0.11191722612E+04  0.50400001928E-02 0.  1.
    10030    2    1    2    0    0  0.00000000000E+00  0.00000000000E+00  0.77459995344E+03  0.30129444758E+04  0.29116712257E+04 0.  0.
        3    1    3    3  502    0 -0.87964012162E+03 -0.11178516832E+04  0.70807932649E+03  0.15889416201E+04  0.10100000352E+00 0. -1.
       -3    1    3    3    0  502  0.87964012162E+03  0.11178516832E+04  0.66520626951E+02  0.14240028557E+04  0.10100000352E+00 0.  1.
</event>
<event>
 5   0  0.9443352E-08  0.2895568E+04  0.7818609E-02  0.8274197E-01
        1   -1    0    0  501    0  0.00000000000E+00  0.00000000000E+00  0.18695728729E+04  0.18695728729E+04  0.50400001928E-02 0. -1.
       -1   -1    0    0    0  501  0.00000000000E+00  0.00000000000E+00 -0.11211538657E+04  0.11211538657E+04  0.50400001928E-02 0.  1.
    10030    2    1    2    0    0  0.00000000000E+00  0.00000000000E+00  0.74841900719E+03  0.29907267386E+04  0.28955682369E+04 0.  0.
        4    1    3    3  502    0  0.13655366860E+04 -0.47182498766E+03  0.27749475079E+03  0.14711608374E+04  0.12699999809E+01 0.  1.
       -4    1    3    3    0  502 -0.13655366860E+04  0.47182498766E+03  0.47092425640E+03  0.15195659012E+04  0.12699999809E+01 0. -1.
</event>
<event>
 5   0  0.9388076E-08  0.2899983E+04  0.7818609E-02  0.8272882E-01
       -1   -1    0    0    0  501  0.00000000000E+00  0.00000000000E+00  0.10544272937E+04  0.10544272937E+04  0.50400001928E-02 0.  1.
        1   -1    0    0  501    0  0.00000000000E+00  0.00000000000E+00 -0.19939503239E+04  0.19939503239E+04  0.50400001928E-02 0. -1.
    10030    2    1    2    0    0  0.00000000000E+00  0.00000000000E+00 -0.93952303022E+03  0.30483776176E+04  0.28999832026E+04 0.  0.
        5    1    3    3  502    0 -0.10255150346E+04  0.87886077278E+03  0.84850585119E+02  0.13532549855E+04  0.46999998093E+01 0.  1.
       -5    1    3    3    0  502  0.10255150346E+04 -0.87886077278E+03 -0.10243736153E+04  0.16951226321E+04  0.46999998093E+01 0. -1.
</event>
<event>
 5   0  0.2534588E-07  0.2900921E+04  0.7818609E-02  0.8272603E-01
        2   -1    0    0  501    0  0.00000000000E+00  0.00000000000E+00  0.19974889654E+04  0.19974889654E+04  0.25500000920E-02 0. -1.
       -2   -1    0    0    0  501  0.00000000000E+00  0.00000000000E+00 -0.10532404294E+04  0.10532404294E+04  0.25500000920E-02 0.  1.
    10030    2    1    2    0    0  0.00000000000E+00  0.00000000000E+00  0.94424853607E+03  0.30507293948E+04  0.29009213265E+04 0.  0.
        3    1    3    3  502    0 -0.29353435801E+03 -0.37646449110E+03 -0.96825929280E+03  0.10795434223E+04  0.10100000352E+00 0.  1.
       -3    1    3    3    0  502  0.29353435801E+03  0.37646449110E+03  0.19125078289E+04  0.19711859725E+04  0.10100000352E+00 0. -1.
</event>
<event>
 5   0  0.9395744E-08  0.2900970E+04  0.7818609E-02  0.8272589E-01
       -1   -1    0    0    0  501  0.00000000000E+00  0.00000000000E+00  0.11463469753E+04  0.11463469753E+04  0.50400001928E-02 0. -1.
        1   -1    0    0  501    0  0.00000000000E+00  0.00000000000E+00 -0.18353135838E+04  0.18353135838E+04  0.50400001928E-02 0.  1.
    10030    2    1    2    0    0  0.00000000000E+00  0.00000000000E+00 -0.68896660850E+03  0.29816605590E+04  0.29009696141E+04 0.  0.
        2    1    3    3  502    0 -0.75584984964E+03 -0.44515544942E+03 -0.15317916993E+04  0.17651793618E+04  0.25500000920E-02 0.  1.
       -2    1    3    3    0  502  0.75584984964E+03  0.44515544942E+03  0.84282509084E+03  0.12164811972E+04  0.25500000920E-02 0. -1.
</event>
<event>
 5   0  0.9443352E-08  0.2900117E+04  0.7818609E-02  0.8272843E-01
       -1   -1    0    0    0  501  0.00000000000E+00  0.00000000000E+00  0.96464211050E+03  0.96464211051E+03  0.50400001928E-02 0. -1.
        1   -1    0    0  501    0  0.00000000000E+00  0.00000000000E+00 -0.21797410371E+04  0.21797410371E+04  0.50400001928E-02 0.  1.
    10030    2    1    2    0    0  0.00000000000E+00  0.00000000000E+00 -0.12150989266E+04  0.31443831476E+04  0.29001172352E+04 0.  0.
        4    1    3    3  502    0 -0.10031018867E+04 -0.40886742070E+03 -0.16527359018E+04  0.19760879376E+04  0.12699999809E+01 0.  1.
       -4    1    3    3    0  502  0.10031018867E+04  0.40886742070E+03  0.43763697521E+03  0.11682952101E+04  0.12699999809E+01 0. -1.
</event>
<event>
 5   0  0.9763851E-08  0.2914455E+04  0.7818609E-02  0.8268590E-01
        1   -1    0    0  501    0  0.00000000000E+00  0.00000000000E+00  0.15077398981E+04  0.15077398981E+04  0.50400001928E-02 0.  1.
       -1   -1    0    0    0  501  0.00000000000E+00  0.00000000000E+00 -0.14084076069E+04  0.14084076069E+04  0.50400001928E-02 0. -1.
    10030    2    1    2    0    0  0.00000000000E+00  0.00000000000E+00  0.99332291170E+02  0.29161475050E+04  0.29144552436E+04 0.  0.
        3    1    3    3  502    0 -0.21008431055E+03  0.16356816357E+03  0.14831956180E+04  0.15069038500E+04  0.10100000352E+00 0.  1.
       -3    1    3    3    0  502  0.21008431055E+03 -0.16356816357E+03 -0.13838633268E+04  0.14092436550E+04  0.10100000352E+00 0. -1.
</event>
<event>
 5   0  0.9443352E-08  0.2900251E+04  0.7818609E-02  0.8272803E-01
        1   -1    0    0  501    0  0.00000000000E+00  0.00000000000E+00  0.13697114590E+04  0.13697114590E+04  0.50400001928E-02 0.  1.
       -1   -1    0    0    0  501  0.00000000000E+00  0.00000000000E+00 -0.15352602091E+04  0.15352602091E+04  0.50400001928E-02 0. -1.
    10030    2    1    2    0    0  0.00000000000E+00  0.00000000000E+00 -0.16554875006E+03  0.29049716682E+04  0.29002506795E+04 0.  0.
        4    1    3    3  502    0  0.85989449674E+03  0.19979172070E+03 -0.12350933218E+04  0.15181542753E+04  0.12699999809E+01 0. -1.
       -4    1    3    3    0  502 -0.85989449674E+03 -0.19979172070E+03  0.10695445718E+04  0.13868173928E+04  0.12699999809E+01 0.  1.
</event>
<event>
 5   0  0.2608591E-07  0.2899928E+04  0.7818609E-02  0.8272899E-01
        2   -1    0    0  501    0  0.00000000000E+00  0.00000000000E+00  0.18058887705E+04  0.18058887705E+04  0.25500000920E-02 0. -1.
       -2   -1    0    0    0  501  0.00000000000E+00  0.00000000000E+00 -0.11641885849E+04  0.11641885849E+04  0.25500000920E-02 0.  1.
    10030    2    1    2    0    0  0.00000000000E+00  0.00000000000E+00  0.64170018557E+03  0.29700773554E+04  0.28999276489E+04 0.  0.
        2    1    3    3  502    0 -0.27336622804E+03 -0.12836353209E+04  0.95215874633E+03  0.16214360949E+04  0.25500000920E-02 0.  1.
       -2    1    3    3    0  502  0.27336622804E+03  0.12836353209E+04 -0.31045856076E+03  0.13486412605E+04  0.25500000920E-02 0. -1.
</event>
<event>
 5   0  0.2678723E-07  0.2900713E+04  0.7818609E-02  0.8272665E-01
        2   -1    0    0  501    0  0.00000000000E+00  0.00000000000E+00  0.19628570718E+04  0.19628570718E+04  0.25500000920E-02 0. -1.
       -2   -1    0    0    0  501  0.00000000000E+00  0.00000000000E+00 -0.10716693892E+04  0.10716693892E+04  0.25500000920E-02 0.  1.
    10030    2    1    2    0    0  0.00000000000E+00  0.00000000000E+00  0.89118768265E+03  0.30345264610E+04  0.29007129049E+04 0.  0.
        5    1    3    3  502    0  0.80869449354E+03 -0.54486702680E+03  0.15687339744E+04  0.18471099678E+04  0.46999998093E+01 0. -1.
       -5    1    3    3    0  502 -0.80869449354E+03  0.54486702680E+03 -0.67754629174E+03  0.11874164932E+04  0.46999998093E+01 0.  1.
</event>
<event>
 5   0  0.2534588E-07  0.2898980E+04  0.7818609E-02  0.8273181E-01
        2   -1    0    0  501    0  0.00000000000E+00  0.00000000000E+00  0.21160532721E+04  0.21160532721E+04  0.25500000920E-02 0.  1.
       -2   -1    0    0    0  501  0.00000000000E+00  0.00000000000E+00 -0.99289597705E+03  0.99289597705E+03  0.25500000920E-02 0. -1.
    10030    2    1    2    0    0  0.00000000000E+00  0.00000000000E+00  0.11231572951E+04  0.31089492492E+04  0.28989796696E+04 0.  0.
        3    1    3    3  502    0 -0.93208361074E+03  0.10907432612E+04  0.78271765437E+03  0.16343646031E+04  0.10100000352E+00 0. -1.
       -3    1    3    3    0  502  0.93208361074E+03 -0.10907432612E+04  0.34043964072E+03  0.14745846461E+04  0.10100000352E+00 0.  1.
</event>
<event>
 5   0  0.2678723E-07  0.2906974E+04  0.7818609E-02  0.8270805E-01
       -2   -1    0    0    0  501  0.00000000000E+00  0.00000000000E+00  0.18207787708E+04  0.18207787708E+04  0.25500000920E-02 0.  1.
        2   -1    0    0  501    0  0.00000000000E+00  0.00000000000E+00 -0.11602864181E+04  0.11602864181E+04  0.25500000920E-02 0. -1.
    10030    2    1    2    0    0  0.00000000000E+00  0.00000000000E+00  0.66049235272E+03  0.29810651889E+04  0.29069742883E+04 0.  0.
        5    1    3    3  502    0  0.74497469161E+02 -0.37836680757E+03  0.17673529123E+04  0.18089416023E+04  0.46999998093E+01 0.  1.
       -5    1    3    3    0  502 -0.74497469161E+02  0.37836680757E+03 -0.11068605596E+04  0.11721235866E+04  0.46999998093E+01 0. -1.
</event>
<event>
 5   0  0.9443352E-08  0.2899543E+04  0.7818609E-02  0.8273013E-01
        1   -1    0    0  501    0  0.00000000000E+00  0.00000000000E+00  0.13551375422E+04  0.13551375422E+04  0.50400001928E-02 0. -1.
       -1   -1    0    0    0  501  0.00000000000E+00  0.00000000000E+00 -0.15510145517E+04  0.15510145517E+04  0.50400001928E-02 0.  1.
    10030    2    1    2    0    0  0.00000000000E+00  0.00000000000E+00 -0.19587700949E+03  0.29061520939E+04  0.28995434451E+04 0.  0.
        4    1    3    3  502    0  0.87185335438E+03  0.92954021618E+03 -0.79064552337E+03  0.14997650621E+04  0.12699999809E+01 0.  1.
       -4    1    3    3    0  502 -0.87185335438E+03 -0.92954021618E+03  0.59476851387E+03  0.14063870317E+04  0.12699999809E+01 0. -1.
</event>
<event>
 5   0  0.9388076E-08  0.2913878E+04  0.7818609E-02  0.8268760E-01
        1   -1    0    0  501    0  0.00000000000E+00  0.00000000000E+00  0.19678949566E+04  0.19678949566E+04  0.50400001928E-02 0.  1.
       -1   -1    0    0    0  501  0.00000000000E+00  0.00000000000E+00 -0.10786509729E+04  0.10786509729E+04  0.50400001928E-02 0. -1.
    10030    2    1    2    0    0  0.00000000000E+00  0.00000000000E+00  0.88924398372E+03  0.30465459295E+04  0.29138783842E+04 0.  0.
        5    1    3    3  502    0  0.13379436317E+04  0.43913866401E+03  0.83542324495E+03  0.16373423637E+04  0.46999998093E+01 0.  1.
       -5    1    3    3    0  502 -0.13379436317E+04 -0.43913866401E+03  0.53820738773E+02  0.14092035658E+04  0.46999998093E+01 0. -1.
</event>
<event>
 5   0  0.9763851E-08  0.2899681E+04  0.7818609E-02  0.8272972E-01
       -1   -1    0    0    0  501  0.00000000000E+00  0.00000000000E+00  0.10880247347E+04  0.10880247347E+04  0.50400001928E-02 0. -1.
        1   -1    0    0  501    0  0.00000000000E+00  0.00000000000E+00 -0.19319755871E+04  0.19319755871E+04  0.50400001928E-02 0.  1.
    10030    2    1    2    0    0  0.00000000000E+00  0.00000000000E+00 -0.84395085237E+03  0.30200003218E+04  0.28996808277E+04 0.  0.
        3    1    3    3  502    0 -0.14396926043E+04  0.12470310604E+03 -0.29975373257E+03  0.14758448326E+04  0.10100000352E+00 0. -1.
       -3    1    3    3    0  502  0.14396926043E+04 -0.12470310604E+03 -0.54419711980E+03  0.15441554892E+04  0.10100000352E+00 0.  1.
</event>
<event>
 5   0  0.9388076E-08  0.2896662E+04  0.7818609E-02  0.8273871E-01
       -1   -1    0    0    0  501  0.00000000000E+00  0.00000000000E+00  0.17793274186E+04  0.17793274186E+04  0.50400001928E-02 0. -1.
        1   -1    0    0  501    0  0.00000000000E+00  0.00000000000E+00 -0.11789076646E+04  0.11789076647E+04  0.50400001928E-02 0.  1.
    10030    2    1    2    0    0  0.00000000000E+00  0.00000000000E+00  0.60041975395E+03  0.29582350833E+04  0.28966620319E+04 0.  0.
        5    1    3    3  502    0  0.19495721290E+03 -0.12437672415E+04  0.10314433873E+04  0.16275327392E+04  0.46999998093E+01 0. -1.
       -5    1    3    3    0  502 -0.19495721290E+03  0.12437672415E+04 -0.43102363336E+03  0.13307023441E+04  0.46999998093E+01 0.  1.
</event>
<event>
 5   0  0.2608591E-07  0.2900635E+04  0.7818609E-02  0.8272689E-01
        2   -1    0    0  501    0  0.00000000000E+00  0.00000000000E+00  0.11936941528E+04  0.11936941528E+04  0.25500000920E-02 0. -1.
       -2   -1    0    0    0  501  0.00000000000E+00  0.00000000000E+00 -0.17621103643E+04  0.17621103643E+04  0.25500000920E-02 0.  1.
    10030    2    1    2    0    0  0.00000000000E+00  0.00000000000E+00 -0.56841621146E+03  0.29558045171E+04  0.29006349915E+04 0.  0.
        2    1    3    3  502    0  0.11962049042E+04 -0.79567802743E+03 -0.48650636163E+03  0.15168052400E+04  0.25500000920E-02 0.  1.
       -2    1    3    3    0  502 -0.11962049042E+04  0.79567802743E+03 -0.81909849833E+02  0.14389992771E+04  0.25500000920E-02 0. -1.
</event>
<event>
 5   0  0.2534588E-07  0.2894448E+04  0.7818609E-02  0.8274531E-01
       -2   -1    0    0    0  501  0.00000000000E+00  0.00000000000E+00  0.13272130836E+04  0.13272130836E+04  0.25500000920E-02 0.  1.
        2   -1    0    0  501    0  0.00000000000E+00  0.00000000000E+00 -0.15780862383E+04  0.15780862383E+04  0.25500000920E-02 0. -1.
    10030    2    1    2    0    0  0.00000000000E+00  0.00000000000E+00 -0.25087315468E+03  0.29052993219E+04  0.28944475829E+04 0.  0.
        3    1    3    3  502    0  0.68860665531E+03 -0.35435769952E+03  0.11017296662E+04  0.13466836200E+04  0.10100000352E+00 0.  1.
       -3    1    3    3    0  502 -0.68860665531E+03  0.35435769952E+03 -0.13526028208E+04  0.15586157019E+04  0.10100000352E+00 0. -1.
</event>
<event>
 5   0  0.2534588E-07  0.2900625E+04  0.7818609E-02  0.8272691E-01
       -2   -1    0    0    0  501  0.00000000000E+00  0.00000000000E+00  0.14539526868E+04  0.14539526868E+04  0.25500000920E-02 0. -1.
        2   -1    0    0  501    0  0.00000000000E+00  0.00000000000E+00 -0.14466816371E+04  0.14466816371E+04  0.25500000920E-02 0.  1.
    10030    2    1    2    0    0  0.00000000000E+00  0.00000000000E+00  0.72710496835E+01  0.29006343239E+04  0.29006252107E+04 0.  0.
        3    1    3    3  502    0  0.82527207114E+02 -0.11088080595E+03 -0.14400799758E+04  0.14466981856E+04  0.10100000352E+00 0.  1.
       -3    1    3    3    0  502 -0.82527207114E+02  0.11088080595E+03  0.14473510255E+04  0.14539361383E+04  0.10100000352E+00 0. -1.
</event>
<event>
 5   0  0.9395744E-08  0.2899138E+04  0.7818609E-02  0.8273134E-01
        1   -1    0    0  501    0  0.00000000000E+00  0.00000000000E+00  0.13417369403E+04  0.13417369403E+04  0.50400001928E-02 0.  1.
       -1   -1    0    0    0  501  0.00000000000E+00  0.00000000000E+00 -0.15660669592E+04  0.15660669593E+04  0.50400001928E-02 0. -1.
    10030    2    1    2    0    0  0.00000000000E+00  0.00000000000E+00 -0.22433001896E+03  0.29078038995E+04  0.28991377271E+04 0.  0.
        2    1    3    3  502    0 -0.71086225352E+03  0.46035425184E+03 -0.12921163817E+04  0.15449323366E+04  0.25500000920E-02 0. -1.
       -2    1    3    3    0  502  0.71086225352E+03 -0.46035425184E+03  0.10677863628E+04  0.13628715630E+04  0.25500000920E-02 0.  1.
</event>
<event>
 5   0  0.2492232E-07  0.2900210E+04  0.7818609E-02  0.8272815E-01
        2   -1    0    0  501    0  0.00000000000E+00  0.00000000000E+00  0.17763457300E+04  0.17763457300E+04  0.25500000920E-02 0. -1.
       -2   -1    0    0    0  501  0.00000000000E+00  0.00000000000E+00 -0.11837812081E+04  0.11837812081E+04  0.25500000920E-02 0.  1.
    10030    2    1    2    0    0  0.00000000000E+00  0.00000000000E+00  0.59256452188E+03  0.29601269381E+04  0.29002101264E+04 0.  0.
        4    1    3    3  502    0 -0.55017323583E+03 -0.60614096935E+03 -0.92540305072E+03  0.12355038986E+04  0.12699999809E+01 0.  1.
       -4    1    3    3    0  502  0.55017323583E+03  0.60614096935E+03  0.15179675726E+04  0.17246230395E+04  0.12699999809E+01 0. -1.
</event>
<event>
 5   0  0.2534588E-07  0.2897517E+04  0.7818609E-02  0.8273617E-01
        2   -1    0    0  501    0  0.00000000000E+00  0.00000000000E+00  0.20398899678E+04  0.20398899678E+04  0.25500000920E-02 0. -1.
       -2   -1    0    0    0  501  0.00000000000E+00  0.00000000000E+00 -0.10289283599E+04  0.10289283599E+04  0.25500000920E-02 0.  1.
    10030    2    1    2    0    0  0.00000000000E+00  0.00000000000E+00  0.10109616079E+04  0.30688183276E+04  0.28975166187E+04 0.  0.
        3    1    3    3  502    0 -0.56012913174E+02 -0.14469110185E+04  0.55528971549E+03  0.15508177263E+04  0.10100000352E+00 0. -1.
       -3    1    3    3    0  502  0.56012913174E+02  0.14469110185E+04  0.45567189243E+03  0.15180006013E+04  0.10100000352E+00 0.  1.
</event>
<event>
 5   0  0.2534588E-07  0.2899915E+04  0.7818609E-02  0.8272903E-01
        2   -1    0    0  501    0  0.00000000000E+00  0.00000000000E+00  0.23036101319E+04  0.23036101319E+04  0.25500000920E-02 0.  1.
       -2   -1    0    0    0  501  0.00000000000E+00  0.00000000000E+00 -0.91264439880E+03  0.91264439881E+03  0.25500000920E-02 0. -1.
    10030    2    1    2    0    0  0.00000000000E+00  0.00000000000E+00  0.13909657331E+04  0.32162545307E+04  0.28999150911E+04 0.  0.
        3    1    3    3  502    0  0.12940041611E+04  0.60904362624E+03  0.43070164049E+03  0.14936146829E+04  0.10100000352E+00 0.  1.
       -3    1    3    3    0  502 -0.12940041611E+04 -0.60904362624E+03  0.96026409259E+03  0.17226398478E+04  0.10100000352E+00 0. -1.
</event>
<event>
 5   0  0.2534588E-07  0.2901448E+04  0.7818609E-02  0.8272447E-01
        2   -1    0    0  501    0  0.00000000000E+00  0.00000000000E+00  0.16176234878E+04  0.16176234878E+04  0.25500000920E-02 0.  1.
       -2   -1    0    0    0  501  0.00000000000E+00  0.00000000000E+00 -0.13010442746E+04  0.13010442746E+04  0.25500000920E-02 0. -1.
    10030    2    1    2    0    0  0.00000000000E+00  0.00000000000E+00  0.31657921314E+03  0.29186677624E+04  0.29014477609E+04 0.  0.
        3    1    3    3  502    0  0.10765168291E+04 -0.97152601245E+03  0.20153885542E+03  0.14640249986E+04  0.10100000352E+00 0. -1.
       -3    1    3    3    0  502 -0.10765168291E+04  0.97152601245E+03  0.11504035773E+03  0.14546427638E+04  0.10100000352E+00 0.  1.
</event>
<event>
 5   0  0.2678723E-07  0.2900528E+04  0.7818609E-02  0.8272720E-01
       -2   -1    0    0    0  501  0.00000000000E+00  0.00000000000E+00  0.24332990239E+04  0.24332990239E+04  0.25500000920E-02 0.  1.
        2   -1    0    0  501    0  0.00000000000E+00  0.00000000000E+00 -0.86436822961E+03  0.86436822962E+03  0.25500000920E-02 0. -1.
    10030    2    1    2    0    0  0.00000000000E+00  0.00000000000E+00  0.15689307943E+04  0.32976672535E+04  0.29005284825E+04 0.  0.
        5    1    3    3  502    0 -0.11878081666E+04  0.61102303643E+03  0.14266054022E+04  0.19543445079E+04  0.46999998093E+01 0. -1.
       -5    1    3    3    0  502  0.11878081666E+04 -0.61102303643E+03  0.14232539205E+03  0.13433227456E+04  0.46999998093E+01 0.  1.
</event>
<event>
 5   0  0.9763851E-08  0.2906727E+04  0.7818609E-02  0.8270879E-01
        1   -1    0    0  501    0  0.00000000000E+00  0.00000000000E+00  0.11271404727E+04  0.11271404727E+04  0.50400001928E-02 0. -1.
       -1   -1    0    0    0  501  0.00000000000E+00  0.00000000000E+00 -0.18740034485E+04  0.18740034485E+04  0.50400001928E-02 0.  1.
    10030    2    1    2    0    0  0.00000000000E+00  0.00000000000E+00 -0.74686297587E+03  0.30011439212E+04  0.29067267727E+04 0.  0.
        3    1    3    3  502    0  0.61216673262E+03 -0.12758605144E+03 -0.17280068663E+04  0.18376708218E+04  0.10100000352E+00 0.  1.
       -3    1    3    3    0  502 -0.61216673262E+03  0.12758605144E+03  0.98114389047E+03  0.11634730994E+04  0.10100000352E+00 0. -1.
</event>
<event>
 5   0  0.9395744E-08  0.2898767E+04  0.7818609E-02  0.8273245E-01
        1   -1    0    0  501    0  0.00000000000E+00  0.00000000000E+00  0.16850970199E+04  0.16850970199E+04  0.50400001928E-02 0. -1.
       -1   -1    0    0    0  501  0.00000000000E+00  0.00000000000E+00 -0.12466416033E+04  0.12466416033E+04  0.50400001928E-02 0.  1.
    10030    2    1    2    0    0  0.00000000000E+00  0.00000000000E+00  0.43845541655E+03  0.29317386232E+04  0.28987666692E+04 0.  0.
        2    1    3    3  502    0 -0.74569156815E+03 -0.58344505296E+03  0.13290922009E+04  0.16318548107E+04  0.25500000920E-02 0. -1.
       -2    1    3    3    0  502  0.74569156815E+03  0.58344505296E+03 -0.89063678432E+03  0.12998838126E+04  0.25500000920E-02 0.  1.
</event>
<event>
 5   0  0.9443352E-08  0.2900265E+04  0.7818609E-02  0.8272799E-01
        1   -1    0    0  501    0  0.00000000000E+00  0.00000000000E+00  0.11760136053E+04  0.11760136053E+04  0.50400001928E-02 0.  1.
       -1   -1    0    0    0  501  0.00000000000E+00  0.00000000000E+00 -0.17881456952E+04  0.17881456952E+04  0.50400001928E-02 0. -1.
    10030    2    1    2    0    0  0.00000000000E+00  0.00000000000E+00 -0.61213208995E+03  0.29641593005E+04  0.29002645851E+04 0.  0.
        4    1    3    3  502    0 -0.76545275187E+03  0.10233937636E+04 -0.10064586180E+04  0.16267185600E+04  0.12699999809E+01 0. -1.
       -4    1    3    3    0  502  0.76545275187E+03 -0.10233937636E+04  0.39432652809E+03  0.13374407405E+04  0.12699999809E+01 0.  1.
</event>
<event>
 5   0  0.2534588E-07  0.2889596E+04  0.7818609E-02  0.8275980E-01
       -2   -1    0    0    0  501  0.00000000000E+00  0.00000000000E+00  0.10775121346E+04  0.10775121346E+04  0.25500000920E-02 0.  1.
        2   -1    0    0  501    0  0.00000000000E+00  0.00000000000E+00 -0.19372790241E+04  0.19372790241E+04  0.25500000920E-02 0. -1.
    10030    2    1    2    0    0  0.00000000000E+00  0.00000000000E+00 -0.85976688943E+03  0.30147911587E+04  0.28895962739E+04 0.  0.
        3    1    3    3  502    0 -0.39974902778E+03  0.13513127680E+04 -0.97332091131E+02  0.14125576195E+04  0.10100000352E+00 0. -1.
       -3    1    3    3    0  502  0.39974902778E+03 -0.13513127680E+04 -0.76243479830E+03  0.16022335392E+04  0.10100000352E+00 0.  1.
</event>
<event>
 5   0  0.2534588E-07  0.2899985E+04  0.7818609E-02  0.8272882E-01
        2   -1    0    0  501    0  0.00000000000E+00  0.00000000000E+00  0.12258573013E+04  0.12258573013E+04  0.25500000920E-02 0.  1.
       -2   -1    0    0    0  501  0.00000000000E+00  0.00000000000E+00 -0.17151086398E+04  0.17151086398E+04  0.25500000920E-02 0. -1.
    10030    2    1    2    0    0  0.00000000000E+00  0.00000000000E+00 -0.48925133850E+03  0.29409659410E+04  0.28999851369E+04 0.  0.
        3    1    3    3  502    0 -0.41131939918E+03 -0.98205676752E+03  0.75359044901E+03  0.13044223694E+04  0.10100000352E+00 0. -1.
       -3    1    3    3    0  502  0.41131939918E+03  0.98205676752E+03 -0.12428417875E+04  0.16365435716E+04  0.10100000352E+00 0.  1.
</event>
<event>
 5   0  0.2546841E-07  0.2900099E+04  0.7818609E-02  0.8272848E-01
       -2   -1    0    0    0  501  0.00000000000E+00  0.00000000000E+00  0.15567425486E+04  0.15567425486E+04  0.25500000920E-02 0. -1.
        2   -1    0    0  501    0  0.00000000000E+00  0.00000000000E+00 -0.13506690639E+04  0.13506690639E+04  0.25500000920E-02 0.  1.
    10030    2    1    2    0    0  0.00000000000E+00  0.00000000000E+00  0.20607348473E+03  0.29074116126E+04  0.29000993093E+04 0.  0.
        1    1    3    3  502    0 -0.11748752158E+04  0.14110429489E+02 -0.74887826706E+03  0.13933231986E+04  0.50400001928E-02 0.  1.
       -1    1    3    3    0  502  0.11748752158E+04 -0.14110429489E+02  0.95495175178E+03  0.15140884139E+04  0.50400001928E-02 0. -1.
</event>
<event>
 5   0  0.9421924E-08  0.2900398E+04  0.7818609E-02  0.8272759E-01
        1   -1    0    0  501    0  0.00000000000E+00  0.00000000000E+00  0.13289636298E+04  0.13289636298E+04  0.50400001928E-02 0.  1.
       -1   -1    0    0    0  501  0.00000000000E+00  0.00000000000E+00 -0.15824938451E+04  0.15824938451E+04  0.50400001928E-02 0. -1.
    10030    2    1    2    0    0  0.00000000000E+00  0.00000000000E+00 -0.25353021530E+03  0.29114574750E+04  0.29003977414E+04 0.  0.
        1    1    3    3  502    0  0.50357716673E+03  0.13599116489E+04 -0.13808236236E+03  0.14567142460E+04  0.50400001928E-02 0.  1.
       -1    1    3    3    0  502 -0.50357716673E+03 -0.13599116489E+04 -0.11544785294E+03  0.14547432290E+04  0.50400001928E-02 0. -1.
</event>
<event>
 5   0  0.2608591E-07  0.2899540E+04  0.7818609E-02  0.8273014E-01
       -2   -1    0    0    0  501  0.00000000000E+00  0.00000000000E+00  0.98506000279E+03  0.98506000280E+03  0.25500000920E-02 0.  1.
        2   -1    0    0  501    0  0.00000000000E+00  0.00000000000E+00 -0.21337111635E+04  0.21337111635E+04  0.25500000920E-02 0. -1.
    10030    2    1    2    0    0  0.00000000000E+00  0.00000000000E+00 -0.11486511607E+04  0.31187711663E+04  0.28995403254E+04 0.  0.
        2    1    3    3  502    0  0.24436242429E+03 -0.60691382182E+03  0.81723796820E+03  0.10468692746E+04  0.25500000920E-02 0.  1.
       -2    1    3    3    0  502 -0.24436242429E+03  0.60691382182E+03 -0.19658891289E+04  0.20719018917E+04  0.25500000920E-02 0. -1.
</event>
<event>
 5   0  0.2534588E-07  0.2900461E+04  0.7818609E-02  0.8272740E-01
       -2   -1    0    0    0  501  0.00000000000E+00  0.00000000000E+00  0.20767009885E+04  0.20767009885E+04  0.25500000920E-02 0. -1.
        2   -1    0    0  501    0  0.00000000000E+00  0.00000000000E+00 -0.10127450677E+04  0.10127450677E+04  0.25500000920E-02 0.  1.
    10030    2    1    2    0    0  0.00000000000E+00  0.00000000000E+00  0.10639559208E+04  0.30894460563E+04  0.29004611242E+04 0.  0.
        3    1    3    3  502    0  0.91304938604E+03  0.99721680579E+03  0.10906201205E+04  0.17371104733E+04  0.10100000352E+00 0.  1.
       -3    1    3    3    0  502 -0.91304938604E+03 -0.99721680579E+03 -0.26664199737E+02  0.13523355829E+04  0.10100000352E+00 0. -1.
</event>
<event>
 5   0  0.9421924E-08  0.2898707E+04  0.7818609E-02  0.8273262E-01
        1   -1    0    0  501    0  0.00000000000E+00  0.00000000000E+00  0.16189785212E+04  0.16189785212E+04  0.50400001928E-02 0.  1.
       -1   -1    0    0    0  501  0.00000000000E+00  0.00000000000E+00 -0.12975007084E+04  0.12975007084E+04  0.50400001928E-02 0. -1.
    10030    2    1    2    0    0  0.00000000000E+00  0.00000000000E+00  0.32147781271E+03  0.29164792296E+04  0.28987071450E+04 0.  0.
        1    1    3    3  502    0 -0.74439081559E+03 -0.23244005916E+03 -0.10684220730E+04  0.13227515993E+04  0.50400001928E-02 0. -1.
       -1    1    3    3    0  502  0.74439081559E+03  0.23244005916E+03  0.13898998857E+04  0.15937276303E+04  0.50400001928E-02 0.  1.
</event>
<event>
 5   0  0.2492232E-07  0.2899208E+04  0.7818609E-02  0.8273113E-01
        2   -1    0    0  501    0  0.00000000000E+00  0.00000000000E+00  0.14495776486E+04  0.14495776486E+04  0.25500000920E-02 0. -1.
       -2   -1    0    0    0  501  0.00000000000E+00  0.00000000000E+00 -0.14496306439E+04  0.14496306439E+04  0.25500000920E-02 0.  1.
    10030    2    1    2    0    0  0.00000000000E+00  0.00000000000E+00 -0.52995322675E-01  0.28992082925E+04  0.28992082921E+04 0.  0.
        4    1    3    3  502    0  0.12180084140E+04 -0.20355103179E+03  0.75916586816E+03  0.14495902688E+04  0.12699999809E+01 0. -1.
       -4    1    3    3    0  502 -0.12180084140E+04  0.20355103179E+03 -0.75921886348E+03  0.14496180237E+04  0.12699999809E+01 0.  1.
</event>
<event>
 5   0  0.8407500E-08  0.2899214E+04  0.7818609E-02  0.8273111E-01
        3   -1    0    0  501    0  0.00000000000E+00  0.00000000000E+00  0.18967453955E+04  0.18967453982E+04  0.10100000352E+00 0. -1.
       -3   -1    0    0    0  501  0.00000000000E+00  0.00000000000E+00 -0.11078770168E+04  0.11078770214E+04  0.10100000352E+00 0.  1.
    10030    2    1    2    0    0  0.00000000000E+00  0.00000000000E+00  0.78886837873E+03  0.30046224195E+04  0.28992141289E+04 0.  0.
        1    1    3    3  502    0  0.23573661364E+02 -0.80585818807E+03 -0.85410677786E+03  0.11745047998E+04  0.50400001928E-02 0.  1.
       -1    1    3    3    0  502 -0.23573661364E+02  0.80585818807E+03  0.16429751566E+04  0.18301176197E+04  0.50400001928E-02 0. -1.
</event>
<event>
 5   0  0.2678723E-07  0.2878706E+04  0.7818609E-02  0.8279241E-01
       -2   -1    0    0    0  501  0.00000000000E+00  0.00000000000E+00  0.71641293164E+03  0.71641293165E+03  0.25500000920E-02 0. -1.
        2   -1    0    0  501    0  0.00000000000E+00  0.00000000000E+00 -0.28918204868E+04  0.28918204868E+04  0.25500000920E-02 0.  1.
    10030    2    1    2    0    0  0.00000000000E+00  0.00000000000E+00 -0.21754075551E+04  0.36082334184E+04  0.28787063711E+04 0.  0.
        5    1    3    3  502    0  0.83132589399E+03 -0.11259174843E+04 -0.66650446845E+03  0.15501752223E+04  0.46999998093E+01 0. -1.
       -5    1    3    3    0  502 -0.83132589399E+03  0.11259174843E+04 -0.15089030867E+04  0.20580581961E+04  0.46999998093E+01 0.  1.
</event>
<event>
 5   0  0.2492232E-07  0.2900376E+04  0.7818609E-02  0.8272766E-01
       -2   -1    0    0    0  501  0.00000000000E+00  0.00000000000E+00  0.12823788323E+04  0.12823788323E+04  0.25500000920E-02 0.  1.
        2   -1    0    0  501    0  0.00000000000E+00  0.00000000000E+00 -0.16399561072E+04  0.16399561072E+04  0.25500000920E-02 0. -1.
    10030    2    1    2    0    0  0.00000000000E+00  0.00000000000E+00 -0.35757727492E+03  0.29223349395E+04  0.29003758362E+04 0.  0.
        4    1    3    3  502    0  0.57172522309E+03 -0.68551773494E+03 -0.13303499081E+04  0.16020726533E+04  0.12699999809E+01 0. -1.
       -4    1    3    3    0  502 -0.57172522309E+03  0.68551773494E+03  0.97277263318E+03  0.13202622862E+04  0.12699999809E+01 0.  1.
</event>
<event>
 5   0  0.2534588E-07  0.2899102E+04  0.7818609E-02  0.8273145E-01
       -2   -1    0    0    0  501  0.00000000000E+00  0.00000000000E+00  0.10478743240E+04  0.10478743240E+04  0.25500000920E-02 0. -1.
        2   -1    0    0  501    0  0.00000000000E+00  0.00000000000E+00 -0.20052004950E+04  0.20052004950E+04  0.25500000920E-02 0.  1.
    10030    2    1    2    0    0  0.00000000000E+00  0.00000000000E+00 -0.95732617100E+03  0.30530748190E+04  0.28991020080E+04 0.  0.
        3    1    3    3  502    0 -0.12364137200E+03  0.55709578345E+03 -0.18819324374E+04  0.19665484001E+04  0.10100000352E+00 0.  1.
       -3    1    3    3    0  502  0.12364137200E+03 -0.55709578345E+03  0.92460626644E+03  0.10865264189E+04  0.10100000352E+00 0. -1.
</event>
<event>
 5   0  0.2534588E-07  0.2899540E+04  0.7818609E-02  0.8273014E-01
       -2   -1    0    0    0  501  0.00000000000E+00  0.00000000000E+00  0.11295374132E+04  0.11295374133E+04  0.25500000920E-02 0. -1.
        2   -1    0    0  501    0  0.00000000000E+00  0.00000000000E+00 -0.18607906373E+04  0.18607906373E+04  0.25500000920E-02 0.  1.
    10030    2    1    2    0    0  0.00000000000E+00  0.00000000000E+00 -0.73125322402E+03  0.29903280505E+04  0.28995397173E+04 0.  0.
        3    1    3    3  502    0  0.13693926739E+04  0.13825586640E+03 -0.83539049346E+03  0.16100398339E+04  0.10100000352E+00 0. -1.
       -3    1    3    3    0  502 -0.13693926739E+04 -0.13825586640E+03  0.10413726944E+03  0.13802882166E+04  0.10100000352E+00 0.  1.
</event>
<event>
 5   0  0.2492232E-07  0.2899986E+04  0.7818609E-02  0.8272882E-01
       -2   -1    0    0    0  501  0.00000000000E+00  0.00000000000E+00  0.17442220584E+04  0.17442220584E+04  0.25500000920E-02 0. -1.
        2   -1    0    0  501    0  0.00000000000E+00  0.00000000000E+00 -0.12053971405E+04  0.12053971405E+04  0.25500000920E-02 0.  1.
    10030    2    1    2    0    0  0.00000000000E+00  0.00000000000E+00  0.53882491791E+03  0.29496191988E+04  0.28999864010E+04 0.  0.
        4    1    3    3  502    0  0.99657372519E+02  0.78386507360E+03  0.15059926463E+04  0.17007032396E+04  0.12699999809E+01 0. -1.
       -4    1    3    3    0  502 -0.99657372519E+02 -0.78386507360E+03 -0.96716772839E+03  0.12489159592E+04  0.12699999809E+01 0.  1.
</event>
<event>
 5   0  0.2534588E-07  0.2900305E+04  0.7818609E-02  0.8272787E-01
        2   -1    0    0  501    0  0.00000000000E+00  0.00000000000E+00  0.15342414414E+04  0.15342414414E+04  0.25500000920E-02 0.  1.
       -2   -1    0    0    0  501  0.00000000000E+00  0.00000000000E+00 -0.13706727135E+04  0.13706727135E+04  0.25500000920E-02 0. -1.
    10030    2    1    2    0    0  0.00000000000E+00  0.00000000000E+00  0.16356872790E+03  0.29049141549E+04  0.29003054181E+04 0.  0.
        3    1    3    3  502    0  0.69411787271E+03 -0.12283923060E+04 -0.25370400139E+03  0.14335665346E+04  0.10100000352E+00 0.  1.
       -3    1    3    3    0  502 -0.69411787271E+03  0.12283923060E+04  0.41727272929E+03  0.14713476202E+04  0.10100000352E+00 0. -1.
</event>
<event>
 5   0  0.9388076E-08  0.2899822E+04  0.7818609E-02  0.8272930E-01
       -1   -1    0    0    0  501  0.00000000000E+00  0.00000000000E+00  0.12465952662E+04  0.12465952662E+04  0.50400001928E-02 0. -1.
        1   -1    0    0  501    0  0.00000000000E+00  0.00000000000E+00 -0.16863866456E+04  0.16863866457E+04  0.50400001928E-02 0.  1.
    10030    2    1    2    0    0  0.00000000000E+00  0.00000000000E+00 -0.43979137947E+03  0.29329819118E+04  0.28998217941E+04 0.  0.
        5    1    3    3  502    0  0.96548410772E+03 -0.10429144467E+04 -0.51021356844E+03  0.15100232054E+04  0.46999998093E+01 0. -1.
       -5    1    3    3    0  502 -0.96548410772E+03  0.10429144467E+04  0.70422188968E+02  0.14229587064E+04  0.46999998093E+01 0.  1.
</event>
<event>
 5   0  0.2546841E-07  0.2902108E+04  0.7818609E-02  0.8272250E-01
        2   -1    0    0  501    0  0.00000000000E+00  0.00000000000E+00  0.13882132279E+04  0.13882132279E+04  0.25500000920E-02 0.  1.
       -2   -1    0    0    0  501  0.00000000000E+00  0.00000000000E+00 -0.15167397016E+04  0.15167397016E+04  0.25500000920E-02 0. -1.
    10030    2    1    2    0    0  0.00000000000E+00  0.00000000000E+00 -0.12852647369E+03  0.29049529294E+04  0.29021082798E+04 0.  0.
        1    1    3    3  502    0  0.15657918878E+03 -0.22657682131E+03  0.13618100449E+04  0.13893814079E+04  0.50400001928E-02 0.  1.
       -1    1    3    3    0  502 -0.15657918878E+03  0.22657682131E+03 -0.14903365185E+04  0.15155715215E+04  0.50400001928E-02 0. -1.
</event>
<event>
 5   0  0.9763851E-08  0.2899574E+04  0.7818609E-02  0.8273004E-01
        1   -1    0    0  501    0  0.00000000000E+00  0.00000000000E+00  0.10894575440E+04  0.10894575440E+04  0.50400001928E-02 0.  1.
       -1   -1    0    0    0  501  0.00000000000E+00  0.00000000000E+00 -0.19292925495E+04  0.19292925495E+04  0.50400001928E-02 0. -1.
    10030    2    1    2    0    0  0.00000000000E+00  0.00000000000E+00 -0.83983500551E+03  0.30187500935E+04  0.28995739843E+04 0.  0.
        3    1    3    3  502    0 -0.20327578540E+03  0.47028199707E+03  0.99206917451E+03  0.11165515926E+04  0.10100000352E+00 0.  1.
       -3    1    3    3    0  502  0.20327578540E+03 -0.47028199707E+03 -0.18319041800E+04  0.19021985009E+04  0.10100000352E+00 0. -1.
</event>
<event>
 5   0  0.2492232E-07  0.2899872E+04  0.7818609E-02  0.8272915E-01
        2   -1    0    0  501    0  0.00000000000E+00  0.00000000000E+00  0.25832505817E+04  0.25832505817E+04  0.25500000920E-02 0.  1.
       -2   -1    0    0    0  501  0.00000000000E+00  0.00000000000E+00 -0.81382544521E+03  0.81382544521E+03  0.25500000920E-02 0. -1.
    10030    2    1    2    0    0  0.00000000000E+00  0.00000000000E+00  0.17694251365E+04  0.33970760269E+04  0.28998724488E+04 0.  0.
        4    1    3    3  502    0  0.87126682396E+03  0.17623194753E+03 -0.45718105959E+03  0.99958977186E+03  0.12699999809E+01 0. -1.
       -4    1    3    3    0  502 -0.87126682396E+03 -0.17623194753E+03  0.22266061961E+04  0.23974862551E+04  0.12699999809E+01 0.  1.
</event>
<event>
 5   0  0.2492232E-07  0.2896625E+04  0.7818609E-02  0.8273882E-01
       -2   -1    0    0    0  501  0.00000000000E+00  0.00000000000E+00  0.73323658198E+03  0.73323658199E+03  0.25500000920E-02 0.  1.
        2   -1    0    0  501    0  0.00000000000E+00  0.00000000000E+00 -0.28607538914E+04  0.28607538914E+04  0.25500000920E-02 0. -1.
    10030    2    1    2    0    0  0.00000000000E+00  0.00000000000E+00 -0.21275173094E+04  0.35939904734E+04  0.28966252123E+04 0.  0.
        4    1    3    3  502    0  0.12209042495E+04 -0.52688856981E+03 -0.35166160271E+03  0.13754585589E+04  0.12699999809E+01 0. -1.
       -4    1    3    3    0  502 -0.12209042495E+04  0.52688856981E+03 -0.17758557067E+04  0.22185319144E+04  0.12699999809E+01 0.  1.
</event>
<event>
 5   0  0.2492232E-07  0.2906993E+04  0.7818609E-02  0.8270800E-01
       -2   -1    0    0    0  501  0.00000000000E+00  0.00000000000E+00  0.97714991502E+03  0.97714991503E+03  0.25500000920E-02 0.  1.
        2   -1    0    0  501    0  0.00000000000E+00  0.00000000000E+00 -0.21620547701E+04  0.21620547701E+04  0.25500000920E-02 0. -1.
    10030    2    1    2    0    0  0.00000000000E+00  0.00000000000E+00 -0.11849048550E+04  0.31392046851E+04  0.29069926968E+04 0.  0.
        4    1    3    3  502    0  0.88091156105E+03  0.10500225278E+04 -0.11149377720E+04  0.17668164409E+04  0.12699999809E+01 0.  1.
       -4    1    3    3    0  502 -0.88091156105E+03 -0.10500225278E+04 -0.69967083024E+02  0.13723882442E+04  0.12699999809E+01 0. -1.
</event>
<event>
 5   0  0.2546841E-07  0.2898192E+04  0.7818609E-02  0.8273416E-01
        2   -1    0    0  501    0  0.00000000000E+00  0.00000000000E+00  0.24596743877E+04  0.24596743877E+04  0.25500000920E-02 0.  1.
       -2   -1    0    0    0  501  0.00000000000E+00  0.00000000000E+00 -0.85372247893E+03  0.85372247893E+03  0.25500000920E-02 0. -1.
    10030    2    1    2    0    0  0.00000000000E+00  0.00000000000E+00  0.16059519088E+04  0.33133968667E+04  0.28981920679E+04 0.  0.
        1    1    3    3  502    0  0.99619786502E+03  0.36746688705E+03  0.19303734856E+04  0.22031304757E+04  0.50400001928E-02 0.  1.
       -1    1    3    3    0  502 -0.99619786502E+03 -0.36746688705E+03 -0.32442157675E+03  0.11102663909E+04  0.50400001928E-02 0. -1.
</event>
<event>
 5   0  0.9443352E-08  0.2899711E+04  0.7818609E-02  0.8272963E-01
       -1   -1    0    0    0  501  0.00000000000E+00  0.00000000000E+00  0.95883909053E+03  0.95883909054E+03  0.50400001928E-02 0.  1.
        1   -1    0    0  501    0  0.00000000000E+00  0.00000000000E+00 -0.21923186626E+04  0.21923186626E+04  0.50400001928E-02 0. -1.
    10030    2    1    2    0    0  0.00000000000E+00  0.00000000000E+00 -0.12334795720E+04  0.31511577531E+04  0.28997109046E+04 0.  0.
        4    1    3    3  502    0 -0.31509209195E+03  0.40818980942E+03  0.85581935981E+03  0.99916481947E+03  0.12699999809E+01 0.  1.
       -4    1    3    3    0  502  0.31509209195E+03 -0.40818980942E+03 -0.20892989319E+04  0.21519929337E+04  0.12699999809E+01 0. -1.
</event>
<event>
 5   0  0.9388076E-08  0.2900082E+04  0.7818609E-02  0.8272853E-01
       -1   -1    0    0    0  501  0.00000000000E+00  0.00000000000E+00  0.19302591431E+04  0.19302591431E+04  0.50400001928E-02 0. -1.
        1   -1    0    0  501    0  0.00000000000E+00  0.00000000000E+00 -0.10892938659E+04  0.10892938659E+04  0.50400001928E-02 0.  1.
    10030    2    1    2    0    0  0.00000000000E+00  0.00000000000E+00  0.84096527720E+03  0.30195530089E+04  0.29000823741E+04 0.  0.
        5    1    3    3  502    0 -0.98015807640E+03  0.10523991509E+04  0.61343707522E+03  0.15635155780E+04  0.46999998093E+01 0.  1.
       -5    1    3    3    0  502  0.98015807640E+03 -0.10523991509E+04  0.22752820198E+03  0.14560374309E+04  0.46999998093E+01 0. -1.
</event>
<event>
 5   0  0.2492232E-07  0.2899903E+04  0.7818609E-02  0.8272906E-01
        2   -1    0    0  501    0  0.00000000000E+00  0.00000000000E+00  0.18169482065E+04  0.18169482065E+04  0.25500000920E-02 0.  1.
       -2   -1    0    0    0  501  0.00000000000E+00  0.00000000000E+00 -0.11570826934E+04  0.11570826934E+04  0.25500000920E-02 0. -1.
    10030    2    1    2    0    0  0.00000000000E+00  0.00000000000E+00  0.65986551313E+03  0.29740308999E+04  0.28999029808E+04 0.  0.
        4    1    3    3  502    0  0.69772062588E+03  0.48536744789E+03 -0.87481349706E+03  0.12197113998E+04  0.12699999809E+01 0. -1.
       -4    1    3    3    0  502 -0.69772062588E+03 -0.48536744789E+03  0.15346790102E+04  0.17543195001E+04  0.12699999809E+01 0.  1.
</event>
<event>
 5   0  0.2546841E-07  0.2899846E+04  0.7818609E-02  0.8272923E-01
        2   -1    0    0  501    0  0.00000000000E+00  0.00000000000E+00  0.16829442845E+04  0.16829442845E+04  0.25500000920E-02 0. -1.
       -2   -1    0    0    0  501  0.00000000000E+00  0.00000000000E+00 -0.12491660923E+04  0.12491660923E+04  0.25500000920E-02 0.  1.
    10030    2    1    2    0    0  0.00000000000E+00  0.00000000000E+00  0.43377819220E+03  0.29321103768E+04  0.28998461582E+04 0.  0.
        1    1    3    3  502    0 -0.10085422903E+04 -0.83485067035E+03  0.84683267126E+03  0.15592494240E+04  0.50400001928E-02 0. -1.
       -1    1    3    3    0  502  0.10085422903E+04  0.83485067035E+03 -0.41305447906E+03  0.13728609528E+04  0.50400001928E-02 0.  1.
</event>
<event>
 5   0  0.2608591E-07  0.2900178E+04  0.7818609E-02  0.8272824E-01
       -2   -1    0    0    0  501  0.00000000000E+00  0.00000000000E+00  0.13751846744E+04  0.13751846744E+04  0.25500000920E-02 0. -1.
        2   -1    0    0  501    0  0.00000000000E+00  0.00000000000E+00 -0.15290733656E+04  0.15290733656E+04  0.25500000920E-02 0.  1.
    10030    2    1    2    0    0  0.00000000000E+00  0.00000000000E+00 -0.15388869119E+03  0.29042580401E+04  0.29001781038E+04 0.  0.
        2    1    3    3  502    0 -0.10613741901E+03  0.10548728213E+04 -0.10676471892E+04  0.15046236544E+04  0.25500000920E-02 0.  1.
       -2    1    3    3    0  502  0.10613741901E+03 -0.10548728213E+04  0.91375849799E+03  0.13996343857E+04  0.25500000920E-02 0. -1.
</event>
<event>
 5   0  0.2678723E-07  0.2900055E+04  0.7818609E-02  0.8272861E-01
        2   -1    0    0  501    0  0.00000000000E+00  0.00000000000E+00  0.24232820387E+04  0.24232820387E+04  0.25500000920E-02 0. -1.
       -2   -1    0    0    0  501  0.00000000000E+00  0.00000000000E+00 -0.86765783392E+03  0.86765783392E+03  0.25500000920E-02 0.  1.
    10030    2    1    2    0    0  0.00000000000E+00  0.00000000000E+00  0.15556242048E+04  0.32909398726E+04  0.29000549268E+04 0.  0.
        5    1    3    3  502    0 -0.29208732930E+03  0.11164506662E+04  0.17740867326E+04  0.21164080237E+04  0.46999998093E+01 0. -1.
       -5    1    3    3    0  502  0.29208732930E+03 -0.11164506662E+04 -0.21846252789E+03  0.11745318489E+04  0.46999998093E+01 0.  1.
</event>
<event>
 5   0  0.2608591E-07  0.2898920E+04  0.7818609E-02  0.8273199E-01
        2   -1    0    0  501    0  0.00000000000E+00  0.00000000000E+00  0.20829943878E+04  0.20829943878E+04  0.25500000920E-02 0. -1.
       -2   -1    0    0    0  501  0.00000000000E+00  0.00000000000E+00 -0.10086124865E+04  0.10086124865E+04  0.25500000920E-02 0.  1.
    10030    2    1    2    0    0  0.00000000000E+00  0.00000000000E+00  0.10743819013E+04  0.30916068743E+04  0.28989199015E+04 0.  0.
        2    1    3    3  502    0 -0.31615845041E+03  0.12870891706E+04 -0.88653870281E+02  0.13283125413E+04  0.25500000920E-02 0.  1.
       -2    1    3    3    0  502  0.31615845041E+03 -0.12870891706E+04  0.11630357716E+04  0.17632943330E+04  0.25500000920E-02 0. -1.
</event>
<event>
 5   0  0.9763851E-08  0.2900274E+04  0.7818609E-02  0.8272796E-01
        1   -1    0    0  501    0  0.00000000000E+00  0.00000000000E+00  0.14518424308E+04  0.14518424309E+04  0.50400001928E-02 0.  1.
       -1   -1    0    0    0  501  0.00000000000E+00  0.00000000000E+00 -0.14484335718E+04  0.14484335718E+04  0.50400001928E-02 0. -1.
    10030    2    1    2    0    0  0.00000000000E+00  0.00000000000E+00  0.34088590662E+01  0.29002760026E+04  0.29002739993E+04 0.  0.
        3    1    3    3  502    0  0.31524895747E+03  0.49654865838E+02  0.14162900795E+04  0.14518006442E+04  0.10100000352E+00 0.  1.
       -3    1    3    3    0  502 -0.31524895747E+03 -0.49654865838E+02 -0.14128812204E+04  0.14484753585E+04  0.10100000352E+00 0. -1.
</event>
<event>
 5   0  0.2546841E-07  0.2899894E+04  0.7818609E-02  0.8272909E-01
       -2   -1    0    0    0  501  0.00000000000E+00  0.00000000000E+00  0.20981971113E+04  0.20981971113E+04  0.25500000920E-02 0.  1.
        2   -1    0    0  501    0  0.00000000000E+00  0.00000000000E+00 -0.10019772109E+04  0.10019772109E+04  0.25500000920E-02 0. -1.
    10030    2    1    2    0    0  0.00000000000E+00  0.00000000000E+00  0.10962199003E+04  0.31001743222E+04  0.28998935770E+04 0.  0.
        1    1    3    3  502    0  0.45718187902E+03  0.69537086292E+03 -0.72123960170E+03  0.11012458720E+04  0.50400001928E-02 0. -1.
       -1    1    3    3    0  502 -0.45718187902E+03 -0.69537086292E+03  0.18174595020E+04  0.19989284502E+04  0.50400001928E-02 0.  1.
</event>
<event>
 5   0  0.9443352E-08  0.2897929E+04  0.7818609E-02  0.8273494E-01
        1   -1    0    0  501    0  0.00000000000E+00  0.00000000000E+00  0.16199109575E+04  0.16199109575E+04  0.50400001928E-02 0. -1.
       -1   -1    0    0    0  501  0.00000000000E+00  0.00000000000E+00 -0.12960581427E+04  0.12960581427E+04  0.50400001928E-02 0.  1.
    10030    2    1    2    0    0  0.00000000000E+00  0.00000000000E+00  0.32385281477E+03  0.29159691002E+04  0.28979294587E+04 0.  0.
        4    1    3    3  502    0 -0.88868451418E+03  0.71784751124E+03 -0.73493112779E+03  0.13583779263E+04  0.12699999809E+01 0.  1.
       -4    1    3    3    0  502  0.88868451418E+03 -0.71784751124E+03  0.10587839426E+04  0.15575911739E+04  0.12699999809E+01 0. -1.
</event>
<event>
 5   0  0.9443352E-08  0.2899712E+04  0.7818609E-02  0.8272963E-01
       -1   -1    0    0    0  501  0.00000000000E+00  0.00000000000E+00  0.11572818679E+04  0.11572818679E+04  0.50400001928E-02 0. -1.
        1   -1    0    0  501    0  0.00000000000E+00  0.00000000000E+00 -0.18163958237E+04  0.18163958237E+04  0.50400001928E-02 0.  1.
    10030    2    1    2    0    0  0.00000000000E+00  0.00000000000E+00 -0.65911395576E+03  0.29736776916E+04  0.28997116765E+04 0.  0.
        4    1    3    3  502    0  0.65747185732E+03 -0.47207330995E+03  0.90402217954E+03  0.12134167327E+04  0.12699999809E+01 0. -1.
       -4    1    3    3    0  502 -0.65747185732E+03  0.47207330995E+03 -0.15631361353E+04  0.17602609589E+04  0.12699999809E+01 0.  1.
</event>
<event>
 5   0  0.2534588E-07  0.2899997E+04  0.7818609E-02  0.8272878E-01
        2   -1    0    0  501    0  0.00000000000E+00  0.00000000000E+00  0.19855309741E+04  0.19855309741E+04  0.25500000920E-02 0.  1.
       -2   -1    0    0    0  501  0.00000000000E+00  0.00000000000E+00 -0.10589083637E+04  0.10589083637E+04  0.25500000920E-02 0. -1.
    10030    2    1    2    0    0  0.00000000000E+00  0.00000000000E+00  0.92662261043E+03  0.30444393378E+04  0.28999967964E+04 0.  0.
        3    1    3    3  502    0  0.14959686679E+03  0.10825008724E+04  0.14638326828E+04  0.18267439598E+04  0.10100000352E+00 0.  1.
       -3    1    3    3    0  502 -0.14959686679E+03 -0.10825008724E+04 -0.53721007238E+03  0.12176953779E+04  0.10100000352E+00 0. -1.
</event>
<event>
 5   0  0.2678723E-07  0.2900269E+04  0.7818609E-02  0.8272798E-01
       -2   -1    0    0    0  501  0.00000000000E+00  0.00000000000E+00  0.11712005286E+04  0.11712005286E+04  0.25500000920E-02 0.  1.
        2   -1    0    0  501    0  0.00000000000E+00  0.00000000000E+00 -0.17954991004E+04  0.17954991004E+04  0.25500000920E-02 0. -1.
    10030    2    1    2    0    0  0.00000000000E+00  0.00000000000E+00 -0.62429857171E+03  0.29666996290E+04  0.29002686052E+04 0.  0.
        5    1    3    3  502    0 -0.10388202198E+03 -0.87828165834E+03  0.86338958482E+03  0.12359748424E+04  0.46999998093E+01 0.  1.
       -5    1    3    3    0  502  0.10388202198E+03  0.87828165834E+03 -0.14876881565E+04  0.17307247866E+04  0.46999998093E+01 0. -1.
</event>
<event>
 5   0  0.2678723E-07  0.2899651E+04  0.7818609E-02  0.8272981E-01
       -2   -1    0    0    0  501  0.00000000000E+00  0.00000000000E+00  0.10142221917E+04  0.10142221917E+04  0.25500000920E-02 0. -1.
        2   -1    0    0  501    0  0.00000000000E+00  0.00000000000E+00 -0.20725176688E+04  0.20725176688E+04  0.25500000920E-02 0.  1.
    10030    2    1    2    0    0  0.00000000000E+00  0.00000000000E+00 -0.10582954771E+04  0.30867398605E+04  0.28996506082E+04 0.  0.
        5    1    3    3  502    0 -0.10170636613E+04 -0.61036996185E+03 -0.14166044548E+04  0.18476363963E+04  0.46999998093E+01 0.  1.
       -5    1    3    3    0  502  0.10170636613E+04  0.61036996185E+03  0.35830897774E+03  0.12391034642E+04  0.46999998093E+01 0. -1.
</event>
<event>
 5   0  0.2546841E-07  0.2903751E+04  0.7818609E-02  0.8271762E-01
        2   -1    0    0  501    0  0.00000000000E+00  0.00000000000E+00  0.15825934909E+04  0.15825934909E+04  0.25500000920E-02 0.  1.
       -2   -1    0    0    0  501  0.00000000000E+00  0.00000000000E+00 -0.13319542298E+04  0.13319542298E+04  0.25500000920E-02 0. -1.
    10030    2    1    2    0    0  0.00000000000E+00  0.00000000000E+00  0.25063926109E+03  0.29145477207E+04  0.29037507429E+04 0.  0.
        1    1    3    3  502    0  0.13762550092E+04  0.46181804685E+03  0.10097381538E+03  0.14551802192E+04  0.50400001928E-02 0. -1.
       -1    1    3    3    0  502 -0.13762550092E+04 -0.46181804685E+03  0.14966544571E+03  0.14593675015E+04  0.50400001928E-02 0.  1.
</event>
<event>
 5   0  0.9443352E-08  0.2898959E+04  0.7818609E-02  0.8273187E-01
        1   -1    0    0  501    0  0.00000000000E+00  0.00000000000E+00  0.18834013587E+04  0.18834013587E+04  0.50400001928E-02 0. -1.
       -1   -1    0    0    0  501  0.00000000000E+00  0.00000000000E+00 -0.11155298390E+04  0.11155298390E+04  0.50400001928E-02 0.  1.
    10030    2    1    2    0    0  0.00000000000E+00  0.00000000000E+00  0.76787151965E+03  0.29989311977E+04  0.28989587196E+04 0.  0.
        4    1    3    3  502    0 -0.54521813720E+03 -0.11273074160E+04 -0.37124158133E+03  0.13061036528E+04  0.12699999809E+01 0.  1.
       -4    1    3    3    0  502  0.54521813720E+03  0.11273074160E+04  0.11391131010E+04  0.16928275449E+04  0.12699999809E+01 0. -1.
</event>
<event>
 5   0  0.8407500E-08  0.2898279E+04  0.7818609E-02  0.8273390E-01
       -3   -1    0    0    0  501  0.00000000000E+00  0.00000000000E+00  0.10892021580E+04  0.10892021627E+04  0.10100000352E+00 0. -1.
        3   -1    0    0  501    0  0.00000000000E+00  0.00000000000E+00 -0.19280219905E+04  0.19280219931E+04  0.10100000352E+00 0.  1.
    10030    2    1    2    0    0  0.00000000000E+00  0.00000000000E+00 -0.83881983244E+03  0.30172241558E+04  0.28982792990E+04 0.  0.
        1    1    3    3  502    0 -0.89310651979E+03  0.10356561714E+04  0.79619405427E+02  0.13698767138E+04  0.50400001928E-02 0. -1.
       -1    1    3    3    0  502  0.89310651979E+03 -0.10356561714E+04 -0.91843923786E+03  0.16473474420E+04  0.50400001928E-02 0.  1.
</event>
<event>
 5   0  0.2678723E-07  0.2897765E+04  0.7818609E-02  0.8273543E-01
        2   -1    0    0  501    0  0.00000000000E+00  0.00000000000E+00  0.21179246451E+04  0.21179246451E+04  0.25500000920E-02 0. -1.
       -2   -1    0    0    0  501  0.00000000000E+00  0.00000000000E+00 -0.99118774598E+03  0.99118774598E+03  0.25500000920E-02 0.  1.
    10030    2    1    2    0    0  0.00000000000E+00  0.00000000000E+00  0.11267368991E+04  0.31091123911E+04  0.28977653149E+04 0.  0.
        5    1    3    3  502    0  0.11821121872E+04  0.83436477915E+03  0.64426697973E+03  0.15838736815E+04  0.46999998093E+01 0.  1.
       -5    1    3    3    0  502 -0.11821121872E+04 -0.83436477915E+03  0.48246991936E+03  0.15252387095E+04  0.46999998093E+01 0. -1.
</event>
<event>
 5   0  0.2608591E-07  0.2901341E+04  0.7818609E-02  0.8272479E-01
       -2   -1    0    0    0  501  0.00000000000E+00  0.00000000000E+00  0.13170597067E+04  0.13170597067E+04  0.25500000920E-02 0.  1.
        2   -1    0    0  501    0  0.00000000000E+00  0.00000000000E+00 -0.15978355792E+04  0.15978355792E+04  0.25500000920E-02 0. -1.
    10030    2    1    2    0    0  0.00000000000E+00  0.00000000000E+00 -0.28077587249E+03  0.29148952859E+04  0.29013409722E+04 0.  0.
        2    1    3    3  502    0 -0.84842226445E+03  0.11747881465E+04 -0.20776337817E+03  0.14639375496E+04  0.25500000920E-02 0.  1.
       -2    1    3    3    0  502  0.84842226445E+03 -0.11747881465E+04 -0.73012494321E+02  0.14509577362E+04  0.25500000920E-02 0. -1.
</event>
<event>
 5   0  0.2534588E-07  0.2899968E+04  0.7818609E-02  0.8272887E-01
       -2   -1    0    0    0  501  0.00000000000E+00  0.00000000000E+00  0.15628246170E+04  0.15628246170E+04  0.25500000920E-02 0.  1.
        2   -1    0    0  501    0  0.00000000000E+00  0.00000000000E+00 -0.13452904250E+04  0.13452904250E+04  0.25500000920E-02 0. -1.
    10030    2    1    2    0    0  0.00000000000E+00  0.00000000000E+00  0.21753419200E+03  0.29081150420E+04  0.28999675814E+04 0.  0.
        3    1    3    3  502    0  0.10159011498E+03 -0.76053258751E+03 -0.11250238800E+04  0.13617669069E+04  0.10100000352E+00 0. -1.
       -3    1    3    3    0  502 -0.10159011498E+03  0.76053258751E+03  0.13425580720E+04  0.15463481351E+04  0.10100000352E+00 0.  1.
</event>
<event>
 5   0  0.9421924E-08  0.2899810E+04  0.7818609E-02  0.8272934E-01
       -1   -1    0    0    0  501  0.00000000000E+00  0.00000000000E+00  0.17703502666E+04  0.17703502666E+04  0.50400001928E-02 0.  1.
        1   -1    0    0  501    0  0.00000000000E+00  0.00000000000E+00 -0.11874622286E+04  0.11874622286E+04  0.50400001928E-02 0. -1.
    10030    2    1    2    0    0  0.00000000000E+00  0.00000000000E+00  0.58288803799E+03  0.29578124952E+04  0.28998096993E+04 0.  0.
        1    1    3    3  502    0  0.12854549564E+04  0.54382206423E+03 -0.10894707551E+03  0.14000022671E+04  0.50400001928E-02 0. -1.
       -1    1    3    3    0  502 -0.12854549564E+04 -0.54382206423E+03  0.69183511350E+03  0.15578102281E+04  0.50400001928E-02 0.  1.
</event>
<event>
 5   0  0.2534588E-07  0.2895957E+04  0.7818609E-02  0.8274081E-01
       -2   -1    0    0    0  501  0.00000000000E+00  0.00000000000E+00  0.16233073128E+04  0.16233073128E+04  0.25500000920E-02 0.  1.
        2   -1    0    0  501    0  0.00000000000E+00  0.00000000000E+00 -0.12915865375E+04  0.12915865375E+04  0.25500000920E-02 0. -1.
    10030    2    1    2    0    0  0.00000000000E+00  0.00000000000E+00  0.33172077526E+03  0.29148938503E+04  0.28959570932E+04 0.  0.
        3    1    3    3  502    0  0.54633233800E+03 -0.15263306088E+03 -0.11750921432E+04  0.13048438336E+04  0.10100000352E+00 0. -1.
       -3    1    3    3    0  502 -0.54633233800E+03  0.15263306088E+03  0.15068129185E+04  0.16100500167E+04  0.10100000352E+00 0.  1.
</event>
<event>
 5   0  0.2678723E-07  0.2907984E+04  0.7818609E-02  0.8270506E-01
        2   -1    0    0  501    0  0.00000000000E+00  0.00000000000E+00  0.15190708393E+04  0.15190708393E+04  0.25500000920E-02 0.  1.
       -2   -1    0    0    0  501  0.00000000000E+00  0.00000000000E+00 -0.13917013091E+04  0.13917013091E+04  0.25500000920E-02 0. -1.
    10030    2    1    2    0    0  0.00000000000E+00  0.00000000000E+00  0.12736953018E+03  0.29107721484E+04  0.29079840960E+04 0.  0.
        5    1    3    3  502    0 -0.13046548832E+04 -0.51447163820E+03  0.44780437391E+03  0.14721943751E+04  0.46999998093E+01 0.  1.
       -5    1    3    3    0  502  0.13046548832E+04  0.51447163820E+03 -0.32043484373E+03  0.14385777733E+04  0.46999998093E+01 0. -1.
</event>
<event>
 5   0  0.9421924E-08  0.2899191E+04  0.7818609E-02  0.8273118E-01
        1   -1    0    0  501    0  0.00000000000E+00  0.00000000000E+00  0.22393057330E+04  0.22393057330E+04  0.50400001928E-02 0.  1.
       -1   -1    0    0    0  501  0.00000000000E+00  0.00000000000E+00 -0.93838340710E+03  0.93838340711E+03  0.50400001928E-02 0. -1.
    10030    2    1    2    0    0  0.00000000000E+00  0.00000000000E+00  0.13009223259E+04  0.31776891401E+04  0.28991911585E+04 0.  0.
        1    1    3    3  502    0 -0.49680862930E+03  0.56571496884E+03  0.20081944995E+04  0.21446905110E+04  0.50400001928E-02 0.  1.
       -1    1    3    3    0  502  0.49680862930E+03 -0.56571496884E+03 -0.70727217362E+03  0.10329986291E+04  0.50400001928E-02 0. -1.
</event>
<event>
 5   0  0.9395744E-08  0.2899819E+04  0.7818609E-02  0.8272931E-01
       -1   -1    0    0    0  501  0.00000000000E+00  0.00000000000E+00  0.13319991989E+04  0.13319991989E+04  0.50400001928E-02 0. -1.
        1   -1    0    0  501    0  0.00000000000E+00  0.00000000000E+00 -0.15782569894E+04  0.15782569894E+04  0.50400001928E-02 0.  1.
    10030    2    1    2    0    0  0.00000000000E+00  0.00000000000E+00 -0.24625779050E+03  0.29102561883E+04  0.28998186464E+04 0.  0.
        2    1    3    3  502    0 -0.63700334840E+03  0.73723937748E+03  0.95448725300E+03  0.13639432106E+04  0.25500000920E-02 0. -1.
       -2    1    3    3    0  502  0.63700334840E+03 -0.73723937748E+03 -0.12007450435E+04  0.15463129777E+04  0.25500000920E-02 0.  1.
</event>
<event>
 5   0  0.2492232E-07  0.2899754E+04  0.7818609E-02  0.8272951E-01
       -2   -1    0    0    0  501  0.00000000000E+00  0.00000000000E+00  0.16929558148E+04  0.16929558148E+04  0.25500000920E-02 0.  1.
        2   -1    0    0  501    0  0.00000000000E+00  0.00000000000E+00 -0.12417003372E+04  0.12417003373E+04  0.25500000920E-02 0. -1.
    10030    2    1    2    0    0  0.00000000000E+00  0.00000000000E+00  0.45125547751E+03  0.29346561520E+04  0.28997543387E+04 0.  0.
        4    1    3    3  502    0 -0.40833725140E+03  0.87132332265E+03  0.13232081210E+04  0.16361005433E+04  0.12699999809E+01 0.  1.
       -4    1    3    3    0  502  0.40833725140E+03 -0.87132332265E+03 -0.87195264349E+03  0.12985556087E+04  0.12699999809E+01 0. -1.
</event>
<event>
 5   0  0.2492232E-07  0.2899867E+04  0.7818609E-02  0.8272917E-01
        2   -1    0    0  501    0  0.00000000000E+00  0.00000000000E+00  0.17197561540E+04  0.17197561540E+04  0.25500000920E-02 0. -1.
       -2   -1    0    0    0  501  0.00000000000E+00  0.00000000000E+00 -0.12224446148E+04  0.12224446148E+04  0.25500000920E-02 0.  1.
    10030    2    1    2    0    0  0.00000000000E+00  0.00000000000E+00  0.49731153919E+03  0.29422007688E+04  0.28998666516E+04 0.  0.
        4    1    3    3  502    0  0.27353638873E+03 -0.10006326728E+04 -0.77915676043E+03  0.12973722566E+04  0.12699999809E+01 0.  1.
       -4    1    3    3    0  502 -0.27353638873E+03  0.10006326728E+04  0.12764682996E+04  0.16448285123E+04  0.12699999809E+01 0. -1.
</event>
<event>
 5   0  0.2608591E-07  0.2900120E+04  0.7818609E-02  0.8272842E-01
       -2   -1    0    0    0  501  0.00000000000E+00  0.00000000000E+00  0.12016971137E+04  0.12016971137E+04  0.25500000920E-02 0.  1.
        2   -1    0    0  501    0  0.00000000000E+00  0.00000000000E+00 -0.17497535488E+04  0.17497535488E+04  0.25500000920E-02 0. -1.
    10030    2    1    2    0    0  0.00000000000E+00  0.00000000000E+00 -0.54805643516E+03  0.29514506625E+04  0.29001198522E+04 0.  0.
        2    1    3    3  502    0 -0.10531794682E+03  0.50665822527E+03  0.11045243757E+04  0.12197411708E+04  0.25500000920E-02 0.  1.
       -2    1    3    3    0  502  0.10531794682E+03 -0.50665822527E+03 -0.16525808109E+04  0.17317094917E+04  0.25500000920E-02 0. -1.
</event>
<event>
 5   0  0.2546841E-07  0.2898344E+04  0.7818609E-02  0.8273370E-01
       -2   -1    0    0    0  501  0.00000000000E+00  0.00000000000E+00  0.12065161967E+04  0.12065161967E+04  0.25500000920E-02 0.  1.
        2   -1    0    0  501    0  0.00000000000E+00  0.00000000000E+00 -0.17406310593E+04  0.17406310593E+04  0.25500000920E-02 0. -1.
    10030    2    1    2    0    0  0.00000000000E+00  0.00000000000E+00 -0.53411486263E+03  0.29471472559E+04  0.28983440551E+04 0.  0.
        1    1    3    3  502    0  0.35616942870E+03 -0.27905994021E+02 -0.16951503255E+04  0.17323885340E+04  0.50400001928E-02 0. -1.
       -1    1    3    3    0  502 -0.35616942870E+03  0.27905994021E+02  0.11610354629E+04  0.12147587220E+04  0.50400001928E-02 0.  1.
</event>
<event>
 5   0  0.2492232E-07  0.2895854E+04  0.7818609E-02  0.8274112E-01
       -2   -1    0    0    0  501  0.00000000000E+00  0.00000000000E+00  0.11320296392E+04  0.11320296392E+04  0.25500000920E-02 0.  1.
        2   -1    0    0  501    0  0.00000000000E+00  0.00000000000E+00 -0.18519767817E+04  0.18519767817E+04  0.25500000920E-02 0. -1.
    10030    2    1    2    0    0  0.00000000000E+00  0.00000000000E+00 -0.71994714258E+03  0.29840064209E+04  0.28958540073E+04 0.  0.
        4    1    3    3  502    0 -0.29724382047E+03 -0.70035570744E+03  0.90945224879E+03  0.11857305813E+04  0.12699999809E+01 0.  1.
       -4    1    3    3    0  502  0.29724382047E+03  0.70035570744E+03 -0.16293993914E+04  0.17982758396E+04  0.12699999809E+01 0. -1.
</event>
<event>
 5   0  0.2534588E-07  0.2899761E+04  0.7818609E-02  0.8272949E-01
        2   -1    0    0  501    0  0.00000000000E+00  0.00000000000E+00  0.19266957355E+04  0.19266957355E+04  0.25500000920E-02 0.  1.
       -2   -1    0    0    0  501  0.00000000000E+00  0.00000000000E+00 -0.10910667972E+04  0.10910667972E+04  0.25500000920E-02 0. -1.
    10030    2    1    2    0    0  0.00000000000E+00  0.00000000000E+00  0.83562893825E+03  0.30177625327E+04  0.28997611938E+04 0.  0.
        3    1    3    3  502    0  0.56938832590E+03  0.17848106469E+03  0.17929857224E+04  0.18896709679E+04  0.10100000352E+00 0.  1.
       -3    1    3    3    0  502 -0.56938832590E+03 -0.17848106469E+03 -0.95735678414E+03  0.11280915648E+04  0.10100000352E+00 0. -1.
</event>
<event>
 5   0  0.9763851E-08  0.2898924E+04  0.7818609E-02  0.8273198E-01
        1   -1    0    0  501    0  0.00000000000E+00  0.00000000000E+00  0.13048715589E+04  0.13048715589E+04  0.50400001928E-02 0. -1.
       -1   -1    0    0    0  501  0.00000000000E+00  0.00000000000E+00 -0.16100738530E+04  0.16100738530E+04  0.50400001928E-02 0.  1.
    10030    2    1    2    0    0  0.00000000000E+00  0.00000000000E+00 -0.30520229408E+03  0.29149454120E+04  0.28989236476E+04 0.  0.
        3    1    3    3  502    0 -0.11964148743E+04  0.30822995114E+03 -0.91476479977E+03  0.15372732039E+04  0.10100000352E+00 0.  1.
       -3    1    3    3    0  502  0.11964148743E+04 -0.30822995114E+03  0.60956250568E+03  0.13776722081E+04  0.10100000352E+00 0. -1.
</event>
<event>
 5   0  0.9763851E-08  0.2899997E+04  0.7818609E-02  0.8272878E-01
       -1   -1    0    0    0  501  0.00000000000E+00  0.00000000000E+00  0.14766668235E+04  0.14766668235E+04  0.50400001928E-02 0. -1.
        1   -1    0    0  501    0  0.00000000000E+00  0.00000000000E+00 -0.14238115883E+04  0.14238115883E+04  0.50400001928E-02 0.  1.
    10030    2    1    2    0    0  0.00000000000E+00  0.00000000000E+00  0.52855235158E+02  0.29004784118E+04  0.28999967830E+04 0.  0.
        3    1    3    3  502    0  0.43666632952E+03  0.13151465993E+04  0.45335593805E+03  0.14580190938E+04  0.10100000352E+00 0. -1.
       -3    1    3    3    0  502 -0.43666632952E+03 -0.13151465993E+04 -0.40050070289E+03  0.14424593181E+04  0.10100000352E+00 0.  1.
</event>
<event>
 5   0  0.9443352E-08  0.2899830E+04  0.7818609E-02  0.8272928E-01
        1   -1    0    0  501    0  0.00000000000E+00  0.00000000000E+00  0.12245586211E+04  0.12245586211E+04  0.50400001928E-02 0.  1.
       -1   -1    0    0    0  501  0.00000000000E+00  0.00000000000E+00 -0.17167443756E+04  0.17167443756E+04  0.50400001928E-02 0. -1.
    10030    2    1    2    0    0  0.00000000000E+00  0.00000000000E+00 -0.49218575446E+03  0.29413029967E+04  0.28998304264E+04 0.  0.
        4    1    3    3  502    0 -0.51113710991E+03  0.10379461961E+04 -0.11324666921E+04  0.16189737097E+04  0.12699999809E+01 0. -1.
       -4    1    3    3    0  502  0.51113710991E+03 -0.10379461961E+04  0.64028093768E+03  0.13223292870E+04  0.12699999809E+01 0.  1.
</event>
<event>
 5   0  0.9421924E-08  0.2899037E+04  0.7818609E-02  0.8273164E-01
       -1   -1    0    0    0  501  0.00000000000E+00  0.00000000000E+00  0.11948313017E+04  0.11948313017E+04  0.50400001928E-02 0.  1.
        1   -1    0    0  501    0  0.00000000000E+00  0.00000000000E+00 -0.17584946429E+04  0.17584946429E+04  0.50400001928E-02 0. -1.
    10030    2    1    2    0    0  0.00000000000E+00  0.00000000000E+00 -0.56366334120E+03  0.29533259447E+04  0.28990373874E+04 0.  0.
        1    1    3    3  502    0  0.41301682886E+02  0.92212035804E+03  0.85672563023E+03  0.12593611830E+04  0.50400001928E-02 0.  1.
       -1    1    3    3    0  502 -0.41301682886E+02 -0.92212035804E+03 -0.14203889714E+04  0.16939647617E+04  0.50400001928E-02 0. -1.
</event>
<event>
 5   0  0.2546841E-07  0.2899382E+04  0.7818609E-02  0.8273061E-01
        2   -1    0    0  501    0  0.00000000000E+00  0.00000000000E+00  0.21664219096E+04  0.21664219096E+04  0.25500000920E-02 0. -1.
       -2   -1    0    0    0  501  0.00000000000E+00  0.00000000000E+00 -0.97008055499E+03  0.97008055499E+03  0.25500000920E-02 0.  1.
    10030    2    1    2    0    0  0.00000000000E+00  0.00000000000E+00  0.11963413546E+04  0.31365024646E+04  0.28993818434E+04 0.  0.
        1    1    3    3  502    0 -0.11312915974E+04  0.43785052929E+03  0.14568571483E+04  0.18957759665E+04  0.50400001928E-02 0. -1.
       -1    1    3    3    0  502  0.11312915974E+04 -0.43785052929E+03 -0.26051579366E+03  0.12407264982E+04  0.50400001928E-02 0.  1.
</event>
<event>
 5   0  0.2492232E-07  0.2901222E+04  0.7818609E-02  0.8272514E-01
        2   -1    0    0  501    0  0.00000000000E+00  0.00000000000E+00  0.11892899420E+04  0.11892899420E+04  0.25500000920E-02 0. -1.
       -2   -1    0    0    0  501  0.00000000000E+00  0.00000000000E+00 -0.17693520786E+04  0.17693520786E+04  0.25500000920E-02 0.  1.
    10030    2    1    2    0    0  0.00000000000E+00  0.00000000000E+00 -0.58006213656E+03  0.29586420206E+04  0.29012222465E+04 0.  0.
        4    1    3    3  502    0 -0.39073611661E+03 -0.44570065819E+03 -0.16402240406E+04  0.17440356378E+04  0.12699999809E+01 0.  1.
       -4    1    3    3    0  502  0.39073611661E+03  0.44570065819E+03  0.10601619040E+04  0.12146063828E+04  0.12699999809E+01 0. -1.
</event>
<event>
 5   0  0.2608591E-07  0.2899929E+04  0.7818609E-02  0.8272898E-01
       -2   -1    0    0    0  501  0.00000000000E+00  0.00000000000E+00  0.10313894095E+04  0.10313894095E+04  0.25500000920E-02 0.  1.
        2   -1    0    0  501    0  0.00000000000E+00  0.00000000000E+00 -0.20384131470E+04  0.20384131470E+04  0.25500000920E-02 0. -1.
    10030    2    1    2    0    0  0.00000000000E+00  0.00000000000E+00 -0.10070237375E+04  0.30698025564E+04  0.28999294694E+04 0.  0.
        2    1    3    3  502    0 -0.44426394832E+03  0.29533961283E+03  0.92372570778E+03  0.10667076103E+04  0.25500000920E-02 0.  1.
       -2    1    3    3    0  502  0.44426394832E+03 -0.29533961283E+03 -0.19307494453E+04  0.20030949461E+04  0.25500000920E-02 0. -1.
</event>
<event>
 5   0  0.8407500E-08  0.2899952E+04  0.7818609E-02  0.8272892E-01
        3   -1    0    0  501    0  0.00000000000E+00  0.00000000000E+00  0.12170111918E+04  0.12170111960E+04  0.10100000352E+00 0. -1.
       -3   -1    0    0    0  501  0.00000000000E+00  0.00000000000E+00 -0.17275360742E+04  0.17275360772E+04  0.10100000352E+00 0.  1.
    10030    2    1    2    0    0  0.00000000000E+00  0.00000000000E+00 -0.51052488245E+03  0.29445472731E+04  0.28999522389E+04 0.  0.
        2    1    3    3  502    0 -0.12554813671E+04 -0.55290058723E+03  0.22153095782E+03  0.13896073142E+04  0.25500000920E-02 0.  1.
       -2    1    3    3    0  502  0.12554813671E+04  0.55290058723E+03 -0.73205584027E+03  0.15549399589E+04  0.25500000920E-02 0. -1.
</event>
<event>
 5   0  0.9763851E-08  0.2900691E+04  0.7818609E-02  0.8272672E-01
       -1   -1    0    0    0  501  0.00000000000E+00  0.00000000000E+00  0.13596210809E+04  0.13596210809E+04  0.50400001928E-02 0. -1.
        1   -1    0    0  501    0  0.00000000000E+00  0.00000000000E+00 -0.15471238407E+04  0.15471238407E+04  0.50400001928E-02 0.  1.
    10030    2    1    2    0    0  0.00000000000E+00  0.00000000000E+00 -0.18750275980E+03  0.29067449216E+04  0.29006910822E+04 0.  0.
        3    1    3    3  502    0 -0.10070960929E+04  0.79039399397E+03  0.58924057036E+03  0.14093153182E+04  0.10100000352E+00 0. -1.
       -3    1    3    3    0  502  0.10070960929E+04 -0.79039399397E+03 -0.77674333017E+03  0.14974296034E+04  0.10100000352E+00 0.  1.
</event>
<event>
 5   0  0.2546841E-07  0.2900392E+04  0.7818609E-02  0.8272761E-01
        2   -1    0    0  501    0  0.00000000000E+00  0.00000000000E+00  0.16165755003E+04  0.16165755003E+04  0.25500000920E-02 0. -1.
       -2   -1    0    0    0  501  0.00000000000E+00  0.00000000000E+00 -0.13009402168E+04  0.13009402168E+04  0.25500000920E-02 0.  1.
    10030    2    1    2    0    0  0.00000000000E+00  0.00000000000E+00  0.31563528347E+03  0.29175157172E+04  0.29003917542E+04 0.  0.
        1    1    3    3  502    0  0.66981221826E+03  0.61903720798E+03  0.12919549539E+04  0.15814559986E+04  0.50400001928E-02 0. -1.
       -1    1    3    3    0  502 -0.66981221826E+03 -0.61903720798E+03 -0.97631967044E+03  0.13360597185E+04  0.50400001928E-02 0.  1.
</event>
<event>
 5   0  0.9443352E-08  0.2899727E+04  0.7818609E-02  0.8272959E-01
        1   -1    0    0  501    0  0.00000000000E+00  0.00000000000E+00  0.14794743804E+04  0.14794743804E+04  0.50400001928E-02 0. -1.
       -1   -1    0    0    0  501  0.00000000000E+00  0.00000000000E+00 -0.14208452631E+04  0.14208452631E+04  0.50400001928E-02 0.  1.
    10030    2    1    2    0    0  0.00000000000E+00  0.00000000000E+00  0.58629117294E+02  0.29003196435E+04  0.28997269977E+04 0.  0.
        4    1    3    3  502    0 -0.18871139691E+03  0.17436019708E+02  0.14670319184E+04  0.14792228596E+04  0.12699999809E+01 0. -1.
       -4    1    3    3    0  502  0.18871139691E+03 -0.17436019708E+02 -0.14084028011E+04  0.14210967838E+04  0.12699999809E+01 0.  1.
</event>
<event>
 5   0  0.9763851E-08  0.2899421E+04  0.7818609E-02  0.8273050E-01
       -1   -1    0    0    0  501  0.00000000000E+00  0.00000000000E+00  0.11521589878E+04  0.11521589878E+04  0.50400001928E-02 0.  1.
        1   -1    0    0  501    0  0.00000000000E+00  0.00000000000E+00 -0.18241068993E+04  0.18241068993E+04  0.50400001928E-02 0. -1.
    10030    2    1    2    0    0  0.00000000000E+00  0.00000000000E+00 -0.67194791146E+03  0.29762658871E+04  0.28994214311E+04 0.  0.
        3    1    3    3  502    0  0.33485099462E+03 -0.11508938037E+04  0.50110125712E+03  0.12991474959E+04  0.10100000352E+00 0.  1.
       -3    1    3    3    0  502 -0.33485099462E+03  0.11508938037E+04 -0.11730491686E+04  0.16771183912E+04  0.10100000352E+00 0. -1.
</event>
<event>
 5   0  0.9421924E-08  0.2901874E+04  0.7818609E-02  0.8272320E-01
        1   -1    0    0  501    0  0.00000000000E+00  0.00000000000E+00  0.14572815047E+04  0.14572815047E+04  0.50400001928E-02 0.  1.
       -1   -1    0    0    0  501  0.00000000000E+00  0.00000000000E+00 -0.14446200116E+04  0.14446200116E+04  0.50400001928E-02 0. -1.
    10030    2    1    2    0    0  0.00000000000E+00  0.00000000000E+00  0.12661493089E+02  0.29019015164E+04  0.29018738941E+04 0.  0.
        1    1    3    3  502    0  0.10352261354E+04 -0.29364198951E+03 -0.96697151337E+03  0.14467040738E+04  0.50400001928E-02 0. -1.
       -1    1    3    3    0  502 -0.10352261354E+04  0.29364198951E+03  0.97963300646E+03  0.14551974426E+04  0.50400001928E-02 0.  1.
</event>
<event>
 5   0  0.8407500E-08  0.2898889E+04  0.7818609E-02  0.8273208E-01
        3   -1    0    0  501    0  0.00000000000E+00  0.00000000000E+00  0.98329819425E+03  0.98329819944E+03  0.10100000352E+00 0.  1.
       -3   -1    0    0    0  501  0.00000000000E+00  0.00000000000E+00 -0.21365740833E+04  0.21365740857E+04  0.10100000352E+00 0. -1.
    10030    2    1    2    0    0  0.00000000000E+00  0.00000000000E+00 -0.11532758890E+04  0.31198722851E+04  0.28988890629E+04 0.  0.
        2    1    3    3  502    0 -0.59735419500E+03  0.13163893452E+04 -0.69041593839E+03  0.16019947286E+04  0.25500000920E-02 0. -1.
       -2    1    3    3    0  502  0.59735419500E+03 -0.13163893452E+04 -0.46285995064E+03  0.15178775565E+04  0.25500000920E-02 0.  1.
</event>
<event>
 5   0  0.9763851E-08  0.2900194E+04  0.7818609E-02  0.8272820E-01
       -1   -1    0    0    0  501  0.00000000000E+00  0.00000000000E+00  0.10730851824E+04  0.10730851824E+04  0.50400001928E-02 0.  1.
        1   -1    0    0  501    0  0.00000000000E+00  0.00000000000E+00 -0.19595660834E+04  0.19595660834E+04  0.50400001928E-02 0. -1.
    10030    2    1    2    0    0  0.00000000000E+00  0.00000000000E+00 -0.88648090099E+03  0.30326512659E+04  0.29001940129E+04 0.  0.
        3    1    3    3  502    0 -0.10384458917E+04  0.76965432953E+03  0.24407995771E+03  0.13154135064E+04  0.10100000352E+00 0.  1.
       -3    1    3    3    0  502  0.10384458917E+04 -0.76965432953E+03 -0.11305608587E+04  0.17172377594E+04  0.10100000352E+00 0. -1.
</event>
<event>
 5   0  0.2492232E-07  0.2899780E+04  0.7818609E-02  0.8272943E-01
        2   -1    0    0  501    0  0.00000000000E+00  0.00000000000E+00  0.25670694955E+04  0.25670694955E+04  0.25500000920E-02 0. -1.
       -2   -1    0    0    0  501  0.00000000000E+00  0.00000000000E+00 -0.81890275767E+03  0.81890275768E+03  0.25500000920E-02 0.  1.
    10030    2    1    2    0    0  0.00000000000E+00  0.00000000000E+00  0.17481667378E+04  0.33859722532E+04  0.28997795013E+04 0.  0.
        4    1    3    3  502    0 -0.14445431443E+03  0.63169231523E+03  0.23885757803E+04  0.24749137563E+04  0.12699999809E+01 0. -1.
       -4    1    3    3    0  502  0.14445431443E+03 -0.63169231523E+03 -0.64040904249E+03  0.91105849684E+03  0.12699999809E+01 0.  1.
</event>
<event>
 5   0  0.2546841E-07  0.2899809E+04  0.7818609E-02  0.8272934E-01
        2   -1    0    0  501    0  0.00000000000E+00  0.00000000000E+00  0.30470874157E+04  0.30470874157E+04  0.25500000920E-02 0. -1.
       -2   -1    0    0    0  501  0.00000000000E+00  0.00000000000E+00 -0.68991218592E+03  0.68991218592E+03  0.25500000920E-02 0.  1.
    10030    2    1    2    0    0  0.00000000000E+00  0.00000000000E+00  0.23571752297E+04  0.37369996016E+04  0.28998087796E+04 0.  0.
        1    1    3    3  502    0  0.25912831088E+03 -0.84402093463E+03 -0.30353799453E+03  0.93362419300E+03  0.50400001928E-02 0.  1.
       -1    1    3    3    0  502 -0.25912831088E+03  0.84402093463E+03  0.26607132243E+04  0.28033754086E+04  0.50400001928E-02 0. -1.
</event>
<event>
 5   0  0.9443352E-08  0.2900323E+04  0.7818609E-02  0.8272782E-01
       -1   -1    0    0    0  501  0.00000000000E+00  0.00000000000E+00  0.12019282740E+04  0.12019282740E+04  0.50400001928E-02 0. -1.
        1   -1    0    0  501    0  0.00000000000E+00  0.00000000000E+00 -0.17496615675E+04  0.17496615675E+04  0.50400001928E-02 0.  1.
    10030    2    1    2    0    0  0.00000000000E+00  0.00000000000E+00 -0.54773329355E+03  0.29515898415E+04  0.29003225393E+04 0.  0.
        4    1    3    3  502    0 -0.73645305620E+03 -0.12107749034E+04 -0.58691940227E+03  0.15338888383E+04  0.12699999809E+01 0.  1.
       -4    1    3    3    0  502  0.73645305620E+03  0.12107749034E+04  0.39186108717E+02  0.14177010032E+04  0.12699999809E+01 0. -1.
</event>
<event>
 5   0  0.2678723E-07  0.2901495E+04  0.7818609E-02  0.8272433E-01
        2   -1    0    0  501    0  0.00000000000E+00  0.00000000000E+00  0.14666923991E+04  0.14666923991E+04  0.25500000920E-02 0.  1.
       -2   -1    0    0    0  501  0.00000000000E+00  0.00000000000E+00 -0.14349755611E+04  0.14349755611E+04  0.25500000920E-02 0. -1.
    10030    2    1    2    0    0  0.00000000000E+00  0.00000000000E+00  0.31716838012E+02  0.29016679602E+04  0.29014946137E+04 0.  0.
        5    1    3    3  502    0  0.57592102617E+03 -0.62774786720E+03 -0.11584745878E+04  0.14379978699E+04  0.46999998093E+01 0. -1.
       -5    1    3    3    0  502 -0.57592102617E+03  0.62774786720E+03  0.11901914258E+04  0.14636700903E+04  0.46999998093E+01 0.  1.
</event>
<event>
 5   0  0.9443352E-08  0.2900890E+04  0.7818609E-02  0.8272613E-01
       -1   -1    0    0    0  501  0.00000000000E+00  0.00000000000E+00  0.30138887512E+04  0.30138887512E+04  0.50400001928E-02 0. -1.
        1   -1    0    0  501    0  0.00000000000E+00  0.00000000000E+00 -0.69803178342E+03  0.69803178344E+03  0.50400001928E-02 0.  1.
    10030    2    1    2    0    0  0.00000000000E+00  0.00000000000E+00  0.23158569677E+04  0.37119205346E+04  0.29008896153E+04 0.  0.
        4    1    3    3  502    0  0.89586596224E+02 -0.17136748164E+03  0.29973202514E+04  0.30035517099E+04  0.12699999809E+01 0. -1.
       -4    1    3    3    0  502 -0.89586596224E+02  0.17136748164E+03 -0.68146328362E+03  0.70836882470E+03  0.12699999809E+01 0.  1.
</event>
<event>
 5   0  0.9421924E-08  0.2896656E+04  0.7818609E-02  0.8273873E-01
       -1   -1    0    0    0  501  0.00000000000E+00  0.00000000000E+00  0.13693333280E+04  0.13693333280E+04  0.50400001928E-02 0.  1.
        1   -1    0    0  501    0  0.00000000000E+00  0.00000000000E+00 -0.15318798543E+04  0.15318798543E+04  0.50400001928E-02 0. -1.
    10030    2    1    2    0    0  0.00000000000E+00  0.00000000000E+00 -0.16254652634E+03  0.29012131823E+04  0.28966560990E+04 0.  0.
        1    1    3    3  502    0 -0.18720378480E+03  0.11270600747E+04 -0.97281097896E+03  0.15005568532E+04  0.50400001928E-02 0. -1.
       -1    1    3    3    0  502  0.18720378480E+03 -0.11270600747E+04  0.81026445262E+03  0.14006563291E+04  0.50400001928E-02 0.  1.
</event>
<event>
 5   0  0.9421924E-08  0.2898726E+04  0.7818609E-02  0.8273257E-01
        1   -1    0    0  501    0  0.00000000000E+00  0.00000000000E+00  0.72320972779E+03  0.72320972781E+03  0.50400001928E-02 0. -1.
       -1   -1    0    0    0  501  0.00000000000E+00  0.00000000000E+00 -0.29046256899E+04  0.29046256899E+04  0.50400001928E-02 0.  1.
    10030    2    1    2    0    0  0.00000000000E+00  0.00000000000E+00 -0.21814159621E+04  0.36278354177E+04  0.28987263096E+04 0.  0.
        1    1    3    3  502    0  0.12746082185E+04 -0.44844298774E+03 -0.17469265748E+04  0.22085016825E+04  0.50400001928E-02 0.  1.
       -1    1    3    3    0  502 -0.12746082185E+04  0.44844298774E+03 -0.43448938725E+03  0.14193337351E+04  0.50400001928E-02 0. -1.
</event>
<event>
 5   0  0.9763851E-08  0.2900796E+04  0.7818609E-02  0.8272641E-01
        1   -1    0    0  501    0  0.00000000000E+00  0.00000000000E+00  0.17299949999E+04  0.17299950000E+04  0.50400001928E-02 0.  1.
       -1   -1    0    0    0  501  0.00000000000E+00  0.00000000000E+00 -0.12159883133E+04  0.12159883133E+04  0.50400001928E-02 0. -1.
    10030    2    1    2    0    0  0.00000000000E+00  0.00000000000E+00  0.51400668666E+03  0.29459833132E+04  0.29007955474E+04 0.  0.
        3    1    3    3  502    0 -0.88160058798E+03 -0.95915886690E+03 -0.39046099344E+03  0.13600239433E+04  0.10100000352E+00 0. -1.
       -3    1    3    3    0  502  0.88160058798E+03  0.95915886690E+03  0.90446768010E+03  0.15859593700E+04  0.10100000352E+00 0.  1.
</event>
<event>
 5   0  0.2678723E-07  0.2899998E+04  0.7818609E-02  0.8272878E-01
        2   -1    0    0  501    0  0.00000000000E+00  0.00000000000E+00  0.16890187899E+04  0.16890187899E+04  0.25500000920E-02 0. -1.
       -2   -1    0    0    0  501  0.00000000000E+00  0.00000000000E+00 -0.12448041174E+04  0.12448041174E+04  0.25500000920E-02 0.  1.
    10030    2    1    2    0    0  0.00000000000E+00  0.00000000000E+00  0.44421467252E+03  0.29338229073E+04  0.28999983063E+04 0.  0.
        5    1    3    3  502    0 -0.11356295299E+04  0.50668982867E+03  0.97651710681E+03  0.15811378060E+04  0.46999998093E+01 0. -1.
       -5    1    3    3    0  502  0.11356295299E+04 -0.50668982867E+03 -0.53230243429E+03  0.13526851013E+04  0.46999998093E+01 0.  1.
</event>
<event>
 5   0  0.2546841E-07  0.2899778E+04  0.7818609E-02  0.8272943E-01
        2   -1    0    0  501    0  0.00000000000E+00  0.00000000000E+00  0.25445124402E+04  0.25445124402E+04  0.25500000920E-02 0. -1.
       -2   -1    0    0    0  501  0.00000000000E+00  0.00000000000E+00 -0.82616159848E+03  0.82616159848E+03  0.25500000920E-02 0.  1.
    10030    2    1    2    0    0  0.00000000000E+00  0.00000000000E+00  0.17183508417E+04  0.33706740387E+04  0.28997782432E+04 0.  0.
        1    1    3    3  502    0  0.98278311098E+03 -0.57181060124E+03 -0.18655499700E+03  0.11522294797E+04  0.50400001928E-02 0.  1.
       -1    1    3    3    0  502 -0.98278311098E+03  0.57181060124E+03  0.19049058387E+04  0.22184445590E+04  0.50400001928E-02 0. -1.
</event>
<event>
 5   0  0.9443352E-08  0.2900953E+04  0.7818609E-02  0.8272594E-01
        1   -1    0    0  501    0  0.00000000000E+00  0.00000000000E+00  0.21171430511E+04  0.21171430511E+04  0.50400001928E-02 0. -1.
       -1   -1    0    0    0  501  0.00000000000E+00  0.00000000000E+00 -0.99373651686E+03  0.99373651688E+03  0.50400001928E-02 0.  1.
    10030    2    1    2    0    0  0.00000000000E+00  0.00000000000E+00  0.11234065342E+04  0.31108795679E+04  0.29009531960E+04 0.  0.
        4    1    3    3  502    0 -0.11003257200E+04 -0.77500196034E+03  0.11417088189E+04  0.17648924524E+04  0.12699999809E+01 0.  1.
       -4    1    3    3    0  502  0.11003257200E+04  0.77500196034E+03 -0.18302284708E+02  0.13459871155E+04  0.12699999809E+01 0. -1.
</event>
<event>
 5   0  0.9763851E-08  0.2899773E+04  0.7818609E-02  0.8272945E-01
       -1   -1    0    0    0  501  0.00000000000E+00  0.00000000000E+00  0.83275620693E+03  0.83275620694E+03  0.50400001928E-02 0.  1.
        1   -1    0    0  501    0  0.00000000000E+00  0.00000000000E+00 -0.25243529551E+04  0.25243529551E+04  0.50400001928E-02 0. -1.
    10030    2    1    2    0    0  0.00000000000E+00  0.00000000000E+00 -0.16915967482E+04  0.33571091621E+04  0.28997728131E+04 0.  0.
        3    1    3    3  502    0 -0.18943334680E+03 -0.21227183001E+03  0.80012250856E+03  0.84919983608E+03  0.10100000352E+00 0.  1.
       -3    1    3    3    0  502  0.18943334680E+03  0.21227183001E+03 -0.24917192568E+04  0.25079093260E+04  0.10100000352E+00 0. -1.
</event>
<event>
 5   0  0.2678723E-07  0.2902482E+04  0.7818609E-02  0.8272139E-01
       -2   -1    0    0    0  501  0.00000000000E+00  0.00000000000E+00  0.11229440735E+04  0.11229440735E+04  0.25500000920E-02 0.  1.
        2   -1    0    0  501    0  0.00000000000E+00  0.00000000000E+00 -0.18755172446E+04  0.18755172446E+04  0.25500000920E-02 0. -1.
    10030    2    1    2    0    0  0.00000000000E+00  0.00000000000E+00 -0.75257317112E+03  0.29984613181E+04  0.29024823683E+04 0.  0.
        5    1    3    3  502    0 -0.14210321894E+04  0.23590320450E+03 -0.55845860763E+03  0.15449533687E+04  0.46999998093E+01 0. -1.
       -5    1    3    3    0  502  0.14210321894E+04 -0.23590320450E+03 -0.19411456349E+03  0.14535079494E+04  0.46999998093E+01 0.  1.
</event>
<event>
 5   0  0.9388076E-08  0.2900638E+04  0.7818609E-02  0.8272688E-01
       -1   -1    0    0    0  501  0.00000000000E+00  0.00000000000E+00  0.99053230471E+03  0.99053230472E+03  0.50400001928E-02 0.  1.
        1   -1    0    0  501    0  0.00000000000E+00  0.00000000000E+00 -0.21235303608E+04  0.21235303608E+04  0.50400001928E-02 0. -1.
    10030    2    1    2    0    0  0.00000000000E+00  0.00000000000E+00 -0.11329980561E+04  0.31140626655E+04  0.29006381521E+04 0.  0.
        5    1    3    3  502    0  0.81632337828E+03 -0.10380848841E+04 -0.12101084228E+04  0.17911975238E+04  0.46999998093E+01 0. -1.
       -5    1    3    3    0  502 -0.81632337828E+03  0.10380848841E+04  0.77110366701E+02  0.13228651417E+04  0.46999998093E+01 0.  1.
</event>
<event>
 5   0  0.9763851E-08  0.2899839E+04  0.7818609E-02  0.8272925E-01
       -1   -1    0    0    0  501  0.00000000000E+00  0.00000000000E+00  0.16965816974E+04  0.16965816974E+04  0.50400001928E-02 0.  1.
        1   -1    0    0  501    0  0.00000000000E+00  0.00000000000E+00 -0.12391187799E+04  0.12391187799E+04  0.50400001928E-02 0. -1.
    10030    2    1    2    0    0  0.00000000000E+00  0.00000000000E+00  0.45746291750E+03  0.29357004773E+04  0.28998387837E+04 0.  0.
        3    1    3    3  502    0 -0.10366702854E+03  0.11348466200E+04 -0.67881600050E+03  0.13264293711E+04  0.10100000352E+00 0. -1.
       -3    1    3    3    0  502  0.10366702854E+03 -0.11348466200E+04  0.11362789180E+04  0.16092711063E+04  0.10100000352E+00 0.  1.
</event>
<event>
 5   0  0.2492232E-07  0.2897880E+04  0.7818609E-02  0.8273509E-01
       -2   -1    0    0    0  501  0.00000000000E+00  0.00000000000E+00  0.13196267857E+04  0.13196267857E+04  0.25500000920E-02 0.  1.
        2   -1    0    0  501    0  0.00000000000E+00  0.00000000000E+00 -0.15909246407E+04  0.15909246407E+04  0.25500000920E-02 0. -1.
    10030    2    1    2    0    0  0.00000000000E+00  0.00000000000E+00 -0.27129785499E+03  0.29105514264E+04  0.28978797559E+04 0.  0.
        4    1    3    3  502    0 -0.11606781018E+04  0.22820256371E+03  0.70477468249E+03  0.13769382818E+04  0.12699999809E+01 0.  1.
       -4    1    3    3    0  502  0.11606781018E+04 -0.22820256371E+03 -0.97607253747E+03  0.15336131446E+04  0.12699999809E+01 0. -1.
</event>
<event>
 5   0  0.2608591E-07  0.2899426E+04  0.7818609E-02  0.8273048E-01
        2   -1    0    0  501    0  0.00000000000E+00  0.00000000000E+00  0.13085988077E+04  0.13085988077E+04  0.25500000920E-02 0.  1.
       -2   -1    0    0    0  501  0.00000000000E+00  0.00000000000E+00 -0.16060441232E+04  0.16060441232E+04  0.25500000920E-02 0. -1.
    10030    2    1    2    0    0  0.00000000000E+00  0.00000000000E+00 -0.29744531542E+03  0.29146429309E+04  0.28994257533E+04 0.  0.
        2    1    3    3  502    0 -0.10452509951E+04 -0.41623936367E+03 -0.10677761834E+04  0.15511127710E+04  0.25500000920E-02 0. -1.
       -2    1    3    3    0  502  0.10452509951E+04  0.41623936367E+03  0.77033086794E+03  0.13635301599E+04  0.25500000920E-02 0.  1.
</event>
<event>
 5   0  0.9395744E-08  0.2900711E+04  0.7818609E-02  0.8272666E-01
       -1   -1    0    0    0  501  0.00000000000E+00  0.00000000000E+00  0.82381134570E+03  0.82381134572E+03  0.50400001928E-02 0.  1.
        1   -1    0    0  501    0  0.00000000000E+00  0.00000000000E+00 -0.25534130298E+04  0.25534130298E+04  0.50400001928E-02 0. -1.
    10030    2    1    2    0    0  0.00000000000E+00  0.00000000000E+00 -0.17296016841E+04  0.33772243755E+04  0.29007106882E+04 0.  0.
        2    1    3    3  502    0 -0.11916534584E+04 -0.69649379272E+03 -0.34622252330E+03  0.14230290243E+04  0.25500000920E-02 0.  1.
       -2    1    3    3    0  502  0.11916534584E+04  0.69649379272E+03 -0.13833791608E+04  0.19541953512E+04  0.25500000920E-02 0. -1.
</event>
<event>
 5   0  0.2608591E-07  0.2900074E+04  0.7818609E-02  0.8272855E-01
        2   -1    0    0  501    0  0.00000000000E+00  0.00000000000E+00  0.22047013405E+04  0.22047013405E+04  0.25500000920E-02 0. -1.
       -2   -1    0    0    0  501  0.00000000000E+00  0.00000000000E+00 -0.95369281431E+03  0.95369281432E+03  0.25500000920E-02 0.  1.
    10030    2    1    2    0    0  0.00000000000E+00  0.00000000000E+00  0.12510085262E+04  0.31583941548E+04  0.29000743619E+04 0.  0.
        2    1    3    3  502    0 -0.74972952468E+02 -0.12849675808E+04 -0.10168798453E+03  0.12911634574E+04  0.25500000920E-02 0.  1.
       -2    1    3    3    0  502  0.74972952468E+02  0.12849675808E+04  0.13526965107E+04  0.18672306975E+04  0.25500000920E-02 0. -1.
</event>
<event>
 5   0  0.9395744E-08  0.2899967E+04  0.7818609E-02  0.8272887E-01
       -1   -1    0    0    0  501  0.00000000000E+00  0.00000000000E+00  0.11775534125E+04  0.11775534125E+04  0.50400001928E-02 0.  1.
        1   -1    0    0  501    0  0.00000000000E+00  0.00000000000E+00 -0.17854406040E+04  0.17854406040E+04  0.50400001928E-02 0. -1.
    10030    2    1    2    0    0  0.00000000000E+00  0.00000000000E+00 -0.60788719157E+03  0.29629940165E+04  0.28999666730E+04 0.  0.
        2    1    3    3  502    0 -0.95351007836E+03 -0.12303197419E+03 -0.14129523916E+04  0.17090210055E+04  0.25500000920E-02 0. -1.
       -2    1    3    3    0  502  0.95351007836E+03  0.12303197419E+03  0.80506520002E+03  0.12539730111E+04  0.25500000920E-02 0.  1.
</event>
<event>
 5   0  0.9421924E-08  0.2900374E+04  0.7818609E-02  0.8272766E-01
        1   -1    0    0  501    0  0.00000000000E+00  0.00000000000E+00  0.17735250749E+04  0.17735250749E+04  0.50400001928E-02 0. -1.
       -1   -1    0    0    0  501  0.00000000000E+00  0.00000000000E+00 -0.11857977982E+04  0.11857977982E+04  0.50400001928E-02 0.  1.
    10030    2    1    2    0    0  0.00000000000E+00  0.00000000000E+00  0.58772727664E+03  0.29593228731E+04  0.29003738579E+04 0.  0.
        1    1    3    3  502    0 -0.34683757178E+03  0.13419834596E+04 -0.14121386350E+03  0.13932541987E+04  0.50400001928E-02 0. -1.
       -1    1    3    3    0  502  0.34683757178E+03 -0.13419834596E+04  0.72894114014E+03  0.15660686744E+04  0.50400001928E-02 0.  1.
</event>
<event>
 5   0  0.2608591E-07  0.2899497E+04  0.7818609E-02  0.8273027E-01
        2   -1    0    0  501    0  0.00000000000E+00  0.00000000000E+00  0.12334201050E+04  0.12334201050E+04  0.25500000920E-02 0.  1.
       -2   -1    0    0    0  501  0.00000000000E+00  0.00000000000E+00 -0.17040190239E+04  0.17040190239E+04  0.25500000920E-02 0. -1.
    10030    2    1    2    0    0  0.00000000000E+00  0.00000000000E+00 -0.47059891883E+03  0.29374391289E+04  0.28994974209E+04 0.  0.
        2    1    3    3  502    0 -0.18565683688E+02  0.51304012552E+03  0.11382505468E+04  0.12486669542E+04  0.25500000920E-02 0.  1.
       -2    1    3    3    0  502  0.18565683688E+02 -0.51304012552E+03 -0.16088494657E+04  0.16887721747E+04  0.25500000920E-02 0. -1.
</event>
<event>
 5   0  0.2492232E-07  0.2900428E+04  0.7818609E-02  0.8272750E-01
        2   -1    0    0  501    0  0.00000000000E+00  0.00000000000E+00  0.17940772239E+04  0.17940772239E+04  0.25500000920E-02 0. -1.
       -2   -1    0    0    0  501  0.00000000000E+00  0.00000000000E+00 -0.11722577698E+04  0.11722577698E+04  0.25500000920E-02 0.  1.
    10030    2    1    2    0    0  0.00000000000E+00  0.00000000000E+00  0.62181945415E+03  0.29663349937E+04  0.29004282203E+04 0.  0.
        4    1    3    3  502    0 -0.13483661843E+04  0.20474608597E+03 -0.19335295353E+03  0.13774611806E+04  0.12699999809E+01 0.  1.
       -4    1    3    3    0  502  0.13483661843E+04 -0.20474608597E+03  0.81517240768E+03  0.15888738130E+04  0.12699999809E+01 0. -1.
</event>
<event>
 5   0  0.2546841E-07  0.2909070E+04  0.7818609E-02  0.8270184E-01
        2   -1    0    0  501    0  0.00000000000E+00  0.00000000000E+00  0.22808795247E+04  0.22808795247E+04  0.25500000920E-02 0. -1.
       -2   -1    0    0    0  501  0.00000000000E+00  0.00000000000E+00 -0.92756870944E+03  0.92756870945E+03  0.25500000920E-02 0.  1.
    10030    2    1    2    0    0  0.00000000000E+00  0.00000000000E+00  0.13533108153E+04  0.32084482342E+04  0.29090702825E+04 0.  0.
        1    1    3    3  502    0 -0.71349539229E+03  0.11738226862E+04  0.14917160106E+03  0.13817335272E+04  0.50400001928E-02 0.  1.
       -1    1    3    3    0  502  0.71349539229E+03 -0.11738226862E+04  0.12041392142E+04  0.18267147070E+04  0.50400001928E-02 0. -1.
</event>
<event>
 5   0  0.2546841E-07  0.2897189E+04  0.7818609E-02  0.8273714E-01
       -2   -1    0    0    0  501  0.00000000000E+00  0.00000000000E+00  0.11384259543E+04  0.11384259543E+04  0.25500000920E-02 0. -1.
        2   -1    0    0  501    0  0.00000000000E+00  0.00000000000E+00 -0.18432698711E+04  0.18432698711E+04  0.25500000920E-02 0.  1.
    10030    2    1    2    0    0  0.00000000000E+00  0.00000000000E+00 -0.70484391687E+03  0.29816958254E+04  0.28971891633E+04 0.  0.
        1    1    3    3  502    0 -0.13007739560E+04  0.52152730874E+03  0.24909228046E+02  0.14016504871E+04  0.50400001928E-02 0. -1.
       -1    1    3    3    0  502  0.13007739560E+04 -0.52152730874E+03 -0.72975314492E+03  0.15800453383E+04  0.50400001928E-02 0.  1.
</event>
<event>
 5   0  0.9395744E-08  0.2896619E+04  0.7818609E-02  0.8273884E-01
        1   -1    0    0  501    0  0.00000000000E+00  0.00000000000E+00  0.17748195234E+04  0.17748195234E+04  0.50400001928E-02 0.  1.
       -1   -1    0    0    0  501  0.00000000000E+00  0.00000000000E+00 -0.11818669168E+04  0.11818669168E+04  0.50400001928E-02 0. -1.
    10030    2    1    2    0    0  0.00000000000E+00  0.00000000000E+00  0.59295260663E+03  0.29566864402E+04  0.28966190485E+04 0.  0.
        2    1    3    3  502    0 -0.77716626527E+03 -0.47874320678E+03 -0.85130520831E+03  0.12481598534E+04  0.25500000920E-02 0. -1.
       -2    1    3    3    0  502  0.77716626527E+03  0.47874320678E+03  0.14442578149E+04  0.17085265868E+04  0.25500000920E-02 0.  1.
</event>
<event>
 5   0  0.9395744E-08  0.2899935E+04  0.7818609E-02  0.8272897E-01
        1   -1    0    0  501    0  0.00000000000E+00  0.00000000000E+00  0.14108789519E+04  0.14108789519E+04  0.50400001928E-02 0. -1.
       -1   -1    0    0    0  501  0.00000000000E+00  0.00000000000E+00 -0.14901389048E+04  0.14901389049E+04  0.50400001928E-02 0.  1.
    10030    2    1    2    0    0  0.00000000000E+00  0.00000000000E+00 -0.79259952905E+02  0.29010178568E+04  0.28999349071E+04 0.  0.
        2    1    3    3  502    0 -0.66887339903E+03 -0.80085652835E+03  0.96754429989E+03  0.14229914881E+04  0.25500000920E-02 0. -1.
       -2    1    3    3    0  502  0.66887339903E+03  0.80085652835E+03 -0.10468042528E+04  0.14780263687E+04  0.25500000920E-02 0.  1.
</event>
<event>
 5   0  0.2546841E-07  0.2899181E+04  0.7818609E-02  0.8273121E-01
        2   -1    0    0  501    0  0.00000000000E+00  0.00000000000E+00  0.18986171499E+04  0.18986171499E+04  0.25500000920E-02 0.  1.
       -2   -1    0    0    0  501  0.00000000000E+00  0.00000000000E+00 -0.11067591988E+04  0.11067591988E+04  0.25500000920E-02 0. -1.
    10030    2    1    2    0    0  0.00000000000E+00  0.00000000000E+00  0.79185795106E+03  0.30053763487E+04  0.28991805709E+04 0.  0.
        1    1    3    3  502    0  0.14196201444E+04 -0.63229093920E+02  0.99096609878E+02  0.14244786453E+04  0.50400001928E-02 0. -1.
       -1    1    3    3    0  502 -0.14196201444E+04  0.63229093920E+02  0.69276134118E+03  0.15808977034E+04  0.50400001928E-02 0.  1.
</event>
<event>
 5   0  0.2678723E-07  0.2896512E+04  0.7818609E-02  0.8273916E-01
        2   -1    0    0  501    0  0.00000000000E+00  0.00000000000E+00  0.23963098579E+04  0.23963098579E+04  0.25500000920E-02 0. -1.
       -2   -1    0    0    0  501  0.00000000000E+00  0.00000000000E+00 -0.87528159415E+03  0.87528159415E+03  0.25500000920E-02 0.  1.
    10030    2    1    2    0    0  0.00000000000E+00  0.00000000000E+00  0.15210282637E+04  0.32715914520E+04  0.28965123252E+04 0.  0.
        5    1    3    3  502    0 -0.10786479959E+04 -0.36418780186E+03  0.17715902406E+04  0.21058652199E+04  0.46999998093E+01 0. -1.
       -5    1    3    3    0  502  0.10786479959E+04  0.36418780186E+03 -0.25056197682E+03  0.11657262321E+04  0.46999998093E+01 0.  1.
</event>
<event>
 5   0  0.2492232E-07  0.2899792E+04  0.7818609E-02  0.8272939E-01
       -2   -1    0    0    0  501  0.00000000000E+00  0.00000000000E+00  0.12445979735E+04  0.12445979735E+04  0.25500000920E-02 0. -1.
        2   -1    0    0  501    0  0.00000000000E+00  0.00000000000E+00 -0.16890580880E+04  0.16890580880E+04  0.25500000920E-02 0.  1.
    10030    2    1    2    0    0  0.00000000000E+00  0.00000000000E+00 -0.44446011451E+03  0.29336560614E+04  0.28997919052E+04 0.  0.
        4    1    3    3  502    0 -0.81385491008E+03 -0.97984058627E+03  0.47849802889E+03  0.13606650454E+04  0.12699999809E+01 0. -1.
       -4    1    3    3    0  502  0.81385491008E+03  0.97984058627E+03 -0.92295814340E+03  0.15729910160E+04  0.12699999809E+01 0.  1.
</event>
<event>
 5   0  0.9421924E-08  0.2900684E+04  0.7818609E-02  0.8272674E-01
        1   -1    0    0  501    0  0.00000000000E+00  0.00000000000E+00  0.16888934588E+04  0.16888934588E+04  0.50400001928E-02 0. -1.
       -1   -1    0    0    0  501  0.00000000000E+00  0.00000000000E+00 -0.12454852796E+04  0.12454852796E+04  0.50400001928E-02 0.  1.
    10030    2    1    2    0    0  0.00000000000E+00  0.00000000000E+00  0.44340817918E+03  0.29343787385E+04  0.29006840172E+04 0.  0.
        1    1    3    3  502    0  0.75511166247E+03 -0.37725310362E+03  0.14148016031E+04  0.16474759795E+04  0.50400001928E-02 0. -1.
       -1    1    3    3    0  502 -0.75511166247E+03  0.37725310362E+03 -0.97139342389E+03  0.12869027589E+04  0.50400001928E-02 0.  1.
</event>
<event>
 5   0  0.2534588E-07  0.2889847E+04  0.7818609E-02  0.8275905E-01
        2   -1    0    0  501    0  0.00000000000E+00  0.00000000000E+00  0.17403119564E+04  0.17403119564E+04  0.25500000920E-02 0. -1.
       -2   -1    0    0    0  501  0.00000000000E+00  0.00000000000E+00 -0.11996721612E+04  0.11996721612E+04  0.25500000920E-02 0.  1.
    10030    2    1    2    0    0  0.00000000000E+00  0.00000000000E+00  0.54063979520E+03  0.29399841177E+04  0.28898469205E+04 0.  0.
        3    1    3    3  502    0  0.73653189088E+03 -0.10235553196E+04 -0.44736880707E+03  0.13380147900E+04  0.10100000352E+00 0.  1.
       -3    1    3    3    0  502 -0.73653189088E+03  0.10235553196E+04  0.98800860227E+03  0.16019693277E+04  0.10100000352E+00 0. -1.
</event>
<event>
 5   0  0.2546841E-07  0.2903740E+04  0.7818609E-02  0.8271765E-01
        2   -1    0    0  501    0  0.00000000000E+00  0.00000000000E+00  0.23306654415E+04  0.23306654415E+04  0.25500000920E-02 0. -1.
       -2   -1    0    0    0  501  0.00000000000E+00  0.00000000000E+00 -0.90443148012E+03  0.90443148013E+03  0.25500000920E-02 0.  1.
    10030    2    1    2    0    0  0.00000000000E+00  0.00000000000E+00  0.14262339614E+04  0.32350969216E+04  0.29037404808E+04 0.  0.
        1    1    3    3  502    0  0.48853128840E+03  0.64235391045E+03 -0.63152443031E+03  0.10247460525E+04  0.50400001928E-02 0.  1.
       -1    1    3    3    0  502 -0.48853128840E+03 -0.64235391045E+03  0.20577583917E+04  0.22103508691E+04  0.50400001928E-02 0. -1.
</event>
<event>
 5   0  0.9443352E-08  0.2898914E+04  0.7818609E-02  0.8273201E-01
       -1   -1    0    0    0  501  0.00000000000E+00  0.00000000000E+00  0.70656161007E+03  0.70656161009E+03  0.50400001928E-02 0. -1.
        1   -1    0    0  501    0  0.00000000000E+00  0.00000000000E+00 -0.29734494027E+04  0.29734494027E+04  0.50400001928E-02 0.  1.
    10030    2    1    2    0    0  0.00000000000E+00  0.00000000000E+00 -0.22668877927E+04  0.36800110128E+04  0.28989137259E+04 0.  0.
        4    1    3    3  502    0 -0.11479779295E+04  0.86640511874E+03 -0.13619877842E+04  0.19807886040E+04  0.12699999809E+01 0. -1.
       -4    1    3    3    0  502  0.11479779295E+04 -0.86640511874E+03 -0.90490000842E+03  0.16992224088E+04  0.12699999809E+01 0.  1.
</event>
<event>
 5   0  0.2534588E-07  0.2899542E+04  0.7818609E-02  0.8273014E-01
        2   -1    0    0  501    0  0.00000000000E+00  0.00000000000E+00  0.13477940155E+04  0.13477940155E+04  0.25500000920E-02 0.  1.
       -2   -1    0    0    0  501  0.00000000000E+00  0.00000000000E+00 -0.15594636321E+04  0.15594636321E+04  0.25500000920E-02 0. -1.
    10030    2    1    2    0    0  0.00000000000E+00  0.00000000000E+00 -0.21166961661E+03  0.29072576475E+04  0.28995418608E+04 0.  0.
        3    1    3    3  502    0 -0.42230026270E+03 -0.13850677393E+04 -0.17733787089E+03  0.14588347696E+04  0.10100000352E+00 0.  1.
       -3    1    3    3    0  502  0.42230026270E+03  0.13850677393E+04 -0.34331745728E+02  0.14484228779E+04  0.10100000352E+00 0. -1.
</event>
<event>
 5   0  0.2546841E-07  0.2900190E+04  0.7818609E-02  0.8272821E-01
        2   -1    0    0  501    0  0.00000000000E+00  0.00000000000E+00  0.14969599584E+04  0.14969599584E+04  0.25500000920E-02 0.  1.
       -2   -1    0    0    0  501  0.00000000000E+00  0.00000000000E+00 -0.14046968726E+04  0.14046968726E+04  0.25500000920E-02 0. -1.
    10030    2    1    2    0    0  0.00000000000E+00  0.00000000000E+00  0.92263085746E+02  0.29016568310E+04  0.29001896296E+04 0.  0.
        1    1    3    3  502    0  0.63616393279E+03 -0.20983062720E+03 -0.12406145501E+04  0.14099141475E+04  0.50400001928E-02 0. -1.
       -1    1    3    3    0  502 -0.63616393279E+03  0.20983062720E+03  0.13328776358E+04  0.14917426835E+04  0.50400001928E-02 0.  1.
</event>
<event>
 5   0  0.9395744E-08  0.2902027E+04  0.7818609E-02  0.8272275E-01
        1   -1    0    0  501    0  0.00000000000E+00  0.00000000000E+00  0.10703707061E+04  0.10703707061E+04  0.50400001928E-02 0. -1.
       -1   -1    0    0    0  501  0.00000000000E+00  0.00000000000E+00 -0.19670199296E+04  0.19670199296E+04  0.50400001928E-02 0.  1.
    10030    2    1    2    0    0  0.00000000000E+00  0.00000000000E+00 -0.89664922347E+03  0.30373906357E+04  0.29020272301E+04 0.  0.
        2    1    3    3  502    0 -0.20799263999E+03  0.80375214145E+03 -0.16938587784E+04  0.18863817228E+04  0.25500000920E-02 0.  1.
       -2    1    3    3    0  502  0.20799263999E+03 -0.80375214145E+03  0.79720955490E+03  0.11510089129E+04  0.25500000920E-02 0. -1.
</event>
<event>
 5   0  0.2678723E-07  0.2899636E+04  0.7818609E-02  0.8272986E-01
       -2   -1    0    0    0  501  0.00000000000E+00  0.00000000000E+00  0.91959107360E+03  0.91959107361E+03  0.25500000920E-02 0. -1.
        2   -1    0    0  501    0  0.00000000000E+00  0.00000000000E+00 -0.22857687085E+04  0.22857687085E+04  0.25500000920E-02 0.  1.
    10030    2    1    2    0    0  0.00000000000E+00  0.00000000000E+00 -0.13661776349E+04  0.32053597822E+04  0.28996361846E+04 0.  0.
        5    1    3    3  502    0 -0.75711662558E+03  0.10811697489E+04 -0.20014936511E+02  0.13200667780E+04  0.46999998093E+01 0. -1.
       -5    1    3    3    0  502  0.75711662558E+03 -0.10811697489E+04 -0.13461626984E+04  0.18852930041E+04  0.46999998093E+01 0.  1.
</event>
<event>
 5   0  0.9421924E-08  0.2898674E+04  0.7818609E-02  0.8273272E-01
       -1   -1    0    0    0  501  0.00000000000E+00  0.00000000000E+00  0.11806716272E+04  0.11806716273E+04  0.50400001928E-02 0. -1.
        1   -1    0    0  501    0  0.00000000000E+00  0.00000000000E+00 -0.17791383685E+04  0.17791383685E+04  0.50400001928E-02 0.  1.
    10030    2    1    2    0    0  0.00000000000E+00  0.00000000000E+00 -0.59846674127E+03  0.29598099958E+04  0.28986743126E+04 0.  0.
        1    1    3    3  502    0  0.67857654170E+03  0.78270775814E+03 -0.13342593084E+04  0.16891848506E+04  0.50400001928E-02 0.  1.
       -1    1    3    3    0  502 -0.67857654170E+03 -0.78270775814E+03  0.73579256712E+03  0.12706251451E+04  0.50400001928E-02 0. -1.
</event>
<event>
 5   0  0.2546841E-07  0.2899922E+04  0.7818609E-02  0.8272901E-01
       -2   -1    0    0    0  501  0.00000000000E+00  0.00000000000E+00  0.10001975416E+04  0.10001975416E+04  0.25500000920E-02 0.  1.
        2   -1    0    0  501    0  0.00000000000E+00  0.00000000000E+00 -0.21019715942E+04  0.21019715942E+04  0.25500000920E-02 0. -1.
    10030    2    1    2    0    0  0.00000000000E+00  0.00000000000E+00 -0.11017740526E+04  0.31021691359E+04  0.28999219446E+04 0.  0.
        1    1    3    3  502    0 -0.17784465750E+03  0.11488710330E+04 -0.14778379768E+04  0.18803027571E+04  0.50400001928E-02 0. -1.
       -1    1    3    3    0  502  0.17784465750E+03 -0.11488710330E+04  0.37606392413E+03  0.12218663788E+04  0.50400001928E-02 0.  1.
</event>
<event>
 5   0  0.2608591E-07  0.2900552E+04  0.7818609E-02  0.8272713E-01
       -2   -1    0    0    0  501  0.00000000000E+00  0.00000000000E+00  0.16200136514E+04  0.16200136514E+04  0.25500000920E-02 0.  1.
        2   -1    0    0  501    0  0.00000000000E+00  0.00000000000E+00 -0.12983227830E+04  0.12983227830E+04  0.25500000920E-02 0. -1.
    10030    2    1    2    0    0  0.00000000000E+00  0.00000000000E+00  0.32169086837E+03  0.29183364345E+04  0.29005521078E+04 0.  0.
        2    1    3    3  502    0  0.14647739628E+03  0.12749570782E+04  0.84050891579E+03  0.15340881384E+04  0.25500000920E-02 0.  1.
       -2    1    3    3    0  502 -0.14647739628E+03 -0.12749570782E+04 -0.51881804742E+03  0.13842482961E+04  0.25500000920E-02 0. -1.
</event>
<event>
 5   0  0.8407500E-08  0.2900502E+04  0.7818609E-02  0.8272728E-01
        3   -1    0    0  501    0  0.00000000000E+00  0.00000000000E+00  0.12855385651E+04  0.12855385691E+04  0.10100000352E+00 0. -1.
       -3   -1    0    0    0  501  0.00000000000E+00  0.00000000000E+00 -0.16360678946E+04  0.16360678977E+04  0.10100000352E+00 0.  1.
    10030    2    1    2    0    0  0.00000000000E+00  0.00000000000E+00 -0.35052932946E+03  0.29216064668E+04  0.29005022903E+04 0.  0.
        2    1    3    3  502    0  0.40815721137E+02  0.55285135891E+03  0.11746046846E+04  0.12988482257E+04  0.25500000920E-02 0. -1.
       -2    1    3    3    0  502 -0.40815721137E+02 -0.55285135891E+03 -0.15251340141E+04  0.16227582411E+04  0.25500000920E-02 0.  1.
</event>
<event>
 5   0  0.9763851E-08  0.2901553E+04  0.7818609E-02  0.8272416E-01
       -1   -1    0    0    0  501  0.00000000000E+00  0.00000000000E+00  0.11882089421E+04  0.11882089421E+04  0.50400001928E-02 0. -1.
        1   -1    0    0  501    0  0.00000000000E+00  0.00000000000E+00 -0.17713657503E+04  0.17713657503E+04  0.50400001928E-02 0.  1.
    10030    2    1    2    0    0  0.00000000000E+00  0.00000000000E+00 -0.58315680819E+03  0.29595746924E+04  0.29015531180E+04 0.  0.
        3    1    3    3  502    0 -0.24117015680E+03  0.13442255366E+04 -0.79090537858E+03  0.15781751062E+04  0.10100000352E+00 0.  1.
       -3    1    3    3    0  502  0.24117015680E+03 -0.13442255366E+04  0.20774857039E+03  0.13813995861E+04  0.10100000352E+00 0. -1.
</event>
<event>
 5   0  0.2534588E-07  0.2900025E+04  0.7818609E-02  0.8272870E-01
        2   -1    0    0  501    0  0.00000000000E+00  0.00000000000E+00  0.13339392306E+04  0.13339392307E+04  0.25500000920E-02 0.  1.
       -2   -1    0    0    0  501  0.00000000000E+00  0.00000000000E+00 -0.15761858166E+04  0.15761858166E+04  0.25500000920E-02 0. -1.
    10030    2    1    2    0    0  0.00000000000E+00  0.00000000000E+00 -0.24224658593E+03  0.29101250472E+04  0.29000248934E+04 0.  0.
        3    1    3    3  502    0 -0.12576338659E+04  0.41092131543E+03  0.47427004105E+03  0.14055003914E+04  0.10100000352E+00 0.  1.
       -3    1    3    3    0  502  0.12576338659E+04 -0.41092131543E+03 -0.71651662698E+03  0.15046246559E+04  0.10100000352E+00 0. -1.
</event>
<event>
 5   0  0.2678723E-07  0.2899813E+04  0.7818609E-02  0.8272933E-01
       -2   -1    0    0    0  501  0.00000000000E+00  0.00000000000E+00  0.13940438431E+04  0.13940438431E+04  0.25500000920E-02 0.  1.
        2   -1    0    0  501    0  0.00000000000E+00  0.00000000000E+00 -0.15080075539E+04  0.15080075539E+04  0.25500000920E-02 0. -1.
    10030    2    1    2    0    0  0.00000000000E+00  0.00000000000E+00 -0.11396371074E+03  0.29020513970E+04  0.28998128532E+04 0.  0.
        5    1    3    3  502    0 -0.46883241006E+03  0.13708088052E+04  0.38557465079E+00  0.14487728765E+04  0.46999998093E+01 0. -1.
       -5    1    3    3    0  502  0.46883241006E+03 -0.13708088052E+04 -0.11434928539E+03  0.14532785205E+04  0.46999998093E+01 0.  1.
</event>
<event>
 5   0  0.8407500E-08  0.2900793E+04  0.7818609E-02  0.8272642E-01
       -3   -1    0    0    0  501  0.00000000000E+00  0.00000000000E+00  0.15648426257E+04  0.15648426290E+04  0.10100000352E+00 0.  1.
        3   -1    0    0  501    0  0.00000000000E+00  0.00000000000E+00 -0.13443205688E+04  0.13443205726E+04  0.10100000352E+00 0. -1.
    10030    2    1    2    0    0  0.00000000000E+00  0.00000000000E+00  0.22052205687E+03  0.29091632016E+04  0.29007930909E+04 0.  0.
        2    1    3    3  502    0 -0.10426359925E+04 -0.73426261462E+03  0.80320969562E+03  0.15071088929E+04  0.25500000920E-02 0.  1.
       -2    1    3    3    0  502  0.10426359925E+04  0.73426261462E+03 -0.58268763874E+03  0.14020543087E+04  0.25500000920E-02 0. -1.
</event>
<event>
 5   0  0.2546841E-07  0.2899540E+04  0.7818609E-02  0.8273014E-01
        2   -1    0    0  501    0  0.00000000000E+00  0.00000000000E+00  0.14089354983E+04  0.14089354983E+04  0.25500000920E-02 0. -1.
       -2   -1    0    0    0  501  0.00000000000E+00  0.00000000000E+00 -0.14917882771E+04  0.14917882772E+04  0.25500000920E-02 0.  1.
    10030    2    1    2    0    0  0.00000000000E+00  0.00000000000E+00 -0.82852778834E+02  0.29007237755E+04  0.28995402806E+04 0.  0.
        1    1    3    3  502    0 -0.12499125950E+04  0.27140113013E+03 -0.72426882558E+03  0.14698657763E+04  0.50400001928E-02 0.  1.
       -1    1    3    3    0  502  0.12499125950E+04 -0.27140113013E+03  0.64141604675E+03  0.14308579991E+04  0.50400001928E-02 0. -1.
</event>
<event>
 5   0  0.9421924E-08  0.2900158E+04  0.7818609E-02  0.8272830E-01
       -1   -1    0    0    0  501  0.00000000000E+00  0.00000000000E+00  0.18065532186E+04  0.18065532186E+04  0.50400001928E-02 0.  1.
        1   -1    0    0  501    0  0.00000000000E+00  0.00000000000E+00 -0.11639456075E+04  0.11639456075E+04  0.50400001928E-02 0. -1.
    10030    2    1    2    0    0  0.00000000000E+00  0.00000000000E+00  0.64260761110E+03  0.29704988262E+04  0.29001583982E+04 0.  0.
        1    1    3    3  502    0 -0.35285991422E+03  0.11308397914E+04 -0.53529404256E+03  0.12999417160E+04  0.50400001928E-02 0. -1.
       -1    1    3    3    0  502  0.35285991422E+03 -0.11308397914E+04  0.11779016537E+04  0.16705571102E+04  0.50400001928E-02 0.  1.
</event>
<event>
 5   0  0.2534588E-07  0.2905431E+04  0.7818609E-02  0.8271263E-01
        2   -1    0    0  501    0  0.00000000000E+00  0.00000000000E+00  0.68092538260E+03  0.68092538261E+03  0.25500000920E-02 0.  1.
       -2   -1    0    0    0  501  0.00000000000E+00  0.00000000000E+00 -0.30992867825E+04  0.30992867825E+04  0.25500000920E-02 0. -1.
    10030    2    1    2    0    0  0.00000000000E+00  0.00000000000E+00 -0.24183613999E+04  0.37802121651E+04  0.29054314917E+04 0.  0.
        3    1    3    3  502    0  0.21911706584E+03 -0.14274713933E+04 -0.14136463031E+04  0.20209113656E+04  0.10100000352E+00 0. -1.
       -3    1    3    3    0  502 -0.21911706584E+03  0.14274713933E+04 -0.10047150968E+04  0.17593007995E+04  0.10100000352E+00 0.  1.
</event>
<event>
 5   0  0.2492232E-07  0.2900160E+04  0.7818609E-02  0.8272830E-01
       -2   -1    0    0    0  501  0.00000000000E+00  0.00000000000E+00  0.18319367349E+04  0.18319367349E+04  0.25500000920E-02 0.  1.
        2   -1    0    0  501    0  0.00000000000E+00  0.00000000000E+00 -0.11478189398E+04  0.11478189398E+04  0.25500000920E-02 0. -1.
    10030    2    1    2    0    0  0.00000000000E+00  0.00000000000E+00  0.68411779511E+03  0.29797556746E+04  0.29001597754E+04 0.  0.
        4    1    3    3  502    0 -0.24596698982E+03  0.42048575351E+03 -0.10612306247E+04  0.11676986258E+04  0.12699999809E+01 0. -1.
       -4    1    3    3    0  502  0.24596698982E+03 -0.42048575351E+03  0.17453484198E+04  0.18120570489E+04  0.12699999809E+01 0.  1.
</event>
<event>
 5   0  0.2608591E-07  0.2911940E+04  0.7818609E-02  0.8269334E-01
        2   -1    0    0  501    0  0.00000000000E+00  0.00000000000E+00  0.16096250992E+04  0.16096250992E+04  0.25500000920E-02 0.  1.
       -2   -1    0    0    0  501  0.00000000000E+00  0.00000000000E+00 -0.13169828552E+04  0.13169828552E+04  0.25500000920E-02 0. -1.
    10030    2    1    2    0    0  0.00000000000E+00  0.00000000000E+00  0.29264224399E+03  0.29266079544E+04  0.29119400124E+04 0.  0.
        2    1    3    3  502    0  0.74189323719E+03 -0.12247816295E+04 -0.11835507567E+03  0.14368380352E+04  0.25500000920E-02 0. -1.
       -2    1    3    3    0  502 -0.74189323719E+03  0.12247816295E+04  0.41099731966E+03  0.14897699192E+04  0.25500000920E-02 0.  1.
</event>
<event>
 5   0  0.2492232E-07  0.2900962E+04  0.7818609E-02  0.8272591E-01
       -2   -1    0    0    0  501  0.00000000000E+00  0.00000000000E+00  0.13370745829E+04  0.13370745829E+04  0.25500000920E-02 0. -1.
        2   -1    0    0  501    0  0.00000000000E+00  0.00000000000E+00 -0.15735061906E+04  0.15735061906E+04  0.25500000920E-02 0.  1.
    10030    2    1    2    0    0  0.00000000000E+00  0.00000000000E+00 -0.23643160771E+03  0.29105807735E+04  0.29009620015E+04 0.  0.
        4    1    3    3  502    0  0.10141721235E+04 -0.10340316502E+04 -0.19675031210E+03  0.14616698833E+04  0.12699999809E+01 0. -1.
       -4    1    3    3    0  502 -0.10141721235E+04  0.10340316502E+04 -0.39681295609E+02  0.14489108902E+04  0.12699999809E+01 0.  1.
</event>
<event>
 5   0  0.2546841E-07  0.2888946E+04  0.7818609E-02  0.8276174E-01
       -2   -1    0    0    0  501  0.00000000000E+00  0.00000000000E+00  0.62109365521E+03  0.62109365521E+03  0.25500000920E-02 0.  1.
        2   -1    0    0  501    0  0.00000000000E+00  0.00000000000E+00 -0.33593998654E+04  0.33593998654E+04  0.25500000920E-02 0. -1.
    10030    2    1    2    0    0  0.00000000000E+00  0.00000000000E+00 -0.27383062102E+04  0.39804935206E+04  0.28889457881E+04 0.  0.
        1    1    3    3  502    0 -0.12441747919E+04  0.41276611787E+03 -0.53314021168E+03  0.14151272969E+04  0.50400001928E-02 0.  1.
       -1    1    3    3    0  502  0.12441747919E+04 -0.41276611787E+03 -0.22051659985E+04  0.25653662237E+04  0.50400001928E-02 0. -1.
</event>
<event>
 5   0  0.8407500E-08  0.2899764E+04  0.7818609E-02  0.8272948E-01
        3   -1    0    0  501    0  0.00000000000E+00  0.00000000000E+00  0.13534412074E+04  0.13534412111E+04  0.10100000352E+00 0.  1.
       -3   -1    0    0    0  501  0.00000000000E+00  0.00000000000E+00 -0.15531948826E+04  0.15531948859E+04  0.10100000352E+00 0. -1.
    10030    2    1    2    0    0  0.00000000000E+00  0.00000000000E+00 -0.19975367524E+03  0.29066360970E+04  0.28997641059E+04 0.  0.
        2    1    3    3  502    0  0.38791957764E+03  0.10548894706E+04 -0.10179538156E+04  0.15164113441E+04  0.25500000920E-02 0. -1.
       -2    1    3    3    0  502 -0.38791957764E+03 -0.10548894706E+04  0.81820014035E+03  0.13902247529E+04  0.25500000920E-02 0.  1.
</event>
<event>
 5   0  0.9421924E-08  0.2900041E+04  0.7818609E-02  0.8272865E-01
       -1   -1    0    0    0  501  0.00000000000E+00  0.00000000000E+00  0.23914909323E+04  0.23914909323E+04  0.50400001928E-02 0. -1.
        1   -1    0    0  501    0  0.00000000000E+00  0.00000000000E+00 -0.87918332600E+03  0.87918332601E+03  0.50400001928E-02 0.  1.
    10030    2    1    2    0    0  0.00000000000E+00  0.00000000000E+00  0.15123076063E+04  0.32706742583E+04  0.29000406563E+04 0.  0.
        1    1    3    3  502    0 -0.11835228820E+04  0.65098723341E+03  0.13508473425E+04  0.19103139358E+04  0.50400001928E-02 0. -1.
       -1    1    3    3    0  502  0.11835228820E+04 -0.65098723341E+03  0.16146026381E+03  0.13603603226E+04  0.50400001928E-02 0.  1.
</event>
<event>
 5   0  0.2546841E-07  0.2899453E+04  0.7818609E-02  0.8273040E-01
       -2   -1    0    0    0  501  0.00000000000E+00  0.00000000000E+00  0.12262074855E+04  0.12262074855E+04  0.25500000920E-02 0. -1.
        2   -1    0    0  501    0  0.00000000000E+00  0.00000000000E+00 -0.17139893152E+04  0.17139893152E+04  0.25500000920E-02 0.  1.
    10030    2    1    2    0    0  0.00000000000E+00  0.00000000000E+00 -0.48778182967E+03  0.29401968006E+04  0.28994527265E+04 0.  0.
        1    1    3    3  502    0  0.70361926308E+03 -0.52365795160E+03 -0.14144116632E+04  0.16642890586E+04  0.50400001928E-02 0.  1.
       -1    1    3    3    0  502 -0.70361926308E+03  0.52365795160E+03  0.92662983354E+03  0.12759077420E+04  0.50400001928E-02 0. -1.
</event>
<event>
 5   0  0.9395744E-08  0.2898938E+04  0.7818609E-02  0.8273193E-01
       -1   -1    0    0    0  501  0.00000000000E+00  0.00000000000E+00  0.15906180445E+04  0.15906180446E+04  0.50400001928E-02 0. -1.
        1   -1    0    0  501    0  0.00000000000E+00  0.00000000000E+00 -0.13208456318E+04  0.13208456318E+04  0.50400001928E-02 0.  1.
    10030    2    1    2    0    0  0.00000000000E+00  0.00000000000E+00  0.26977241273E+03  0.29114636764E+04  0.28989383547E+04 0.  0.
        2    1    3    3  502    0  0.88472563176E+03  0.46655754134E+03 -0.91871534081E+03  0.13581064982E+04  0.25500000920E-02 0.  1.
       -2    1    3    3    0  502 -0.88472563176E+03 -0.46655754134E+03  0.11884877535E+04  0.15533571782E+04  0.25500000920E-02 0. -1.
</event>
<event>
 5   0  0.9763851E-08  0.2899567E+04  0.7818609E-02  0.8273006E-01
       -1   -1    0    0    0  501  0.00000000000E+00  0.00000000000E+00  0.10669765166E+04  0.10669765167E+04  0.50400001928E-02 0. -1.
        1   -1    0    0  501    0  0.00000000000E+00  0.00000000000E+00 -0.19699336145E+04  0.19699336146E+04  0.50400001928E-02 0.  1.
    10030    2    1    2    0    0  0.00000000000E+00  0.00000000000E+00 -0.90295709791E+03  0.30369101312E+04  0.28995674892E+04 0.  0.
        3    1    3    3  502    0  0.28567787296E+03 -0.14040086289E+04 -0.68337227525E+03  0.15874034628E+04  0.10100000352E+00 0.  1.
       -3    1    3    3    0  502 -0.28567787296E+03  0.14040086289E+04 -0.21958482265E+03  0.14495066684E+04  0.10100000352E+00 0. -1.
</event>
<event>
 5   0  0.9443352E-08  0.2899069E+04  0.7818609E-02  0.8273155E-01
       -1   -1    0    0    0  501  0.00000000000E+00  0.00000000000E+00  0.12060297037E+04  0.12060297037E+04  0.50400001928E-02 0.  1.
        1   -1    0    0  501    0  0.00000000000E+00  0.00000000000E+00 -0.17422039931E+04  0.17422039931E+04  0.50400001928E-02 0. -1.
    10030    2    1    2    0    0  0.00000000000E+00  0.00000000000E+00 -0.53617428939E+03  0.29482336968E+04  0.28990686543E+04 0.  0.
        4    1    3    3  502    0  0.65443153606E+03 -0.60982737410E+03  0.89186052539E+03  0.12631654172E+04  0.12699999809E+01 0.  1.
       -4    1    3    3    0  502 -0.65443153606E+03  0.60982737410E+03 -0.14280348148E+04  0.16850682795E+04  0.12699999809E+01 0. -1.
</event>
<event>
 5   0  0.2546841E-07  0.2900021E+04  0.7818609E-02  0.8272871E-01
       -2   -1    0    0    0  501  0.00000000000E+00  0.00000000000E+00  0.76467023913E+03  0.76467023914E+03  0.25500000920E-02 0. -1.
        2   -1    0    0  501    0  0.00000000000E+00  0.00000000000E+00 -0.27495906171E+04  0.27495906171E+04  0.25500000920E-02 0.  1.
    10030    2    1    2    0    0  0.00000000000E+00  0.00000000000E+00 -0.19849203780E+04  0.35142608562E+04  0.29000207687E+04 0.  0.
        1    1    3    3  502    0 -0.11766768435E+04 -0.13450329395E+03  0.21315231341E+02  0.11845310757E+04  0.50400001928E-02 0. -1.
       -1    1    3    3    0  502  0.11766768435E+04  0.13450329395E+03 -0.20062356093E+04  0.23297297805E+04  0.50400001928E-02 0.  1.
</event>
<event>
 5   0  0.9395744E-08  0.2898303E+04  0.7818609E-02  0.8273382E-01
        1   -1    0    0  501    0  0.00000000000E+00  0.00000000000E+00  0.21581156704E+04  0.21581156704E+04  0.50400001928E-02 0.  1.
       -1   -1    0    0    0  501  0.00000000000E+00  0.00000000000E+00 -0.97308991574E+03  0.97308991575E+03  0.50400001928E-02 0. -1.
    10030    2    1    2    0    0  0.00000000000E+00  0.00000000000E+00  0.11850257546E+04  0.31312055861E+04  0.28983033629E+04 0.  0.
        2    1    3    3  502    0  0.11932257094E+04  0.51466625626E+02 -0.29417369540E+03  0.12300303127E+04  0.25500000920E-02 0. -1.
       -2    1    3    3    0  502 -0.11932257094E+04 -0.51466625626E+02  0.14791994500E+04  0.19011752734E+04  0.25500000920E-02 0.  1.
</event>
<event>
 5   0  0.9388076E-08  0.2900238E+04  0.7818609E-02  0.8272807E-01
        1   -1    0    0  501    0  0.00000000000E+00  0.00000000000E+00  0.87936276438E+03  0.87936276440E+03  0.50400001928E-02 0.  1.
       -1   -1    0    0    0  501  0.00000000000E+00  0.00000000000E+00 -0.23913280113E+04  0.23913280113E+04  0.50400001928E-02 0. -1.
    10030    2    1    2    0    0  0.00000000000E+00  0.00000000000E+00 -0.15119652469E+04  0.32706907757E+04  0.29002377906E+04 0.  0.
        5    1    3    3  502    0  0.47458292389E+03 -0.13451467369E+04 -0.10504351922E+04  0.17714640494E+04  0.46999998093E+01 0.  1.
       -5    1    3    3    0  502 -0.47458292389E+03  0.13451467369E+04 -0.46153005466E+03  0.14992267262E+04  0.46999998093E+01 0. -1.
</event>
<event>
 5   0  0.9388076E-08  0.2900555E+04  0.7818609E-02  0.8272713E-01
       -1   -1    0    0    0  501  0.00000000000E+00  0.00000000000E+00  0.11136768218E+04  0.11136768218E+04  0.50400001928E-02 0. -1.
        1   -1    0    0  501    0  0.00000000000E+00  0.00000000000E+00 -0.18886126681E+04  0.18886126681E+04  0.50400001928E-02 0.  1.
    10030    2    1    2    0    0  0.00000000000E+00  0.00000000000E+00 -0.77493584627E+03  0.30022894899E+04  0.29005545358E+04 0.  0.
        5    1    3    3  502    0  0.29901186659E+03  0.13905049848E+04 -0.68090711790E+03  0.15768857924E+04  0.46999998093E+01 0.  1.
       -5    1    3    3    0  502 -0.29901186659E+03 -0.13905049848E+04 -0.94028728376E+02  0.14254036975E+04  0.46999998093E+01 0. -1.
</event>
<event>
 5   0  0.2546841E-07  0.2902200E+04  0.7818609E-02  0.8272223E-01
        2   -1    0    0  501    0  0.00000000000E+00  0.00000000000E+00  0.20182134679E+04  0.20182134679E+04  0.25500000920E-02 0.  1.
       -2   -1    0    0    0  501  0.00000000000E+00  0.00000000000E+00 -0.10433440316E+04  0.10433440316E+04  0.25500000920E-02 0. -1.
    10030    2    1    2    0    0  0.00000000000E+00  0.00000000000E+00  0.97486943637E+03  0.30615574995E+04  0.29021998389E+04 0.  0.
        1    1    3    3  502    0 -0.48588205350E+03  0.10398746505E+04 -0.44916213319E+03  0.12325450420E+04  0.50400001928E-02 0. -1.
       -1    1    3    3    0  502  0.48588205350E+03 -0.10398746505E+04  0.14240315696E+04  0.18290124575E+04  0.50400001928E-02 0.  1.
</event>
<event>
 5   0  0.9388076E-08  0.2911522E+04  0.7818609E-02  0.8269458E-01
       -1   -1    0    0    0  501  0.00000000000E+00  0.00000000000E+00  0.12099569193E+04  0.12099569193E+04  0.50400001928E-02 0. -1.
        1   -1    0    0  501    0  0.00000000000E+00  0.00000000000E+00 -0.17515006074E+04  0.17515006074E+04  0.50400001928E-02 0.  1.
    10030    2    1    2    0    0  0.00000000000E+00  0.00000000000E+00 -0.54154368817E+03  0.29614575267E+04  0.29115221305E+04 0.  0.
        5    1    3    3  502    0  0.20048706548E+03 -0.13833760235E+04 -0.68430832763E+03  0.15563496596E+04  0.46999998093E+01 0.  1.
       -5    1    3    3    0  502 -0.20048706548E+03  0.13833760235E+04  0.14276463946E+03  0.14051078671E+04  0.46999998093E+01 0. -1.
</event>
<event>
 5   0  0.2608591E-07  0.2900819E+04  0.7818609E-02  0.8272634E-01
        2   -1    0    0  501    0  0.00000000000E+00  0.00000000000E+00  0.21434428860E+04  0.21434428860E+04  0.25500000920E-02 0.  1.
       -2   -1    0    0    0  501  0.00000000000E+00  0.00000000000E+00 -0.98145241189E+03  0.98145241189E+03  0.25500000920E-02 0. -1.
    10030    2    1    2    0    0  0.00000000000E+00  0.00000000000E+00  0.11619904742E+04  0.31248952979E+04  0.29008186364E+04 0.  0.
        2    1    3    3  502    0 -0.87214207020E+03 -0.35461932793E+03  0.17695352293E+04  0.20044055443E+04  0.25500000920E-02 0.  1.
       -2    1    3    3    0  502  0.87214207020E+03  0.35461932793E+03 -0.60754475517E+03  0.11204897536E+04  0.25500000920E-02 0. -1.
</event>
<event>
 5   0  0.9395744E-08  0.2901056E+04  0.7818609E-02  0.8272563E-01
       -1   -1    0    0    0  501  0.00000000000E+00  0.00000000000E+00  0.94510616426E+03  0.94510616427E+03  0.50400001928E-02 0.  1.
        1   -1    0    0  501    0  0.00000000000E+00  0.00000000000E+00 -0.22262380035E+04  0.22262380035E+04  0.50400001928E-02 0. -1.
    10030    2    1    2    0    0  0.00000000000E+00  0.00000000000E+00 -0.12811318393E+04  0.31713441678E+04  0.29010558494E+04 0.  0.
        2    1    3    3  502    0 -0.47332176431E+03  0.95535411032E+03  0.43457910080E+03  0.11513444157E+04  0.25500000920E-02 0.  1.
       -2    1    3    3    0  502  0.47332176431E+03 -0.95535411032E+03 -0.17157109401E+04  0.20199997521E+04  0.25500000920E-02 0. -1.
</event>
<event>
 5   0  0.2678723E-07  0.2900599E+04  0.7818609E-02  0.8272699E-01
        2   -1    0    0  501    0  0.00000000000E+00  0.00000000000E+00  0.13445073698E+04  0.13445073698E+04  0.25500000920E-02 0. -1.
       -2   -1    0    0    0  501  0.00000000000E+00  0.00000000000E+00 -0.15644154138E+04  0.15644154138E+04  0.25500000920E-02 0.  1.
    10030    2    1    2    0    0  0.00000000000E+00  0.00000000000E+00 -0.21990804397E+03  0.29089227836E+04  0.29005985957E+04 0.  0.
        5    1    3    3  502    0  0.74722818512E+03  0.66851716172E+03  0.94094675034E+03  0.13750156483E+04  0.46999998093E+01 0. -1.
       -5    1    3    3    0  502 -0.74722818512E+03 -0.66851716172E+03 -0.11608547943E+04  0.15339071353E+04  0.46999998093E+01 0.  1.
</event>
<event>
 5   0  0.2492232E-07  0.2899860E+04  0.7818609E-02  0.8272919E-01
       -2   -1    0    0    0  501  0.00000000000E+00  0.00000000000E+00  0.94137034344E+03  0.94137034344E+03  0.25500000920E-02 0.  1.
        2   -1    0    0  501    0  0.00000000000E+00  0.00000000000E+00 -0.22332304427E+04  0.22332304427E+04  0.25500000920E-02 0. -1.
    10030    2    1    2    0    0  0.00000000000E+00  0.00000000000E+00 -0.12918600992E+04  0.31746007861E+04  0.28998599337E+04 0.  0.
        4    1    3    3  502    0 -0.13498415563E+04 -0.50402157436E+03 -0.82308000658E+03  0.16593891300E+04  0.12699999809E+01 0. -1.
       -4    1    3    3    0  502  0.13498415563E+04  0.50402157436E+03 -0.46878009265E+03  0.15152116561E+04  0.12699999809E+01 0.  1.
</event>
<event>
 5   0  0.2492232E-07  0.2900266E+04  0.7818609E-02  0.8272798E-01
        2   -1    0    0  501    0  0.00000000000E+00  0.00000000000E+00  0.82597859358E+03  0.82597859358E+03  0.25500000920E-02 0. -1.
       -2   -1    0    0    0  501  0.00000000000E+00  0.00000000000E+00 -0.25459320533E+04  0.25459320533E+04  0.25500000920E-02 0.  1.
    10030    2    1    2    0    0  0.00000000000E+00  0.00000000000E+00 -0.17199534597E+04  0.33719106469E+04  0.29002657649E+04 0.  0.
        4    1    3    3  502    0  0.43988678629E+03 -0.23865285888E+03  0.72239659243E+03  0.87881398570E+03  0.12699999809E+01 0. -1.
       -4    1    3    3    0  502 -0.43988678629E+03  0.23865285888E+03 -0.24423500522E+04  0.24930966612E+04  0.12699999809E+01 0.  1.
</event>
<event>
 5   0  0.8407500E-08  0.2901792E+04  0.7818609E-02  0.8272345E-01
       -3   -1    0    0    0  501  0.00000000000E+00  0.00000000000E+00  0.14982928825E+04  0.14982928859E+04  0.10100000352E+00 0.  1.
        3   -1    0    0  501    0  0.00000000000E+00  0.00000000000E+00 -0.14049981965E+04  0.14049982001E+04  0.10100000352E+00 0. -1.
    10030    2    1    2    0    0  0.00000000000E+00  0.00000000000E+00  0.93294686019E+02  0.29032910861E+04  0.29017917279E+04 0.  0.
        4    1    3    3  502    0  0.98242193918E+03 -0.12319469600E+03  0.11077458456E+04  0.14857430030E+04  0.12699999809E+01 0.  1.
       -4    1    3    3    0  502 -0.98242193918E+03  0.12319469600E+03 -0.10144511596E+04  0.14175480831E+04  0.12699999809E+01 0. -1.
</event>
<event>
 5   0  0.8407500E-08  0.2902494E+04  0.7818609E-02  0.8272136E-01
        3   -1    0    0  501    0  0.00000000000E+00  0.00000000000E+00  0.20726861579E+04  0.20726861604E+04  0.10100000352E+00 0. -1.
       -3   -1    0    0    0  501  0.00000000000E+00  0.00000000000E+00 -0.10161295157E+04  0.10161295207E+04  0.10100000352E+00 0.  1.
    10030    2    1    2    0    0  0.00000000000E+00  0.00000000000E+00  0.10565566423E+04  0.30888156811E+04  0.29024938197E+04 0.  0.
        3    1    3    3  502    0 -0.34298803524E+03 -0.12073478867E+04 -0.24704203223E+03  0.12792026765E+04  0.10100000352E+00 0.  1.
       -3    1    3    3    0  502  0.34298803524E+03  0.12073478867E+04  0.13035986745E+04  0.18096130045E+04  0.10100000352E+00 0. -1.
</event>
<event>
 5   0  0.9388076E-08  0.2900108E+04  0.7818609E-02  0.8272845E-01
        1   -1    0    0  501    0  0.00000000000E+00  0.00000000000E+00  0.16084828527E+04  0.16084828527E+04  0.50400001928E-02 0.  1.
       -1   -1    0    0    0  501  0.00000000000E+00  0.00000000000E+00 -0.13072297618E+04  0.13072297618E+04  0.50400001928E-02 0. -1.
    10030    2    1    2    0    0  0.00000000000E+00  0.00000000000E+00  0.30125309090E+03  0.29157126145E+04  0.29001080368E+04 0.  0.
        5    1    3    3  502    0  0.67344042564E+03  0.65089749029E+03  0.12635811586E+04  0.15728474129E+04  0.46999998093E+01 0.  1.
       -5    1    3    3    0  502 -0.67344042564E+03 -0.65089749029E+03 -0.96232806772E+03  0.13428652016E+04  0.46999998093E+01 0. -1.
</event>
<event>
 5   0  0.2492232E-07  0.2899160E+04  0.7818609E-02  0.8273127E-01
       -2   -1    0    0    0  501  0.00000000000E+00  0.00000000000E+00  0.15208637954E+04  0.15208637954E+04  0.25500000920E-02 0. -1.
        2   -1    0    0  501    0  0.00000000000E+00  0.00000000000E+00 -0.13816377136E+04  0.13816377136E+04  0.25500000920E-02 0.  1.
    10030    2    1    2    0    0  0.00000000000E+00  0.00000000000E+00  0.13922608181E+03  0.29025015090E+04  0.28991604143E+04 0.  0.
        4    1    3    3  502    0  0.56073545278E+02 -0.63160111281E+03  0.13746554493E+04  0.15138505294E+04  0.12699999809E+01 0. -1.
       -4    1    3    3    0  502 -0.56073545278E+02  0.63160111281E+03 -0.12354293675E+04  0.13886509796E+04  0.12699999809E+01 0.  1.
</event>
<event>
 5   0  0.2678723E-07  0.2899618E+04  0.7818609E-02  0.8272991E-01
       -2   -1    0    0    0  501  0.00000000000E+00  0.00000000000E+00  0.10696772427E+04  0.10696772427E+04  0.25500000920E-02 0.  1.
        2   -1    0    0  501    0  0.00000000000E+00  0.00000000000E+00 -0.19650278097E+04  0.19650278097E+04  0.25500000920E-02 0. -1.
    10030    2    1    2    0    0  0.00000000000E+00  0.00000000000E+00 -0.89535056700E+03  0.30347050524E+04  0.28996175812E+04 0.  0.
        5    1    3    3  502    0  0.60463293050E+03  0.30013131721E+02 -0.18264101993E+04  0.19241304724E+04  0.46999998093E+01 0. -1.
       -5    1    3    3    0  502 -0.60463293050E+03 -0.30013131721E+02  0.93105963232E+03  0.11105745800E+04  0.46999998093E+01 0.  1.
</event>
<event>
 5   0  0.9388076E-08  0.2899058E+04  0.7818609E-02  0.8273158E-01
       -1   -1    0    0    0  501  0.00000000000E+00  0.00000000000E+00  0.13984459732E+04  0.13984459732E+04  0.50400001928E-02 0.  1.
        1   -1    0    0  501    0  0.00000000000E+00  0.00000000000E+00 -0.15024781360E+04  0.15024781360E+04  0.50400001928E-02 0. -1.
    10030    2    1    2    0    0  0.00000000000E+00  0.00000000000E+00 -0.10403216283E+03  0.29009241093E+04  0.28990581223E+04 0.  0.
        5    1    3    3  502    0  0.14288029732E+04  0.18433925678E+03  0.10825414671E+03  0.14447144867E+04  0.46999998093E+01 0. -1.
       -5    1    3    3    0  502 -0.14288029732E+04 -0.18433925678E+03 -0.21228630954E+03  0.14562096226E+04  0.46999998093E+01 0.  1.
</event>
<event>
 5   0  0.2492232E-07  0.2899815E+04  0.7818609E-02  0.8272933E-01
        2   -1    0    0  501    0  0.00000000000E+00  0.00000000000E+00  0.83852004256E+03  0.83852004257E+03  0.25500000920E-02 0.  1.
       -2   -1    0    0    0  501  0.00000000000E+00  0.00000000000E+00 -0.25070733515E+04  0.25070733515E+04  0.25500000920E-02 0. -1.
    10030    2    1    2    0    0  0.00000000000E+00  0.00000000000E+00 -0.16685533089E+04  0.33455933941E+04  0.28998146516E+04 0.  0.
        4    1    3    3  502    0 -0.22183898982E+03 -0.13346954775E+04 -0.23300342695E+03  0.13729227090E+04  0.12699999809E+01 0.  1.
       -4    1    3    3    0  502  0.22183898982E+03  0.13346954775E+04 -0.14355498820E+04  0.19726706851E+04  0.12699999809E+01 0. -1.
</event>
<event>
 5   0  0.2546841E-07  0.2901546E+04  0.7818609E-02  0.8272418E-01
        2   -1    0    0  501    0  0.00000000000E+00  0.00000000000E+00  0.12153172154E+04  0.12153172154E+04  0.25500000920E-02 0.  1.
       -2   -1    0    0    0  501  0.00000000000E+00  0.00000000000E+00 -0.17318456965E+04  0.17318456965E+04  0.25500000920E-02 0. -1.
    10030    2    1    2    0    0  0.00000000000E+00  0.00000000000E+00 -0.51652848113E+03  0.29471629118E+04  0.29015457186E+04 0.  0.
        1    1    3    3  502    0 -0.30774946213E+03 -0.14135866891E+04 -0.36862243755E+03  0.14929231596E+04  0.50400001928E-02 0. -1.
       -1    1    3    3    0  502  0.30774946213E+03  0.14135866891E+04 -0.14790604358E+03  0.14542397522E+04  0.50400001928E-02 0.  1.
</event>
<event>
 5   0  0.9763851E-08  0.2901307E+04  0.7818609E-02  0.8272489E-01
       -1   -1    0    0    0  501  0.00000000000E+00  0.00000000000E+00  0.20354926133E+04  0.20354926134E+04  0.50400001928E-02 0. -1.
        1   -1    0    0  501    0  0.00000000000E+00  0.00000000000E+00 -0.10338509879E+04  0.10338509879E+04  0.50400001928E-02 0.  1.
    10030    2    1    2    0    0  0.00000000000E+00  0.00000000000E+00  0.10016416255E+04  0.30693436012E+04  0.29013073254E+04 0.  0.
        3    1    3    3  502    0  0.13655094387E+04 -0.22105583085E+03  0.96306455398E+03  0.16855192235E+04  0.10100000352E+00 0. -1.
       -3    1    3    3    0  502 -0.13655094387E+04  0.22105583085E+03  0.38577071508E+02  0.13838243777E+04  0.10100000352E+00 0.  1.
</event>
<event>
 5   0  0.2534588E-07  0.2899990E+04  0.7818609E-02  0.8272880E-01
        2   -1    0    0  501    0  0.00000000000E+00  0.00000000000E+00  0.15104736845E+04  0.15104736845E+04  0.25500000920E-02 0. -1.
       -2   -1    0    0    0  501  0.00000000000E+00  0.00000000000E+00 -0.13919379652E+04  0.13919379652E+04  0.25500000920E-02 0.  1.
    10030    2    1    2    0    0  0.00000000000E+00  0.00000000000E+00  0.11853571929E+03  0.29024116498E+04  0.28999901151E+04 0.  0.
        3    1    3    3  502    0  0.99558117610E+03  0.93713067876E+03  0.54246481638E+03  0.14709397930E+04  0.10100000352E+00 0. -1.
       -3    1    3    3    0  502 -0.99558117610E+03 -0.93713067876E+03 -0.42392909709E+03  0.14314718568E+04  0.10100000352E+00 0.  1.
</event>
<event>
 5   0  0.9763851E-08  0.2897967E+04  0.7818609E-02  0.8273482E-01
       -1   -1    0    0    0  501  0.00000000000E+00  0.00000000000E+00  0.10404034177E+04  0.10404034178E+04  0.50400001928E-02 0. -1.
        1   -1    0    0  501    0  0.00000000000E+00  0.00000000000E+00 -0.20180188883E+04  0.20180188883E+04  0.50400001928E-02 0.  1.
    10030    2    1    2    0    0  0.00000000000E+00  0.00000000000E+00 -0.97761547054E+03  0.30584223060E+04  0.28979673901E+04 0.  0.
        3    1    3    3  502    0  0.38008008859E+03 -0.11775652197E+04 -0.12844971974E+04  0.17835508910E+04  0.10100000352E+00 0.  1.
       -3    1    3    3    0  502 -0.38008008859E+03  0.11775652197E+04  0.30688172683E+03  0.12748714151E+04  0.10100000352E+00 0. -1.
</event>
<event>
 5   0  0.9388076E-08  0.2900493E+04  0.7818609E-02  0.8272731E-01
        1   -1    0    0  501    0  0.00000000000E+00  0.00000000000E+00  0.14694221937E+04  0.14694221937E+04  0.50400001928E-02 0. -1.
       -1   -1    0    0    0  501  0.00000000000E+00  0.00000000000E+00 -0.14313209323E+04  0.14313209323E+04  0.50400001928E-02 0.  1.
    10030    2    1    2    0    0  0.00000000000E+00  0.00000000000E+00  0.38101261325E+02  0.29007431260E+04  0.29004928852E+04 0.  0.
        5    1    3    3  502    0  0.13693019490E+04  0.38426102710E+03 -0.26478416114E+03  0.14466433930E+04  0.46999998093E+01 0.  1.
       -5    1    3    3    0  502 -0.13693019490E+04 -0.38426102710E+03  0.30288542246E+03  0.14540997330E+04  0.46999998093E+01 0. -1.
</event>
<event>
 5   0  0.9421924E-08  0.2895108E+04  0.7818609E-02  0.8274335E-01
        1   -1    0    0  501    0  0.00000000000E+00  0.00000000000E+00  0.18192126265E+04  0.18192126265E+04  0.50400001928E-02 0. -1.
       -1   -1    0    0    0  501  0.00000000000E+00  0.00000000000E+00 -0.11518237558E+04  0.11518237558E+04  0.50400001928E-02 0.  1.
    10030    2    1    2    0    0  0.00000000000E+00  0.00000000000E+00  0.66738887066E+03  0.29710363823E+04  0.28951078184E+04 0.  0.
        1    1    3    3  502    0 -0.46992282721E+03  0.76739767927E+03  0.14973129628E+04  0.17469037668E+04  0.50400001928E-02 0. -1.
       -1    1    3    3    0  502  0.46992282721E+03 -0.76739767927E+03 -0.82992409217E+03  0.12241326156E+04  0.50400001928E-02 0.  1.
</event>
<event>
 5   0  0.9421924E-08  0.2899971E+04  0.7818609E-02  0.8272886E-01
       -1   -1    0    0    0  501  0.00000000000E+00  0.00000000000E+00  0.87197630686E+03  0.87197630687E+03  0.50400001928E-02 0.  1.
        1   -1    0    0  501    0  0.00000000000E+00  0.00000000000E+00 -0.24111418636E+04  0.24111418637E+04  0.50400001928E-02 0. -1.
    10030    2    1    2    0    0  0.00000000000E+00  0.00000000000E+00 -0.15391655568E+04  0.32831181705E+04  0.28999714327E+04 0.  0.
        1    1    3    3  502    0 -0.30929343651E+03  0.14054371633E+04 -0.97064989130E+03  0.17358217827E+04  0.50400001928E-02 0. -1.
       -1    1    3    3    0  502  0.30929343651E+03 -0.14054371633E+04 -0.56851566549E+03  0.15472963878E+04  0.50400001928E-02 0.  1.
</event>
<event>
 5   0  0.2534588E-07  0.2900043E+04  0.7818609E-02  0.8272865E-01
       -2   -1    0    0    0  501  0.00000000000E+00  0.00000000000E+00  0.96262462075E+03  0.96262462076E+03  0.25500000920E-02 0. -1.
        2   -1    0    0  501    0  0.00000000000E+00  0.00000000000E+00 -0.21841980620E+04  0.21841980620E+04  0.25500000920E-02 0.  1.
    10030    2    1    2    0    0  0.00000000000E+00  0.00000000000E+00 -0.12215734413E+04  0.31468226828E+04  0.29000433315E+04 0.  0.
        3    1    3    3  502    0  0.10691786552E+04  0.97349556984E+03 -0.49328440477E+03  0.15277978058E+04  0.10100000352E+00 0.  1.
       -3    1    3    3    0  502 -0.10691786552E+04 -0.97349556984E+03 -0.72828903650E+03  0.16190248770E+04  0.10100000352E+00 0. -1.
</event>
<event>
 5   0  0.9421924E-08  0.2894360E+04  0.7818609E-02  0.8274558E-01
        1   -1    0    0  501    0  0.00000000000E+00  0.00000000000E+00  0.20934263014E+04  0.20934263014E+04  0.50400001928E-02 0.  1.
       -1   -1    0    0    0  501  0.00000000000E+00  0.00000000000E+00 -0.10004314585E+04  0.10004314585E+04  0.50400001928E-02 0. -1.
    10030    2    1    2    0    0  0.00000000000E+00  0.00000000000E+00  0.10929948429E+04  0.30938577599E+04  0.28943597067E+04 0.  0.
        1    1    3    3  502    0  0.14372145099E+04 -0.15638248014E+03  0.47649701316E+03  0.15221992087E+04  0.50400001928E-02 0. -1.
       -1    1    3    3    0  502 -0.14372145099E+04  0.15638248014E+03  0.61649782969E+03  0.15716585512E+04  0.50400001928E-02 0.  1.
</event>
<event>
 5   0  0.9395744E-08  0.2900406E+04  0.7818609E-02  0.8272757E-01
        1   -1    0    0  501    0  0.00000000000E+00  0.00000000000E+00  0.86411126803E+03  0.86411126805E+03  0.50400001928E-02 0.  1.
       -1   -1    0    0    0  501  0.00000000000E+00  0.00000000000E+00 -0.24338166952E+04  0.24338166952E+04  0.50400001928E-02 0. -1.
    10030    2    1    2    0    0  0.00000000000E+00  0.00000000000E+00 -0.15697054272E+04  0.32979279632E+04  0.29004057859E+04 0.  0.
        2    1    3    3  502    0  0.53414887147E+03  0.13440324231E+04 -0.66371334705E+03  0.15913056206E+04  0.25500000920E-02 0.  1.
       -2    1    3    3    0  502 -0.53414887147E+03 -0.13440324231E+04 -0.90599208011E+03  0.17066223426E+04  0.25500000920E-02 0. -1.
</event>
<event>
 5   0  0.9388076E-08  0.2899980E+04  0.7818609E-02  0.8272884E-01
       -1   -1    0    0    0  501  0.00000000000E+00  0.00000000000E+00  0.14345578553E+04  0.14345578553E+04  0.50400001928E-02 0.  1.
        1   -1    0    0  501    0  0.00000000000E+00  0.00000000000E+00 -0.14655877147E+04  0.14655877147E+04  0.50400001928E-02 0. -1.
    10030    2    1    2    0    0  0.00000000000E+00  0.00000000000E+00 -0.31029859389E+02  0.29001455700E+04  0.28999795645E+04 0.  0.
        5    1    3    3  502    0  0.28567072503E+03 -0.18880321503E+03  0.13935348024E+04  0.14349967779E+04  0.46999998093E+01 0.  1.
       -5    1    3    3    0  502 -0.28567072503E+03  0.18880321503E+03 -0.14245646618E+04  0.14651487920E+04  0.46999998093E+01 0. -1.
</event>
<event>
 5   0  0.2546841E-07  0.2901970E+04  0.7818609E-02  0.8272292E-01
       -2   -1    0    0    0  501  0.00000000000E+00  0.00000000000E+00  0.12510461599E+04  0.12510461599E+04  0.25500000920E-02 0. -1.
        2   -1    0    0  501    0  0.00000000000E+00  0.00000000000E+00 -0.16828770022E+04  0.16828770022E+04  0.25500000920E-02 0.  1.
    10030    2    1    2    0    0  0.00000000000E+00  0.00000000000E+00 -0.43183084228E+03  0.29339231622E+04  0.29019695459E+04 0.  0.
        1    1    3    3  502    0  0.90961324815E+03  0.45182495795E+03  0.83174507718E+03  0.13127611844E+04  0.50400001928E-02 0. -1.
       -1    1    3    3    0  502 -0.90961324815E+03 -0.45182495795E+03 -0.12635759195E+04  0.16211619778E+04  0.50400001928E-02 0.  1.
</event>
<event>
 5   0  0.2534588E-07  0.2900422E+04  0.7818609E-02  0.8272752E-01
        2   -1    0    0  501    0  0.00000000000E+00  0.00000000000E+00  0.16946054480E+04  0.16946054480E+04  0.25500000920E-02 0. -1.
       -2   -1    0    0    0  501  0.00000000000E+00  0.00000000000E+00 -0.12410630313E+04  0.12410630313E+04  0.25500000920E-02 0.  1.
    10030    2    1    2    0    0  0.00000000000E+00  0.00000000000E+00  0.45354241667E+03  0.29356684792E+04  0.29004221583E+04 0.  0.
        3    1    3    3  502    0 -0.98108990741E+03 -0.10653759503E+04  0.15137543888E+03  0.14561860649E+04  0.10100000352E+00 0.  1.
       -3    1    3    3    0  502  0.98108990741E+03  0.10653759503E+04  0.30216697779E+03  0.14794824144E+04  0.10100000352E+00 0. -1.
</event>
<event>
 5   0  0.9421924E-08  0.2888340E+04  0.7818609E-02  0.8276355E-01
       -1   -1    0    0    0  501  0.00000000000E+00  0.00000000000E+00  0.12246956227E+04  0.12246956227E+04  0.50400001928E-02 0. -1.
        1   -1    0    0  501    0  0.00000000000E+00  0.00000000000E+00 -0.17029757684E+04  0.17029757684E+04  0.50400001928E-02 0.  1.
    10030    2    1    2    0    0  0.00000000000E+00  0.00000000000E+00 -0.47828014573E+03  0.29276713911E+04  0.28883399863E+04 0.  0.
        1    1    3    3  502    0 -0.32969983731E+03 -0.12918085166E+04 -0.80181705427E+03  0.15557576337E+04  0.50400001928E-02 0.  1.
       -1    1    3    3    0  502  0.32969983731E+03  0.12918085166E+04  0.32353690854E+03  0.13719137573E+04  0.50400001928E-02 0. -1.
</event>
<event>
 5   0  0.9395744E-08  0.2899419E+04  0.7818609E-02  0.8273050E-01
       -1   -1    0    0    0  501  0.00000000000E+00  0.00000000000E+00  0.26348359741E+04  0.26348359741E+04  0.50400001928E-02 0.  1.
        1   -1    0    0  501    0  0.00000000000E+00  0.00000000000E+00 -0.79764242222E+03  0.79764242224E+03  0.50400001928E-02 0. -1.
    10030    2    1    2    0    0  0.00000000000E+00  0.00000000000E+00  0.18371935519E+04  0.34324783964E+04  0.28994185269E+04 0.  0.
        2    1    3    3  502    0 -0.44013538386E+03  0.57929029836E+03  0.24030720606E+04  0.25107870747E+04  0.25500000920E-02 0.  1.
       -2    1    3    3    0  502  0.44013538386E+03 -0.57929029836E+03 -0.56587850869E+03  0.92169132170E+03  0.25500000920E-02 0. -1.
</event>
<event>
 5   0  0.9443352E-08  0.2899341E+04  0.7818609E-02  0.8273074E-01
       -1   -1    0    0    0  501  0.00000000000E+00  0.00000000000E+00  0.12654288992E+04  0.12654288992E+04  0.50400001928E-02 0. -1.
        1   -1    0    0  501    0  0.00000000000E+00  0.00000000000E+00 -0.16607372438E+04  0.16607372438E+04  0.50400001928E-02 0.  1.
    10030    2    1    2    0    0  0.00000000000E+00  0.00000000000E+00 -0.39530834461E+03  0.29261661431E+04  0.28993412372E+04 0.  0.
        4    1    3    3  502    0  0.12177264628E+04  0.78015279979E+03 -0.96491262187E+02  0.14494165398E+04  0.12699999809E+01 0. -1.
       -4    1    3    3    0  502 -0.12177264628E+04 -0.78015279979E+03 -0.29881708242E+03  0.14767496033E+04  0.12699999809E+01 0.  1.
</event>
<event>
 5   0  0.9763851E-08  0.2899219E+04  0.7818609E-02  0.8273110E-01
       -1   -1    0    0    0  501  0.00000000000E+00  0.00000000000E+00  0.17201259182E+04  0.17201259182E+04  0.50400001928E-02 0. -1.
        1   -1    0    0  501    0  0.00000000000E+00  0.00000000000E+00 -0.12216358340E+04  0.12216358340E+04  0.50400001928E-02 0.  1.
    10030    2    1    2    0    0  0.00000000000E+00  0.00000000000E+00  0.49849008422E+03  0.29417617522E+04  0.28992188332E+04 0.  0.
        3    1    3    3  502    0  0.71003346088E+03  0.12635130818E+04  0.22137146905E+03  0.14661576181E+04  0.10100000352E+00 0. -1.
       -3    1    3    3    0  502 -0.71003346088E+03 -0.12635130818E+04  0.27711861517E+03  0.14756041341E+04  0.10100000352E+00 0.  1.
</event>
<event>
 5   0  0.9421924E-08  0.2899971E+04  0.7818609E-02  0.8272886E-01
        1   -1    0    0  501    0  0.00000000000E+00  0.00000000000E+00  0.21005958507E+04  0.21005958507E+04  0.50400001928E-02 0. -1.
       -1   -1    0    0    0  501  0.00000000000E+00  0.00000000000E+00 -0.10008865904E+04  0.10008865904E+04  0.50400001928E-02 0.  1.
    10030    2    1    2    0    0  0.00000000000E+00  0.00000000000E+00  0.10997092603E+04  0.31014824411E+04  0.28999711853E+04 0.  0.
        1    1    3    3  502    0  0.41967384859E+03 -0.56139004599E+03  0.19073763025E+04  0.20320849594E+04  0.50400001928E-02 0. -1.
       -1    1    3    3    0  502 -0.41967384859E+03  0.56139004599E+03 -0.80766704218E+03  0.10693974818E+04  0.50400001928E-02 0.  1.
</event>
<event>
 5   0  0.2492232E-07  0.2898138E+04  0.7818609E-02  0.8273432E-01
       -2   -1    0    0    0  501  0.00000000000E+00  0.00000000000E+00  0.81908349604E+03  0.81908349605E+03  0.25500000920E-02 0. -1.
        2   -1    0    0  501    0  0.00000000000E+00  0.00000000000E+00 -0.25635977441E+04  0.25635977441E+04  0.25500000920E-02 0.  1.
    10030    2    1    2    0    0  0.00000000000E+00  0.00000000000E+00 -0.17445142481E+04  0.33826812402E+04  0.28981377488E+04 0.  0.
        4    1    3    3  502    0  0.13427297164E+04 -0.34959556227E+03 -0.38446213052E+03  0.14397752919E+04  0.12699999809E+01 0. -1.
       -4    1    3    3    0  502 -0.13427297164E+04  0.34959556227E+03 -0.13600521176E+04  0.19429059483E+04  0.12699999809E+01 0.  1.
</event>
<event>
 5   0  0.2492232E-07  0.2899688E+04  0.7818609E-02  0.8272970E-01
        2   -1    0    0  501    0  0.00000000000E+00  0.00000000000E+00  0.18176755025E+04  0.18176755025E+04  0.25500000920E-02 0. -1.
       -2   -1    0    0    0  501  0.00000000000E+00  0.00000000000E+00 -0.11564484198E+04  0.11564484198E+04  0.25500000920E-02 0.  1.
    10030    2    1    2    0    0  0.00000000000E+00  0.00000000000E+00  0.66122708272E+03  0.29741239223E+04  0.28996882333E+04 0.  0.
        4    1    3    3  502    0  0.10321674828E+04  0.89510304119E+00 -0.71369598996E+03  0.12548840954E+04  0.12699999809E+01 0.  1.
       -4    1    3    3    0  502 -0.10321674828E+04 -0.89510304119E+00  0.13749230727E+04  0.17192398269E+04  0.12699999809E+01 0. -1.
</event>
<event>
 5   0  0.9421924E-08  0.2900258E+04  0.7818609E-02  0.8272801E-01
       -1   -1    0    0    0  501  0.00000000000E+00  0.00000000000E+00  0.11414420590E+04  0.11414420590E+04  0.50400001928E-02 0.  1.
        1   -1    0    0  501    0  0.00000000000E+00  0.00000000000E+00 -0.18422962897E+04  0.18422962897E+04  0.50400001928E-02 0. -1.
    10030    2    1    2    0    0  0.00000000000E+00  0.00000000000E+00 -0.70085423068E+03  0.29837383487E+04  0.29002582438E+04 0.  0.
        1    1    3    3  502    0 -0.28140096732E+03 -0.87641208539E+03  0.80235693637E+03  0.12210902101E+04  0.50400001928E-02 0.  1.
       -1    1    3    3    0  502  0.28140096732E+03  0.87641208539E+03 -0.15032111670E+04  0.17626481386E+04  0.50400001928E-02 0. -1.
</event>
<event>
 5   0  0.9443352E-08  0.2901647E+04  0.7818609E-02  0.8272387E-01
       -1   -1    0    0    0  501  0.00000000000E+00  0.00000000000E+00  0.15072140511E+04  0.15072140511E+04  0.50400001928E-02 0. -1.
        1   -1    0    0  501    0  0.00000000000E+00  0.00000000000E+00 -0.13965431538E+04  0.13965431538E+04  0.50400001928E-02 0.  1.
    10030    2    1    2    0    0  0.00000000000E+00  0.00000000000E+00  0.11067089728E+03  0.29037572049E+04  0.29016474385E+04 0.  0.
        4    1    3    3  502    0 -0.95626130896E+03  0.24210819443E+02  0.11469383578E+04  0.14934828637E+04  0.12699999809E+01 0. -1.
       -4    1    3    3    0  502  0.95626130896E+03 -0.24210819443E+02 -0.10362674605E+04  0.14102743412E+04  0.12699999809E+01 0.  1.
</event>
<event>
 5   0  0.2492232E-07  0.2900159E+04  0.7818609E-02  0.8272830E-01
        2   -1    0    0  501    0  0.00000000000E+00  0.00000000000E+00  0.21918700734E+04  0.21918700734E+04  0.25500000920E-02 0. -1.
       -2   -1    0    0    0  501  0.00000000000E+00  0.00000000000E+00 -0.95933160539E+03  0.95933160539E+03  0.25500000920E-02 0.  1.
    10030    2    1    2    0    0  0.00000000000E+00  0.00000000000E+00  0.12325384680E+04  0.31512016788E+04  0.29001587793E+04 0.  0.
        4    1    3    3  502    0  0.73642576404E+03 -0.78683976954E+03  0.16704519492E+04  0.19879263206E+04  0.12699999809E+01 0. -1.
       -4    1    3    3    0  502 -0.73642576404E+03  0.78683976954E+03 -0.43791348122E+03  0.11632753581E+04  0.12699999809E+01 0.  1.
</event>
<event>
 5   0  0.2492232E-07  0.2899961E+04  0.7818609E-02  0.8272889E-01
       -2   -1    0    0    0  501  0.00000000000E+00  0.00000000000E+00  0.17998992725E+04  0.17998992725E+04  0.25500000920E-02 0. -1.
        2   -1    0    0  501    0  0.00000000000E+00  0.00000000000E+00 -0.11680899075E+04  0.11680899075E+04  0.25500000920E-02 0.  1.
    10030    2    1    2    0    0  0.00000000000E+00  0.00000000000E+00  0.63180936500E+03  0.29679891799E+04  0.28999614995E+04 0.  0.
        4    1    3    3  502    0  0.12799156330E+04  0.67442571644E+03  0.21663194993E+03  0.14628619516E+04  0.12699999809E+01 0.  1.
       -4    1    3    3    0  502 -0.12799156330E+04 -0.67442571644E+03  0.41517741507E+03  0.15051272284E+04  0.12699999809E+01 0. -1.
</event>
<event>
 5   0  0.2678723E-07  0.2899456E+04  0.7818609E-02  0.8273039E-01
       -2   -1    0    0    0  501  0.00000000000E+00  0.00000000000E+00  0.10461500436E+04  0.10461500436E+04  0.25500000920E-02 0. -1.
        2   -1    0    0  501    0  0.00000000000E+00  0.00000000000E+00 -0.20089953489E+04  0.20089953489E+04  0.25500000920E-02 0.  1.
    10030    2    1    2    0    0  0.00000000000E+00  0.00000000000E+00 -0.96284530525E+03  0.30551453925E+04  0.28994555157E+04 0.  0.
        5    1    3    3  502    0  0.11115055787E+04  0.77636512954E+03  0.59464392602E+02  0.13571092697E+04  0.46999998093E+01 0.  1.
       -5    1    3    3    0  502 -0.11115055787E+04 -0.77636512954E+03 -0.10223096979E+04  0.16980361228E+04  0.46999998093E+01 0. -1.
</event>
<event>
 5   0  0.2546841E-07  0.2900080E+04  0.7818609E-02  0.8272854E-01
       -2   -1    0    0    0  501  0.00000000000E+00  0.00000000000E+00  0.22109122840E+04  0.22109122840E+04  0.25500000920E-02 0.  1.
        2   -1    0    0  501    0  0.00000000000E+00  0.00000000000E+00 -0.95101723410E+03  0.95101723410E+03  0.25500000920E-02 0. -1.
    10030    2    1    2    0    0  0.00000000000E+00  0.00000000000E+00  0.12598950499E+04  0.31619295181E+04  0.29000797818E+04 0.  0.
        1    1    3    3  502    0  0.51873639376E+02  0.12455011995E+04  0.14375368199E+04  0.19027549031E+04  0.50400001928E-02 0. -1.
       -1    1    3    3    0  502 -0.51873639376E+02 -0.12455011995E+04 -0.17764177007E+03  0.12591746150E+04  0.50400001928E-02 0.  1.
</event>
<event>
 5   0  0.8407500E-08  0.2898847E+04  0.7818609E-02  0.8273221E-01
        3   -1    0    0  501    0  0.00000000000E+00  0.00000000000E+00  0.17927570274E+04  0.17927570303E+04  0.10100000352E+00 0.  1.
       -3   -1    0    0    0  501  0.00000000000E+00  0.00000000000E+00 -0.11718421806E+04  0.11718421849E+04  0.10100000352E+00 0. -1.
    10030    2    1    2    0    0  0.00000000000E+00  0.00000000000E+00  0.62091484686E+03  0.29645992152E+04  0.28988468844E+04 0.  0.
        2    1    3    3  502    0 -0.50030914355E+02 -0.13311736931E+04 -0.27372765725E+03  0.13599460739E+04  0.25500000920E-02 0. -1.
       -2    1    3    3    0  502  0.50030914355E+02  0.13311736931E+04  0.89464250411E+03  0.16046531413E+04  0.25500000920E-02 0.  1.
</event>
<event>
 5   0  0.2678723E-07  0.2899673E+04  0.7818609E-02  0.8272975E-01
        2   -1    0    0  501    0  0.00000000000E+00  0.00000000000E+00  0.10197661843E+04  0.10197661843E+04  0.25500000920E-02 0. -1.
       -2   -1    0    0    0  501  0.00000000000E+00  0.00000000000E+00 -0.20612827415E+04  0.20612827415E+04  0.25500000920E-02 0.  1.
    10030    2    1    2    0    0  0.00000000000E+00  0.00000000000E+00 -0.10415165572E+04  0.30810489258E+04  0.28996733858E+04 0.  0.
        5    1    3    3  502    0  0.31673968102E+03 -0.12922339615E+04  0.91303649765E+02  0.13336232913E+04  0.46999998093E+01 0. -1.
       -5    1    3    3    0  502 -0.31673968102E+03  0.12922339615E+04 -0.11328202069E+04  0.17474256345E+04  0.46999998093E+01 0.  1.
</event>
<event>
 5   0  0.9395744E-08  0.2900029E+04  0.7818609E-02  0.8272869E-01
       -1   -1    0    0    0  501  0.00000000000E+00  0.00000000000E+00  0.11820067965E+04  0.11820067965E+04  0.50400001928E-02 0.  1.
        1   -1    0    0  501    0  0.00000000000E+00  0.00000000000E+00 -0.17787901230E+04  0.17787901230E+04  0.50400001928E-02 0. -1.
    10030    2    1    2    0    0  0.00000000000E+00  0.00000000000E+00 -0.59678332651E+03  0.29607969196E+04  0.29000289757E+04 0.  0.
        2    1    3    3  502    0  0.16107792630E+03  0.12997168484E+04 -0.93379280288E+03  0.16084710078E+04  0.25500000920E-02 0. -1.
       -2    1    3    3    0  502 -0.16107792630E+03 -0.12997168484E+04  0.33700947637E+03  0.13523259117E+04  0.25500000920E-02 0.  1.
</event>
<event>
 5   0  0.2678723E-07  0.2899834E+04  0.7818609E-02  0.8272927E-01
        2   -1    0    0  501    0  0.00000000000E+00  0.00000000000E+00  0.20515460848E+04  0.20515460848E+04  0.25500000920E-02 0.  1.
       -2   -1    0    0    0  501  0.00000000000E+00  0.00000000000E+00 -0.10247195081E+04  0.10247195081E+04  0.25500000920E-02 0. -1.
    10030    2    1    2    0    0  0.00000000000E+00  0.00000000000E+00  0.10268265768E+04  0.30762655929E+04  0.28998339917E+04 0.  0.
        5    1    3    3  502    0  0.54618439195E+03 -0.17279194807E+02 -0.91128650978E+03  0.10625823043E+04  0.46999998093E+01 0. -1.
       -5    1    3    3    0  502 -0.54618439195E+03  0.17279194807E+02  0.19381130865E+04  0.20136832886E+04  0.46999998093E+01 0.  1.
</event>
<event>
 5   0  0.9763851E-08  0.2905041E+04  0.7818609E-02  0.8271379E-01
       -1   -1    0    0    0  501  0.00000000000E+00  0.00000000000E+00  0.10880096599E+04  0.10880096599E+04  0.50400001928E-02 0.  1.
        1   -1    0    0  501    0  0.00000000000E+00  0.00000000000E+00 -0.19391515884E+04  0.19391515884E+04  0.50400001928E-02 0. -1.
    10030    2    1    2    0    0  0.00000000000E+00  0.00000000000E+00 -0.85114192852E+03  0.30271612483E+04  0.29050409017E+04 0.  0.
        3    1    3    3  502    0  0.12331938863E+04  0.59308606608E+03 -0.93318053287E+03  0.16563043682E+04  0.10100000352E+00 0. -1.
       -3    1    3    3    0  502 -0.12331938863E+04 -0.59308606608E+03  0.82038604347E+02  0.13708568801E+04  0.10100000352E+00 0.  1.
</event>
<event>
 5   0  0.9443352E-08  0.2897895E+04  0.7818609E-02  0.8273504E-01
       -1   -1    0    0    0  501  0.00000000000E+00  0.00000000000E+00  0.12731180560E+04  0.12731180560E+04  0.50400001928E-02 0.  1.
        1   -1    0    0  501    0  0.00000000000E+00  0.00000000000E+00 -0.16490609142E+04  0.16490609143E+04  0.50400001928E-02 0. -1.
    10030    2    1    2    0    0  0.00000000000E+00  0.00000000000E+00 -0.37594285822E+03  0.29221789703E+04  0.28978952538E+04 0.  0.
        4    1    3    3  502    0  0.81259667329E+03  0.11970163966E+04 -0.10802271113E+03  0.14508039585E+04  0.12699999809E+01 0. -1.
       -4    1    3    3    0  502 -0.81259667329E+03 -0.11970163966E+04 -0.26792014710E+03  0.14713750118E+04  0.12699999809E+01 0.  1.
</event>
<event>
 5   0  0.9763851E-08  0.2892387E+04  0.7818609E-02  0.8275146E-01
       -1   -1    0    0    0  501  0.00000000000E+00  0.00000000000E+00  0.12441485020E+04  0.12441485020E+04  0.50400001928E-02 0.  1.
        1   -1    0    0  501    0  0.00000000000E+00  0.00000000000E+00 -0.16810493219E+04  0.16810493219E+04  0.50400001928E-02 0. -1.
    10030    2    1    2    0    0  0.00000000000E+00  0.00000000000E+00 -0.43690081990E+03  0.29251978239E+04  0.28923865548E+04 0.  0.
        3    1    3    3  502    0  0.71800272250E+02  0.14430013829E+04 -0.15395619188E+03  0.14529662038E+04  0.10100000352E+00 0. -1.
       -3    1    3    3    0  502 -0.71800272250E+02 -0.14430013829E+04 -0.28294462801E+03  0.14722316200E+04  0.10100000352E+00 0.  1.
</event>
<event>
 5   0  0.9763851E-08  0.2900274E+04  0.7818609E-02  0.8272796E-01
        1   -1    0    0  501    0  0.00000000000E+00  0.00000000000E+00  0.11625932790E+04  0.11625932790E+04  0.50400001928E-02 0. -1.
       -1   -1    0    0    0  501  0.00000000000E+00  0.00000000000E+00 -0.18087983982E+04  0.18087983982E+04  0.50400001928E-02 0.  1.
    10030    2    1    2    0    0  0.00000000000E+00  0.00000000000E+00 -0.64620511920E+03  0.29713916771E+04  0.29002736841E+04 0.  0.
        3    1    3    3  502    0  0.12175714062E+04  0.53761801699E+03 -0.91287764094E+03  0.16139575146E+04  0.10100000352E+00 0.  1.
       -3    1    3    3    0  502 -0.12175714062E+04 -0.53761801699E+03  0.26667252173E+03  0.13574341625E+04  0.10100000352E+00 0. -1.
</event>
<event>
 5   0  0.2608591E-07  0.2898104E+04  0.7818609E-02  0.8273442E-01
        2   -1    0    0  501    0  0.00000000000E+00  0.00000000000E+00  0.14727538016E+04  0.14727538016E+04  0.25500000920E-02 0. -1.
       -2   -1    0    0    0  501  0.00000000000E+00  0.00000000000E+00 -0.14257312728E+04  0.14257312728E+04  0.25500000920E-02 0.  1.
    10030    2    1    2    0    0  0.00000000000E+00  0.00000000000E+00  0.47022528757E+02  0.28984850744E+04  0.28981036228E+04 0.  0.
        2    1    3    3  502    0 -0.12796641715E+04 -0.57539896163E+03 -0.33865073750E+03  0.14433671324E+04  0.25500000920E-02 0.  1.
       -2    1    3    3    0  502  0.12796641715E+04  0.57539896163E+03  0.38567326626E+03  0.14551179420E+04  0.25500000920E-02 0. -1.
</event>
<event>
 5   0  0.9388076E-08  0.2898544E+04  0.7818609E-02  0.8273311E-01
        1   -1    0    0  501    0  0.00000000000E+00  0.00000000000E+00  0.14067463916E+04  0.14067463916E+04  0.50400001928E-02 0.  1.
       -1   -1    0    0    0  501  0.00000000000E+00  0.00000000000E+00 -0.14930827237E+04  0.14930827237E+04  0.50400001928E-02 0. -1.
    10030    2    1    2    0    0  0.00000000000E+00  0.00000000000E+00 -0.86336332041E+02  0.28998291153E+04  0.28985435887E+04 0.  0.
        5    1    3    3  502    0  0.14331677253E+04  0.19557464091E+03  0.47135230098E+02  0.14472259634E+04  0.46999998093E+01 0. -1.
       -5    1    3    3    0  502 -0.14331677253E+04 -0.19557464091E+03 -0.13347156214E+03  0.14526031519E+04  0.46999998093E+01 0.  1.
</event>
<event>
 5   0  0.9395744E-08  0.2898210E+04  0.7818609E-02  0.8273410E-01
       -1   -1    0    0    0  501  0.00000000000E+00  0.00000000000E+00  0.11624891279E+04  0.11624891279E+04  0.50400001928E-02 0.  1.
        1   -1    0    0  501    0  0.00000000000E+00  0.00000000000E+00 -0.18063871793E+04  0.18063871793E+04  0.50400001928E-02 0. -1.
    10030    2    1    2    0    0  0.00000000000E+00  0.00000000000E+00 -0.64389805140E+03  0.29688763072E+04  0.28982101074E+04 0.  0.
        2    1    3    3  502    0  0.40122583418E+02  0.12236370147E+04  0.47220071161E+03  0.13122007764E+04  0.25500000920E-02 0.  1.
       -2    1    3    3    0  502 -0.40122583418E+02 -0.12236370147E+04 -0.11160987630E+04  0.16566755308E+04  0.25500000920E-02 0. -1.
</event>
<event>
 5   0  0.9763851E-08  0.2900240E+04  0.7818609E-02  0.8272806E-01
       -1   -1    0    0    0  501  0.00000000000E+00  0.00000000000E+00  0.15627656637E+04  0.15627656637E+04  0.50400001928E-02 0. -1.
        1   -1    0    0  501    0  0.00000000000E+00  0.00000000000E+00 -0.13455943433E+04  0.13455943433E+04  0.50400001928E-02 0.  1.
    10030    2    1    2    0    0  0.00000000000E+00  0.00000000000E+00  0.21717132043E+03  0.29083600070E+04  0.29002404293E+04 0.  0.
        3    1    3    3  502    0  0.11239868032E+04 -0.73720842517E+03 -0.43702030862E+03  0.14134388407E+04  0.10100000352E+00 0.  1.
       -3    1    3    3    0  502 -0.11239868032E+04  0.73720842517E+03  0.65419162904E+03  0.14949211664E+04  0.10100000352E+00 0. -1.
</event>
<event>
 5   0  0.2546841E-07  0.2899863E+04  0.7818609E-02  0.8272918E-01
        2   -1    0    0  501    0  0.00000000000E+00  0.00000000000E+00  0.21550051185E+04  0.21550051185E+04  0.25500000920E-02 0.  1.
       -2   -1    0    0    0  501  0.00000000000E+00  0.00000000000E+00 -0.97554388412E+03  0.97554388413E+03  0.25500000920E-02 0. -1.
    10030    2    1    2    0    0  0.00000000000E+00  0.00000000000E+00  0.11794612344E+04  0.31305490027E+04  0.28998634890E+04 0.  0.
        1    1    3    3  502    0 -0.22087622011E+03  0.73178317736E+03 -0.74035667911E+03  0.10641526843E+04  0.50400001928E-02 0. -1.
       -1    1    3    3    0  502  0.22087622011E+03 -0.73178317736E+03  0.19198179135E+04  0.20663963183E+04  0.50400001928E-02 0.  1.
</event>
<event>
 5   0  0.2608591E-07  0.2900575E+04  0.7818609E-02  0.8272706E-01
        2   -1    0    0  501    0  0.00000000000E+00  0.00000000000E+00  0.19386142822E+04  0.19386142822E+04  0.25500000920E-02 0. -1.
       -2   -1    0    0    0  501  0.00000000000E+00  0.00000000000E+00 -0.10849675677E+04  0.10849675677E+04  0.25500000920E-02 0.  1.
    10030    2    1    2    0    0  0.00000000000E+00  0.00000000000E+00  0.85364671444E+03  0.30235818499E+04  0.29005748551E+04 0.  0.
        2    1    3    3  502    0  0.86466374450E+03 -0.89783737639E+03  0.11995972312E+04  0.17299678791E+04  0.25500000920E-02 0. -1.
       -2    1    3    3    0  502 -0.86466374450E+03  0.89783737639E+03 -0.34595051680E+03  0.12936139708E+04  0.25500000920E-02 0.  1.
</event>
<event>
 5   0  0.9763851E-08  0.2900647E+04  0.7818609E-02  0.8272685E-01
       -1   -1    0    0    0  501  0.00000000000E+00  0.00000000000E+00  0.11024412185E+04  0.11024412185E+04  0.50400001928E-02 0.  1.
        1   -1    0    0  501    0  0.00000000000E+00  0.00000000000E+00 -0.19079818569E+04  0.19079818569E+04  0.50400001928E-02 0. -1.
    10030    2    1    2    0    0  0.00000000000E+00  0.00000000000E+00 -0.80554063841E+03  0.30104230755E+04  0.29006467164E+04 0.  0.
        3    1    3    3  502    0  0.12149702854E+04 -0.79098945316E+03 -0.44455212358E+03  0.15163916744E+04  0.10100000352E+00 0. -1.
       -3    1    3    3    0  502 -0.12149702854E+04  0.79098945316E+03 -0.36098851483E+03  0.14940314011E+04  0.10100000352E+00 0.  1.
</event>
<event>
 5   0  0.2546841E-07  0.2897607E+04  0.7818609E-02  0.8273590E-01
        2   -1    0    0  501    0  0.00000000000E+00  0.00000000000E+00  0.16903392924E+04  0.16903392924E+04  0.25500000920E-02 0. -1.
       -2   -1    0    0    0  501  0.00000000000E+00  0.00000000000E+00 -0.12417813209E+04  0.12417813209E+04  0.25500000920E-02 0.  1.
    10030    2    1    2    0    0  0.00000000000E+00  0.00000000000E+00  0.44855797144E+03  0.29321206133E+04  0.28976071227E+04 0.  0.
        1    1    3    3  502    0  0.53652953171E+03 -0.13452550672E+04  0.26289933847E+03  0.14719684767E+04  0.50400001928E-02 0.  1.
       -1    1    3    3    0  502 -0.53652953171E+03  0.13452550672E+04  0.18565863297E+03  0.14601521367E+04  0.50400001928E-02 0. -1.
</event>
<event>
 5   0  0.9421924E-08  0.2900851E+04  0.7818609E-02  0.8272624E-01
       -1   -1    0    0    0  501  0.00000000000E+00  0.00000000000E+00  0.11000201264E+04  0.11000201264E+04  0.50400001928E-02 0. -1.
        1   -1    0    0  501    0  0.00000000000E+00  0.00000000000E+00 -0.19124499777E+04  0.19124499777E+04  0.50400001928E-02 0.  1.
    10030    2    1    2    0    0  0.00000000000E+00  0.00000000000E+00 -0.81242985131E+03  0.30124701042E+04  0.29008505417E+04 0.  0.
        1    1    3    3  502    0  0.69679168814E+01 -0.93079729633E+03 -0.15613562695E+04  0.18177638898E+04  0.50400001928E-02 0.  1.
       -1    1    3    3    0  502 -0.69679168814E+01  0.93079729633E+03  0.74892641820E+03  0.11947062144E+04  0.50400001928E-02 0. -1.
</event>
<event>
 5   0  0.9763851E-08  0.2900576E+04  0.7818609E-02  0.8272706E-01
       -1   -1    0    0    0  501  0.00000000000E+00  0.00000000000E+00  0.68270938150E+03  0.68270938152E+03  0.50400001928E-02 0. -1.
        1   -1    0    0  501    0  0.00000000000E+00  0.00000000000E+00 -0.30808640203E+04  0.30808640203E+04  0.50400001928E-02 0.  1.
    10030    2    1    2    0    0  0.00000000000E+00  0.00000000000E+00 -0.23981546388E+04  0.37635734018E+04  0.29005756462E+04 0.  0.
        3    1    3    3  502    0 -0.11196136437E+04 -0.57914485200E+03 -0.21296772097E+04  0.24747663523E+04  0.10100000352E+00 0.  1.
       -3    1    3    3    0  502  0.11196136437E+04  0.57914485200E+03 -0.26847742904E+03  0.12888070495E+04  0.10100000352E+00 0. -1.
</event>
<event>
 5   0  0.2492232E-07  0.2900965E+04  0.7818609E-02  0.8272591E-01
        2   -1    0    0  501    0  0.00000000000E+00  0.00000000000E+00  0.13841058724E+04  0.13841058724E+04  0.25500000920E-02 0. -1.
       -2   -1    0    0    0  501  0.00000000000E+00  0.00000000000E+00 -0.15200419458E+04  0.15200419458E+04  0.25500000920E-02 0.  1.
    10030    2    1    2    0    0  0.00000000000E+00  0.00000000000E+00 -0.13593607338E+03  0.29041478182E+04  0.29009646558E+04 0.  0.
        4    1    3    3  502    0  0.90032437585E+02  0.22209093734E+03  0.13641495192E+04  0.13850399806E+04  0.12699999809E+01 0. -1.
       -4    1    3    3    0  502 -0.90032437585E+02 -0.22209093734E+03 -0.15000855926E+04  0.15191078376E+04  0.12699999809E+01 0.  1.
</event>
<event>
 5   0  0.8407500E-08  0.2898484E+04  0.7818609E-02  0.8273329E-01
        4   -1    0    0  501    0  0.00000000000E+00  0.00000000000E+00  0.16771383004E+04  0.16771387813E+04  0.12699999809E+01 0. -1.
       -4   -1    0    0    0  501  0.00000000000E+00  0.00000000000E+00 -0.12523117562E+04  0.12523124002E+04  0.12699999809E+01 0.  1.
    10030    2    1    2    0    0  0.00000000000E+00  0.00000000000E+00  0.42482654422E+03  0.29294511815E+04  0.28984835056E+04 0.  0.
        5    1    3    3  502    0 -0.12080497592E+04 -0.25901971570E+03 -0.55317851903E+03  0.13537001137E+04  0.46999998093E+01 0.  1.
       -5    1    3    3    0  502  0.12080497592E+04  0.25901971570E+03  0.97800506325E+03  0.15757510678E+04  0.46999998093E+01 0. -1.
</event>
<event>
 5   0  0.2546841E-07  0.2899927E+04  0.7818609E-02  0.8272899E-01
       -2   -1    0    0    0  501  0.00000000000E+00  0.00000000000E+00  0.13506122547E+04  0.13506122547E+04  0.25500000920E-02 0.  1.
        2   -1    0    0  501    0  0.00000000000E+00  0.00000000000E+00 -0.15566225374E+04  0.15566225374E+04  0.25500000920E-02 0. -1.
    10030    2    1    2    0    0  0.00000000000E+00  0.00000000000E+00 -0.20601028272E+03  0.29072347921E+04  0.28999265335E+04 0.  0.
        1    1    3    3  502    0  0.11620437531E+04  0.70842694704E+03  0.39843440580E+03  0.14180847644E+04  0.50400001928E-02 0.  1.
       -1    1    3    3    0  502 -0.11620437531E+04 -0.70842694704E+03 -0.60444468852E+03  0.14891500277E+04  0.50400001928E-02 0. -1.
</event>
<event>
 5   0  0.2678723E-07  0.2892022E+04  0.7818609E-02  0.8275255E-01
       -2   -1    0    0    0  501  0.00000000000E+00  0.00000000000E+00  0.27446971925E+04  0.27446971925E+04  0.25500000920E-02 0. -1.
        2   -1    0    0  501    0  0.00000000000E+00  0.00000000000E+00 -0.76181391192E+03  0.76181391193E+03  0.25500000920E-02 0.  1.
    10030    2    1    2    0    0  0.00000000000E+00  0.00000000000E+00  0.19828832806E+04  0.35065111045E+04  0.28920224794E+04 0.  0.
        5    1    3    3  502    0 -0.90871668565E+03 -0.56741144754E+03 -0.18610066999E+03  0.10873717464E+04  0.46999998093E+01 0. -1.
       -5    1    3    3    0  502  0.90871668565E+03  0.56741144754E+03  0.21689839506E+04  0.24191393580E+04  0.46999998093E+01 0.  1.
</event>
<event>
 5   0  0.2492232E-07  0.2897181E+04  0.7818609E-02  0.8273717E-01
        2   -1    0    0  501    0  0.00000000000E+00  0.00000000000E+00  0.10410875817E+04  0.10410875817E+04  0.25500000920E-02 0.  1.
       -2   -1    0    0    0  501  0.00000000000E+00  0.00000000000E+00 -0.20155986319E+04  0.20155986319E+04  0.25500000920E-02 0. -1.
    10030    2    1    2    0    0  0.00000000000E+00  0.00000000000E+00 -0.97451105016E+03  0.30566862136E+04  0.28971811855E+04 0.  0.
        4    1    3    3  502    0 -0.41044177285E+03 -0.13396791143E+04 -0.87520970397E+03  0.16520279105E+04  0.12699999809E+01 0. -1.
       -4    1    3    3    0  502  0.41044177285E+03  0.13396791143E+04 -0.99301346190E+02  0.14046583031E+04  0.12699999809E+01 0.  1.
</event>
<event>
 5   0  0.9763851E-08  0.2899565E+04  0.7818609E-02  0.8273007E-01
        1   -1    0    0  501    0  0.00000000000E+00  0.00000000000E+00  0.14016610684E+04  0.14016610684E+04  0.50400001928E-02 0.  1.
       -1   -1    0    0    0  501  0.00000000000E+00  0.00000000000E+00 -0.14995563864E+04  0.14995563864E+04  0.50400001928E-02 0. -1.
    10030    2    1    2    0    0  0.00000000000E+00  0.00000000000E+00 -0.97895317984E+02  0.29012174548E+04  0.28995653513E+04 0.  0.
        3    1    3    3  502    0  0.37691123191E+03 -0.32313498313E+03  0.13139560136E+04  0.14046204861E+04  0.10100000352E+00 0.  1.
       -3    1    3    3    0  502 -0.37691123191E+03  0.32313498313E+03 -0.14118513316E+04  0.14965969687E+04  0.10100000352E+00 0. -1.
</event>
<event>
 5   0  0.9763851E-08  0.2900297E+04  0.7818609E-02  0.8272789E-01
       -1   -1    0    0    0  501  0.00000000000E+00  0.00000000000E+00  0.92112803791E+03  0.92112803792E+03  0.50400001928E-02 0.  1.
        1   -1    0    0  501    0  0.00000000000E+00  0.00000000000E+00 -0.22829948845E+04  0.22829948845E+04  0.50400001928E-02 0. -1.
    10030    2    1    2    0    0  0.00000000000E+00  0.00000000000E+00 -0.13618668466E+04  0.32041229224E+04  0.29002969493E+04 0.  0.
        3    1    3    3  502    0  0.54002481007E+03  0.97195047027E+02  0.80201775572E+03  0.97175416817E+03  0.10100000352E+00 0.  1.
       -3    1    3    3    0  502 -0.54002481007E+03 -0.97195047027E+02 -0.21638846023E+04  0.22323687542E+04  0.10100000352E+00 0. -1.
</event>
<event>
 5   0  0.2534588E-07  0.2895226E+04  0.7818609E-02  0.8274299E-01
        2   -1    0    0  501    0  0.00000000000E+00  0.00000000000E+00  0.19830123953E+04  0.19830123953E+04  0.25500000920E-02 0. -1.
       -2   -1    0    0    0  501  0.00000000000E+00  0.00000000000E+00 -0.10567679029E+04  0.10567679029E+04  0.25500000920E-02 0.  1.
    10030    2    1    2    0    0  0.00000000000E+00  0.00000000000E+00  0.92624449241E+03  0.30397802982E+04  0.28952263127E+04 0.  0.
        3    1    3    3  502    0 -0.19087570036E+03  0.10829408268E+04 -0.52536705592E+03  0.12186898379E+04  0.10100000352E+00 0.  1.
       -3    1    3    3    0  502  0.19087570036E+03 -0.10829408268E+04  0.14516115483E+04  0.18210904603E+04  0.10100000352E+00 0. -1.
</event>
<event>
 5   0  0.2492232E-07  0.2900674E+04  0.7818609E-02  0.8272677E-01
        2   -1    0    0  501    0  0.00000000000E+00  0.00000000000E+00  0.24646508097E+04  0.24646508097E+04  0.25500000920E-02 0.  1.
       -2   -1    0    0    0  501  0.00000000000E+00  0.00000000000E+00 -0.85345884175E+03  0.85345884175E+03  0.25500000920E-02 0. -1.
    10030    2    1    2    0    0  0.00000000000E+00  0.00000000000E+00  0.16111919680E+04  0.33181096515E+04  0.29006744218E+04 0.  0.
        4    1    3    3  502    0 -0.95823429875E+03  0.10692651495E+04  0.10398475827E+04  0.17728016075E+04  0.12699999809E+01 0.  1.
       -4    1    3    3    0  502  0.95823429875E+03 -0.10692651495E+04  0.57134438526E+03  0.15453080440E+04  0.12699999809E+01 0. -1.
</event>
<event>
 5   0  0.9395744E-08  0.2899635E+04  0.7818609E-02  0.8272986E-01
       -1   -1    0    0    0  501  0.00000000000E+00  0.00000000000E+00  0.70627480291E+03  0.70627480293E+03  0.50400001928E-02 0.  1.
        1   -1    0    0  501    0  0.00000000000E+00  0.00000000000E+00 -0.29761372225E+04  0.29761372225E+04  0.50400001928E-02 0. -1.
    10030    2    1    2    0    0  0.00000000000E+00  0.00000000000E+00 -0.22698624196E+04  0.36824120254E+04  0.28996349634E+04 0.  0.
        2    1    3    3  502    0 -0.18573262745E+01 -0.51391500308E+03  0.58671973692E+03  0.77996931334E+03  0.25500000920E-02 0.  1.
       -2    1    3    3    0  502  0.18573262745E+01  0.51391500308E+03 -0.28565821565E+04  0.29024427121E+04  0.25500000920E-02 0. -1.
</event>
<event>
 5   0  0.9421924E-08  0.2900062E+04  0.7818609E-02  0.8272859E-01
       -1   -1    0    0    0  501  0.00000000000E+00  0.00000000000E+00  0.12789239733E+04  0.12789239733E+04  0.50400001928E-02 0.  1.
        1   -1    0    0  501    0  0.00000000000E+00  0.00000000000E+00 -0.16440302837E+04  0.16440302837E+04  0.50400001928E-02 0. -1.
    10030    2    1    2    0    0  0.00000000000E+00  0.00000000000E+00 -0.36510631041E+03  0.29229542570E+04  0.29000618908E+04 0.  0.
        1    1    3    3  502    0 -0.35307117977E+03  0.11573039852E+04 -0.98797187369E+03  0.15620820066E+04  0.50400001928E-02 0. -1.
       -1    1    3    3    0  502  0.35307117977E+03 -0.11573039852E+04  0.62286556327E+03  0.13608722504E+04  0.50400001928E-02 0.  1.
</event>
<event>
 5   0  0.9395744E-08  0.2903382E+04  0.7818609E-02  0.8271872E-01
        1   -1    0    0  501    0  0.00000000000E+00  0.00000000000E+00  0.26349636333E+04  0.26349636333E+04  0.50400001928E-02 0.  1.
       -1   -1    0    0    0  501  0.00000000000E+00  0.00000000000E+00 -0.79978563315E+03  0.79978563316E+03  0.50400001928E-02 0. -1.
    10030    2    1    2    0    0  0.00000000000E+00  0.00000000000E+00  0.18351780001E+04  0.34347492664E+04  0.29033815166E+04 0.  0.
        2    1    3    3  502    0  0.42961271727E+03  0.74026636905E+03 -0.46954286846E+03  0.97623352191E+03  0.25500000920E-02 0. -1.
       -2    1    3    3    0  502 -0.42961271727E+03 -0.74026636905E+03  0.23047208686E+04  0.24585157445E+04  0.25500000920E-02 0.  1.
</event>
<event>
 5   0  0.2492232E-07  0.2899805E+04  0.7818609E-02  0.8272935E-01
       -2   -1    0    0    0  501  0.00000000000E+00  0.00000000000E+00  0.13650553743E+04  0.13650553743E+04  0.25500000920E-02 0. -1.
        2   -1    0    0  501    0  0.00000000000E+00  0.00000000000E+00 -0.15400237786E+04  0.15400237786E+04  0.25500000920E-02 0.  1.
    10030    2    1    2    0    0  0.00000000000E+00  0.00000000000E+00 -0.17496840434E+03  0.29050791529E+04  0.28998053283E+04 0.  0.
        4    1    3    3  502    0 -0.81720037956E+03  0.11824399434E+04  0.10321808923E+03  0.14410538737E+04  0.12699999809E+01 0. -1.
       -4    1    3    3    0  502  0.81720037956E+03 -0.11824399434E+04 -0.27818649357E+03  0.14640252792E+04  0.12699999809E+01 0.  1.
</event>
<event>
 5   0  0.2492232E-07  0.2900670E+04  0.7818609E-02  0.8272678E-01
        2   -1    0    0  501    0  0.00000000000E+00  0.00000000000E+00  0.25918662978E+04  0.25918662978E+04  0.25500000920E-02 0.  1.
       -2   -1    0    0    0  501  0.00000000000E+00  0.00000000000E+00 -0.81156613763E+03  0.81156613763E+03  0.25500000920E-02 0. -1.
    10030    2    1    2    0    0  0.00000000000E+00  0.00000000000E+00  0.17803001602E+04  0.34034324354E+04  0.29006695231E+04 0.  0.
        4    1    3    3  502    0  0.65429870869E+03 -0.81771771431E+03  0.20674008121E+04  0.23175238492E+04  0.12699999809E+01 0.  1.
       -4    1    3    3    0  502 -0.65429870869E+03  0.81771771431E+03 -0.28710065196E+03  0.10859085863E+04  0.12699999809E+01 0. -1.
</event>
<event>
 5   0  0.2678723E-07  0.2900164E+04  0.7818609E-02  0.8272829E-01
       -2   -1    0    0    0  501  0.00000000000E+00  0.00000000000E+00  0.86527528282E+03  0.86527528282E+03  0.25500000920E-02 0.  1.
        2   -1    0    0  501    0  0.00000000000E+00  0.00000000000E+00 -0.24301373985E+04  0.24301373985E+04  0.25500000920E-02 0. -1.
    10030    2    1    2    0    0  0.00000000000E+00  0.00000000000E+00 -0.15648621157E+04  0.32954126813E+04  0.29001640125E+04 0.  0.
        5    1    3    3  502    0 -0.13553529874E+04  0.51285512551E+03 -0.72323907030E+03  0.16195983895E+04  0.46999998093E+01 0.  1.
       -5    1    3    3    0  502  0.13553529874E+04 -0.51285512551E+03 -0.84162304538E+03  0.16758142919E+04  0.46999998093E+01 0. -1.
</event>
<event>
 5   0  0.9763851E-08  0.2901201E+04  0.7818609E-02  0.8272520E-01
       -1   -1    0    0    0  501  0.00000000000E+00  0.00000000000E+00  0.19282632005E+04  0.19282632005E+04  0.50400001928E-02 0. -1.
        1   -1    0    0  501    0  0.00000000000E+00  0.00000000000E+00 -0.10912631120E+04  0.10912631120E+04  0.50400001928E-02 0.  1.
    10030    2    1    2    0    0  0.00000000000E+00  0.00000000000E+00  0.83700008850E+03  0.30195263126E+04  0.29012014760E+04 0.  0.
        3    1    3    3  502    0  0.16154838421E+02 -0.35639635235E+03 -0.10448904043E+04  0.11041174330E+04  0.10100000352E+00 0.  1.
       -3    1    3    3    0  502 -0.16154838421E+02  0.35639635235E+03  0.18818904928E+04  0.19154088795E+04  0.10100000352E+00 0. -1.
</event>
<event>
 5   0  0.9395744E-08  0.2901356E+04  0.7818609E-02  0.8272474E-01
        1   -1    0    0  501    0  0.00000000000E+00  0.00000000000E+00  0.13581748023E+04  0.13581748023E+04  0.50400001928E-02 0. -1.
       -1   -1    0    0    0  501  0.00000000000E+00  0.00000000000E+00 -0.15494811015E+04  0.15494811016E+04  0.50400001928E-02 0.  1.
    10030    2    1    2    0    0  0.00000000000E+00  0.00000000000E+00 -0.19130629922E+03  0.29076559039E+04  0.29013556754E+04 0.  0.
        2    1    3    3  502    0 -0.57217635358E+03 -0.75193555941E+03  0.10074974656E+04  0.13812472654E+04  0.25500000920E-02 0. -1.
       -2    1    3    3    0  502  0.57217635358E+03  0.75193555941E+03 -0.11988037648E+04  0.15264086385E+04  0.25500000920E-02 0.  1.
</event>
<event>
 5   0  0.2546841E-07  0.2898812E+04  0.7818609E-02  0.8273231E-01
       -2   -1    0    0    0  501  0.00000000000E+00  0.00000000000E+00  0.96325679064E+03  0.96325679065E+03  0.25500000920E-02 0. -1.
        2   -1    0    0  501    0  0.00000000000E+00  0.00000000000E+00 -0.21809109036E+04  0.21809109036E+04  0.25500000920E-02 0.  1.
    10030    2    1    2    0    0  0.00000000000E+00  0.00000000000E+00 -0.12176541130E+04  0.31441676943E+04  0.28988116446E+04 0.  0.
        1    1    3    3  502    0 -0.12508989900E+04  0.15969978883E+03  0.16615952310E+03  0.12719517652E+04  0.50400001928E-02 0. -1.
       -1    1    3    3    0  502  0.12508989900E+04 -0.15969978883E+03 -0.13838136361E+04  0.18722159291E+04  0.50400001928E-02 0.  1.
</event>
<event>
 5   0  0.9443352E-08  0.2897619E+04  0.7818609E-02  0.8273586E-01
       -1   -1    0    0    0  501  0.00000000000E+00  0.00000000000E+00  0.95444684187E+03  0.95444684188E+03  0.50400001928E-02 0. -1.
        1   -1    0    0  501    0  0.00000000000E+00  0.00000000000E+00 -0.21992310308E+04  0.21992310308E+04  0.50400001928E-02 0.  1.
    10030    2    1    2    0    0  0.00000000000E+00  0.00000000000E+00 -0.12447841889E+04  0.31536778727E+04  0.28976190998E+04 0.  0.
        4    1    3    3  502    0  0.74088972188E+03 -0.67419943684E+03 -0.17615897478E+04  0.20264901957E+04  0.12699999809E+01 0.  1.
       -4    1    3    3    0  502 -0.74088972188E+03  0.67419943684E+03  0.51680555888E+03  0.11271876770E+04  0.12699999809E+01 0. -1.
</event>
<event>
 5   0  0.2492232E-07  0.2901373E+04  0.7818609E-02  0.8272469E-01
        2   -1    0    0  501    0  0.00000000000E+00  0.00000000000E+00  0.14963228373E+04  0.14963228373E+04  0.25500000920E-02 0.  1.
       -2   -1    0    0    0  501  0.00000000000E+00  0.00000000000E+00 -0.14064423838E+04  0.14064423838E+04  0.25500000920E-02 0. -1.
    10030    2    1    2    0    0  0.00000000000E+00  0.00000000000E+00  0.89880453446E+02  0.29027652211E+04  0.29013733702E+04 0.  0.
        4    1    3    3  502    0  0.21704900547E+03 -0.14308687923E+04 -0.55080097852E+02  0.14482856077E+04  0.12699999809E+01 0.  1.
       -4    1    3    3    0  502 -0.21704900547E+03  0.14308687923E+04  0.14496055130E+03  0.14544796134E+04  0.12699999809E+01 0. -1.
</event>
<event>
 5   0  0.2608591E-07  0.2900330E+04  0.7818609E-02  0.8272779E-01
       -2   -1    0    0    0  501  0.00000000000E+00  0.00000000000E+00  0.95723541773E+03  0.95723541773E+03  0.25500000920E-02 0. -1.
        2   -1    0    0  501    0  0.00000000000E+00  0.00000000000E+00 -0.21969297631E+04  0.21969297631E+04  0.25500000920E-02 0.  1.
    10030    2    1    2    0    0  0.00000000000E+00  0.00000000000E+00 -0.12396943454E+04  0.31541651809E+04  0.29003303119E+04 0.  0.
        2    1    3    3  502    0  0.13631229300E+04 -0.14022823749E+03 -0.11359445755E+04  0.17799264478E+04  0.25500000920E-02 0. -1.
       -2    1    3    3    0  502 -0.13631229300E+04  0.14022823749E+03 -0.10374976992E+03  0.13742387331E+04  0.25500000920E-02 0.  1.
</event>
<event>
 5   0  0.9443352E-08  0.2897452E+04  0.7818609E-02  0.8273636E-01
        1   -1    0    0  501    0  0.00000000000E+00  0.00000000000E+00  0.13210326886E+04  0.13210326886E+04  0.50400001928E-02 0. -1.
       -1   -1    0    0    0  501  0.00000000000E+00  0.00000000000E+00 -0.15887622355E+04  0.15887622355E+04  0.50400001928E-02 0.  1.
    10030    2    1    2    0    0  0.00000000000E+00  0.00000000000E+00 -0.26772954685E+03  0.29097949241E+04  0.28974518788E+04 0.  0.
        4    1    3    3  502    0  0.11583944627E+04  0.36588269310E+03  0.65883761135E+03  0.13819611020E+04  0.12699999809E+01 0. -1.
       -4    1    3    3    0  502 -0.11583944627E+04 -0.36588269310E+03 -0.92656715821E+03  0.15278338221E+04  0.12699999809E+01 0.  1.
</event>
<event>
 5   0  0.2492232E-07  0.2901025E+04  0.7818609E-02  0.8272573E-01
       -2   -1    0    0    0  501  0.00000000000E+00  0.00000000000E+00  0.16920671319E+04  0.16920671320E+04  0.25500000920E-02 0.  1.
        2   -1    0    0  501    0  0.00000000000E+00  0.00000000000E+00 -0.12434416460E+04  0.12434416460E+04  0.25500000920E-02 0. -1.
    10030    2    1    2    0    0  0.00000000000E+00  0.00000000000E+00  0.44862548594E+03  0.29355087780E+04  0.29010251565E+04 0.  0.
        4    1    3    3  502    0  0.50057271431E+03 -0.82935927661E+03  0.13167639570E+04  0.16347106115E+04  0.12699999809E+01 0.  1.
       -4    1    3    3    0  502 -0.50057271431E+03  0.82935927661E+03 -0.86813847106E+03  0.13007981665E+04  0.12699999809E+01 0. -1.
</event>
<event>
 5   0  0.9763851E-08  0.2898408E+04  0.7818609E-02  0.8273351E-01
       -1   -1    0    0    0  501  0.00000000000E+00  0.00000000000E+00  0.17576870403E+04  0.17576870403E+04  0.50400001928E-02 0.  1.
        1   -1    0    0  501    0  0.00000000000E+00  0.00000000000E+00 -0.11948611093E+04  0.11948611093E+04  0.50400001928E-02 0. -1.
    10030    2    1    2    0    0  0.00000000000E+00  0.00000000000E+00  0.56282593097E+03  0.29525481496E+04  0.28984077607E+04 0.  0.
        3    1    3    3  502    0 -0.28806740339E+03  0.13913873228E+04 -0.89559795847E+01  0.14209228448E+04  0.10100000352E+00 0. -1.
       -3    1    3    3    0  502  0.28806740339E+03 -0.13913873228E+04  0.57178191056E+03  0.15316253049E+04  0.10100000352E+00 0.  1.
</event>
<event>
 5   0  0.2678723E-07  0.2909166E+04  0.7818609E-02  0.8270156E-01
       -2   -1    0    0    0  501  0.00000000000E+00  0.00000000000E+00  0.78995903114E+03  0.78995903114E+03  0.25500000920E-02 0. -1.
        2   -1    0    0  501    0  0.00000000000E+00  0.00000000000E+00 -0.26783815120E+04  0.26783815120E+04  0.25500000920E-02 0.  1.
    10030    2    1    2    0    0  0.00000000000E+00  0.00000000000E+00 -0.18884224808E+04  0.34683405431E+04  0.29091659727E+04 0.  0.
        5    1    3    3  502    0 -0.97989187546E+03  0.57437600425E+03  0.13912361620E+03  0.11443222240E+04  0.46999998093E+01 0. -1.
       -5    1    3    3    0  502  0.97989187546E+03 -0.57437600425E+03 -0.20275460970E+04  0.23240183191E+04  0.46999998093E+01 0.  1.
</event>
<event>
 5   0  0.2678723E-07  0.2898712E+04  0.7818609E-02  0.8273261E-01
       -2   -1    0    0    0  501  0.00000000000E+00  0.00000000000E+00  0.11020889397E+04  0.11020889397E+04  0.25500000920E-02 0. -1.
        2   -1    0    0  501    0  0.00000000000E+00  0.00000000000E+00 -0.19060466498E+04  0.19060466498E+04  0.25500000920E-02 0.  1.
    10030    2    1    2    0    0  0.00000000000E+00  0.00000000000E+00 -0.80395771010E+03  0.30081355894E+04  0.28987120804E+04 0.  0.
        5    1    3    3  502    0  0.51710741829E+03 -0.10268322384E+04  0.51384644192E+03  0.12593032930E+04  0.46999998093E+01 0. -1.
       -5    1    3    3    0  502 -0.51710741829E+03  0.10268322384E+04 -0.13178041520E+04  0.17488322964E+04  0.46999998093E+01 0.  1.
</event>
<event>
 5   0  0.2546841E-07  0.2899948E+04  0.7818609E-02  0.8272893E-01
       -2   -1    0    0    0  501  0.00000000000E+00  0.00000000000E+00  0.25277481349E+04  0.25277481349E+04  0.25500000920E-02 0.  1.
        2   -1    0    0  501    0  0.00000000000E+00  0.00000000000E+00 -0.83173806059E+03  0.83173806059E+03  0.25500000920E-02 0. -1.
    10030    2    1    2    0    0  0.00000000000E+00  0.00000000000E+00  0.16960100743E+04  0.33594861955E+04  0.28999478143E+04 0.  0.
        1    1    3    3  502    0 -0.44510117804E+03 -0.13113370831E+04  0.35012901242E+03  0.14283943186E+04  0.50400001928E-02 0. -1.
       -1    1    3    3    0  502  0.44510117804E+03  0.13113370831E+04  0.13458810618E+04  0.19310918768E+04  0.50400001928E-02 0.  1.
</event>
<event>
 5   0  0.9443352E-08  0.2899776E+04  0.7818609E-02  0.8272944E-01
       -1   -1    0    0    0  501  0.00000000000E+00  0.00000000000E+00  0.11900522015E+04  0.11900522015E+04  0.50400001928E-02 0. -1.
        1   -1    0    0  501    0  0.00000000000E+00  0.00000000000E+00 -0.17664559702E+04  0.17664559702E+04  0.50400001928E-02 0.  1.
    10030    2    1    2    0    0  0.00000000000E+00  0.00000000000E+00 -0.57640376865E+03  0.29565081717E+04  0.28997757266E+04 0.  0.
        4    1    3    3  502    0 -0.13828589876E+04 -0.42453081780E+03 -0.38834682466E+03  0.14977784428E+04  0.12699999809E+01 0. -1.
       -4    1    3    3    0  502  0.13828589876E+04  0.42453081780E+03 -0.18805694398E+03  0.14587297288E+04  0.12699999809E+01 0.  1.
</event>
<event>
 5   0  0.9763851E-08  0.2900016E+04  0.7818609E-02  0.8272873E-01
       -1   -1    0    0    0  501  0.00000000000E+00  0.00000000000E+00  0.90812182103E+03  0.90812182104E+03  0.50400001928E-02 0.  1.
        1   -1    0    0  501    0  0.00000000000E+00  0.00000000000E+00 -0.23152433285E+04  0.23152433285E+04  0.50400001928E-02 0. -1.
    10030    2    1    2    0    0  0.00000000000E+00  0.00000000000E+00 -0.14071215075E+04  0.32233651495E+04  0.29000158535E+04 0.  0.
        3    1    3    3  502    0 -0.63692643902E+03 -0.46961556148E+03  0.64694909266E+03  0.10221336522E+04  0.10100000352E+00 0.  1.
       -3    1    3    3    0  502  0.63692643902E+03  0.46961556148E+03 -0.20540706001E+04  0.22012314973E+04  0.10100000352E+00 0. -1.
</event>
<event>
 5   0  0.9763851E-08  0.2900402E+04  0.7818609E-02  0.8272758E-01
        1   -1    0    0  501    0  0.00000000000E+00  0.00000000000E+00  0.16803345301E+04  0.16803345301E+04  0.50400001928E-02 0. -1.
       -1   -1    0    0    0  501  0.00000000000E+00  0.00000000000E+00 -0.12515854797E+04  0.12515854797E+04  0.50400001928E-02 0.  1.
    10030    2    1    2    0    0  0.00000000000E+00  0.00000000000E+00  0.42874905036E+03  0.29319200098E+04  0.29004015577E+04 0.  0.
        3    1    3    3  502    0 -0.59103332728E+03 -0.11592940945E+04 -0.43273752404E+03  0.13713296345E+04  0.10100000352E+00 0.  1.
       -3    1    3    3    0  502  0.59103332728E+03  0.11592940945E+04  0.86148657440E+03  0.15605903753E+04  0.10100000352E+00 0. -1.
</event>
<event>
 5   0  0.2492232E-07  0.2898955E+04  0.7818609E-02  0.8273189E-01
        2   -1    0    0  501    0  0.00000000000E+00  0.00000000000E+00  0.15396053726E+04  0.15396053726E+04  0.25500000920E-02 0.  1.
       -2   -1    0    0    0  501  0.00000000000E+00  0.00000000000E+00 -0.13646254338E+04  0.13646254338E+04  0.25500000920E-02 0. -1.
    10030    2    1    2    0    0  0.00000000000E+00  0.00000000000E+00  0.17497993878E+03  0.29042308064E+04  0.28989547423E+04 0.  0.
        4    1    3    3  502    0 -0.49470025720E+03  0.13414523365E+04  0.32616781754E+03  0.14664957462E+04  0.12699999809E+01 0. -1.
       -4    1    3    3    0  502  0.49470025720E+03 -0.13414523365E+04 -0.15118787876E+03  0.14377350602E+04  0.12699999809E+01 0.  1.
</event>
<event>
 5   0  0.9388076E-08  0.2898195E+04  0.7818609E-02  0.8273415E-01
        1   -1    0    0  501    0  0.00000000000E+00  0.00000000000E+00  0.13868247259E+04  0.13868247260E+04  0.50400001928E-02 0. -1.
       -1   -1    0    0    0  501  0.00000000000E+00  0.00000000000E+00 -0.15141662589E+04  0.15141662589E+04  0.50400001928E-02 0.  1.
    10030    2    1    2    0    0  0.00000000000E+00  0.00000000000E+00 -0.12734153297E+03  0.29009909849E+04  0.28981947534E+04 0.  0.
        5    1    3    3  502    0  0.42543059377E+03  0.13845258776E+04 -0.19378541208E+02  0.14485512465E+04  0.46999998093E+01 0.  1.
       -5    1    3    3    0  502 -0.42543059377E+03 -0.13845258776E+04 -0.10796299177E+03  0.14524397384E+04  0.46999998093E+01 0. -1.
</event>
<event>
 5   0  0.9421924E-08  0.2901530E+04  0.7818609E-02  0.8272422E-01
       -1   -1    0    0    0  501  0.00000000000E+00  0.00000000000E+00  0.18399897320E+04  0.18399897320E+04  0.50400001928E-02 0.  1.
        1   -1    0    0  501    0  0.00000000000E+00  0.00000000000E+00 -0.11438754601E+04  0.11438754601E+04  0.50400001928E-02 0. -1.
    10030    2    1    2    0    0  0.00000000000E+00  0.00000000000E+00  0.69611427194E+03  0.29838651921E+04  0.29015300111E+04 0.  0.
        1    1    3    3  502    0 -0.20095752130E+03  0.10122266420E+04  0.13966645413E+04  0.17365651560E+04  0.50400001928E-02 0.  1.
       -1    1    3    3    0  502  0.20095752130E+03 -0.10122266420E+04 -0.70055026935E+03  0.12473000361E+04  0.50400001928E-02 0. -1.
</event>
<event>
 5   0  0.9395744E-08  0.2901379E+04  0.7818609E-02  0.8272467E-01
       -1   -1    0    0    0  501  0.00000000000E+00  0.00000000000E+00  0.17397281313E+04  0.17397281313E+04  0.50400001928E-02 0.  1.
        1   -1    0    0  501    0  0.00000000000E+00  0.00000000000E+00 -0.12096720093E+04  0.12096720093E+04  0.50400001928E-02 0. -1.
    10030    2    1    2    0    0  0.00000000000E+00  0.00000000000E+00  0.53005612198E+03  0.29494001406E+04  0.29013792749E+04 0.  0.
        2    1    3    3  502    0  0.51755030999E+03 -0.21805704707E+03  0.16247361390E+04  0.17190621631E+04  0.25500000920E-02 0.  1.
       -2    1    3    3    0  502 -0.51755030999E+03  0.21805704707E+03 -0.10946800170E+04  0.12303379775E+04  0.25500000920E-02 0. -1.
</event>
<event>
 5   0  0.2534588E-07  0.2898177E+04  0.7818609E-02  0.8273420E-01
       -2   -1    0    0    0  501  0.00000000000E+00  0.00000000000E+00  0.13067896541E+04  0.13067896541E+04  0.25500000920E-02 0. -1.
        2   -1    0    0  501    0  0.00000000000E+00  0.00000000000E+00 -0.16068824138E+04  0.16068824138E+04  0.25500000920E-02 0.  1.
    10030    2    1    2    0    0  0.00000000000E+00  0.00000000000E+00 -0.30009275971E+03  0.29136720679E+04  0.28981768847E+04 0.  0.
        3    1    3    3  502    0 -0.40354049898E+03 -0.13830031887E+04  0.67185435520E+01  0.14406900788E+04  0.10100000352E+00 0. -1.
       -3    1    3    3    0  502  0.40354049898E+03  0.13830031887E+04 -0.30681130326E+03  0.14729819891E+04  0.10100000352E+00 0.  1.
</event>
<event>
 5   0  0.2492232E-07  0.2899759E+04  0.7818609E-02  0.8272949E-01
       -2   -1    0    0    0  501  0.00000000000E+00  0.00000000000E+00  0.13269363600E+04  0.13269363600E+04  0.25500000920E-02 0.  1.
        2   -1    0    0  501    0  0.00000000000E+00  0.00000000000E+00 -0.15842130987E+04  0.15842130987E+04  0.25500000920E-02 0. -1.
    10030    2    1    2    0    0  0.00000000000E+00  0.00000000000E+00 -0.25727673875E+03  0.29111494587E+04  0.28997585849E+04 0.  0.
        4    1    3    3  502    0 -0.11452851247E+04 -0.88194998556E+03 -0.24148345528E+03  0.14655475652E+04  0.12699999809E+01 0.  1.
       -4    1    3    3    0  502  0.11452851247E+04  0.88194998556E+03 -0.15793283478E+02  0.14456018935E+04  0.12699999809E+01 0. -1.
</event>
<event>
 5   0  0.2546841E-07  0.2900421E+04  0.7818609E-02  0.8272752E-01
       -2   -1    0    0    0  501  0.00000000000E+00  0.00000000000E+00  0.13235922014E+04  0.13235922014E+04  0.25500000920E-02 0. -1.
        2   -1    0    0  501    0  0.00000000000E+00  0.00000000000E+00 -0.15889410166E+04  0.15889410167E+04  0.25500000920E-02 0.  1.
    10030    2    1    2    0    0  0.00000000000E+00  0.00000000000E+00 -0.26534881524E+03  0.29125332181E+04  0.29004206165E+04 0.  0.
        1    1    3    3  502    0  0.11178324045E+03 -0.28809428600E+01  0.13192567169E+04  0.13239871894E+04  0.50400001928E-02 0. -1.
       -1    1    3    3    0  502 -0.11178324045E+03  0.28809428600E+01 -0.15846055321E+04  0.15885460286E+04  0.50400001928E-02 0.  1.
</event>
<event>
 5   0  0.2534588E-07  0.2900060E+04  0.7818609E-02  0.8272860E-01
       -2   -1    0    0    0  501  0.00000000000E+00  0.00000000000E+00  0.94553843931E+03  0.94553843931E+03  0.25500000920E-02 0.  1.
        2   -1    0    0  501    0  0.00000000000E+00  0.00000000000E+00 -0.22236922957E+04  0.22236922957E+04  0.25500000920E-02 0. -1.
    10030    2    1    2    0    0  0.00000000000E+00  0.00000000000E+00 -0.12781538564E+04  0.31692307351E+04  0.29000596841E+04 0.  0.
        3    1    3    3  502    0 -0.87633564309E+03 -0.52382614088E+03  0.48616697884E+03  0.11308033988E+04  0.10100000352E+00 0.  1.
       -3    1    3    3    0  502  0.87633564309E+03  0.52382614088E+03 -0.17643208353E+04  0.20384273363E+04  0.10100000352E+00 0. -1.
</event>
<event>
 5   0  0.9388076E-08  0.2899255E+04  0.7818609E-02  0.8273099E-01
        1   -1    0    0  501    0  0.00000000000E+00  0.00000000000E+00  0.16298136239E+04  0.16298136239E+04  0.50400001928E-02 0. -1.
       -1   -1    0    0    0  501  0.00000000000E+00  0.00000000000E+00 -0.12893616839E+04  0.12893616839E+04  0.50400001928E-02 0.  1.
    10030    2    1    2    0    0  0.00000000000E+00  0.00000000000E+00  0.34045193996E+03  0.29191753078E+04  0.28992545515E+04 0.  0.
        5    1    3    3  502    0  0.12318667893E+04  0.72995984427E+03  0.39774314253E+03  0.14861220873E+04  0.46999998093E+01 0. -1.
       -5    1    3    3    0  502 -0.12318667893E+04 -0.72995984427E+03 -0.57291202562E+02  0.14330532205E+04  0.46999998093E+01 0.  1.
</event>
<event>
 5   0  0.9443352E-08  0.2900384E+04  0.7818609E-02  0.8272763E-01
        1   -1    0    0  501    0  0.00000000000E+00  0.00000000000E+00  0.21631104473E+04  0.21631104473E+04  0.50400001928E-02 0.  1.
       -1   -1    0    0    0  501  0.00000000000E+00  0.00000000000E+00 -0.97223717239E+03  0.97223717240E+03  0.50400001928E-02 0. -1.
    10030    2    1    2    0    0  0.00000000000E+00  0.00000000000E+00  0.11908732749E+04  0.31353476197E+04  0.29003836883E+04 0.  0.
        4    1    3    3  502    0 -0.51813496575E+03  0.70737116332E+03 -0.65322127663E+03  0.10934063538E+04  0.12699999809E+01 0. -1.
       -4    1    3    3    0  502  0.51813496575E+03 -0.70737116332E+03  0.18440945515E+04  0.20419412659E+04  0.12699999809E+01 0.  1.
</event>
<event>
 5   0  0.9388076E-08  0.2900472E+04  0.7818609E-02  0.8272737E-01
        1   -1    0    0  501    0  0.00000000000E+00  0.00000000000E+00  0.13363677731E+04  0.13363677731E+04  0.50400001928E-02 0. -1.
       -1   -1    0    0    0  501  0.00000000000E+00  0.00000000000E+00 -0.15738065521E+04  0.15738065521E+04  0.50400001928E-02 0.  1.
    10030    2    1    2    0    0  0.00000000000E+00  0.00000000000E+00 -0.23743877900E+03  0.29101743252E+04  0.29004719322E+04 0.  0.
        5    1    3    3  502    0 -0.55475305262E+03  0.94948226947E+03 -0.10673421227E+04  0.15324845273E+04  0.46999998093E+01 0.  1.
       -5    1    3    3    0  502  0.55475305262E+03 -0.94948226947E+03  0.82990334374E+03  0.13776897980E+04  0.46999998093E+01 0. -1.
</event>
<event>
 5   0  0.9421924E-08  0.2897189E+04  0.7818609E-02  0.8273714E-01
        1   -1    0    0  501    0  0.00000000000E+00  0.00000000000E+00  0.10889107883E+04  0.10889107883E+04  0.50400001928E-02 0. -1.
       -1   -1    0    0    0  501  0.00000000000E+00  0.00000000000E+00 -0.19270877715E+04  0.19270877715E+04  0.50400001928E-02 0.  1.
    10030    2    1    2    0    0  0.00000000000E+00  0.00000000000E+00 -0.83817698320E+03  0.30159985597E+04  0.28971894410E+04 0.  0.
        1    1    3    3  502    0  0.92828615258E+03  0.53217572962E+03  0.59742861864E+03  0.12254987322E+04  0.50400001928E-02 0. -1.
       -1    1    3    3    0  502 -0.92828615258E+03 -0.53217572962E+03 -0.14356056018E+04  0.17904998275E+04  0.50400001928E-02 0.  1.
</event>
<event>
 5   0  0.2492232E-07  0.2897553E+04  0.7818609E-02  0.8273606E-01
        2   -1    0    0  501    0  0.00000000000E+00  0.00000000000E+00  0.18830115889E+04  0.18830115889E+04  0.25500000920E-02 0.  1.
       -2   -1    0    0    0  501  0.00000000000E+00  0.00000000000E+00 -0.11146786856E+04  0.11146786856E+04  0.25500000920E-02 0. -1.
    10030    2    1    2    0    0  0.00000000000E+00  0.00000000000E+00  0.76833290325E+03  0.29976902745E+04  0.28975526797E+04 0.  0.
        4    1    3    3  502    0 -0.86418739705E+02 -0.10395666959E+04  0.14242892873E+04  0.17654372548E+04  0.12699999809E+01 0.  1.
       -4    1    3    3    0  502  0.86418739705E+02  0.10395666959E+04 -0.65595638405E+03  0.12322530197E+04  0.12699999809E+01 0. -1.
</event>
<event>
 5   0  0.2546841E-07  0.2900223E+04  0.7818609E-02  0.8272811E-01
        2   -1    0    0  501    0  0.00000000000E+00  0.00000000000E+00  0.23524812641E+04  0.23524812641E+04  0.25500000920E-02 0.  1.
       -2   -1    0    0    0  501  0.00000000000E+00  0.00000000000E+00 -0.89387478947E+03  0.89387478948E+03  0.25500000920E-02 0. -1.
    10030    2    1    2    0    0  0.00000000000E+00  0.00000000000E+00  0.14586064746E+04  0.32463560536E+04  0.29002232291E+04 0.  0.
        1    1    3    3  502    0  0.36845449849E+02 -0.11805304244E+04  0.16710286838E+04  0.20463006944E+04  0.50400001928E-02 0.  1.
       -1    1    3    3    0  502 -0.36845449849E+02  0.11805304244E+04 -0.21242220916E+03  0.12000553591E+04  0.50400001928E-02 0. -1.
</event>
<event>
 5   0  0.2608591E-07  0.2901182E+04  0.7818609E-02  0.8272526E-01
       -2   -1    0    0    0  501  0.00000000000E+00  0.00000000000E+00  0.15435479488E+04  0.15435479488E+04  0.25500000920E-02 0. -1.
        2   -1    0    0  501    0  0.00000000000E+00  0.00000000000E+00 -0.13632318660E+04  0.13632318660E+04  0.25500000920E-02 0.  1.
    10030    2    1    2    0    0  0.00000000000E+00  0.00000000000E+00  0.18031608285E+03  0.29067798148E+04  0.29011816561E+04 0.  0.
        2    1    3    3  502    0 -0.10880141052E+04  0.83588154928E+03 -0.38164453121E+03  0.14241226091E+04  0.25500000920E-02 0.  1.
       -2    1    3    3    0  502  0.10880141052E+04 -0.83588154928E+03  0.56196061405E+03  0.14826572056E+04  0.25500000920E-02 0. -1.
</event>
<event>
 5   0  0.9763851E-08  0.2898712E+04  0.7818609E-02  0.8273261E-01
        1   -1    0    0  501    0  0.00000000000E+00  0.00000000000E+00  0.14522683466E+04  0.14522683466E+04  0.50400001928E-02 0.  1.
       -1   -1    0    0    0  501  0.00000000000E+00  0.00000000000E+00 -0.14464496137E+04  0.14464496137E+04  0.50400001928E-02 0. -1.
    10030    2    1    2    0    0  0.00000000000E+00  0.00000000000E+00  0.58187329280E+01  0.28987179602E+04  0.28987121201E+04 0.  0.
        3    1    3    3  502    0 -0.70718154088E+02 -0.12132692800E+03 -0.14396300898E+04  0.14464633028E+04  0.10100000352E+00 0. -1.
       -3    1    3    3    0  502  0.70718154088E+02  0.12132692800E+03  0.14454488227E+04  0.14522546574E+04  0.10100000352E+00 0.  1.
</event>
<event>
 5   0  0.2534588E-07  0.2900544E+04  0.7818609E-02  0.8272716E-01
       -2   -1    0    0    0  501  0.00000000000E+00  0.00000000000E+00  0.10148401145E+04  0.10148401145E+04  0.25500000920E-02 0.  1.
        2   -1    0    0  501    0  0.00000000000E+00  0.00000000000E+00 -0.20725318952E+04  0.20725318952E+04  0.25500000920E-02 0. -1.
    10030    2    1    2    0    0  0.00000000000E+00  0.00000000000E+00 -0.10576917807E+04  0.30873720097E+04  0.29005437461E+04 0.  0.
        3    1    3    3  502    0 -0.64876016667E+03 -0.46503562531E+03  0.75998920656E+03  0.11021485793E+04  0.10100000352E+00 0.  1.
       -3    1    3    3    0  502  0.64876016667E+03  0.46503562531E+03 -0.18176809872E+04  0.19852234303E+04  0.10100000352E+00 0. -1.
</event>
<event>
 5   0  0.2678723E-07  0.2900861E+04  0.7818609E-02  0.8272621E-01
       -2   -1    0    0    0  501  0.00000000000E+00  0.00000000000E+00  0.97933717006E+03  0.97933717006E+03  0.25500000920E-02 0. -1.
        2   -1    0    0  501    0  0.00000000000E+00  0.00000000000E+00 -0.21481345405E+04  0.21481345405E+04  0.25500000920E-02 0.  1.
    10030    2    1    2    0    0  0.00000000000E+00  0.00000000000E+00 -0.11687973704E+04  0.31274717105E+04  0.29008605632E+04 0.  0.
        5    1    3    3  502    0 -0.11236554200E+04  0.65572935853E+03  0.10689598212E+03  0.13053855122E+04  0.46999998093E+01 0.  1.
       -5    1    3    3    0  502  0.11236554200E+04 -0.65572935853E+03 -0.12756933525E+04  0.18220861983E+04  0.46999998093E+01 0. -1.
</event>
<event>
 5   0  0.2546841E-07  0.2900075E+04  0.7818609E-02  0.8272855E-01
        2   -1    0    0  501    0  0.00000000000E+00  0.00000000000E+00  0.17383301195E+04  0.17383301195E+04  0.25500000920E-02 0. -1.
       -2   -1    0    0    0  501  0.00000000000E+00  0.00000000000E+00 -0.12095566411E+04  0.12095566411E+04  0.25500000920E-02 0.  1.
    10030    2    1    2    0    0  0.00000000000E+00  0.00000000000E+00  0.52877347841E+03  0.29478867606E+04  0.29000749925E+04 0.  0.
        1    1    3    3  502    0  0.82578242661E+03 -0.10950100836E+03 -0.94206812968E+03  0.12575370563E+04  0.50400001928E-02 0.  1.
       -1    1    3    3    0  502 -0.82578242661E+03  0.10950100836E+03  0.14708416081E+04  0.16903497044E+04  0.50400001928E-02 0. -1.
</event>
<event>
 5   0  0.9763851E-08  0.2899523E+04  0.7818609E-02  0.8273019E-01
       -1   -1    0    0    0  501  0.00000000000E+00  0.00000000000E+00  0.11697912513E+04  0.11697912513E+04  0.50400001928E-02 0. -1.
        1   -1    0    0  501    0  0.00000000000E+00  0.00000000000E+00 -0.17967380304E+04  0.17967380304E+04  0.50400001928E-02 0.  1.
    10030    2    1    2    0    0  0.00000000000E+00  0.00000000000E+00 -0.62694677911E+03  0.29665292817E+04  0.28995230151E+04 0.  0.
        3    1    3    3  502    0  0.85797610486E+03  0.11658020568E+04 -0.39653441592E+03  0.15008187716E+04  0.10100000352E+00 0. -1.
       -3    1    3    3    0  502 -0.85797610486E+03 -0.11658020568E+04 -0.23041236319E+03  0.14657105101E+04  0.10100000352E+00 0.  1.
</event>
<event>
 5   0  0.9443352E-08  0.2899055E+04  0.7818609E-02  0.8273159E-01
       -1   -1    0    0    0  501  0.00000000000E+00  0.00000000000E+00  0.31267444370E+04  0.31267444370E+04  0.50400001928E-02 0. -1.
        1   -1    0    0  501    0  0.00000000000E+00  0.00000000000E+00 -0.67198668492E+03  0.67198668494E+03  0.50400001928E-02 0.  1.
    10030    2    1    2    0    0  0.00000000000E+00  0.00000000000E+00  0.24547577521E+04  0.37987311220E+04  0.28990554523E+04 0.  0.
        4    1    3    3  502    0 -0.54179682197E+03  0.71816958415E+03  0.27166804291E+04  0.28617591643E+04  0.12699999809E+01 0. -1.
       -4    1    3    3    0  502  0.54179682197E+03 -0.71816958415E+03 -0.26192267694E+03  0.93697195769E+03  0.12699999809E+01 0.  1.
</event>
<event>
 5   0  0.9763851E-08  0.2899363E+04  0.7818609E-02  0.8273067E-01
       -1   -1    0    0    0  501  0.00000000000E+00  0.00000000000E+00  0.12103490081E+04  0.12103490081E+04  0.50400001928E-02 0. -1.
        1   -1    0    0  501    0  0.00000000000E+00  0.00000000000E+00 -0.17363386435E+04  0.17363386435E+04  0.50400001928E-02 0.  1.
    10030    2    1    2    0    0  0.00000000000E+00  0.00000000000E+00 -0.52598963539E+03  0.29466876515E+04  0.28993625194E+04 0.  0.
        3    1    3    3  502    0 -0.20304255932E+03  0.51780394156E+03 -0.16235879591E+04  0.17162124209E+04  0.10100000352E+00 0.  1.
       -3    1    3    3    0  502  0.20304255932E+03 -0.51780394156E+03  0.10975983237E+04  0.12304752306E+04  0.10100000352E+00 0. -1.
</event>
<event>
 5   0  0.2492232E-07  0.2900997E+04  0.7818609E-02  0.8272581E-01
       -2   -1    0    0    0  501  0.00000000000E+00  0.00000000000E+00  0.89940658283E+03  0.89940658284E+03  0.25500000920E-02 0. -1.
        2   -1    0    0  501    0  0.00000000000E+00  0.00000000000E+00 -0.23392592611E+04  0.23392592611E+04  0.25500000920E-02 0.  1.
    10030    2    1    2    0    0  0.00000000000E+00  0.00000000000E+00 -0.14398526782E+04  0.32386658439E+04  0.29009965035E+04 0.  0.
        4    1    3    3  502    0  0.21459197229E+03  0.37780597430E+03 -0.22648999640E+04  0.23062004529E+04  0.12699999809E+01 0.  1.
       -4    1    3    3    0  502 -0.21459197229E+03 -0.37780597430E+03  0.82504728580E+03  0.93246539105E+03  0.12699999809E+01 0. -1.
</event>
<event>
 5   0  0.2678723E-07  0.2899949E+04  0.7818609E-02  0.8272893E-01
       -2   -1    0    0    0  501  0.00000000000E+00  0.00000000000E+00  0.10695324843E+04  0.10695324843E+04  0.25500000920E-02 0. -1.
        2   -1    0    0  501    0  0.00000000000E+00  0.00000000000E+00 -0.19657426417E+04  0.19657426417E+04  0.25500000920E-02 0.  1.
    10030    2    1    2    0    0  0.00000000000E+00  0.00000000000E+00 -0.89621015740E+03  0.30352751261E+04  0.28999486969E+04 0.  0.
        5    1    3    3  502    0  0.55337407756E+03 -0.82655916928E+02  0.95198259832E+03  0.11042408378E+04  0.46999998093E+01 0. -1.
       -5    1    3    3    0  502 -0.55337407756E+03  0.82655916928E+02 -0.18481927557E+04  0.19310342883E+04  0.46999998093E+01 0.  1.
</event>
<event>
 5   0  0.2608591E-07  0.2899686E+04  0.7818609E-02  0.8272971E-01
       -2   -1    0    0    0  501  0.00000000000E+00  0.00000000000E+00  0.12087842930E+04  0.12087842930E+04  0.25500000920E-02 0.  1.
        2   -1    0    0  501    0  0.00000000000E+00  0.00000000000E+00 -0.17389743954E+04  0.17389743954E+04  0.25500000920E-02 0. -1.
    10030    2    1    2    0    0  0.00000000000E+00  0.00000000000E+00 -0.53019010246E+03  0.29477586884E+04  0.28996861451E+04 0.  0.
        2    1    3    3  502    0  0.18824823016E+03 -0.11719641413E+04 -0.11114280259E+04  0.16261025802E+04  0.25500000920E-02 0. -1.
       -2    1    3    3    0  502 -0.18824823016E+03  0.11719641413E+04  0.58123792345E+03  0.13216561082E+04  0.25500000920E-02 0.  1.
</event>
<event>
 5   0  0.2534588E-07  0.2896858E+04  0.7818609E-02  0.8273813E-01
        2   -1    0    0  501    0  0.00000000000E+00  0.00000000000E+00  0.20179007736E+04  0.20179007736E+04  0.25500000920E-02 0. -1.
       -2   -1    0    0    0  501  0.00000000000E+00  0.00000000000E+00 -0.10396676388E+04  0.10396676388E+04  0.25500000920E-02 0.  1.
    10030    2    1    2    0    0  0.00000000000E+00  0.00000000000E+00  0.97823313484E+03  0.30575684124E+04  0.28968576993E+04 0.  0.
        3    1    3    3  502    0 -0.91555100857E+03 -0.57426005928E+03 -0.52871516125E+03  0.12031408882E+04  0.10100000352E+00 0. -1.
       -3    1    3    3    0  502  0.91555100857E+03  0.57426005928E+03  0.15069482961E+04  0.18544275241E+04  0.10100000352E+00 0.  1.
</event>
<event>
 5   0  0.2608591E-07  0.2899851E+04  0.7818609E-02  0.8272922E-01
        2   -1    0    0  501    0  0.00000000000E+00  0.00000000000E+00  0.30634206406E+04  0.30634206406E+04  0.25500000920E-02 0. -1.
       -2   -1    0    0    0  501  0.00000000000E+00  0.00000000000E+00 -0.68625377005E+03  0.68625377005E+03  0.25500000920E-02 0.  1.
    10030    2    1    2    0    0  0.00000000000E+00  0.00000000000E+00  0.23771668705E+04  0.37496744106E+04  0.28998510057E+04 0.  0.
        2    1    3    3  502    0  0.55001235686E+03  0.26190011290E+02 -0.54579414139E+03  0.77530042833E+03  0.25500000920E-02 0.  1.
       -2    1    3    3    0  502 -0.55001235686E+03 -0.26190011290E+02  0.29229610119E+04  0.29743739823E+04  0.25500000920E-02 0. -1.
</event>
<event>
 5   0  0.2534588E-07  0.2903198E+04  0.7818609E-02  0.8271927E-01
        2   -1    0    0  501    0  0.00000000000E+00  0.00000000000E+00  0.13278361467E+04  0.13278361467E+04  0.25500000920E-02 0. -1.
       -2   -1    0    0    0  501  0.00000000000E+00  0.00000000000E+00 -0.15868977200E+04  0.15868977200E+04  0.25500000920E-02 0.  1.
    10030    2    1    2    0    0  0.00000000000E+00  0.00000000000E+00 -0.25906157333E+03  0.29147338668E+04  0.29031983424E+04 0.  0.
        3    1    3    3  502    0  0.62113056448E+03 -0.87785054062E+02  0.11847278002E+04  0.13405556179E+04  0.10100000352E+00 0. -1.
       -3    1    3    3    0  502 -0.62113056448E+03  0.87785054062E+02 -0.14437893735E+04  0.15741782489E+04  0.10100000352E+00 0.  1.
</event>
<event>
 5   0  0.2534588E-07  0.2900378E+04  0.7818609E-02  0.8272765E-01
        2   -1    0    0  501    0  0.00000000000E+00  0.00000000000E+00  0.14635989511E+04  0.14635989511E+04  0.25500000920E-02 0.  1.
       -2   -1    0    0    0  501  0.00000000000E+00  0.00000000000E+00 -0.14369014214E+04  0.14369014214E+04  0.25500000920E-02 0. -1.
    10030    2    1    2    0    0  0.00000000000E+00  0.00000000000E+00  0.26697529704E+02  0.29005003725E+04  0.29003775018E+04 0.  0.
        3    1    3    3  502    0  0.11326971430E+03  0.43610511243E+03 -0.13651252805E+04  0.14375620818E+04  0.10100000352E+00 0. -1.
       -3    1    3    3    0  502 -0.11326971430E+03 -0.43610511243E+03  0.13918228102E+04  0.14629382908E+04  0.10100000352E+00 0.  1.
</event>
<event>
 5   0  0.2492232E-07  0.2899306E+04  0.7818609E-02  0.8273084E-01
       -2   -1    0    0    0  501  0.00000000000E+00  0.00000000000E+00  0.15005952848E+04  0.15005952848E+04  0.25500000920E-02 0. -1.
        2   -1    0    0  501    0  0.00000000000E+00  0.00000000000E+00 -0.14004400088E+04  0.14004400088E+04  0.25500000920E-02 0.  1.
    10030    2    1    2    0    0  0.00000000000E+00  0.00000000000E+00  0.10015527596E+03  0.29010352937E+04  0.28993058990E+04 0.  0.
        4    1    3    3  502    0 -0.10937735297E+04 -0.12569096889E+02 -0.90180129241E+03  0.14176550005E+04  0.12699999809E+01 0. -1.
       -4    1    3    3    0  502  0.10937735297E+04  0.12569096889E+02  0.10019565684E+04  0.14833802932E+04  0.12699999809E+01 0.  1.
</event>
<event>
 5   0  0.9388076E-08  0.2900410E+04  0.7818609E-02  0.8272755E-01
        1   -1    0    0  501    0  0.00000000000E+00  0.00000000000E+00  0.65219464904E+03  0.65219464906E+03  0.50400001928E-02 0. -1.
       -1   -1    0    0    0  501  0.00000000000E+00  0.00000000000E+00 -0.32246431392E+04  0.32246431392E+04  0.50400001928E-02 0.  1.
    10030    2    1    2    0    0  0.00000000000E+00  0.00000000000E+00 -0.25724484901E+04  0.38768377882E+04  0.29004103161E+04 0.  0.
        5    1    3    3  502    0  0.14116467632E+04  0.32776240001E+03 -0.12142665011E+04  0.18906718384E+04  0.46999998093E+01 0.  1.
       -5    1    3    3    0  502 -0.14116467632E+04 -0.32776240001E+03 -0.13581819890E+04  0.19861659498E+04  0.46999998093E+01 0. -1.
</event>
<event>
 5   0  0.9395744E-08  0.2897820E+04  0.7818609E-02  0.8273526E-01
        1   -1    0    0  501    0  0.00000000000E+00  0.00000000000E+00  0.17616118138E+04  0.17616118138E+04  0.50400001928E-02 0. -1.
       -1   -1    0    0    0  501  0.00000000000E+00  0.00000000000E+00 -0.11917153258E+04  0.11917153258E+04  0.50400001928E-02 0.  1.
    10030    2    1    2    0    0  0.00000000000E+00  0.00000000000E+00  0.56989648799E+03  0.29533271396E+04  0.28978197298E+04 0.  0.
        2    1    3    3  502    0 -0.59536741453E+02 -0.13268166713E+04  0.87513721701E+03  0.15905509270E+04  0.25500000920E-02 0. -1.
       -2    1    3    3    0  502  0.59536741453E+02  0.13268166713E+04 -0.30524072902E+03  0.13627762126E+04  0.25500000920E-02 0.  1.
</event>
<event>
 5   0  0.9395744E-08  0.2900140E+04  0.7818609E-02  0.8272836E-01
        1   -1    0    0  501    0  0.00000000000E+00  0.00000000000E+00  0.24668133828E+04  0.24668133828E+04  0.50400001928E-02 0. -1.
       -1   -1    0    0    0  501  0.00000000000E+00  0.00000000000E+00 -0.85239632958E+03  0.85239632960E+03  0.50400001928E-02 0.  1.
    10030    2    1    2    0    0  0.00000000000E+00  0.00000000000E+00  0.16144170532E+04  0.33192097124E+04  0.29001397713E+04 0.  0.
        2    1    3    3  502    0 -0.10920910934E+04  0.11242147651E+03  0.18914076935E+04  0.21869441254E+04  0.25500000920E-02 0.  1.
       -2    1    3    3    0  502  0.10920910934E+04 -0.11242147651E+03 -0.27699064024E+03  0.11322655870E+04  0.25500000920E-02 0. -1.
</event>
<event>
 5   0  0.9763851E-08  0.2899378E+04  0.7818609E-02  0.8273063E-01
        1   -1    0    0  501    0  0.00000000000E+00  0.00000000000E+00  0.14855743808E+04  0.14855743808E+04  0.50400001928E-02 0. -1.
       -1   -1    0    0    0  501  0.00000000000E+00  0.00000000000E+00 -0.14146701046E+04  0.14146701046E+04  0.50400001928E-02 0.  1.
    10030    2    1    2    0    0  0.00000000000E+00  0.00000000000E+00  0.70904276191E+02  0.29002444854E+04  0.28993776330E+04 0.  0.
        3    1    3    3  502    0  0.13601912316E+04 -0.46578228707E+03  0.22131492670E+03  0.14546661584E+04  0.10100000352E+00 0.  1.
       -3    1    3    3    0  502 -0.13601912316E+04  0.46578228707E+03 -0.15041065051E+03  0.14455783270E+04  0.10100000352E+00 0. -1.
</event>
<event>
 5   0  0.2546841E-07  0.2900464E+04  0.7818609E-02  0.8272739E-01
       -2   -1    0    0    0  501  0.00000000000E+00  0.00000000000E+00  0.14089163914E+04  0.14089163914E+04  0.25500000920E-02 0. -1.
        2   -1    0    0  501    0  0.00000000000E+00  0.00000000000E+00 -0.14927595051E+04  0.14927595051E+04  0.25500000920E-02 0.  1.
    10030    2    1    2    0    0  0.00000000000E+00  0.00000000000E+00 -0.83843113618E+02  0.29016758965E+04  0.29004643319E+04 0.  0.
        1    1    3    3  502    0 -0.15133122822E+03 -0.14391275688E+04 -0.13779495961E+03  0.14536081834E+04  0.50400001928E-02 0. -1.
       -1    1    3    3    0  502  0.15133122822E+03  0.14391275688E+04  0.53951845992E+02  0.14480677131E+04  0.50400001928E-02 0.  1.
</event>
<event>
 5   0  0.9763851E-08  0.2901681E+04  0.7818609E-02  0.8272377E-01
       -1   -1    0    0    0  501  0.00000000000E+00  0.00000000000E+00  0.14503599884E+04  0.14503599884E+04  0.50400001928E-02 0. -1.
        1   -1    0    0  501    0  0.00000000000E+00  0.00000000000E+00 -0.14513213057E+04  0.14513213057E+04  0.50400001928E-02 0.  1.
    10030    2    1    2    0    0  0.00000000000E+00  0.00000000000E+00 -0.96131731503E+00  0.29016812941E+04  0.29016811349E+04 0.  0.
        3    1    3    3  502    0  0.77432034896E+03  0.59610286551E+03  0.10719128508E+04  0.14504853667E+04  0.10100000352E+00 0. -1.
       -3    1    3    3    0  502 -0.77432034896E+03 -0.59610286551E+03 -0.10728741681E+04  0.14511959274E+04  0.10100000352E+00 0.  1.
</event>
<event>
 5   0  0.2534588E-07  0.2900035E+04  0.7818609E-02  0.8272867E-01
        2   -1    0    0  501    0  0.00000000000E+00  0.00000000000E+00  0.87752874506E+03  0.87752874507E+03  0.25500000920E-02 0.  1.
       -2   -1    0    0    0  501  0.00000000000E+00  0.00000000000E+00 -0.23959900544E+04  0.23959900544E+04  0.25500000920E-02 0. -1.
    10030    2    1    2    0    0  0.00000000000E+00  0.00000000000E+00 -0.15184613093E+04  0.32735187994E+04  0.29000345830E+04 0.  0.
        3    1    3    3  502    0 -0.37578626230E+03  0.13978596778E+04 -0.85582693002E+03  0.16815667510E+04  0.10100000352E+00 0.  1.
       -3    1    3    3    0  502  0.37578626230E+03 -0.13978596778E+04 -0.66263437927E+03  0.15919520484E+04  0.10100000352E+00 0. -1.
</event>
<event>
 5   0  0.9421924E-08  0.2899991E+04  0.7818609E-02  0.8272880E-01
       -1   -1    0    0    0  501  0.00000000000E+00  0.00000000000E+00  0.11109781235E+04  0.11109781235E+04  0.50400001928E-02 0.  1.
        1   -1    0    0  501    0  0.00000000000E+00  0.00000000000E+00 -0.18924653968E+04  0.18924653969E+04  0.50400001928E-02 0. -1.
    10030    2    1    2    0    0  0.00000000000E+00  0.00000000000E+00 -0.78148727333E+03  0.30034435204E+04  0.28999914865E+04 0.  0.
        1    1    3    3  502    0  0.12790851163E+04  0.43895173306E+02  0.31511316434E+03  0.13180598724E+04  0.50400001928E-02 0. -1.
       -1    1    3    3    0  502 -0.12790851163E+04 -0.43895173306E+02 -0.10966004377E+04  0.16853836480E+04  0.50400001928E-02 0.  1.
</event>
<event>
 5   0  0.2492232E-07  0.2899848E+04  0.7818609E-02  0.8272923E-01
        2   -1    0    0  501    0  0.00000000000E+00  0.00000000000E+00  0.18974919389E+04  0.18974919389E+04  0.25500000920E-02 0. -1.
       -2   -1    0    0    0  501  0.00000000000E+00  0.00000000000E+00 -0.11079253225E+04  0.11079253225E+04  0.25500000920E-02 0.  1.
    10030    2    1    2    0    0  0.00000000000E+00  0.00000000000E+00  0.78956661639E+03  0.30054172614E+04  0.28998478363E+04 0.  0.
        4    1    3    3  502    0  0.33964107951E+03  0.11346919076E+04  0.12615278763E+04  0.17304149744E+04  0.12699999809E+01 0.  1.
       -4    1    3    3    0  502 -0.33964107951E+03 -0.11346919076E+04 -0.47196125994E+03  0.12750022870E+04  0.12699999809E+01 0. -1.
</event>
<event>
 5   0  0.2492232E-07  0.2899704E+04  0.7818609E-02  0.8272965E-01
        2   -1    0    0  501    0  0.00000000000E+00  0.00000000000E+00  0.24274427171E+04  0.24274427171E+04  0.25500000920E-02 0.  1.
       -2   -1    0    0    0  501  0.00000000000E+00  0.00000000000E+00 -0.86596116122E+03  0.86596116122E+03  0.25500000920E-02 0. -1.
    10030    2    1    2    0    0  0.00000000000E+00  0.00000000000E+00  0.15614815559E+04  0.32934038783E+04  0.28997042015E+04 0.  0.
        4    1    3    3  502    0  0.13958047888E+02  0.56418760951E+03  0.22975676388E+04  0.23658658359E+04  0.12699999809E+01 0.  1.
       -4    1    3    3    0  502 -0.13958047888E+02 -0.56418760951E+03 -0.73608608289E+03  0.92753804243E+03  0.12699999809E+01 0. -1.
</event>
<event>
 5   0  0.9388076E-08  0.2898261E+04  0.7818609E-02  0.8273395E-01
       -1   -1    0    0    0  501  0.00000000000E+00  0.00000000000E+00  0.11819868928E+04  0.11819868928E+04  0.50400001928E-02 0. -1.
        1   -1    0    0  501    0  0.00000000000E+00  0.00000000000E+00 -0.17766520628E+04  0.17766520628E+04  0.50400001928E-02 0.  1.
    10030    2    1    2    0    0  0.00000000000E+00  0.00000000000E+00 -0.59466517003E+03  0.29586389557E+04  0.28982611693E+04 0.  0.
        5    1    3    3  502    0 -0.11318191284E+03 -0.53095987666E+03 -0.16689108134E+04  0.17549968459E+04  0.46999998093E+01 0.  1.
       -5    1    3    3    0  502  0.11318191284E+03  0.53095987666E+03  0.10742456434E+04  0.12036421098E+04  0.46999998093E+01 0. -1.
</event>
<event>
 5   0  0.9763851E-08  0.2903444E+04  0.7818609E-02  0.8271854E-01
       -1   -1    0    0    0  501  0.00000000000E+00  0.00000000000E+00  0.11189730278E+04  0.11189730278E+04  0.50400001928E-02 0. -1.
        1   -1    0    0  501    0  0.00000000000E+00  0.00000000000E+00 -0.18834200386E+04  0.18834200386E+04  0.50400001928E-02 0.  1.
    10030    2    1    2    0    0  0.00000000000E+00  0.00000000000E+00 -0.76444701080E+03  0.30023930664E+04  0.29034436265E+04 0.  0.
        3    1    3    3  502    0 -0.12898921627E+04  0.58105695979E+03 -0.71897056875E+03  0.15869365680E+04  0.10100000352E+00 0. -1.
       -3    1    3    3    0  502  0.12898921627E+04 -0.58105695979E+03 -0.45476442053E+02  0.14154564984E+04  0.10100000352E+00 0.  1.
</event>
<event>
 5   0  0.9395744E-08  0.2900076E+04  0.7818609E-02  0.8272855E-01
        1   -1    0    0  501    0  0.00000000000E+00  0.00000000000E+00  0.19351720774E+04  0.19351720774E+04  0.50400001928E-02 0. -1.
       -1   -1    0    0    0  501  0.00000000000E+00  0.00000000000E+00 -0.10865234811E+04  0.10865234811E+04  0.50400001928E-02 0.  1.
    10030    2    1    2    0    0  0.00000000000E+00  0.00000000000E+00  0.84864859627E+03  0.30216955585E+04  0.29000757935E+04 0.  0.
        2    1    3    3  502    0  0.90148708806E+03 -0.53794270334E+02 -0.75772854612E+03  0.11788661260E+04  0.25500000920E-02 0.  1.
       -2    1    3    3    0  502 -0.90148708806E+03  0.53794270334E+02  0.16063771424E+04  0.18428294324E+04  0.25500000920E-02 0. -1.
</event>
<event>
 5   0  0.2492232E-07  0.2900185E+04  0.7818609E-02  0.8272822E-01
       -2   -1    0    0    0  501  0.00000000000E+00  0.00000000000E+00  0.13428432042E+04  0.13428432042E+04  0.25500000920E-02 0. -1.
        2   -1    0    0  501    0  0.00000000000E+00  0.00000000000E+00 -0.15659077925E+04  0.15659077925E+04  0.25500000920E-02 0.  1.
    10030    2    1    2    0    0  0.00000000000E+00  0.00000000000E+00 -0.22306458827E+03  0.29087509967E+04  0.29001852614E+04 0.  0.
        4    1    3    3  502    0 -0.10485759958E+04 -0.14277868204E+03 -0.11058582288E+04  0.15306277817E+04  0.12699999809E+01 0.  1.
       -4    1    3    3    0  502  0.10485759958E+04  0.14277868204E+03  0.88279364056E+03  0.13781232150E+04  0.12699999809E+01 0. -1.
</event>
<event>
 5   0  0.9763851E-08  0.2900083E+04  0.7818609E-02  0.8272853E-01
       -1   -1    0    0    0  501  0.00000000000E+00  0.00000000000E+00  0.14116460604E+04  0.14116460604E+04  0.50400001928E-02 0. -1.
        1   -1    0    0  501    0  0.00000000000E+00  0.00000000000E+00 -0.14894815217E+04  0.14894815217E+04  0.50400001928E-02 0.  1.
    10030    2    1    2    0    0  0.00000000000E+00  0.00000000000E+00 -0.77835461235E+02  0.29011275821E+04  0.29000832555E+04 0.  0.
        3    1    3    3  502    0 -0.11931677073E+04  0.64776473440E+03  0.47055181495E+03  0.14368950378E+04  0.10100000352E+00 0.  1.
       -3    1    3    3    0  502  0.11931677073E+04 -0.64776473440E+03 -0.54838727618E+03  0.14642325443E+04  0.10100000352E+00 0. -1.
</event>
<event>
 5   0  0.2608591E-07  0.2900360E+04  0.7818609E-02  0.8272770E-01
        2   -1    0    0  501    0  0.00000000000E+00  0.00000000000E+00  0.17595593606E+04  0.17595593606E+04  0.25500000920E-02 0. -1.
       -2   -1    0    0    0  501  0.00000000000E+00  0.00000000000E+00 -0.11951982549E+04  0.11951982549E+04  0.25500000920E-02 0.  1.
    10030    2    1    2    0    0  0.00000000000E+00  0.00000000000E+00  0.56436110576E+03  0.29547576155E+04  0.29003601688E+04 0.  0.
        2    1    3    3  502    0 -0.15476049135E+03  0.32035907920E+03 -0.11500466350E+04  0.12038222510E+04  0.25500000920E-02 0.  1.
       -2    1    3    3    0  502  0.15476049135E+03 -0.32035907920E+03  0.17144077407E+04  0.17509353645E+04  0.25500000920E-02 0. -1.
</event>
<event>
 5   0  0.2492232E-07  0.2899796E+04  0.7818609E-02  0.8272938E-01
        2   -1    0    0  501    0  0.00000000000E+00  0.00000000000E+00  0.15727117486E+04  0.15727117486E+04  0.25500000920E-02 0.  1.
       -2   -1    0    0    0  501  0.00000000000E+00  0.00000000000E+00 -0.13366747307E+04  0.13366747308E+04  0.25500000920E-02 0. -1.
    10030    2    1    2    0    0  0.00000000000E+00  0.00000000000E+00  0.23603701784E+03  0.29093864793E+04  0.28997958915E+04 0.  0.
        4    1    3    3  502    0 -0.97425834664E+02  0.58802359560E+03  0.14441080310E+04  0.15622781956E+04  0.12699999809E+01 0.  1.
       -4    1    3    3    0  502  0.97425834664E+02 -0.58802359560E+03 -0.12080710132E+04  0.13471082837E+04  0.12699999809E+01 0. -1.
</event>
<event>
 5   0  0.9388076E-08  0.2902041E+04  0.7818609E-02  0.8272270E-01
       -1   -1    0    0    0  501  0.00000000000E+00  0.00000000000E+00  0.10829778903E+04  0.10829778903E+04  0.50400001928E-02 0.  1.
        1   -1    0    0  501    0  0.00000000000E+00  0.00000000000E+00 -0.19441400196E+04  0.19441400196E+04  0.50400001928E-02 0. -1.
    10030    2    1    2    0    0  0.00000000000E+00  0.00000000000E+00 -0.86116212933E+03  0.30271179099E+04  0.29020411140E+04 0.  0.
        5    1    3    3  502    0 -0.11509979916E+04  0.84845528497E+03 -0.68771266726E+03  0.15867084011E+04  0.46999998093E+01 0.  1.
       -5    1    3    3    0  502  0.11509979916E+04 -0.84845528497E+03 -0.17344946207E+03  0.14404095088E+04  0.46999998093E+01 0. -1.
</event>
<event>
 5   0  0.9395744E-08  0.2901073E+04  0.7818609E-02  0.8272558E-01
        1   -1    0    0  501    0  0.00000000000E+00  0.00000000000E+00  0.23806795185E+04  0.23806795185E+04  0.50400001928E-02 0. -1.
       -1   -1    0    0    0  501  0.00000000000E+00  0.00000000000E+00 -0.88380469538E+03  0.88380469540E+03  0.50400001928E-02 0.  1.
    10030    2    1    2    0    0  0.00000000000E+00  0.00000000000E+00  0.14968748231E+04  0.32644842139E+04  0.29010727234E+04 0.  0.
        2    1    3    3  502    0  0.12982169908E+04 -0.60029293675E+03  0.47665136734E+03  0.15076191466E+04  0.25500000920E-02 0.  1.
       -2    1    3    3    0  502 -0.12982169908E+04  0.60029293675E+03  0.10202234557E+04  0.17568650673E+04  0.25500000920E-02 0. -1.
</event>
<event>
 5   0  0.2608591E-07  0.2897462E+04  0.7818609E-02  0.8273633E-01
        2   -1    0    0  501    0  0.00000000000E+00  0.00000000000E+00  0.19496317622E+04  0.19496317622E+04  0.25500000920E-02 0. -1.
       -2   -1    0    0    0  501  0.00000000000E+00  0.00000000000E+00 -0.10765221978E+04  0.10765221978E+04  0.25500000920E-02 0.  1.
    10030    2    1    2    0    0  0.00000000000E+00  0.00000000000E+00  0.87310956433E+03  0.30261539600E+04  0.28974622480E+04 0.  0.
        2    1    3    3  502    0 -0.30428041568E+03  0.42594285169E+02  0.19152126835E+04  0.19397011284E+04  0.25500000920E-02 0. -1.
       -2    1    3    3    0  502  0.30428041568E+03 -0.42594285169E+02 -0.10421031191E+04  0.10864528317E+04  0.25500000920E-02 0.  1.
</event>
<event>
 5   0  0.2534588E-07  0.2889936E+04  0.7818609E-02  0.8275878E-01
        2   -1    0    0  501    0  0.00000000000E+00  0.00000000000E+00  0.11917059578E+04  0.11917059578E+04  0.25500000920E-02 0.  1.
       -2   -1    0    0    0  501  0.00000000000E+00  0.00000000000E+00 -0.17520540012E+04  0.17520540012E+04  0.25500000920E-02 0. -1.
    10030    2    1    2    0    0  0.00000000000E+00  0.00000000000E+00 -0.56034804337E+03  0.29437599590E+04  0.28899364641E+04 0.  0.
        3    1    3    3  502    0 -0.44441149003E+03  0.11524290307E+04 -0.10440329816E+04  0.16172813979E+04  0.10100000352E+00 0. -1.
       -3    1    3    3    0  502  0.44441149003E+03 -0.11524290307E+04  0.48368493826E+03  0.13264785610E+04  0.10100000352E+00 0.  1.
</event>
<event>
 5   0  0.2678723E-07  0.2900593E+04  0.7818609E-02  0.8272701E-01
       -2   -1    0    0    0  501  0.00000000000E+00  0.00000000000E+00  0.12536009915E+04  0.12536009915E+04  0.25500000920E-02 0. -1.
        2   -1    0    0  501    0  0.00000000000E+00  0.00000000000E+00 -0.16778539341E+04  0.16778539341E+04  0.25500000920E-02 0.  1.
    10030    2    1    2    0    0  0.00000000000E+00  0.00000000000E+00 -0.42425294264E+03  0.29314549256E+04  0.29005925984E+04 0.  0.
        5    1    3    3  502    0 -0.16327683965E+03 -0.47401281182E+03 -0.15874845438E+04  0.16647752818E+04  0.46999998093E+01 0.  1.
       -5    1    3    3    0  502  0.16327683965E+03  0.47401281182E+03  0.11632316012E+04  0.12666796438E+04  0.46999998093E+01 0. -1.
</event>
<event>
 5   0  0.9395744E-08  0.2900949E+04  0.7818609E-02  0.8272595E-01
       -1   -1    0    0    0  501  0.00000000000E+00  0.00000000000E+00  0.13618965873E+04  0.13618965873E+04  0.50400001928E-02 0.  1.
        1   -1    0    0  501    0  0.00000000000E+00  0.00000000000E+00 -0.15448137425E+04  0.15448137425E+04  0.50400001928E-02 0. -1.
    10030    2    1    2    0    0  0.00000000000E+00  0.00000000000E+00 -0.18291715520E+03  0.29067103298E+04  0.29009491991E+04 0.  0.
        2    1    3    3  502    0  0.15946585402E+03 -0.34546735522E+03  0.13109994693E+04  0.13650995057E+04  0.25500000920E-02 0.  1.
       -2    1    3    3    0  502 -0.15946585402E+03  0.34546735522E+03 -0.14939166245E+04  0.15416108241E+04  0.25500000920E-02 0. -1.
</event>
<event>
 5   0  0.2608591E-07  0.2900452E+04  0.7818609E-02  0.8272743E-01
        2   -1    0    0  501    0  0.00000000000E+00  0.00000000000E+00  0.95732180479E+03  0.95732180479E+03  0.25500000920E-02 0. -1.
       -2   -1    0    0    0  501  0.00000000000E+00  0.00000000000E+00 -0.21969153902E+04  0.21969153902E+04  0.25500000920E-02 0.  1.
    10030    2    1    2    0    0  0.00000000000E+00  0.00000000000E+00 -0.12395935854E+04  0.31542371950E+04  0.29004516933E+04 0.  0.
        2    1    3    3  502    0 -0.10199310738E+04  0.69988576485E+03 -0.14430379316E+04  0.19006467192E+04  0.25500000920E-02 0.  1.
       -2    1    3    3    0  502  0.10199310738E+04 -0.69988576485E+03  0.20344434619E+03  0.12535904758E+04  0.25500000920E-02 0. -1.
</event>
<event>
 5   0  0.9395744E-08  0.2899689E+04  0.7818609E-02  0.8272970E-01
       -1   -1    0    0    0  501  0.00000000000E+00  0.00000000000E+00  0.13813826180E+04  0.13813826180E+04  0.50400001928E-02 0. -1.
        1   -1    0    0  501    0  0.00000000000E+00  0.00000000000E+00 -0.15216988650E+04  0.15216988650E+04  0.50400001928E-02 0.  1.
    10030    2    1    2    0    0  0.00000000000E+00  0.00000000000E+00 -0.14031624703E+03  0.29030814830E+04  0.28996885087E+04 0.  0.
        2    1    3    3  502    0 -0.10839737685E+04 -0.24206036470E+03 -0.10031584397E+04  0.14966359631E+04  0.25500000920E-02 0. -1.
       -2    1    3    3    0  502  0.10839737685E+04  0.24206036470E+03  0.86284219265E+03  0.14064455199E+04  0.25500000920E-02 0.  1.
</event>
<event>
 5   0  0.2678723E-07  0.2899877E+04  0.7818609E-02  0.8272914E-01
       -2   -1    0    0    0  501  0.00000000000E+00  0.00000000000E+00  0.16868682712E+04  0.16868682712E+04  0.25500000920E-02 0.  1.
        2   -1    0    0  501    0  0.00000000000E+00  0.00000000000E+00 -0.12462866752E+04  0.12462866752E+04  0.25500000920E-02 0. -1.
    10030    2    1    2    0    0  0.00000000000E+00  0.00000000000E+00  0.44058159604E+03  0.29331549464E+04  0.28998768589E+04 0.  0.
        5    1    3    3  502    0  0.12249481785E+04 -0.50354414108E+03 -0.37660380953E+03  0.13769194825E+04  0.46999998093E+01 0. -1.
       -5    1    3    3    0  502 -0.12249481785E+04  0.50354414108E+03  0.81718540557E+03  0.15562354639E+04  0.46999998093E+01 0.  1.
</event>
<event>
 5   0  0.9421924E-08  0.2897448E+04  0.7818609E-02  0.8273637E-01
       -1   -1    0    0    0  501  0.00000000000E+00  0.00000000000E+00  0.10414080965E+04  0.10414080965E+04  0.50400001928E-02 0.  1.
        1   -1    0    0  501    0  0.00000000000E+00  0.00000000000E+00 -0.20153498427E+04  0.20153498427E+04  0.50400001928E-02 0. -1.
    10030    2    1    2    0    0  0.00000000000E+00  0.00000000000E+00 -0.97394174615E+03  0.30567579392E+04  0.28974482867E+04 0.  0.
        1    1    3    3  502    0  0.22613700143E+03 -0.61505762953E+03  0.87610921337E+03  0.10940754932E+04  0.50400001928E-02 0.  1.
       -1    1    3    3    0  502 -0.22613700143E+03  0.61505762953E+03 -0.18500509595E+04  0.19626824460E+04  0.50400001928E-02 0. -1.
</event>
<event>
 5   0  0.9443352E-08  0.2900694E+04  0.7818609E-02  0.8272671E-01
       -1   -1    0    0    0  501  0.00000000000E+00  0.00000000000E+00  0.11953766255E+04  0.11953766256E+04  0.50400001928E-02 0.  1.
        1   -1    0    0  501    0  0.00000000000E+00  0.00000000000E+00 -0.17597017263E+04  0.17597017263E+04  0.50400001928E-02 0. -1.
    10030    2    1    2    0    0  0.00000000000E+00  0.00000000000E+00 -0.56432510074E+03  0.29550783518E+04  0.29006939249E+04 0.  0.
        4    1    3    3  502    0 -0.60672162179E+02  0.56396998205E+03  0.10776901680E+04  0.12178509609E+04  0.12699999809E+01 0.  1.
       -4    1    3    3    0  502  0.60672162179E+02 -0.56396998205E+03 -0.16420152688E+04  0.17372273909E+04  0.12699999809E+01 0. -1.
</event>
<event>
 5   0  0.9421924E-08  0.2902408E+04  0.7818609E-02  0.8272161E-01
        1   -1    0    0  501    0  0.00000000000E+00  0.00000000000E+00  0.18504498313E+04  0.18504498313E+04  0.50400001928E-02 0. -1.
       -1   -1    0    0    0  501  0.00000000000E+00  0.00000000000E+00 -0.11380982338E+04  0.11380982338E+04  0.50400001928E-02 0.  1.
    10030    2    1    2    0    0  0.00000000000E+00  0.00000000000E+00  0.71235159744E+03  0.29885480651E+04  0.29024084377E+04 0.  0.
        1    1    3    3  502    0 -0.12030596615E+04  0.10114692687E+03 -0.47296200099E+03  0.12966403913E+04  0.50400001928E-02 0.  1.
       -1    1    3    3    0  502  0.12030596615E+04 -0.10114692687E+03  0.11853135984E+04  0.16919076738E+04  0.50400001928E-02 0. -1.
</event>
<event>
 5   0  0.2678723E-07  0.2899727E+04  0.7818609E-02  0.8272959E-01
       -2   -1    0    0    0  501  0.00000000000E+00  0.00000000000E+00  0.10873912786E+04  0.10873912786E+04  0.25500000920E-02 0.  1.
        2   -1    0    0  501    0  0.00000000000E+00  0.00000000000E+00 -0.19331628884E+04  0.19331628884E+04  0.25500000920E-02 0. -1.
    10030    2    1    2    0    0  0.00000000000E+00  0.00000000000E+00 -0.84577160976E+03  0.30205541670E+04  0.28997272044E+04 0.  0.
        5    1    3    3  502    0 -0.59224859331E+03  0.12781642797E+04 -0.78013410433E+03  0.16103085521E+04  0.46999998093E+01 0. -1.
       -5    1    3    3    0  502  0.59224859331E+03 -0.12781642797E+04 -0.65637505428E+02  0.14102456149E+04  0.46999998093E+01 0.  1.
</event>
<event>
 5   0  0.9388076E-08  0.2899878E+04  0.7818609E-02  0.8272914E-01
        1   -1    0    0  501    0  0.00000000000E+00  0.00000000000E+00  0.11317623461E+04  0.11317623461E+04  0.50400001928E-02 0.  1.
       -1   -1    0    0    0  501  0.00000000000E+00  0.00000000000E+00 -0.18575660488E+04  0.18575660488E+04  0.50400001928E-02 0. -1.
    10030    2    1    2    0    0  0.00000000000E+00  0.00000000000E+00 -0.72580370266E+03  0.29893283949E+04  0.28998781419E+04 0.  0.
        5    1    3    3  502    0  0.11777847381E+04 -0.78696160573E+03 -0.68199123576E+03  0.15721385416E+04  0.46999998093E+01 0. -1.
       -5    1    3    3    0  502 -0.11777847381E+04  0.78696160573E+03 -0.43812466908E+02  0.14171898534E+04  0.46999998093E+01 0.  1.
</event>
<event>
 5   0  0.9763851E-08  0.2901528E+04  0.7818609E-02  0.8272423E-01
        1   -1    0    0  501    0  0.00000000000E+00  0.00000000000E+00  0.22070101218E+04  0.22070101218E+04  0.50400001928E-02 0.  1.
       -1   -1    0    0    0  501  0.00000000000E+00  0.00000000000E+00 -0.95365058672E+03  0.95365058673E+03  0.50400001928E-02 0. -1.
    10030    2    1    2    0    0  0.00000000000E+00  0.00000000000E+00  0.12533595350E+04  0.31606607085E+04  0.29015282163E+04 0.  0.
        3    1    3    3  502    0  0.66220401421E+03 -0.92857197479E+02  0.20291327537E+04  0.21364728778E+04  0.10100000352E+00 0.  1.
       -3    1    3    3    0  502 -0.66220401421E+03  0.92857197479E+02 -0.77577321861E+03  0.10241878307E+04  0.10100000352E+00 0. -1.
</event>
<event>
 5   0  0.2546841E-07  0.2899122E+04  0.7818609E-02  0.8273139E-01
        2   -1    0    0  501    0  0.00000000000E+00  0.00000000000E+00  0.19701949124E+04  0.19701949124E+04  0.25500000920E-02 0. -1.
       -2   -1    0    0    0  501  0.00000000000E+00  0.00000000000E+00 -0.10665074693E+04  0.10665074693E+04  0.25500000920E-02 0.  1.
    10030    2    1    2    0    0  0.00000000000E+00  0.00000000000E+00  0.90368744311E+03  0.30367023817E+04  0.28991223431E+04 0.  0.
        1    1    3    3  502    0 -0.81221851922E+03  0.58415483721E+03 -0.64688284072E+03  0.11913828967E+04  0.50400001928E-02 0.  1.
       -1    1    3    3    0  502  0.81221851922E+03 -0.58415483721E+03  0.15505702838E+04  0.18453194851E+04  0.50400001928E-02 0. -1.
</event>
<event>
 5   0  0.9763851E-08  0.2900574E+04  0.7818609E-02  0.8272707E-01
        1   -1    0    0  501    0  0.00000000000E+00  0.00000000000E+00  0.15629453278E+04  0.15629453278E+04  0.50400001928E-02 0. -1.
       -1   -1    0    0    0  501  0.00000000000E+00  0.00000000000E+00 -0.13457495166E+04  0.13457495166E+04  0.50400001928E-02 0.  1.
    10030    2    1    2    0    0  0.00000000000E+00  0.00000000000E+00  0.21719581122E+03  0.29086948444E+04  0.29005743703E+04 0.  0.
        3    1    3    3  502    0 -0.10422770367E+04 -0.37873092613E+03  0.10458558433E+04  0.15243336219E+04  0.10100000352E+00 0. -1.
       -3    1    3    3    0  502  0.10422770367E+04  0.37873092613E+03 -0.82866003207E+03  0.13843612226E+04  0.10100000352E+00 0.  1.
</event>
<event>
 5   0  0.2534588E-07  0.2891536E+04  0.7818609E-02  0.8275400E-01
        2   -1    0    0  501    0  0.00000000000E+00  0.00000000000E+00  0.14966289945E+04  0.14966289945E+04  0.25500000920E-02 0.  1.
       -2   -1    0    0    0  501  0.00000000000E+00  0.00000000000E+00 -0.13966352215E+04  0.13966352215E+04  0.25500000920E-02 0. -1.
    10030    2    1    2    0    0  0.00000000000E+00  0.00000000000E+00  0.99993773066E+02  0.28932642160E+04  0.28915357630E+04 0.  0.
        3    1    3    3  502    0 -0.69780682095E+03  0.80462081948E+03 -0.92828675035E+03  0.14128217593E+04  0.10100000352E+00 0. -1.
       -3    1    3    3    0  502  0.69780682095E+03 -0.80462081948E+03  0.10282805234E+04  0.14804424567E+04  0.10100000352E+00 0.  1.
</event>
<event>
 5   0  0.9421924E-08  0.2909078E+04  0.7818609E-02  0.8270182E-01
       -1   -1    0    0    0  501  0.00000000000E+00  0.00000000000E+00  0.18093869229E+04  0.18093869229E+04  0.50400001928E-02 0. -1.
        1   -1    0    0  501    0  0.00000000000E+00  0.00000000000E+00 -0.11692817978E+04  0.11692817978E+04  0.50400001928E-02 0.  1.
    10030    2    1    2    0    0  0.00000000000E+00  0.00000000000E+00  0.64010512510E+03  0.29786687207E+04  0.29090776505E+04 0.  0.
        1    1    3    3  502    0 -0.56994856227E+01  0.15353508959E+03 -0.11609499481E+04  0.11710722821E+04  0.50400001928E-02 0.  1.
       -1    1    3    3    0  502  0.56994856227E+01 -0.15353508959E+03  0.18010550732E+04  0.18075964386E+04  0.50400001928E-02 0. -1.
</event>
<event>
 5   0  0.9421924E-08  0.2899932E+04  0.7818609E-02  0.8272898E-01
       -1   -1    0    0    0  501  0.00000000000E+00  0.00000000000E+00  0.11460330822E+04  0.11460330822E+04  0.50400001928E-02 0. -1.
        1   -1    0    0  501    0  0.00000000000E+00  0.00000000000E+00 -0.18345035184E+04  0.18345035184E+04  0.50400001928E-02 0.  1.
    10030    2    1    2    0    0  0.00000000000E+00  0.00000000000E+00 -0.68847043625E+03  0.29805366007E+04  0.28999322210E+04 0.  0.
        1    1    3    3  502    0 -0.80108751815E+03 -0.93743818989E+03 -0.11282416960E+04  0.16713649799E+04  0.50400001928E-02 0.  1.
       -1    1    3    3    0  502  0.80108751815E+03  0.93743818989E+03  0.43977125971E+03  0.13091716207E+04  0.50400001928E-02 0. -1.
</event>
<event>
 5   0  0.2546841E-07  0.2900957E+04  0.7818609E-02  0.8272593E-01
       -2   -1    0    0    0  501  0.00000000000E+00  0.00000000000E+00  0.12125831055E+04  0.12125831055E+04  0.25500000920E-02 0.  1.
        2   -1    0    0  501    0  0.00000000000E+00  0.00000000000E+00 -0.17350463086E+04  0.17350463086E+04  0.25500000920E-02 0. -1.
    10030    2    1    2    0    0  0.00000000000E+00  0.00000000000E+00 -0.52246320304E+03  0.29476294141E+04  0.29009569739E+04 0.  0.
        1    1    3    3  502    0  0.14329185169E+04  0.20489195541E+02 -0.33544847002E+02  0.14334575473E+04  0.50400001928E-02 0.  1.
       -1    1    3    3    0  502 -0.14329185169E+04 -0.20489195541E+02 -0.48891835604E+03  0.15141718668E+04  0.50400001928E-02 0. -1.
</event>
<event>
 5   0  0.9763851E-08  0.2901279E+04  0.7818609E-02  0.8272497E-01
       -1   -1    0    0    0  501  0.00000000000E+00  0.00000000000E+00  0.11133925435E+04  0.11133925435E+04  0.50400001928E-02 0. -1.
        1   -1    0    0  501    0  0.00000000000E+00  0.00000000000E+00 -0.18900383471E+04  0.18900383471E+04  0.50400001928E-02 0.  1.
    10030    2    1    2    0    0  0.00000000000E+00  0.00000000000E+00 -0.77664580356E+03  0.30034308906E+04  0.29012787543E+04 0.  0.
        3    1    3    3  502    0 -0.18638782665E+03  0.73964392251E+03 -0.16656810690E+04  0.18320226494E+04  0.10100000352E+00 0.  1.
       -3    1    3    3    0  502  0.18638782665E+03 -0.73964392251E+03  0.88903526546E+03  0.11714082412E+04  0.10100000352E+00 0. -1.
</event>
<event>
 5   0  0.9421924E-08  0.2899996E+04  0.7818609E-02  0.8272879E-01
        1   -1    0    0  501    0  0.00000000000E+00  0.00000000000E+00  0.13396510348E+04  0.13396510348E+04  0.50400001928E-02 0.  1.
       -1   -1    0    0    0  501  0.00000000000E+00  0.00000000000E+00 -0.15694343736E+04  0.15694343736E+04  0.50400001928E-02 0. -1.
    10030    2    1    2    0    0  0.00000000000E+00  0.00000000000E+00 -0.22978333878E+03  0.29090854084E+04  0.28999961260E+04 0.  0.
        1    1    3    3  502    0  0.57467693416E+03  0.13061716625E+04  0.14312333398E+03  0.14341625707E+04  0.50400001928E-02 0.  1.
       -1    1    3    3    0  502 -0.57467693416E+03 -0.13061716625E+04 -0.37290667277E+03  0.14749228377E+04  0.50400001928E-02 0. -1.
</event>
<event>
 5   0  0.2534588E-07  0.2896552E+04  0.7818609E-02  0.8273904E-01
        2   -1    0    0  501    0  0.00000000000E+00  0.00000000000E+00  0.16466070525E+04  0.16466070525E+04  0.25500000920E-02 0.  1.
       -2   -1    0    0    0  501  0.00000000000E+00  0.00000000000E+00 -0.12738339181E+04  0.12738339181E+04  0.25500000920E-02 0. -1.
    10030    2    1    2    0    0  0.00000000000E+00  0.00000000000E+00  0.37277313439E+03  0.29204409706E+04  0.28965523736E+04 0.  0.
        3    1    3    3  502    0  0.69245289596E+03 -0.69615208181E+03 -0.88699914378E+03  0.13232105749E+04  0.10100000352E+00 0. -1.
       -3    1    3    3    0  502 -0.69245289596E+03  0.69615208181E+03  0.12597722782E+04  0.15972303958E+04  0.10100000352E+00 0.  1.
</event>
<event>
 5   0  0.2678723E-07  0.2900918E+04  0.7818609E-02  0.8272604E-01
       -2   -1    0    0    0  501  0.00000000000E+00  0.00000000000E+00  0.33545445388E+04  0.33545445388E+04  0.25500000920E-02 0. -1.
        2   -1    0    0  501    0  0.00000000000E+00  0.00000000000E+00 -0.62715849528E+03  0.62715849529E+03  0.25500000920E-02 0.  1.
    10030    2    1    2    0    0  0.00000000000E+00  0.00000000000E+00  0.27273860435E+04  0.39817030341E+04  0.29009178584E+04 0.  0.
        5    1    3    3  502    0  0.36301729805E+03 -0.56918335928E+03 -0.39836274327E+03  0.78387895774E+03  0.46999998093E+01 0.  1.
       -5    1    3    3    0  502 -0.36301729805E+03  0.56918335928E+03  0.31257487868E+04  0.31978240763E+04  0.46999998093E+01 0. -1.
</event>
<event>
 5   0  0.2608591E-07  0.2899848E+04  0.7818609E-02  0.8272923E-01
       -2   -1    0    0    0  501  0.00000000000E+00  0.00000000000E+00  0.90319421529E+03  0.90319421529E+03  0.25500000920E-02 0. -1.
        2   -1    0    0  501    0  0.00000000000E+00  0.00000000000E+00 -0.23276050573E+04  0.23276050573E+04  0.25500000920E-02 0.  1.
    10030    2    1    2    0    0  0.00000000000E+00  0.00000000000E+00 -0.14244108421E+04  0.32307992726E+04  0.28998478741E+04 0.  0.
        2    1    3    3  502    0 -0.65053065595E+03  0.79877140252E+03  0.42456114716E+03  0.11142163414E+04  0.25500000920E-02 0. -1.
       -2    1    3    3    0  502  0.65053065595E+03 -0.79877140252E+03 -0.18489719892E+04  0.21165829312E+04  0.25500000920E-02 0.  1.
</event>
<event>
 5   0  0.2608591E-07  0.2899425E+04  0.7818609E-02  0.8273049E-01
        2   -1    0    0  501    0  0.00000000000E+00  0.00000000000E+00  0.14352917457E+04  0.14352917457E+04  0.25500000920E-02 0. -1.
       -2   -1    0    0    0  501  0.00000000000E+00  0.00000000000E+00 -0.14642776636E+04  0.14642776636E+04  0.25500000920E-02 0.  1.
    10030    2    1    2    0    0  0.00000000000E+00  0.00000000000E+00 -0.28985917990E+02  0.28995694093E+04  0.28994245250E+04 0.  0.
        2    1    3    3  502    0 -0.71004101545E+03 -0.58539688563E+03 -0.11347354758E+04  0.14609833528E+04  0.25500000920E-02 0.  1.
       -2    1    3    3    0  502  0.71004101545E+03  0.58539688563E+03  0.11057495578E+04  0.14385860565E+04  0.25500000920E-02 0. -1.
</event>
<event>
 5   0  0.2534588E-07  0.2900116E+04  0.7818609E-02  0.8272843E-01
        2   -1    0    0  501    0  0.00000000000E+00  0.00000000000E+00  0.23446435568E+04  0.23446435568E+04  0.25500000920E-02 0. -1.
       -2   -1    0    0    0  501  0.00000000000E+00  0.00000000000E+00 -0.89679668811E+03  0.89679668811E+03  0.25500000920E-02 0.  1.
    10030    2    1    2    0    0  0.00000000000E+00  0.00000000000E+00  0.14478468687E+04  0.32414402449E+04  0.29001162573E+04 0.  0.
        3    1    3    3  502    0  0.11403494343E+04  0.70103065985E+03  0.13470589475E+04  0.18990546692E+04  0.10100000352E+00 0. -1.
       -3    1    3    3    0  502 -0.11403494343E+04 -0.70103065985E+03  0.10078792113E+03  0.13423855756E+04  0.10100000352E+00 0.  1.
</event>
<event>
 5   0  0.9395744E-08  0.2901200E+04  0.7818609E-02  0.8272520E-01
        1   -1    0    0  501    0  0.00000000000E+00  0.00000000000E+00  0.16631807859E+04  0.16631807859E+04  0.50400001928E-02 0. -1.
       -1   -1    0    0    0  501  0.00000000000E+00  0.00000000000E+00 -0.12651907533E+04  0.12651907533E+04  0.50400001928E-02 0.  1.
    10030    2    1    2    0    0  0.00000000000E+00  0.00000000000E+00  0.39799003262E+03  0.29283715392E+04  0.29012004076E+04 0.  0.
        2    1    3    3  502    0  0.12548319189E+04 -0.42854925631E+03 -0.39471727757E+03  0.13834953339E+04  0.25500000920E-02 0. -1.
       -2    1    3    3    0  502 -0.12548319189E+04  0.42854925631E+03  0.79270731019E+03  0.15448762052E+04  0.25500000920E-02 0.  1.
</event>
<event>
 5   0  0.2546841E-07  0.2899218E+04  0.7818609E-02  0.8273110E-01
        2   -1    0    0  501    0  0.00000000000E+00  0.00000000000E+00  0.18307516898E+04  0.18307516898E+04  0.25500000920E-02 0. -1.
       -2   -1    0    0    0  501  0.00000000000E+00  0.00000000000E+00 -0.11478164346E+04  0.11478164346E+04  0.25500000920E-02 0.  1.
    10030    2    1    2    0    0  0.00000000000E+00  0.00000000000E+00  0.68293525525E+03  0.29785681244E+04  0.28992184307E+04 0.  0.
        1    1    3    3  502    0  0.52521723531E+02 -0.38210385085E+03 -0.10941335252E+04  0.11601250171E+04  0.50400001928E-02 0.  1.
       -1    1    3    3    0  502 -0.52521723531E+02  0.38210385085E+03  0.17770687804E+04  0.18184431073E+04  0.50400001928E-02 0. -1.
</event>
<event>
 5   0  0.9763851E-08  0.2901017E+04  0.7818609E-02  0.8272575E-01
       -1   -1    0    0    0  501  0.00000000000E+00  0.00000000000E+00  0.13766840780E+04  0.13766840780E+04  0.50400001928E-02 0.  1.
        1   -1    0    0  501    0  0.00000000000E+00  0.00000000000E+00 -0.15282913167E+04  0.15282913167E+04  0.50400001928E-02 0. -1.
    10030    2    1    2    0    0  0.00000000000E+00  0.00000000000E+00 -0.15160723869E+03  0.29049753947E+04  0.29010165958E+04 0.  0.
        3    1    3    3  502    0  0.13277005029E+04 -0.20244835084E+03  0.47284948838E+03  0.14238541390E+04  0.10100000352E+00 0.  1.
       -3    1    3    3    0  502 -0.13277005029E+04  0.20244835084E+03 -0.62445672707E+03  0.14811212558E+04  0.10100000352E+00 0. -1.
</event>
<event>
 5   0  0.9763851E-08  0.2899945E+04  0.7818609E-02  0.8272894E-01
       -1   -1    0    0    0  501  0.00000000000E+00  0.00000000000E+00  0.13189027472E+04  0.13189027472E+04  0.50400001928E-02 0.  1.
        1   -1    0    0  501    0  0.00000000000E+00  0.00000000000E+00 -0.15940682289E+04  0.15940682289E+04  0.50400001928E-02 0. -1.
    10030    2    1    2    0    0  0.00000000000E+00  0.00000000000E+00 -0.27516548173E+03  0.29129709761E+04  0.28999454935E+04 0.  0.
        3    1    3    3  502    0  0.12043020386E+04  0.38794160731E+03  0.57382065944E+03  0.13892847981E+04  0.10100000352E+00 0.  1.
       -3    1    3    3    0  502 -0.12043020386E+04 -0.38794160731E+03 -0.84898614117E+03  0.15236861780E+04  0.10100000352E+00 0. -1.
</event>
<event>
 5   0  0.9443352E-08  0.2900112E+04  0.7818609E-02  0.8272844E-01
        1   -1    0    0  501    0  0.00000000000E+00  0.00000000000E+00  0.12166228049E+04  0.12166228049E+04  0.50400001928E-02 0. -1.
       -1   -1    0    0    0  501  0.00000000000E+00  0.00000000000E+00 -0.17282781006E+04  0.17282781006E+04  0.50400001928E-02 0.  1.
    10030    2    1    2    0    0  0.00000000000E+00  0.00000000000E+00 -0.51165529571E+03  0.29449009055E+04  0.29001121016E+04 0.  0.
        4    1    3    3  502    0 -0.20237711660E+03 -0.14249309798E+03 -0.17066691555E+04  0.17245237022E+04  0.12699999809E+01 0.  1.
       -4    1    3    3    0  502  0.20237711660E+03  0.14249309798E+03  0.11950138598E+04  0.12203772033E+04  0.12699999809E+01 0. -1.
</event>
<event>
 5   0  0.2492232E-07  0.2902083E+04  0.7818609E-02  0.8272258E-01
       -2   -1    0    0    0  501  0.00000000000E+00  0.00000000000E+00  0.88660345799E+03  0.88660345800E+03  0.25500000920E-02 0.  1.
        2   -1    0    0  501    0  0.00000000000E+00  0.00000000000E+00 -0.23748167785E+04  0.23748167785E+04  0.25500000920E-02 0. -1.
    10030    2    1    2    0    0  0.00000000000E+00  0.00000000000E+00 -0.14882133205E+04  0.32614202365E+04  0.29020825405E+04 0.  0.
        4    1    3    3  502    0  0.30146992058E+03  0.23020847589E+03  0.82989996433E+03  0.91247773621E+03  0.12699999809E+01 0.  1.
       -4    1    3    3    0  502 -0.30146992058E+03 -0.23020847589E+03 -0.23181132849E+04  0.23489425003E+04  0.12699999809E+01 0. -1.
</event>
<event>
 5   0  0.9763851E-08  0.2899962E+04  0.7818609E-02  0.8272889E-01
        1   -1    0    0  501    0  0.00000000000E+00  0.00000000000E+00  0.18919349022E+04  0.18919349022E+04  0.50400001928E-02 0.  1.
       -1   -1    0    0    0  501  0.00000000000E+00  0.00000000000E+00 -0.11112671538E+04  0.11112671538E+04  0.50400001928E-02 0. -1.
    10030    2    1    2    0    0  0.00000000000E+00  0.00000000000E+00  0.78066774838E+03  0.30032020560E+04  0.28999621473E+04 0.  0.
        3    1    3    3  502    0  0.26296498595E+03  0.11459466967E+04 -0.48846367368E+03  0.12731618853E+04  0.10100000352E+00 0. -1.
       -3    1    3    3    0  502 -0.26296498595E+03 -0.11459466967E+04  0.12691314221E+04  0.17300401707E+04  0.10100000352E+00 0.  1.
</event>
<event>
 5   0  0.2678723E-07  0.2899091E+04  0.7818609E-02  0.8273148E-01
       -2   -1    0    0    0  501  0.00000000000E+00  0.00000000000E+00  0.65482927692E+03  0.65482927693E+03  0.25500000920E-02 0.  1.
        2   -1    0    0  501    0  0.00000000000E+00  0.00000000000E+00 -0.32087473630E+04  0.32087473630E+04  0.25500000920E-02 0. -1.
    10030    2    1    2    0    0  0.00000000000E+00  0.00000000000E+00 -0.25539180861E+04  0.38635766400E+04  0.28990906958E+04 0.  0.
        5    1    3    3  502    0 -0.69419257881E+03  0.13065762191E+03  0.40992039001E+03  0.81672000513E+03  0.46999998093E+01 0.  1.
       -5    1    3    3    0  502  0.69419257881E+03 -0.13065762191E+03 -0.29638384761E+04  0.30468566348E+04  0.46999998093E+01 0. -1.
</event>
<event>
 5   0  0.9763851E-08  0.2902307E+04  0.7818609E-02  0.8272191E-01
        1   -1    0    0  501    0  0.00000000000E+00  0.00000000000E+00  0.12527668853E+04  0.12527668853E+04  0.50400001928E-02 0. -1.
       -1   -1    0    0    0  501  0.00000000000E+00  0.00000000000E+00 -0.16809567153E+04  0.16809567153E+04  0.50400001928E-02 0.  1.
    10030    2    1    2    0    0  0.00000000000E+00  0.00000000000E+00 -0.42818983000E+03  0.29337236006E+04  0.29023072950E+04 0.  0.
        3    1    3    3  502    0 -0.15223499188E+03  0.14427476074E+04 -0.24838477384E+03  0.14718665556E+04  0.10100000352E+00 0.  1.
       -3    1    3    3    0  502  0.15223499188E+03 -0.14427476074E+04 -0.17980505616E+03  0.14618570450E+04  0.10100000352E+00 0. -1.
</event>
<event>
 5   0  0.2546841E-07  0.2893857E+04  0.7818609E-02  0.8274707E-01
        2   -1    0    0  501    0  0.00000000000E+00  0.00000000000E+00  0.15983355288E+04  0.15983355288E+04  0.25500000920E-02 0.  1.
       -2   -1    0    0    0  501  0.00000000000E+00  0.00000000000E+00 -0.13098643116E+04  0.13098643116E+04  0.25500000920E-02 0. -1.
    10030    2    1    2    0    0  0.00000000000E+00  0.00000000000E+00  0.28847121714E+03  0.29081998404E+04  0.28938574030E+04 0.  0.
        1    1    3    3  502    0 -0.45422336811E+03 -0.12197371061E+04 -0.49097713624E+03  0.13910916664E+04  0.50400001928E-02 0.  1.
       -1    1    3    3    0  502  0.45422336811E+03  0.12197371061E+04  0.77944835338E+03  0.15171081740E+04  0.50400001928E-02 0. -1.
</event>
<event>
 5   0  0.9763851E-08  0.2898613E+04  0.7818609E-02  0.8273290E-01
        1   -1    0    0  501    0  0.00000000000E+00  0.00000000000E+00  0.17648583960E+04  0.17648583960E+04  0.50400001928E-02 0. -1.
       -1   -1    0    0    0  501  0.00000000000E+00  0.00000000000E+00 -0.11901747661E+04  0.11901747661E+04  0.50400001928E-02 0.  1.
    10030    2    1    2    0    0  0.00000000000E+00  0.00000000000E+00  0.57468362989E+03  0.29550331621E+04  0.28986134124E+04 0.  0.
        3    1    3    3  502    0 -0.91185775176E+03 -0.60819588852E+03 -0.67932500931E+03  0.12895228872E+04  0.10100000352E+00 0.  1.
       -3    1    3    3    0  502  0.91185775176E+03  0.60819588852E+03  0.12540086392E+04  0.16655102748E+04  0.10100000352E+00 0. -1.
</event>
<event>
 5   0  0.2678723E-07  0.2896996E+04  0.7818609E-02  0.8273772E-01
        2   -1    0    0  501    0  0.00000000000E+00  0.00000000000E+00  0.11245951734E+04  0.11245951734E+04  0.25500000920E-02 0. -1.
       -2   -1    0    0    0  501  0.00000000000E+00  0.00000000000E+00 -0.18656907308E+04  0.18656907308E+04  0.25500000920E-02 0.  1.
    10030    2    1    2    0    0  0.00000000000E+00  0.00000000000E+00 -0.74109555741E+03  0.29902859042E+04  0.28969962312E+04 0.  0.
        5    1    3    3  502    0 -0.80912543168E+03 -0.13182718240E+03 -0.16031814799E+04  0.18006319217E+04  0.46999998093E+01 0.  1.
       -5    1    3    3    0  502  0.80912543168E+03  0.13182718240E+03  0.86208592245E+03  0.11896539824E+04  0.46999998093E+01 0. -1.
</event>
<event>
 5   0  0.2534588E-07  0.2899818E+04  0.7818609E-02  0.8272932E-01
        2   -1    0    0  501    0  0.00000000000E+00  0.00000000000E+00  0.21110999402E+04  0.21110999402E+04  0.25500000920E-02 0. -1.
       -2   -1    0    0    0  501  0.00000000000E+00  0.00000000000E+00 -0.99580115111E+03  0.99580115112E+03  0.25500000920E-02 0.  1.
    10030    2    1    2    0    0  0.00000000000E+00  0.00000000000E+00  0.11152987891E+04  0.31069010913E+04  0.28998177533E+04 0.  0.
        3    1    3    3  502    0 -0.35935152802E+03 -0.55291568911E+03 -0.82583689170E+03  0.10568140148E+04  0.10100000352E+00 0.  1.
       -3    1    3    3    0  502  0.35935152802E+03  0.55291568911E+03  0.19411356807E+04  0.20500870765E+04  0.10100000352E+00 0. -1.
</event>
<event>
 5   0  0.2534588E-07  0.2899895E+04  0.7818609E-02  0.8272909E-01
       -2   -1    0    0    0  501  0.00000000000E+00  0.00000000000E+00  0.11674407824E+04  0.11674407824E+04  0.25500000920E-02 0. -1.
        2   -1    0    0  501    0  0.00000000000E+00  0.00000000000E+00 -0.18008170844E+04  0.18008170844E+04  0.25500000920E-02 0.  1.
    10030    2    1    2    0    0  0.00000000000E+00  0.00000000000E+00 -0.63337630209E+03  0.29682578668E+04  0.28998946918E+04 0.  0.
        3    1    3    3  502    0  0.11699686808E+04 -0.57383765589E+03 -0.96746810816E+03  0.16229944300E+04  0.10100000352E+00 0.  1.
       -3    1    3    3    0  502 -0.11699686808E+04  0.57383765589E+03  0.33409180607E+03  0.13452634368E+04  0.10100000352E+00 0. -1.
</event>
<event>
 5   0  0.9421924E-08  0.2900146E+04  0.7818609E-02  0.8272834E-01
        1   -1    0    0  501    0  0.00000000000E+00  0.00000000000E+00  0.77187685538E+03  0.77187685539E+03  0.50400001928E-02 0. -1.
       -1   -1    0    0    0  501  0.00000000000E+00  0.00000000000E+00 -0.27241552846E+04  0.27241552846E+04  0.50400001928E-02 0.  1.
    10030    2    1    2    0    0  0.00000000000E+00  0.00000000000E+00 -0.19522784292E+04  0.34960321400E+04  0.29001464892E+04 0.  0.
        1    1    3    3  502    0 -0.76456882518E+03  0.90344033091E+03  0.33825611417E+02  0.11840245318E+04  0.50400001928E-02 0. -1.
       -1    1    3    3    0  502  0.76456882518E+03 -0.90344033091E+03 -0.19861040406E+04  0.23120076081E+04  0.50400001928E-02 0.  1.
</event>
<event>
 5   0  0.9443352E-08  0.2898613E+04  0.7818609E-02  0.8273290E-01
       -1   -1    0    0    0  501  0.00000000000E+00  0.00000000000E+00  0.10041609435E+04  0.10041609435E+04  0.50400001928E-02 0.  1.
        1   -1    0    0  501    0  0.00000000000E+00  0.00000000000E+00 -0.20917860915E+04  0.20917860915E+04  0.50400001928E-02 0. -1.
    10030    2    1    2    0    0  0.00000000000E+00  0.00000000000E+00 -0.10876251480E+04  0.30959470350E+04  0.28986133894E+04 0.  0.
        4    1    3    3  502    0 -0.13208106467E+04  0.33963732636E+03 -0.10677092325E+04  0.17320216211E+04  0.12699999809E+01 0. -1.
       -4    1    3    3    0  502  0.13208106467E+04 -0.33963732636E+03 -0.19915915433E+02  0.13639254139E+04  0.12699999809E+01 0.  1.
</event>
<event>
 5   0  0.9421924E-08  0.2901557E+04  0.7818609E-02  0.8272414E-01
        1   -1    0    0  501    0  0.00000000000E+00  0.00000000000E+00  0.11874138857E+04  0.11874138857E+04  0.50400001928E-02 0.  1.
       -1   -1    0    0    0  501  0.00000000000E+00  0.00000000000E+00 -0.17725560832E+04  0.17725560832E+04  0.50400001928E-02 0. -1.
    10030    2    1    2    0    0  0.00000000000E+00  0.00000000000E+00 -0.58514219749E+03  0.29599699689E+04  0.29015566211E+04 0.  0.
        1    1    3    3  502    0 -0.99914188487E+03  0.72094121284E+03  0.48882381344E+03  0.13255147902E+04  0.50400001928E-02 0.  1.
       -1    1    3    3    0  502  0.99914188487E+03 -0.72094121284E+03 -0.10739660109E+04  0.16344551787E+04  0.50400001928E-02 0. -1.
</event>
<event>
 5   0  0.8407500E-08  0.2900310E+04  0.7818609E-02  0.8272785E-01
        3   -1    0    0  501    0  0.00000000000E+00  0.00000000000E+00  0.21828715773E+04  0.21828715796E+04  0.10100000352E+00 0. -1.
       -3   -1    0    0    0  501  0.00000000000E+00  0.00000000000E+00 -0.96338678625E+03  0.96338679154E+03  0.10100000352E+00 0.  1.
    10030    2    1    2    0    0  0.00000000000E+00  0.00000000000E+00  0.12194847910E+04  0.31462583711E+04  0.29003100838E+04 0.  0.
        3    1    3    3  502    0  0.48507200624E+03 -0.13225874909E+04  0.98304170460E+03  0.17178194100E+04  0.10100000352E+00 0. -1.
       -3    1    3    3    0  502 -0.48507200624E+03  0.13225874909E+04  0.23644308641E+03  0.14284389611E+04  0.10100000352E+00 0.  1.
</event>
<event>
 5   0  0.9388076E-08  0.2904440E+04  0.7818609E-02  0.8271558E-01
        1   -1    0    0  501    0  0.00000000000E+00  0.00000000000E+00  0.14460269657E+04  0.14460269657E+04  0.50400001928E-02 0. -1.
       -1   -1    0    0    0  501  0.00000000000E+00  0.00000000000E+00 -0.14584393010E+04  0.14584393011E+04  0.50400001928E-02 0.  1.
    10030    2    1    2    0    0  0.00000000000E+00  0.00000000000E+00 -0.12412335314E+02  0.29044662668E+04  0.29044397444E+04 0.  0.
        5    1    3    3  502    0 -0.12002987508E+03 -0.87909310609E+03  0.11434601953E+04  0.14473199951E+04  0.46999998093E+01 0. -1.
       -5    1    3    3    0  502  0.12002987508E+03  0.87909310609E+03 -0.11558725306E+04  0.14571462717E+04  0.46999998093E+01 0.  1.
</event>
<event>
 5   0  0.9443352E-08  0.2900051E+04  0.7818609E-02  0.8272862E-01
        1   -1    0    0  501    0  0.00000000000E+00  0.00000000000E+00  0.16113120562E+04  0.16113120562E+04  0.50400001928E-02 0. -1.
       -1   -1    0    0    0  501  0.00000000000E+00  0.00000000000E+00 -0.13048829368E+04  0.13048829368E+04  0.50400001928E-02 0.  1.
    10030    2    1    2    0    0  0.00000000000E+00  0.00000000000E+00  0.30642911935E+03  0.29161949930E+04  0.29000507637E+04 0.  0.
        4    1    3    3  502    0  0.22223749020E+03  0.10945513480E+04  0.10831001758E+04  0.15558083941E+04  0.12699999809E+01 0. -1.
       -4    1    3    3    0  502 -0.22223749020E+03 -0.10945513480E+04 -0.77667105646E+03  0.13603865988E+04  0.12699999809E+01 0.  1.
</event>
<event>
 5   0  0.9395744E-08  0.2900334E+04  0.7818609E-02  0.8272778E-01
       -1   -1    0    0    0  501  0.00000000000E+00  0.00000000000E+00  0.16979136626E+04  0.16979136626E+04  0.50400001928E-02 0. -1.
        1   -1    0    0  501    0  0.00000000000E+00  0.00000000000E+00 -0.12385695692E+04  0.12385695692E+04  0.50400001928E-02 0.  1.
    10030    2    1    2    0    0  0.00000000000E+00  0.00000000000E+00  0.45934409341E+03  0.29364832318E+04  0.29003339074E+04 0.  0.
        2    1    3    3  502    0 -0.50172082274E+03  0.41032790064E+03  0.15431039888E+04  0.16736973114E+04  0.25500000920E-02 0. -1.
       -2    1    3    3    0  502  0.50172082274E+03 -0.41032790064E+03 -0.10837598954E+04  0.12627859204E+04  0.25500000920E-02 0.  1.
</event>
<event>
 5   0  0.2608591E-07  0.2900143E+04  0.7818609E-02  0.8272835E-01
       -2   -1    0    0    0  501  0.00000000000E+00  0.00000000000E+00  0.10240695720E+04  0.10240695720E+04  0.25500000920E-02 0. -1.
        2   -1    0    0  501    0  0.00000000000E+00  0.00000000000E+00 -0.20532857588E+04  0.20532857588E+04  0.25500000920E-02 0.  1.
    10030    2    1    2    0    0  0.00000000000E+00  0.00000000000E+00 -0.10292161868E+04  0.30773553309E+04  0.29001430781E+04 0.  0.
        2    1    3    3  502    0 -0.14076239626E+04  0.71536345528E+02 -0.15292111141E+03  0.14177120777E+04  0.25500000920E-02 0. -1.
       -2    1    3    3    0  502  0.14076239626E+04 -0.71536345528E+02 -0.87629507536E+03  0.16596432532E+04  0.25500000920E-02 0.  1.
</event>
<event>
 5   0  0.9388076E-08  0.2900641E+04  0.7818609E-02  0.8272687E-01
       -1   -1    0    0    0  501  0.00000000000E+00  0.00000000000E+00  0.19595084677E+04  0.19595084677E+04  0.50400001928E-02 0. -1.
        1   -1    0    0  501    0  0.00000000000E+00  0.00000000000E+00 -0.10734476400E+04  0.10734476400E+04  0.50400001928E-02 0.  1.
    10030    2    1    2    0    0  0.00000000000E+00  0.00000000000E+00  0.88606082764E+03  0.30329561077E+04  0.29006411293E+04 0.  0.
        5    1    3    3  502    0 -0.12242146768E+04 -0.20023154021E+03  0.12287140670E+04  0.17460110518E+04  0.46999998093E+01 0. -1.
       -5    1    3    3    0  502  0.12242146768E+04  0.20023154021E+03 -0.34265323938E+03  0.12869450559E+04  0.46999998093E+01 0.  1.
</event>
<event>
 5   0  0.9763851E-08  0.2898361E+04  0.7818609E-02  0.8273365E-01
        1   -1    0    0  501    0  0.00000000000E+00  0.00000000000E+00  0.24720107219E+04  0.24720107219E+04  0.50400001928E-02 0.  1.
       -1   -1    0    0    0  501  0.00000000000E+00  0.00000000000E+00 -0.84956091261E+03  0.84956091262E+03  0.50400001928E-02 0. -1.
    10030    2    1    2    0    0  0.00000000000E+00  0.00000000000E+00  0.16224498093E+04  0.33215716345E+04  0.28983606987E+04 0.  0.
        3    1    3    3  502    0 -0.77390944024E+03  0.23535715024E+03  0.21892100310E+04  0.23338743282E+04  0.10100000352E+00 0.  1.
       -3    1    3    3    0  502  0.77390944024E+03 -0.23535715024E+03 -0.56676022168E+03  0.98769730634E+03  0.10100000352E+00 0. -1.
</event>
<event>
 5   0  0.2608591E-07  0.2899903E+04  0.7818609E-02  0.8272906E-01
       -2   -1    0    0    0  501  0.00000000000E+00  0.00000000000E+00  0.75571590302E+03  0.75571590302E+03  0.25500000920E-02 0.  1.
        2   -1    0    0  501    0  0.00000000000E+00  0.00000000000E+00 -0.27819447981E+04  0.27819447981E+04  0.25500000920E-02 0. -1.
    10030    2    1    2    0    0  0.00000000000E+00  0.00000000000E+00 -0.20262288951E+04  0.35376607011E+04  0.28999033951E+04 0.  0.
        2    1    3    3  502    0 -0.81190701699E+03  0.94704967594E+03 -0.19147559008E+04  0.22852540893E+04  0.25500000920E-02 0.  1.
       -2    1    3    3    0  502  0.81190701699E+03 -0.94704967594E+03 -0.11147299431E+03  0.12524066119E+04  0.25500000920E-02 0. -1.
</event>
<event>
 5   0  0.9395744E-08  0.2894637E+04  0.7818609E-02  0.8274475E-01
        1   -1    0    0  501    0  0.00000000000E+00  0.00000000000E+00  0.15808958638E+04  0.15808958638E+04  0.50400001928E-02 0.  1.
       -1   -1    0    0    0  501  0.00000000000E+00  0.00000000000E+00 -0.13250278523E+04  0.13250278523E+04  0.50400001928E-02 0. -1.
    10030    2    1    2    0    0  0.00000000000E+00  0.00000000000E+00  0.25586801155E+03  0.29059237161E+04  0.28946371455E+04 0.  0.
        2    1    3    3  502    0  0.10710852642E+04  0.47277924967E+03 -0.72625803244E+03  0.13777498292E+04  0.25500000920E-02 0. -1.
       -2    1    3    3    0  502 -0.10710852642E+04 -0.47277924967E+03  0.98212604399E+03  0.15281738869E+04  0.25500000920E-02 0.  1.
</event>
<event>
 5   0  0.9388076E-08  0.2898897E+04  0.7818609E-02  0.8273206E-01
       -1   -1    0    0    0  501  0.00000000000E+00  0.00000000000E+00  0.15646940585E+04  0.15646940585E+04  0.50400001928E-02 0.  1.
        1   -1    0    0  501    0  0.00000000000E+00  0.00000000000E+00 -0.13426909872E+04  0.13426909872E+04  0.50400001928E-02 0. -1.
    10030    2    1    2    0    0  0.00000000000E+00  0.00000000000E+00  0.22200307129E+03  0.29073850457E+04  0.28988967626E+04 0.  0.
        5    1    3    3  502    0 -0.74350190366E+03  0.19301179156E+03 -0.11217557753E+04  0.13595612314E+04  0.46999998093E+01 0. -1.
       -5    1    3    3    0  502  0.74350190366E+03 -0.19301179156E+03  0.13437588466E+04  0.15478238143E+04  0.46999998093E+01 0.  1.
</event>
<event>
 5   0  0.2546841E-07  0.2899875E+04  0.7818609E-02  0.8272915E-01
       -2   -1    0    0    0  501  0.00000000000E+00  0.00000000000E+00  0.11105726960E+04  0.11105726960E+04  0.25500000920E-02 0.  1.
        2   -1    0    0  501    0  0.00000000000E+00  0.00000000000E+00 -0.18930048036E+04  0.18930048036E+04  0.25500000920E-02 0. -1.
    10030    2    1    2    0    0  0.00000000000E+00  0.00000000000E+00 -0.78243210759E+03  0.30035774995E+04  0.28998754788E+04 0.  0.
        1    1    3    3  502    0  0.13224239120E+04 -0.18033141780E+03  0.19560899464E+03  0.13489207916E+04  0.50400001928E-02 0.  1.
       -1    1    3    3    0  502 -0.13224239120E+04  0.18033141780E+03 -0.97804110223E+03  0.16546567079E+04  0.50400001928E-02 0. -1.
</event>
<event>
 5   0  0.2608591E-07  0.2899799E+04  0.7818609E-02  0.8272937E-01
        2   -1    0    0  501    0  0.00000000000E+00  0.00000000000E+00  0.64905272226E+03  0.64905272226E+03  0.25500000920E-02 0. -1.
       -2   -1    0    0    0  501  0.00000000000E+00  0.00000000000E+00 -0.32388881307E+04  0.32388881307E+04  0.25500000920E-02 0.  1.
    10030    2    1    2    0    0  0.00000000000E+00  0.00000000000E+00 -0.25898354085E+04  0.38879408530E+04  0.28997994126E+04 0.  0.
        2    1    3    3  502    0  0.23116898178E+03 -0.12302416662E+04 -0.22758530326E+04  0.25973911299E+04  0.25500000920E-02 0.  1.
       -2    1    3    3    0  502 -0.23116898178E+03  0.12302416662E+04 -0.31398237582E+03  0.12905497231E+04  0.25500000920E-02 0. -1.
</event>
<event>
 5   0  0.2492232E-07  0.2900135E+04  0.7818609E-02  0.8272837E-01
       -2   -1    0    0    0  501  0.00000000000E+00  0.00000000000E+00  0.11547210917E+04  0.11547210917E+04  0.25500000920E-02 0. -1.
        2   -1    0    0  501    0  0.00000000000E+00  0.00000000000E+00 -0.18209558507E+04  0.18209558507E+04  0.25500000920E-02 0.  1.
    10030    2    1    2    0    0  0.00000000000E+00  0.00000000000E+00 -0.66623475899E+03  0.29756769425E+04  0.29001352575E+04 0.  0.
        4    1    3    3  502    0  0.98887650414E+03 -0.93988487942E+03  0.17104090798E+03  0.13749607020E+04  0.12699999809E+01 0. -1.
       -4    1    3    3    0  502 -0.98887650414E+03  0.93988487942E+03 -0.83727566697E+03  0.16007162404E+04  0.12699999809E+01 0.  1.
</event>
<event>
 5   0  0.2678723E-07  0.2900421E+04  0.7818609E-02  0.8272752E-01
        2   -1    0    0  501    0  0.00000000000E+00  0.00000000000E+00  0.14231151558E+04  0.14231151558E+04  0.25500000920E-02 0. -1.
       -2   -1    0    0    0  501  0.00000000000E+00  0.00000000000E+00 -0.14778212286E+04  0.14778212286E+04  0.25500000920E-02 0.  1.
    10030    2    1    2    0    0  0.00000000000E+00  0.00000000000E+00 -0.54706072843E+02  0.29009363844E+04  0.29004205129E+04 0.  0.
        5    1    3    3  502    0  0.27050038976E+03  0.55438643409E+03  0.12853486548E+04  0.14257131666E+04  0.46999998093E+01 0. -1.
       -5    1    3    3    0  502 -0.27050038976E+03 -0.55438643409E+03 -0.13400547276E+04  0.14752232177E+04  0.46999998093E+01 0.  1.
</event>
<event>
 5   0  0.2492232E-07  0.2901380E+04  0.7818609E-02  0.8272467E-01
       -2   -1    0    0    0  501  0.00000000000E+00  0.00000000000E+00  0.17203202485E+04  0.17203202485E+04  0.25500000920E-02 0.  1.
        2   -1    0    0  501    0  0.00000000000E+00  0.00000000000E+00 -0.12233197935E+04  0.12233197935E+04  0.25500000920E-02 0. -1.
    10030    2    1    2    0    0  0.00000000000E+00  0.00000000000E+00  0.49700045503E+03  0.29436400420E+04  0.29013802310E+04 0.  0.
        4    1    3    3  502    0  0.98247599177E+03 -0.32766518144E+03 -0.78210881229E+03  0.12978132965E+04  0.12699999809E+01 0. -1.
       -4    1    3    3    0  502 -0.98247599177E+03  0.32766518144E+03  0.12791092673E+04  0.16458267455E+04  0.12699999809E+01 0.  1.
</event>
<event>
 5   0  0.2546841E-07  0.2899374E+04  0.7818609E-02  0.8273064E-01
       -2   -1    0    0    0  501  0.00000000000E+00  0.00000000000E+00  0.11503906045E+04  0.11503906045E+04  0.25500000920E-02 0. -1.
        2   -1    0    0  501    0  0.00000000000E+00  0.00000000000E+00 -0.18268512843E+04  0.18268512843E+04  0.25500000920E-02 0.  1.
    10030    2    1    2    0    0  0.00000000000E+00  0.00000000000E+00 -0.67646067987E+03  0.29772418888E+04  0.28993741071E+04 0.  0.
        1    1    3    3  502    0 -0.11530224853E+04 -0.45910077896E+03  0.43113017009E+03  0.13138141423E+04  0.50400001928E-02 0. -1.
       -1    1    3    3    0  502  0.11530224853E+04  0.45910077896E+03 -0.11075908500E+04  0.16634277465E+04  0.50400001928E-02 0.  1.
</event>
<event>
 5   0  0.9443352E-08  0.2900658E+04  0.7818609E-02  0.8272682E-01
       -1   -1    0    0    0  501  0.00000000000E+00  0.00000000000E+00  0.14634542136E+04  0.14634542136E+04  0.50400001928E-02 0. -1.
        1   -1    0    0  501    0  0.00000000000E+00  0.00000000000E+00 -0.14373217665E+04  0.14373217665E+04  0.50400001928E-02 0.  1.
    10030    2    1    2    0    0  0.00000000000E+00  0.00000000000E+00  0.26132447087E+02  0.29007759801E+04  0.29006582670E+04 0.  0.
        4    1    3    3  502    0 -0.10280314168E+04  0.10018718166E+04 -0.19396210819E+03  0.14485229177E+04  0.12699999809E+01 0.  1.
       -4    1    3    3    0  502  0.10280314168E+04 -0.10018718166E+04  0.22009455528E+03  0.14522530623E+04  0.12699999809E+01 0. -1.
</event>
<event>
 5   0  0.2608591E-07  0.2899642E+04  0.7818609E-02  0.8272984E-01
       -2   -1    0    0    0  501  0.00000000000E+00  0.00000000000E+00  0.91870969196E+03  0.91870969196E+03  0.25500000920E-02 0. -1.
        2   -1    0    0  501    0  0.00000000000E+00  0.00000000000E+00 -0.22879705226E+04  0.22879705226E+04  0.25500000920E-02 0.  1.
    10030    2    1    2    0    0  0.00000000000E+00  0.00000000000E+00 -0.13692608306E+04  0.32066802146E+04  0.28996418358E+04 0.  0.
        2    1    3    3  502    0  0.52356863131E+03  0.21081903009E+03 -0.21614829322E+04  0.22339599910E+04  0.25500000920E-02 0.  1.
       -2    1    3    3    0  502 -0.52356863131E+03 -0.21081903009E+03  0.79222210156E+03  0.97272022357E+03  0.25500000920E-02 0. -1.
</event>
<event>
 5   0  0.2534588E-07  0.2898962E+04  0.7818609E-02  0.8273186E-01
        2   -1    0    0  501    0  0.00000000000E+00  0.00000000000E+00  0.19907791940E+04  0.19907791940E+04  0.25500000920E-02 0.  1.
       -2   -1    0    0    0  501  0.00000000000E+00  0.00000000000E+00 -0.10553633249E+04  0.10553633249E+04  0.25500000920E-02 0. -1.
    10030    2    1    2    0    0  0.00000000000E+00  0.00000000000E+00  0.93541586906E+03  0.30461425189E+04  0.28989621241E+04 0.  0.
        3    1    3    3  502    0 -0.69193445831E+03 -0.41999019042E+03  0.17311820123E+04  0.19110615439E+04  0.10100000352E+00 0.  1.
       -3    1    3    3    0  502  0.69193445831E+03  0.41999019042E+03 -0.79576614328E+03  0.11350809749E+04  0.10100000352E+00 0. -1.
</event>
<event>
 5   0  0.8407500E-08  0.2900686E+04  0.7818609E-02  0.8272673E-01
        4   -1    0    0  501    0  0.00000000000E+00  0.00000000000E+00  0.13970537201E+04  0.13970542974E+04  0.12699999809E+01 0. -1.
       -4   -1    0    0    0  501  0.00000000000E+00  0.00000000000E+00 -0.15056634496E+04  0.15056639852E+04  0.12699999809E+01 0.  1.
    10030    2    1    2    0    0  0.00000000000E+00  0.00000000000E+00 -0.10860972948E+03  0.29027182826E+04  0.29006856698E+04 0.  0.
        3    1    3    3  502    0  0.66745224351E+03 -0.46123639552E+03 -0.12573381235E+04  0.14963725061E+04  0.10100000352E+00 0.  1.
       -3    1    3    3    0  502 -0.66745224351E+03  0.46123639552E+03  0.11487283940E+04  0.14063457766E+04  0.10100000352E+00 0. -1.
</event>
<event>
 5   0  0.2546841E-07  0.2900643E+04  0.7818609E-02  0.8272686E-01
        2   -1    0    0  501    0  0.00000000000E+00  0.00000000000E+00  0.18101590138E+04  0.18101590138E+04  0.25500000920E-02 0.  1.
       -2   -1    0    0    0  501  0.00000000000E+00  0.00000000000E+00 -0.11620151905E+04  0.11620151905E+04  0.25500000920E-02 0. -1.
    10030    2    1    2    0    0  0.00000000000E+00  0.00000000000E+00  0.64814382327E+03  0.29721742043E+04  0.29006428745E+04 0.  0.
        1    1    3    3  502    0  0.14321478081E+04 -0.19558682303E+03  0.20226773813E+03  0.14595251925E+04  0.50400001928E-02 0. -1.
       -1    1    3    3    0  502 -0.14321478081E+04  0.19558682303E+03  0.44587608513E+03  0.15126490118E+04  0.50400001928E-02 0.  1.
</event>
<event>
 5   0  0.9421924E-08  0.2902764E+04  0.7818609E-02  0.8272056E-01
        1   -1    0    0  501    0  0.00000000000E+00  0.00000000000E+00  0.22807321673E+04  0.22807321673E+04  0.50400001928E-02 0.  1.
       -1   -1    0    0    0  501  0.00000000000E+00  0.00000000000E+00 -0.92361091623E+03  0.92361091624E+03  0.50400001928E-02 0. -1.
    10030    2    1    2    0    0  0.00000000000E+00  0.00000000000E+00  0.13571212511E+04  0.32043430836E+04  0.29027635982E+04 0.  0.
        1    1    3    3  502    0  0.11148781570E+04  0.74768908763E+03  0.69398343035E+02  0.13441757350E+04  0.50400001928E-02 0. -1.
       -1    1    3    3    0  502 -0.11148781570E+04 -0.74768908763E+03  0.12877229081E+04  0.18601673485E+04  0.50400001928E-02 0.  1.
</event>
<event>
 5   0  0.2608591E-07  0.2901334E+04  0.7818609E-02  0.8272481E-01
       -2   -1    0    0    0  501  0.00000000000E+00  0.00000000000E+00  0.10294856879E+04  0.10294856879E+04  0.25500000920E-02 0. -1.
        2   -1    0    0  501    0  0.00000000000E+00  0.00000000000E+00 -0.20441607238E+04  0.20441607238E+04  0.25500000920E-02 0.  1.
    10030    2    1    2    0    0  0.00000000000E+00  0.00000000000E+00 -0.10146750359E+04  0.30736464118E+04  0.29013336306E+04 0.  0.
        2    1    3    3  502    0  0.21539719532E+03  0.93334374314E+03 -0.16614940386E+04  0.19178344388E+04  0.25500000920E-02 0.  1.
       -2    1    3    3    0  502 -0.21539719532E+03 -0.93334374314E+03  0.64681900265E+03  0.11558119729E+04  0.25500000920E-02 0. -1.
</event>
<event>
 5   0  0.9388076E-08  0.2900489E+04  0.7818609E-02  0.8272732E-01
        1   -1    0    0  501    0  0.00000000000E+00  0.00000000000E+00  0.19475602027E+04  0.19475602027E+04  0.50400001928E-02 0. -1.
       -1   -1    0    0    0  501  0.00000000000E+00  0.00000000000E+00 -0.10799200830E+04  0.10799200830E+04  0.50400001928E-02 0.  1.
    10030    2    1    2    0    0  0.00000000000E+00  0.00000000000E+00  0.86764011972E+03  0.30274802857E+04  0.29004891834E+04 0.  0.
        5    1    3    3  502    0  0.99358392034E+03 -0.65290847074E+03 -0.43301538793E+03  0.12653153339E+04  0.46999998093E+01 0.  1.
       -5    1    3    3    0  502 -0.99358392034E+03  0.65290847074E+03  0.13006555077E+04  0.17621649518E+04  0.46999998093E+01 0. -1.
</event>
<event>
 5   0  0.2678723E-07  0.2901250E+04  0.7818609E-02  0.8272506E-01
        2   -1    0    0  501    0  0.00000000000E+00  0.00000000000E+00  0.20431662124E+04  0.20431662124E+04  0.25500000920E-02 0. -1.
       -2   -1    0    0    0  501  0.00000000000E+00  0.00000000000E+00 -0.10299272543E+04  0.10299272543E+04  0.25500000920E-02 0.  1.
    10030    2    1    2    0    0  0.00000000000E+00  0.00000000000E+00  0.10132389581E+04  0.30730934667E+04  0.29012497771E+04 0.  0.
        5    1    3    3  502    0 -0.10690575043E+04  0.20740930996E+02 -0.53173824443E+03  0.11941866622E+04  0.46999998093E+01 0.  1.
       -5    1    3    3    0  502  0.10690575043E+04 -0.20740930996E+02  0.15449772025E+04  0.18789068045E+04  0.46999998093E+01 0. -1.
</event>
<event>
 5   0  0.9443352E-08  0.2898648E+04  0.7818609E-02  0.8273280E-01
        1   -1    0    0  501    0  0.00000000000E+00  0.00000000000E+00  0.19490431628E+04  0.19490431628E+04  0.50400001928E-02 0.  1.
       -1   -1    0    0    0  501  0.00000000000E+00  0.00000000000E+00 -0.10777291123E+04  0.10777291123E+04  0.50400001928E-02 0. -1.
    10030    2    1    2    0    0  0.00000000000E+00  0.00000000000E+00  0.87131405046E+03  0.30267722751E+04  0.28986483455E+04 0.  0.
        4    1    3    3  502    0  0.44709750337E+03 -0.13442485333E+04  0.11612691941E+03  0.14214033105E+04  0.12699999809E+01 0. -1.
       -4    1    3    3    0  502 -0.44709750337E+03  0.13442485333E+04  0.75518713105E+03  0.16053689646E+04  0.12699999809E+01 0.  1.
</event>
<event>
 5   0  0.2492232E-07  0.2899773E+04  0.7818609E-02  0.8272945E-01
        2   -1    0    0  501    0  0.00000000000E+00  0.00000000000E+00  0.13889798919E+04  0.13889798919E+04  0.25500000920E-02 0.  1.
       -2   -1    0    0    0  501  0.00000000000E+00  0.00000000000E+00 -0.15134635280E+04  0.15134635280E+04  0.25500000920E-02 0. -1.
    10030    2    1    2    0    0  0.00000000000E+00  0.00000000000E+00 -0.12448363608E+03  0.29024434199E+04  0.28997726859E+04 0.  0.
        4    1    3    3  502    0 -0.58742718394E+03 -0.11369492584E+02 -0.13889696395E+04  0.15081240778E+04  0.12699999809E+01 0. -1.
       -4    1    3    3    0  502  0.58742718394E+03  0.11369492584E+02  0.12644860034E+04  0.13943193420E+04  0.12699999809E+01 0.  1.
</event>
<event>
 5   0  0.9421924E-08  0.2899251E+04  0.7818609E-02  0.8273100E-01
        1   -1    0    0  501    0  0.00000000000E+00  0.00000000000E+00  0.14013887784E+04  0.14013887784E+04  0.50400001928E-02 0.  1.
       -1   -1    0    0    0  501  0.00000000000E+00  0.00000000000E+00 -0.14995226962E+04  0.14995226962E+04  0.50400001928E-02 0. -1.
    10030    2    1    2    0    0  0.00000000000E+00  0.00000000000E+00 -0.98133917806E+02  0.29009114746E+04  0.28992511304E+04 0.  0.
        1    1    3    3  502    0 -0.96106893544E+03  0.10209572737E+04 -0.41725462875E+03  0.14629110289E+04  0.50400001928E-02 0. -1.
       -1    1    3    3    0  502  0.96106893544E+03 -0.10209572737E+04  0.31912071094E+03  0.14380004456E+04  0.50400001928E-02 0.  1.
</event>
<event>
 5   0  0.2546841E-07  0.2901971E+04  0.7818609E-02  0.8272291E-01
        2   -1    0    0  501    0  0.00000000000E+00  0.00000000000E+00  0.20714826904E+04  0.20714826904E+04  0.25500000920E-02 0. -1.
       -2   -1    0    0    0  501  0.00000000000E+00  0.00000000000E+00 -0.10163534039E+04  0.10163534039E+04  0.25500000920E-02 0.  1.
    10030    2    1    2    0    0  0.00000000000E+00  0.00000000000E+00  0.10551292865E+04  0.30878360943E+04  0.29019706983E+04 0.  0.
        1    1    3    3  502    0  0.12348541378E+03  0.14305432669E+04  0.30524277649E+03  0.14679495354E+04  0.50400001928E-02 0. -1.
       -1    1    3    3    0  502 -0.12348541378E+03 -0.14305432669E+04  0.74988651001E+03  0.16198865589E+04  0.50400001928E-02 0.  1.
</event>
<event>
 5   0  0.9443352E-08  0.2900854E+04  0.7818609E-02  0.8272623E-01
        1   -1    0    0  501    0  0.00000000000E+00  0.00000000000E+00  0.24149264560E+04  0.24149264561E+04  0.50400001928E-02 0. -1.
       -1   -1    0    0    0  501  0.00000000000E+00  0.00000000000E+00 -0.87113994144E+03  0.87113994146E+03  0.50400001928E-02 0.  1.
    10030    2    1    2    0    0  0.00000000000E+00  0.00000000000E+00  0.15437865146E+04  0.32860663975E+04  0.29008542821E+04 0.  0.
        4    1    3    3  502    0  0.11956350637E+04  0.82008590886E+03  0.81795176608E+03  0.16646713813E+04  0.12699999809E+01 0.  1.
       -4    1    3    3    0  502 -0.11956350637E+04 -0.82008590886E+03  0.72583474853E+03  0.16213950162E+04  0.12699999809E+01 0. -1.
</event>
<event>
 5   0  0.2534588E-07  0.2906358E+04  0.7818609E-02  0.8270988E-01
       -2   -1    0    0    0  501  0.00000000000E+00  0.00000000000E+00  0.17046082594E+04  0.17046082594E+04  0.25500000920E-02 0. -1.
        2   -1    0    0  501    0  0.00000000000E+00  0.00000000000E+00 -0.12388353667E+04  0.12388353667E+04  0.25500000920E-02 0.  1.
    10030    2    1    2    0    0  0.00000000000E+00  0.00000000000E+00  0.46577289270E+03  0.29434436261E+04  0.29063578569E+04 0.  0.
        3    1    3    3  502    0 -0.54320073591E+03 -0.15105372022E+03 -0.11235487760E+04  0.12570784097E+04  0.10100000352E+00 0.  1.
       -3    1    3    3    0  502  0.54320073591E+03  0.15105372022E+03  0.15893216688E+04  0.16863652163E+04  0.10100000352E+00 0. -1.
</event>
<event>
 5   0  0.9763851E-08  0.2898548E+04  0.7818609E-02  0.8273310E-01
       -1   -1    0    0    0  501  0.00000000000E+00  0.00000000000E+00  0.98221434880E+03  0.98221434881E+03  0.50400001928E-02 0.  1.
        1   -1    0    0  501    0  0.00000000000E+00  0.00000000000E+00 -0.21384283164E+04  0.21384283164E+04  0.50400001928E-02 0. -1.
    10030    2    1    2    0    0  0.00000000000E+00  0.00000000000E+00 -0.11562139676E+04  0.31206426652E+04  0.28985478959E+04 0.  0.
        3    1    3    3  502    0 -0.11037064046E+04  0.19695232298E+03  0.41065068475E+03  0.11939815912E+04  0.10100000352E+00 0.  1.
       -3    1    3    3    0  502  0.11037064046E+04 -0.19695232298E+03 -0.15668646523E+04  0.19266610740E+04  0.10100000352E+00 0. -1.
</event>
<event>
 5   0  0.2546841E-07  0.2900327E+04  0.7818609E-02  0.8272780E-01
       -2   -1    0    0    0  501  0.00000000000E+00  0.00000000000E+00  0.14260758740E+04  0.14260758740E+04  0.25500000920E-02 0. -1.
        2   -1    0    0  501    0  0.00000000000E+00  0.00000000000E+00 -0.14746578163E+04  0.14746578163E+04  0.25500000920E-02 0.  1.
    10030    2    1    2    0    0  0.00000000000E+00  0.00000000000E+00 -0.48581942337E+02  0.29007336903E+04  0.29003268328E+04 0.  0.
        1    1    3    3  502    0 -0.38966804142E+03 -0.11025145932E+04  0.83349729886E+03  0.14360004728E+04  0.50400001928E-02 0. -1.
       -1    1    3    3    0  502  0.38966804142E+03  0.11025145932E+04 -0.88207924120E+03  0.14647332175E+04  0.50400001928E-02 0.  1.
</event>
<event>
 5   0  0.9443352E-08  0.2900452E+04  0.7818609E-02  0.8272743E-01
        1   -1    0    0  501    0  0.00000000000E+00  0.00000000000E+00  0.15501601918E+04  0.15501601918E+04  0.50400001928E-02 0. -1.
       -1   -1    0    0    0  501  0.00000000000E+00  0.00000000000E+00 -0.13567345638E+04  0.13567345638E+04  0.50400001928E-02 0.  1.
    10030    2    1    2    0    0  0.00000000000E+00  0.00000000000E+00  0.19342562800E+03  0.29068947557E+04  0.29004523177E+04 0.  0.
        4    1    3    3  502    0  0.44129854467E+03 -0.20066705153E+03  0.14665488703E+04  0.15445966700E+04  0.12699999809E+01 0. -1.
       -4    1    3    3    0  502 -0.44129854467E+03  0.20066705153E+03 -0.12731232423E+04  0.13622980857E+04  0.12699999809E+01 0.  1.
</event>
<event>
 5   0  0.2534588E-07  0.2899869E+04  0.7818609E-02  0.8272917E-01
        2   -1    0    0  501    0  0.00000000000E+00  0.00000000000E+00  0.16371491783E+04  0.16371491783E+04  0.25500000920E-02 0.  1.
       -2   -1    0    0    0  501  0.00000000000E+00  0.00000000000E+00 -0.12841281958E+04  0.12841281958E+04  0.25500000920E-02 0. -1.
    10030    2    1    2    0    0  0.00000000000E+00  0.00000000000E+00  0.35302098255E+03  0.29212773741E+04  0.28998685629E+04 0.  0.
        3    1    3    3  502    0  0.14648315723E+03 -0.10976359135E+04 -0.76637359859E+03  0.13466961115E+04  0.10100000352E+00 0. -1.
       -3    1    3    3    0  502 -0.14648315723E+03  0.10976359135E+04  0.11193945811E+04  0.15745812626E+04  0.10100000352E+00 0.  1.
</event>
<event>
 5   0  0.9443352E-08  0.2891513E+04  0.7818609E-02  0.8275407E-01
        1   -1    0    0  501    0  0.00000000000E+00  0.00000000000E+00  0.27168861121E+04  0.27168861121E+04  0.50400001928E-02 0. -1.
       -1   -1    0    0    0  501  0.00000000000E+00  0.00000000000E+00 -0.76934079071E+03  0.76934079073E+03  0.50400001928E-02 0.  1.
    10030    2    1    2    0    0  0.00000000000E+00  0.00000000000E+00  0.19475453213E+04  0.34862269028E+04  0.28915126213E+04 0.  0.
        4    1    3    3  502    0 -0.13754525018E+04 -0.68962116670E+02  0.44329674965E+03  0.14467684608E+04  0.12699999809E+01 0.  1.
       -4    1    3    3    0  502  0.13754525018E+04  0.68962116670E+02  0.15042485717E+04  0.20394584420E+04  0.12699999809E+01 0. -1.
</event>
<event>
 5   0  0.8407500E-08  0.2900111E+04  0.7818609E-02  0.8272844E-01
        3   -1    0    0  501    0  0.00000000000E+00  0.00000000000E+00  0.13260259592E+04  0.13260259630E+04  0.10100000352E+00 0. -1.
       -3   -1    0    0    0  501  0.00000000000E+00  0.00000000000E+00 -0.15856862171E+04  0.15856862203E+04  0.10100000352E+00 0.  1.
    10030    2    1    2    0    0  0.00000000000E+00  0.00000000000E+00 -0.25966025793E+03  0.29117121833E+04  0.29001110994E+04 0.  0.
        5    1    3    3  502    0  0.13166701044E+04 -0.27441046982E+03 -0.67395539847E+03  0.15043800181E+04  0.46999998093E+01 0.  1.
       -5    1    3    3    0  502 -0.13166701044E+04  0.27441046982E+03  0.41429514055E+03  0.14073321652E+04  0.46999998093E+01 0. -1.
</event>
<event>
 5   0  0.9443352E-08  0.2900448E+04  0.7818609E-02  0.8272744E-01
        1   -1    0    0  501    0  0.00000000000E+00  0.00000000000E+00  0.13928849565E+04  0.13928849565E+04  0.50400001928E-02 0.  1.
       -1   -1    0    0    0  501  0.00000000000E+00  0.00000000000E+00 -0.15099233982E+04  0.15099233982E+04  0.50400001928E-02 0. -1.
    10030    2    1    2    0    0  0.00000000000E+00  0.00000000000E+00 -0.11703844167E+03  0.29028083547E+04  0.29004479564E+04 0.  0.
        4    1    3    3  502    0 -0.84490296698E+03  0.71061292924E+03  0.88262695397E+03  0.14134580686E+04  0.12699999809E+01 0.  1.
       -4    1    3    3    0  502  0.84490296698E+03 -0.71061292924E+03 -0.99966539564E+03  0.14893502862E+04  0.12699999809E+01 0. -1.
</event>
<event>
 5   0  0.9388076E-08  0.2901311E+04  0.7818609E-02  0.8272488E-01
       -1   -1    0    0    0  501  0.00000000000E+00  0.00000000000E+00  0.11656928792E+04  0.11656928792E+04  0.50400001928E-02 0.  1.
        1   -1    0    0  501    0  0.00000000000E+00  0.00000000000E+00 -0.18052794962E+04  0.18052794962E+04  0.50400001928E-02 0. -1.
    10030    2    1    2    0    0  0.00000000000E+00  0.00000000000E+00 -0.63958661703E+03  0.29709723754E+04  0.29013110510E+04 0.  0.
        5    1    3    3  502    0 -0.68772974782E+02  0.10553660647E+04 -0.13365340042E+04  0.17043686476E+04  0.46999998093E+01 0. -1.
       -5    1    3    3    0  502  0.68772974782E+02 -0.10553660647E+04  0.69694738715E+03  0.12666037277E+04  0.46999998093E+01 0.  1.
</event>
<event>
 5   0  0.2608591E-07  0.2900219E+04  0.7818609E-02  0.8272812E-01
       -2   -1    0    0    0  501  0.00000000000E+00  0.00000000000E+00  0.88926937938E+03  0.88926937938E+03  0.25500000920E-02 0. -1.
        2   -1    0    0  501    0  0.00000000000E+00  0.00000000000E+00 -0.23646582180E+04  0.23646582180E+04  0.25500000920E-02 0.  1.
    10030    2    1    2    0    0  0.00000000000E+00  0.00000000000E+00 -0.14753888386E+04  0.32539275974E+04  0.29002194027E+04 0.  0.
        2    1    3    3  502    0 -0.76447316615E+03  0.78491835900E+03  0.32804987002E+03  0.11437363198E+04  0.25500000920E-02 0. -1.
       -2    1    3    3    0  502  0.76447316615E+03 -0.78491835900E+03 -0.18034387086E+04  0.21101912775E+04  0.25500000920E-02 0.  1.
</event>
<event>
 5   0  0.2492232E-07  0.2899378E+04  0.7818609E-02  0.8273063E-01
        2   -1    0    0  501    0  0.00000000000E+00  0.00000000000E+00  0.28439697630E+04  0.28439697630E+04  0.25500000920E-02 0.  1.
       -2   -1    0    0    0  501  0.00000000000E+00  0.00000000000E+00 -0.73896618548E+03  0.73896618548E+03  0.25500000920E-02 0. -1.
    10030    2    1    2    0    0  0.00000000000E+00  0.00000000000E+00  0.21050035775E+04  0.35829359485E+04  0.28993775107E+04 0.  0.
        4    1    3    3  502    0  0.74953176003E+03  0.47052897573E+03 -0.36641836641E+03  0.95784101417E+03  0.12699999809E+01 0. -1.
       -4    1    3    3    0  502 -0.74953176003E+03 -0.47052897573E+03  0.24714219439E+04  0.26250949343E+04  0.12699999809E+01 0.  1.
</event>
<event>
 5   0  0.2678723E-07  0.2900957E+04  0.7818609E-02  0.8272593E-01
        2   -1    0    0  501    0  0.00000000000E+00  0.00000000000E+00  0.15857586825E+04  0.15857586825E+04  0.25500000920E-02 0. -1.
       -2   -1    0    0    0  501  0.00000000000E+00  0.00000000000E+00 -0.13267391185E+04  0.13267391185E+04  0.25500000920E-02 0.  1.
    10030    2    1    2    0    0  0.00000000000E+00  0.00000000000E+00  0.25901956403E+03  0.29124978011E+04  0.29009571363E+04 0.  0.
        5    1    3    3  502    0  0.42243142578E+02  0.10006447053E+04  0.11828698801E+04  0.15499282411E+04  0.46999998093E+01 0. -1.
       -5    1    3    3    0  502 -0.42243142578E+02 -0.10006447053E+04 -0.92385031606E+03  0.13625695600E+04  0.46999998093E+01 0.  1.
</event>
<event>
 5   0  0.2678723E-07  0.2899316E+04  0.7818609E-02  0.8273081E-01
       -2   -1    0    0    0  501  0.00000000000E+00  0.00000000000E+00  0.13888415640E+04  0.13888415640E+04  0.25500000920E-02 0. -1.
        2   -1    0    0  501    0  0.00000000000E+00  0.00000000000E+00 -0.15131371938E+04  0.15131371938E+04  0.25500000920E-02 0.  1.
    10030    2    1    2    0    0  0.00000000000E+00  0.00000000000E+00 -0.12429562984E+03  0.29019787578E+04  0.28993156618E+04 0.  0.
        5    1    3    3  502    0 -0.26282846935E+03 -0.75440288622E+03  0.11486257307E+04  0.13991303292E+04  0.46999998093E+01 0. -1.
       -5    1    3    3    0  502  0.26282846935E+03  0.75440288622E+03 -0.12729213605E+04  0.15028484285E+04  0.46999998093E+01 0.  1.
</event>
<event>
 5   0  0.9443352E-08  0.2902097E+04  0.7818609E-02  0.8272254E-01
       -1   -1    0    0    0  501  0.00000000000E+00  0.00000000000E+00  0.13424550736E+04  0.13424550736E+04  0.50400001928E-02 0.  1.
        1   -1    0    0  501    0  0.00000000000E+00  0.00000000000E+00 -0.15684265658E+04  0.15684265658E+04  0.50400001928E-02 0. -1.
    10030    2    1    2    0    0  0.00000000000E+00  0.00000000000E+00 -0.22597149223E+03  0.29108816394E+04  0.29020973112E+04 0.  0.
        4    1    3    3  502    0 -0.71581705294E+03  0.12246503400E+04 -0.41948896840E+03  0.14792346386E+04  0.12699999809E+01 0. -1.
       -4    1    3    3    0  502  0.71581705294E+03 -0.12246503400E+04  0.19351747616E+03  0.14316470008E+04  0.12699999809E+01 0.  1.
</event>
<event>
 5   0  0.9421924E-08  0.2900272E+04  0.7818609E-02  0.8272797E-01
       -1   -1    0    0    0  501  0.00000000000E+00  0.00000000000E+00  0.15973645819E+04  0.15973645819E+04  0.50400001928E-02 0. -1.
        1   -1    0    0  501    0  0.00000000000E+00  0.00000000000E+00 -0.13164773310E+04  0.13164773311E+04  0.50400001928E-02 0.  1.
    10030    2    1    2    0    0  0.00000000000E+00  0.00000000000E+00  0.28088725083E+03  0.29138419129E+04  0.29002718917E+04 0.  0.
        1    1    3    3  502    0 -0.10850578626E+04 -0.58850656940E+03  0.90505885022E+03  0.15306279985E+04  0.50400001928E-02 0. -1.
       -1    1    3    3    0  502  0.10850578626E+04  0.58850656940E+03 -0.62417159939E+03  0.13832139144E+04  0.50400001928E-02 0.  1.
</event>
<event>
 5   0  0.2534588E-07  0.2899596E+04  0.7818609E-02  0.8272998E-01
       -2   -1    0    0    0  501  0.00000000000E+00  0.00000000000E+00  0.10259561315E+04  0.10259561315E+04  0.25500000920E-02 0. -1.
        2   -1    0    0  501    0  0.00000000000E+00  0.00000000000E+00 -0.20487364235E+04  0.20487364235E+04  0.25500000920E-02 0.  1.
    10030    2    1    2    0    0  0.00000000000E+00  0.00000000000E+00 -0.10227802920E+04  0.30746925551E+04  0.28995956240E+04 0.  0.
        3    1    3    3  502    0 -0.10954343105E+04 -0.86167716151E+03 -0.93481494063E+03  0.16781963064E+04  0.10100000352E+00 0. -1.
       -3    1    3    3    0  502  0.10954343105E+04  0.86167716151E+03 -0.87965351366E+02  0.13964962487E+04  0.10100000352E+00 0.  1.
</event>
<event>
 5   0  0.2546841E-07  0.2899956E+04  0.7818609E-02  0.8272891E-01
       -2   -1    0    0    0  501  0.00000000000E+00  0.00000000000E+00  0.10650119441E+04  0.10650119441E+04  0.25500000920E-02 0. -1.
        2   -1    0    0  501    0  0.00000000000E+00  0.00000000000E+00 -0.19740965482E+04  0.19740965482E+04  0.25500000920E-02 0.  1.
    10030    2    1    2    0    0  0.00000000000E+00  0.00000000000E+00 -0.90908460402E+03  0.30391084923E+04  0.28999561394E+04 0.  0.
        1    1    3    3  502    0 -0.91976964989E+03 -0.93111734690E+03 -0.11085723997E+04  0.17151934258E+04  0.50400001928E-02 0.  1.
       -1    1    3    3    0  502  0.91976964989E+03  0.93111734690E+03  0.19948779572E+03  0.13239150665E+04  0.50400001928E-02 0. -1.
</event>
<event>
 5   0  0.2678723E-07  0.2896457E+04  0.7818609E-02  0.8273932E-01
       -2   -1    0    0    0  501  0.00000000000E+00  0.00000000000E+00  0.19395601756E+04  0.19395601756E+04  0.25500000920E-02 0.  1.
        2   -1    0    0  501    0  0.00000000000E+00  0.00000000000E+00 -0.10813616823E+04  0.10813616823E+04  0.25500000920E-02 0. -1.
    10030    2    1    2    0    0  0.00000000000E+00  0.00000000000E+00  0.85819849330E+03  0.30209218579E+04  0.28964571838E+04 0.  0.
        5    1    3    3  502    0 -0.10555684731E+04  0.65377552762E+03  0.12065829527E+04  0.17313323637E+04  0.46999998093E+01 0.  1.
       -5    1    3    3    0  502  0.10555684731E+04 -0.65377552762E+03 -0.34838445938E+03  0.12895894942E+04  0.46999998093E+01 0. -1.
</event>
<event>
 5   0  0.9763851E-08  0.2903041E+04  0.7818609E-02  0.8271973E-01
        1   -1    0    0  501    0  0.00000000000E+00  0.00000000000E+00  0.23319088495E+04  0.23319088495E+04  0.50400001928E-02 0. -1.
       -1   -1    0    0    0  501  0.00000000000E+00  0.00000000000E+00 -0.90351358878E+03  0.90351358879E+03  0.50400001928E-02 0.  1.
    10030    2    1    2    0    0  0.00000000000E+00  0.00000000000E+00  0.14283952607E+04  0.32354224383E+04  0.29030407047E+04 0.  0.
        3    1    3    3  502    0 -0.10294805749E+04 -0.19184674785E+03  0.18344035494E+04  0.21122669862E+04  0.10100000352E+00 0. -1.
       -3    1    3    3    0  502  0.10294805749E+04  0.19184674785E+03 -0.40600828867E+03  0.11231554521E+04  0.10100000352E+00 0.  1.
</event>
<event>
 5   0  0.2608591E-07  0.2899777E+04  0.7818609E-02  0.8272944E-01
       -2   -1    0    0    0  501  0.00000000000E+00  0.00000000000E+00  0.14494377455E+04  0.14494377455E+04  0.25500000920E-02 0. -1.
        2   -1    0    0  501    0  0.00000000000E+00  0.00000000000E+00 -0.14503392688E+04  0.14503392688E+04  0.25500000920E-02 0.  1.
    10030    2    1    2    0    0  0.00000000000E+00  0.00000000000E+00 -0.90152333261E+00  0.28997770143E+04  0.28997768741E+04 0.  0.
        2    1    3    3  502    0  0.59574512941E+03  0.84251586693E+03 -0.10189944941E+04  0.14502051663E+04  0.25500000920E-02 0.  1.
       -2    1    3    3    0  502 -0.59574512941E+03 -0.84251586693E+03  0.10180929708E+04  0.14495718480E+04  0.25500000920E-02 0. -1.
</event>
<event>
 5   0  0.9421924E-08  0.2886961E+04  0.7818609E-02  0.8276768E-01
       -1   -1    0    0    0  501  0.00000000000E+00  0.00000000000E+00  0.17706064511E+04  0.17706064511E+04  0.50400001928E-02 0. -1.
        1   -1    0    0  501    0  0.00000000000E+00  0.00000000000E+00 -0.11767921847E+04  0.11767921847E+04  0.50400001928E-02 0.  1.
    10030    2    1    2    0    0  0.00000000000E+00  0.00000000000E+00  0.59381426644E+03  0.29473986358E+04  0.28869609168E+04 0.  0.
        1    1    3    3  502    0  0.45373831074E+03  0.11970142783E+04 -0.38407560843E+03  0.13365012944E+04  0.50400001928E-02 0.  1.
       -1    1    3    3    0  502 -0.45373831074E+03 -0.11970142783E+04  0.97788987487E+03  0.16108973414E+04  0.50400001928E-02 0. -1.
</event>
<event>
 5   0  0.2534588E-07  0.2901557E+04  0.7818609E-02  0.8272414E-01
        2   -1    0    0  501    0  0.00000000000E+00  0.00000000000E+00  0.24862770377E+04  0.24862770377E+04  0.25500000920E-02 0. -1.
       -2   -1    0    0    0  501  0.00000000000E+00  0.00000000000E+00 -0.84655033113E+03  0.84655033113E+03  0.25500000920E-02 0.  1.
    10030    2    1    2    0    0  0.00000000000E+00  0.00000000000E+00  0.16397267066E+04  0.33328273688E+04  0.29015572712E+04 0.  0.
        3    1    3    3  502    0  0.11940026894E+03  0.31716940251E+03 -0.80044596344E+03  0.86923334307E+03  0.10100000352E+00 0.  1.
       -3    1    3    3    0  502 -0.11940026894E+03 -0.31716940251E+03  0.24401726700E+04  0.24635940258E+04  0.10100000352E+00 0. -1.
</event>
<event>
 5   0  0.2608591E-07  0.2898327E+04  0.7818609E-02  0.8273375E-01
       -2   -1    0    0    0  501  0.00000000000E+00  0.00000000000E+00  0.97709249479E+03  0.97709249479E+03  0.25500000920E-02 0.  1.
        2   -1    0    0  501    0  0.00000000000E+00  0.00000000000E+00 -0.21493097490E+04  0.21493097490E+04  0.25500000920E-02 0. -1.
    10030    2    1    2    0    0  0.00000000000E+00  0.00000000000E+00 -0.11722172542E+04  0.31264022438E+04  0.28983267067E+04 0.  0.
        2    1    3    3  502    0  0.47003438388E+03  0.13494465167E+04 -0.32602031241E+03  0.14656832767E+04  0.25500000920E-02 0.  1.
       -2    1    3    3    0  502 -0.47003438388E+03 -0.13494465167E+04 -0.84619694180E+03  0.16607189671E+04  0.25500000920E-02 0. -1.
</event>
<event>
 5   0  0.9421924E-08  0.2901279E+04  0.7818609E-02  0.8272497E-01
        1   -1    0    0  501    0  0.00000000000E+00  0.00000000000E+00  0.15209838147E+04  0.15209838147E+04  0.50400001928E-02 0. -1.
       -1   -1    0    0    0  501  0.00000000000E+00  0.00000000000E+00 -0.13835482173E+04  0.13835482173E+04  0.50400001928E-02 0.  1.
    10030    2    1    2    0    0  0.00000000000E+00  0.00000000000E+00  0.13743559735E+03  0.29045320320E+04  0.29012786460E+04 0.  0.
        1    1    3    3  502    0  0.86654958405E+03 -0.86557835339E+03 -0.70946999245E+03  0.14154440073E+04  0.50400001928E-02 0.  1.
       -1    1    3    3    0  502 -0.86654958405E+03  0.86557835339E+03  0.84690558980E+03  0.14890880248E+04  0.50400001928E-02 0. -1.
</event>
<event>
 5   0  0.2678723E-07  0.2902380E+04  0.7818609E-02  0.8272170E-01
        2   -1    0    0  501    0  0.00000000000E+00  0.00000000000E+00  0.12379126871E+04  0.12379126871E+04  0.25500000920E-02 0. -1.
       -2   -1    0    0    0  501  0.00000000000E+00  0.00000000000E+00 -0.17012123239E+04  0.17012123239E+04  0.25500000920E-02 0.  1.
    10030    2    1    2    0    0  0.00000000000E+00  0.00000000000E+00 -0.46329963676E+03  0.29391250110E+04  0.29023799333E+04 0.  0.
        5    1    3    3  502    0 -0.12483308691E+04  0.22922892330E+03  0.48085900294E+03  0.13572484403E+04  0.46999998093E+01 0. -1.
       -5    1    3    3    0  502  0.12483308691E+04 -0.22922892330E+03 -0.94415863970E+03  0.15818765707E+04  0.46999998093E+01 0.  1.
</event>
<event>
 5   0  0.2608591E-07  0.2899683E+04  0.7818609E-02  0.8272972E-01
        2   -1    0    0  501    0  0.00000000000E+00  0.00000000000E+00  0.17451119408E+04  0.17451119408E+04  0.25500000920E-02 0.  1.
       -2   -1    0    0    0  501  0.00000000000E+00  0.00000000000E+00 -0.12045306263E+04  0.12045306263E+04  0.25500000920E-02 0. -1.
    10030    2    1    2    0    0  0.00000000000E+00  0.00000000000E+00  0.54058131449E+03  0.29496425671E+04  0.28996832786E+04 0.  0.
        2    1    3    3  502    0 -0.11827248975E+04  0.47687948829E+03 -0.43136789164E+03  0.13462282449E+04  0.25500000920E-02 0. -1.
       -2    1    3    3    0  502  0.11827248975E+04 -0.47687948829E+03  0.97194920613E+03  0.16034143222E+04  0.25500000920E-02 0.  1.
</event>
<event>
 5   0  0.2678723E-07  0.2900013E+04  0.7818609E-02  0.8272874E-01
        2   -1    0    0  501    0  0.00000000000E+00  0.00000000000E+00  0.21478335405E+04  0.21478335405E+04  0.25500000920E-02 0. -1.
       -2   -1    0    0    0  501  0.00000000000E+00  0.00000000000E+00 -0.97890180999E+03  0.97890180999E+03  0.25500000920E-02 0.  1.
    10030    2    1    2    0    0  0.00000000000E+00  0.00000000000E+00  0.11689317305E+04  0.31267353505E+04  0.29000125106E+04 0.  0.
        5    1    3    3  502    0 -0.10531354931E+03  0.39773451505E+02  0.21431066036E+04  0.21460663725E+04  0.46999998093E+01 0. -1.
       -5    1    3    3    0  502  0.10531354931E+03 -0.39773451505E+02 -0.97417487303E+03  0.98066897797E+03  0.46999998093E+01 0.  1.
</event>
<event>
 5   0  0.9421924E-08  0.2900329E+04  0.7818609E-02  0.8272780E-01
       -1   -1    0    0    0  501  0.00000000000E+00  0.00000000000E+00  0.17770691442E+04  0.17770691442E+04  0.50400001928E-02 0.  1.
        1   -1    0    0  501    0  0.00000000000E+00  0.00000000000E+00 -0.11833962654E+04  0.11833962654E+04  0.50400001928E-02 0. -1.
    10030    2    1    2    0    0  0.00000000000E+00  0.00000000000E+00  0.59367287880E+03  0.29604654096E+04  0.29003289390E+04 0.  0.
        1    1    3    3  502    0 -0.69584574480E+03  0.31654981177E+03 -0.96101808292E+03  0.12279905698E+04  0.50400001928E-02 0. -1.
       -1    1    3    3    0  502  0.69584574480E+03 -0.31654981177E+03  0.15546909617E+04  0.17324748397E+04  0.50400001928E-02 0.  1.
</event>
<event>
 5   0  0.2492232E-07  0.2898875E+04  0.7818609E-02  0.8273212E-01
        2   -1    0    0  501    0  0.00000000000E+00  0.00000000000E+00  0.67465941948E+03  0.67465941948E+03  0.25500000920E-02 0. -1.
       -2   -1    0    0    0  501  0.00000000000E+00  0.00000000000E+00 -0.31139690200E+04  0.31139690200E+04  0.25500000920E-02 0.  1.
    10030    2    1    2    0    0  0.00000000000E+00  0.00000000000E+00 -0.24393096006E+04  0.37886284395E+04  0.28988746308E+04 0.  0.
        4    1    3    3  502    0  0.46293261520E+03  0.88185610805E+03  0.15659363368E+03  0.10082162370E+04  0.12699999809E+01 0. -1.
       -4    1    3    3    0  502 -0.46293261520E+03 -0.88185610805E+03 -0.25959032342E+04  0.27804122025E+04  0.12699999809E+01 0.  1.
</event>
<event>
 5   0  0.2534588E-07  0.2900095E+04  0.7818609E-02  0.8272849E-01
       -2   -1    0    0    0  501  0.00000000000E+00  0.00000000000E+00  0.10872252567E+04  0.10872252567E+04  0.25500000920E-02 0. -1.
        2   -1    0    0  501    0  0.00000000000E+00  0.00000000000E+00 -0.19339486832E+04  0.19339486832E+04  0.25500000920E-02 0.  1.
    10030    2    1    2    0    0  0.00000000000E+00  0.00000000000E+00 -0.84672342649E+03  0.30211739399E+04  0.29000950698E+04 0.  0.
        3    1    3    3  502    0  0.96241985673E+02  0.24364343347E+03  0.10623699484E+04  0.10941912812E+04  0.10100000352E+00 0. -1.
       -3    1    3    3    0  502 -0.96241985673E+02 -0.24364343347E+03 -0.19090933749E+04  0.19269826586E+04  0.10100000352E+00 0.  1.
</event>
<event>
 5   0  0.2678723E-07  0.2899639E+04  0.7818609E-02  0.8272985E-01
        2   -1    0    0  501    0  0.00000000000E+00  0.00000000000E+00  0.17901978944E+04  0.17901978944E+04  0.25500000920E-02 0.  1.
       -2   -1    0    0    0  501  0.00000000000E+00  0.00000000000E+00 -0.11741588785E+04  0.11741588785E+04  0.25500000920E-02 0. -1.
    10030    2    1    2    0    0  0.00000000000E+00  0.00000000000E+00  0.61603901593E+03  0.29643567729E+04  0.28996391169E+04 0.  0.
        5    1    3    3  502    0 -0.61607033745E+03 -0.12414789191E+04 -0.12708763659E+03  0.13917564172E+04  0.46999998093E+01 0. -1.
       -5    1    3    3    0  502  0.61607033745E+03  0.12414789191E+04  0.74312665251E+03  0.15726003558E+04  0.46999998093E+01 0.  1.
</event>
<event>
 5   0  0.2534588E-07  0.2899515E+04  0.7818609E-02  0.8273022E-01
        2   -1    0    0  501    0  0.00000000000E+00  0.00000000000E+00  0.13275062314E+04  0.13275062314E+04  0.25500000920E-02 0.  1.
       -2   -1    0    0    0  501  0.00000000000E+00  0.00000000000E+00 -0.15832666903E+04  0.15832666903E+04  0.25500000920E-02 0. -1.
    10030    2    1    2    0    0  0.00000000000E+00  0.00000000000E+00 -0.25576045884E+03  0.29107729217E+04  0.28995147162E+04 0.  0.
        3    1    3    3  502    0 -0.13458804035E+04 -0.52516070980E+02  0.41052709840E+03  0.14080783029E+04  0.10100000352E+00 0.  1.
       -3    1    3    3    0  502  0.13458804035E+04  0.52516070980E+02 -0.66628755724E+03  0.15026946188E+04  0.10100000352E+00 0. -1.
</event>
<event>
 5   0  0.9763851E-08  0.2901780E+04  0.7818609E-02  0.8272348E-01
        1   -1    0    0  501    0  0.00000000000E+00  0.00000000000E+00  0.26135342635E+04  0.26135342635E+04  0.50400001928E-02 0. -1.
       -1   -1    0    0    0  501  0.00000000000E+00  0.00000000000E+00 -0.80545395152E+03  0.80545395154E+03  0.50400001928E-02 0.  1.
    10030    2    1    2    0    0  0.00000000000E+00  0.00000000000E+00  0.18080803120E+04  0.34189882151E+04  0.29017797987E+04 0.  0.
        3    1    3    3  502    0 -0.17815739830E+03 -0.30804433925E+03 -0.75323913368E+03  0.83306696983E+03  0.10100000352E+00 0.  1.
       -3    1    3    3    0  502  0.17815739830E+03  0.30804433925E+03  0.25613194457E+04  0.25859212452E+04  0.10100000352E+00 0. -1.
</event>
<event>
 5   0  0.9763851E-08  0.2898645E+04  0.7818609E-02  0.8273281E-01
        1   -1    0    0  501    0  0.00000000000E+00  0.00000000000E+00  0.19330472826E+04  0.19330472826E+04  0.50400001928E-02 0. -1.
       -1   -1    0    0    0  501  0.00000000000E+00  0.00000000000E+00 -0.10866445271E+04  0.10866445271E+04  0.50400001928E-02 0.  1.
    10030    2    1    2    0    0  0.00000000000E+00  0.00000000000E+00  0.84640275548E+03  0.30196918097E+04  0.28986446834E+04 0.  0.
        3    1    3    3  502    0  0.12230985105E+04 -0.16390312603E+03  0.12150081513E+04  0.17317849228E+04  0.10100000352E+00 0. -1.
       -3    1    3    3    0  502 -0.12230985105E+04  0.16390312603E+03 -0.36860539583E+03  0.12879068868E+04  0.10100000352E+00 0.  1.
</event>
<event>
 5   0  0.2492232E-07  0.2899930E+04  0.7818609E-02  0.8272898E-01
        2   -1    0    0  501    0  0.00000000000E+00  0.00000000000E+00  0.99192503817E+03  0.99192503817E+03  0.25500000920E-02 0. -1.
       -2   -1    0    0    0  501  0.00000000000E+00  0.00000000000E+00 -0.21195138698E+04  0.21195138698E+04  0.25500000920E-02 0.  1.
    10030    2    1    2    0    0  0.00000000000E+00  0.00000000000E+00 -0.11275888316E+04  0.31114389080E+04  0.28999302586E+04 0.  0.
        4    1    3    3  502    0  0.96601466426E+03  0.84823180637E+03  0.15572541150E+03  0.12949646889E+04  0.12699999809E+01 0. -1.
       -4    1    3    3    0  502 -0.96601466426E+03 -0.84823180637E+03 -0.12833142431E+04  0.18164742190E+04  0.12699999809E+01 0.  1.
</event>
<event>
 5   0  0.9388076E-08  0.2902701E+04  0.7818609E-02  0.8272074E-01
       -1   -1    0    0    0  501  0.00000000000E+00  0.00000000000E+00  0.82807127231E+03  0.82807127233E+03  0.50400001928E-02 0. -1.
        1   -1    0    0  501    0  0.00000000000E+00  0.00000000000E+00 -0.25437641197E+04  0.25437641197E+04  0.50400001928E-02 0.  1.
    10030    2    1    2    0    0  0.00000000000E+00  0.00000000000E+00 -0.17156928473E+04  0.33718353920E+04  0.29027008051E+04 0.  0.
        5    1    3    3  502    0 -0.53666904145E+03 -0.11200592098E+04  0.14413125578E+02  0.12420853923E+04  0.46999998093E+01 0. -1.
       -5    1    3    3    0  502  0.53666904145E+03  0.11200592098E+04 -0.17301059729E+04  0.21297499997E+04  0.46999998093E+01 0.  1.
</event>
<event>
 5   0  0.9388076E-08  0.2901203E+04  0.7818609E-02  0.8272520E-01
       -1   -1    0    0    0  501  0.00000000000E+00  0.00000000000E+00  0.98972288530E+03  0.98972288531E+03  0.50400001928E-02 0. -1.
        1   -1    0    0  501    0  0.00000000000E+00  0.00000000000E+00 -0.21260951235E+04  0.21260951235E+04  0.50400001928E-02 0.  1.
    10030    2    1    2    0    0  0.00000000000E+00  0.00000000000E+00 -0.11363722382E+04  0.31158180088E+04  0.29012031987E+04 0.  0.
        5    1    3    3  502    0  0.11836694986E+04  0.21494644780E+03 -0.14386670305E+04  0.18753827268E+04  0.46999998093E+01 0.  1.
       -5    1    3    3    0  502 -0.11836694986E+04 -0.21494644780E+03  0.30229479229E+03  0.12404352820E+04  0.46999998093E+01 0. -1.
</event>
<event>
 5   0  0.9763851E-08  0.2900401E+04  0.7818609E-02  0.8272758E-01
       -1   -1    0    0    0  501  0.00000000000E+00  0.00000000000E+00  0.20591358036E+04  0.20591358036E+04  0.50400001928E-02 0. -1.
        1   -1    0    0  501    0  0.00000000000E+00  0.00000000000E+00 -0.10213415439E+04  0.10213415439E+04  0.50400001928E-02 0.  1.
    10030    2    1    2    0    0  0.00000000000E+00  0.00000000000E+00  0.10377942597E+04  0.30804773475E+04  0.29004006212E+04 0.  0.
        3    1    3    3  502    0  0.74509906721E+03 -0.12070875424E+04  0.83902070421E+03  0.16480863774E+04  0.10100000352E+00 0.  1.
       -3    1    3    3    0  502 -0.74509906721E+03  0.12070875424E+04  0.19877355549E+03  0.14323909702E+04  0.10100000352E+00 0. -1.
</event>
<event>
 5   0  0.2546841E-07  0.2899974E+04  0.7818609E-02  0.8272885E-01
        2   -1    0    0  501    0  0.00000000000E+00  0.00000000000E+00  0.18134134709E+04  0.18134134709E+04  0.25500000920E-02 0.  1.
       -2   -1    0    0    0  501  0.00000000000E+00  0.00000000000E+00 -0.11593945190E+04  0.11593945190E+04  0.25500000920E-02 0. -1.
    10030    2    1    2    0    0  0.00000000000E+00  0.00000000000E+00  0.65401895191E+03  0.29728079900E+04  0.28999735440E+04 0.  0.
        1    1    3    3  502    0  0.70557209928E+03  0.85061309005E+03 -0.63522790861E+03  0.12747113839E+04  0.50400001928E-02 0. -1.
       -1    1    3    3    0  502 -0.70557209928E+03 -0.85061309005E+03  0.12892468605E+04  0.16980966061E+04  0.50400001928E-02 0.  1.
</event>
<event>
 5   0  0.9395744E-08  0.2899460E+04  0.7818609E-02  0.8273038E-01
       -1   -1    0    0    0  501  0.00000000000E+00  0.00000000000E+00  0.13870396003E+04  0.13870396003E+04  0.50400001928E-02 0.  1.
        1   -1    0    0  501    0  0.00000000000E+00  0.00000000000E+00 -0.15152535582E+04  0.15152535582E+04  0.50400001928E-02 0. -1.
    10030    2    1    2    0    0  0.00000000000E+00  0.00000000000E+00 -0.12821395784E+03  0.29022931585E+04  0.28994597357E+04 0.  0.
        2    1    3    3  502    0 -0.12271388174E+04 -0.76496445849E+03 -0.16753456974E+03  0.14557156769E+04  0.25500000920E-02 0. -1.
       -2    1    3    3    0  502  0.12271388174E+04  0.76496445849E+03  0.39320611905E+02  0.14465774816E+04  0.25500000920E-02 0.  1.
</event>
<event>
 5   0  0.9763851E-08  0.2897934E+04  0.7818609E-02  0.8273492E-01
       -1   -1    0    0    0  501  0.00000000000E+00  0.00000000000E+00  0.10981834986E+04  0.10981834987E+04  0.50400001928E-02 0.  1.
        1   -1    0    0  501    0  0.00000000000E+00  0.00000000000E+00 -0.19117982358E+04  0.19117982358E+04  0.50400001928E-02 0. -1.
    10030    2    1    2    0    0  0.00000000000E+00  0.00000000000E+00 -0.81361473719E+03  0.30099817345E+04  0.28979339367E+04 0.  0.
        3    1    3    3  502    0  0.45232671779E+03  0.12965808055E+04  0.73437794299E+02  0.13751779393E+04  0.10100000352E+00 0.  1.
       -3    1    3    3    0  502 -0.45232671779E+03 -0.12965808055E+04 -0.88705253149E+03  0.16348037952E+04  0.10100000352E+00 0. -1.
</event>
<event>
 5   0  0.9395744E-08  0.2900257E+04  0.7818609E-02  0.8272801E-01
       -1   -1    0    0    0  501  0.00000000000E+00  0.00000000000E+00  0.11675190855E+04  0.11675190855E+04  0.50400001928E-02 0.  1.
        1   -1    0    0  501    0  0.00000000000E+00  0.00000000000E+00 -0.18011465649E+04  0.18011465649E+04  0.50400001928E-02 0. -1.
    10030    2    1    2    0    0  0.00000000000E+00  0.00000000000E+00 -0.63362747937E+03  0.29686656504E+04  0.29002572233E+04 0.  0.
        2    1    3    3  502    0 -0.11730179201E+04  0.44386459693E+03  0.42828883171E+03  0.13252992661E+04  0.25500000920E-02 0.  1.
       -2    1    3    3    0  502  0.11730179201E+04 -0.44386459693E+03 -0.10619163111E+04  0.16433663843E+04  0.25500000920E-02 0. -1.
</event>
<event>
 5   0  0.9763851E-08  0.2899707E+04  0.7818609E-02  0.8272965E-01
       -1   -1    0    0    0  501  0.00000000000E+00  0.00000000000E+00  0.21675038101E+04  0.21675038101E+04  0.50400001928E-02 0.  1.
        1   -1    0    0  501    0  0.00000000000E+00  0.00000000000E+00 -0.96981374842E+03  0.96981374843E+03  0.50400001928E-02 0. -1.
    10030    2    1    2    0    0  0.00000000000E+00  0.00000000000E+00  0.11976900616E+04  0.31373175585E+04  0.28997068781E+04 0.  0.
        3    1    3    3  502    0 -0.33127892525E+03  0.10271616803E+04 -0.44861222343E+03  0.11687856010E+04  0.10100000352E+00 0. -1.
       -3    1    3    3    0  502  0.33127892525E+03 -0.10271616803E+04  0.16463022851E+04  0.19685319575E+04  0.10100000352E+00 0.  1.
</event>
<event>
 5   0  0.2678723E-07  0.2899017E+04  0.7818609E-02  0.8273170E-01
        2   -1    0    0  501    0  0.00000000000E+00  0.00000000000E+00  0.16377761578E+04  0.16377761578E+04  0.25500000920E-02 0.  1.
       -2   -1    0    0    0  501  0.00000000000E+00  0.00000000000E+00 -0.12828829758E+04  0.12828829758E+04  0.25500000920E-02 0. -1.
    10030    2    1    2    0    0  0.00000000000E+00  0.00000000000E+00  0.35489318196E+03  0.29206591336E+04  0.28990171790E+04 0.  0.
        5    1    3    3  502    0 -0.37109410055E+03  0.16876185698E+03  0.15788237838E+04  0.16306127763E+04  0.46999998093E+01 0.  1.
       -5    1    3    3    0  502  0.37109410055E+03 -0.16876185698E+03 -0.12239306019E+04  0.12900463573E+04  0.46999998093E+01 0. -1.
</event>
<event>
 5   0  0.2546841E-07  0.2900283E+04  0.7818609E-02  0.8272793E-01
       -2   -1    0    0    0  501  0.00000000000E+00  0.00000000000E+00  0.92450622657E+03  0.92450622657E+03  0.25500000920E-02 0.  1.
        2   -1    0    0  501    0  0.00000000000E+00  0.00000000000E+00 -0.22746307255E+04  0.22746307255E+04  0.25500000920E-02 0. -1.
    10030    2    1    2    0    0  0.00000000000E+00  0.00000000000E+00 -0.13501244989E+04  0.31991369521E+04  0.29002829303E+04 0.  0.
        1    1    3    3  502    0 -0.48204997523E+03 -0.12868167644E+04 -0.11860947356E+04  0.18152383550E+04  0.50400001928E-02 0. -1.
       -1    1    3    3    0  502  0.48204997523E+03  0.12868167644E+04 -0.16402976337E+03  0.13838985971E+04  0.50400001928E-02 0.  1.
</event>
<event>
 5   0  0.9421924E-08  0.2899807E+04  0.7818609E-02  0.8272935E-01
        1   -1    0    0  501    0  0.00000000000E+00  0.00000000000E+00  0.13217027240E+04  0.13217027240E+04  0.50400001928E-02 0.  1.
       -1   -1    0    0    0  501  0.00000000000E+00  0.00000000000E+00 -0.15905397426E+04  0.15905397426E+04  0.50400001928E-02 0. -1.
    10030    2    1    2    0    0  0.00000000000E+00  0.00000000000E+00 -0.26883701860E+03  0.29122424666E+04  0.28998073801E+04 0.  0.
        1    1    3    3  502    0  0.13131194901E+03 -0.10198877065E+04  0.89212274132E+03  0.13613584199E+04  0.50400001928E-02 0.  1.
       -1    1    3    3    0  502 -0.13131194901E+03  0.10198877065E+04 -0.11609597599E+04  0.15508840466E+04  0.50400001928E-02 0. -1.
</event>
<event>
 5   0  0.2608591E-07  0.2898544E+04  0.7818609E-02  0.8273311E-01
        2   -1    0    0  501    0  0.00000000000E+00  0.00000000000E+00  0.20590138150E+04  0.20590138150E+04  0.25500000920E-02 0. -1.
       -2   -1    0    0    0  501  0.00000000000E+00  0.00000000000E+00 -0.10200949590E+04  0.10200949590E+04  0.25500000920E-02 0.  1.
    10030    2    1    2    0    0  0.00000000000E+00  0.00000000000E+00  0.10389188559E+04  0.30791087740E+04  0.28985441954E+04 0.  0.
        2    1    3    3  502    0  0.11205343009E+04  0.90198933213E+03  0.70712139016E+03  0.16028732125E+04  0.25500000920E-02 0. -1.
       -2    1    3    3    0  502 -0.11205343009E+04 -0.90198933213E+03  0.33179746576E+03  0.14762355615E+04  0.25500000920E-02 0.  1.
</event>
<event>
 5   0  0.2678723E-07  0.2900010E+04  0.7818609E-02  0.8272874E-01
        2   -1    0    0  501    0  0.00000000000E+00  0.00000000000E+00  0.22297385158E+04  0.22297385158E+04  0.25500000920E-02 0.  1.
       -2   -1    0    0    0  501  0.00000000000E+00  0.00000000000E+00 -0.94294249278E+03  0.94294249279E+03  0.25500000920E-02 0. -1.
    10030    2    1    2    0    0  0.00000000000E+00  0.00000000000E+00  0.12867960230E+04  0.31726810086E+04  0.29000104788E+04 0.  0.
        5    1    3    3  502    0 -0.13664978165E+04 -0.32869992992E+02  0.11407083046E+03  0.13716526395E+04  0.46999998093E+01 0.  1.
       -5    1    3    3    0  502  0.13664978165E+04  0.32869992992E+02  0.11727251925E+04  0.18010283691E+04  0.46999998093E+01 0. -1.
</event>
<event>
 5   0  0.9395744E-08  0.2900632E+04  0.7818609E-02  0.8272689E-01
        1   -1    0    0  501    0  0.00000000000E+00  0.00000000000E+00  0.18066249752E+04  0.18066249752E+04  0.50400001928E-02 0.  1.
       -1   -1    0    0    0  501  0.00000000000E+00  0.00000000000E+00 -0.11642794699E+04  0.11642794699E+04  0.50400001928E-02 0. -1.
    10030    2    1    2    0    0  0.00000000000E+00  0.00000000000E+00  0.64234550525E+03  0.29709044451E+04  0.29006319094E+04 0.  0.
        2    1    3    3  502    0 -0.13960783909E+04  0.13124629022E+03 -0.58145132344E+02  0.14034391040E+04  0.25500000920E-02 0.  1.
       -2    1    3    3    0  502  0.13960783909E+04 -0.13124629022E+03  0.70049063760E+03  0.15674653411E+04  0.25500000920E-02 0. -1.
</event>
<event>
 5   0  0.2608591E-07  0.2900389E+04  0.7818609E-02  0.8272762E-01
        2   -1    0    0  501    0  0.00000000000E+00  0.00000000000E+00  0.28203556809E+04  0.28203556809E+04  0.25500000920E-02 0.  1.
       -2   -1    0    0    0  501  0.00000000000E+00  0.00000000000E+00 -0.74567319416E+03  0.74567319417E+03  0.25500000920E-02 0. -1.
    10030    2    1    2    0    0  0.00000000000E+00  0.00000000000E+00  0.20746824867E+04  0.35660288751E+04  0.29003886838E+04 0.  0.
        2    1    3    3  502    0  0.13838877836E+04  0.43115773142E+03  0.98206508459E+03  0.17508552816E+04  0.25500000920E-02 0.  1.
       -2    1    3    3    0  502 -0.13838877836E+04 -0.43115773142E+03  0.10926174021E+04  0.18151735934E+04  0.25500000920E-02 0. -1.
</event>
<event>
 5   0  0.2534588E-07  0.2899095E+04  0.7818609E-02  0.8273147E-01
        2   -1    0    0  501    0  0.00000000000E+00  0.00000000000E+00  0.12109591357E+04  0.12109591357E+04  0.25500000920E-02 0. -1.
       -2   -1    0    0    0  501  0.00000000000E+00  0.00000000000E+00 -0.17351440133E+04  0.17351440133E+04  0.25500000920E-02 0.  1.
    10030    2    1    2    0    0  0.00000000000E+00  0.00000000000E+00 -0.52418487768E+03  0.29461031490E+04  0.28990953725E+04 0.  0.
        3    1    3    3  502    0  0.31145522485E+02 -0.80863239766E+02 -0.17325095704E+04  0.17346752806E+04  0.10100000352E+00 0.  1.
       -3    1    3    3    0  502 -0.31145522485E+02  0.80863239766E+02  0.12083246928E+04  0.12114278685E+04  0.10100000352E+00 0. -1.
</event>
<event>
 5   0  0.8407500E-08  0.2897929E+04  0.7818609E-02  0.8273494E-01
        3   -1    0    0  501    0  0.00000000000E+00  0.00000000000E+00  0.11091697350E+04  0.11091697396E+04  0.10100000352E+00 0.  1.
       -3   -1    0    0    0  501  0.00000000000E+00  0.00000000000E+00 -0.18928561131E+04  0.18928561158E+04  0.10100000352E+00 0. -1.
    10030    2    1    2    0    0  0.00000000000E+00  0.00000000000E+00 -0.78368637813E+03  0.30020258554E+04  0.28979294155E+04 0.  0.
        3    1    3    3  502    0 -0.10078267509E+04 -0.10325271222E+04 -0.25413310411E+03  0.14650633647E+04  0.10100000352E+00 0. -1.
       -3    1    3    3    0  502  0.10078267509E+04  0.10325271222E+04 -0.52955327402E+03  0.15369624908E+04  0.10100000352E+00 0.  1.
</event>
<event>
 5   0  0.9388076E-08  0.2899261E+04  0.7818609E-02  0.8273097E-01
       -1   -1    0    0    0  501  0.00000000000E+00  0.00000000000E+00  0.79797502414E+03  0.79797502415E+03  0.50400001928E-02 0. -1.
        1   -1    0    0  501    0  0.00000000000E+00  0.00000000000E+00 -0.26334510299E+04  0.26334510299E+04  0.50400001928E-02 0.  1.
    10030    2    1    2    0    0  0.00000000000E+00  0.00000000000E+00 -0.18354760058E+04  0.34314260541E+04  0.28992606983E+04 0.  0.
        5    1    3    3  502    0 -0.59332642832E+03  0.68891427524E+03  0.41855831061E+03  0.10009257108E+04  0.46999998093E+01 0. -1.
       -5    1    3    3    0  502  0.59332642832E+03 -0.68891427524E+03 -0.22540343164E+04  0.24305003433E+04  0.46999998093E+01 0.  1.
</event>
<event>
 5   0  0.2546841E-07  0.2902121E+04  0.7818609E-02  0.8272247E-01
       -2   -1    0    0    0  501  0.00000000000E+00  0.00000000000E+00  0.10398093575E+04  0.10398093575E+04  0.25500000920E-02 0.  1.
        2   -1    0    0  501    0  0.00000000000E+00  0.00000000000E+00 -0.20249646303E+04  0.20249646303E+04  0.25500000920E-02 0. -1.
    10030    2    1    2    0    0  0.00000000000E+00  0.00000000000E+00 -0.98515527285E+03  0.30647739878E+04  0.29021214111E+04 0.  0.
        1    1    3    3  502    0  0.11577881900E+04 -0.79296335959E+03 -0.88247578837E+03  0.16577176779E+04  0.50400001928E-02 0.  1.
       -1    1    3    3    0  502 -0.11577881900E+04  0.79296335959E+03 -0.10267948448E+03  0.14070563099E+04  0.50400001928E-02 0. -1.
</event>
<event>
 5   0  0.9443352E-08  0.2900250E+04  0.7818609E-02  0.8272803E-01
        1   -1    0    0  501    0  0.00000000000E+00  0.00000000000E+00  0.17690374993E+04  0.17690374993E+04  0.50400001928E-02 0. -1.
       -1   -1    0    0    0  501  0.00000000000E+00  0.00000000000E+00 -0.11887046896E+04  0.11887046896E+04  0.50400001928E-02 0.  1.
    10030    2    1    2    0    0  0.00000000000E+00  0.00000000000E+00  0.58033280976E+03  0.29577421889E+04  0.29002504523E+04 0.  0.
        4    1    3    3  502    0 -0.24735006463E+03 -0.33181107024E+03 -0.11271971652E+04  0.12007729606E+04  0.12699999809E+01 0.  1.
       -4    1    3    3    0  502  0.24735006463E+03  0.33181107024E+03  0.17075299750E+04  0.17569692283E+04  0.12699999809E+01 0. -1.
</event>
<event>
 5   0  0.9395744E-08  0.2899227E+04  0.7818609E-02  0.8273107E-01
       -1   -1    0    0    0  501  0.00000000000E+00  0.00000000000E+00  0.11032551824E+04  0.11032551824E+04  0.50400001928E-02 0.  1.
        1   -1    0    0  501    0  0.00000000000E+00  0.00000000000E+00 -0.19047088465E+04  0.19047088465E+04  0.50400001928E-02 0. -1.
    10030    2    1    2    0    0  0.00000000000E+00  0.00000000000E+00 -0.80145366410E+03  0.30079640289E+04  0.28992274184E+04 0.  0.
        2    1    3    3  502    0 -0.14965820903E+03 -0.81678105225E+03 -0.16335046012E+04  0.18324481299E+04  0.25500000920E-02 0. -1.
       -2    1    3    3    0  502  0.14965820903E+03  0.81678105225E+03  0.83205093708E+03  0.11755158990E+04  0.25500000920E-02 0.  1.
</event>
<event>
 5   0  0.2492232E-07  0.2900702E+04  0.7818609E-02  0.8272669E-01
        2   -1    0    0  501    0  0.00000000000E+00  0.00000000000E+00  0.19289682530E+04  0.19289682530E+04  0.25500000920E-02 0.  1.
       -2   -1    0    0    0  501  0.00000000000E+00  0.00000000000E+00 -0.10904887553E+04  0.10904887553E+04  0.25500000920E-02 0. -1.
    10030    2    1    2    0    0  0.00000000000E+00  0.00000000000E+00  0.83847949770E+03  0.30194570083E+04  0.29007021145E+04 0.  0.
        4    1    3    3  502    0  0.40817403330E+03 -0.28400859477E+03  0.18374607482E+04  0.19035573376E+04  0.12699999809E+01 0.  1.
       -4    1    3    3    0  502 -0.40817403330E+03  0.28400859477E+03 -0.99898125053E+03  0.11158996707E+04  0.12699999809E+01 0. -1.
</event>
<event>
 5   0  0.2608591E-07  0.2893022E+04  0.7818609E-02  0.8274957E-01
        2   -1    0    0  501    0  0.00000000000E+00  0.00000000000E+00  0.25760055317E+04  0.25760055317E+04  0.25500000920E-02 0. -1.
       -2   -1    0    0    0  501  0.00000000000E+00  0.00000000000E+00 -0.81226301079E+03  0.81226301079E+03  0.25500000920E-02 0.  1.
    10030    2    1    2    0    0  0.00000000000E+00  0.00000000000E+00  0.17637425209E+04  0.33882685425E+04  0.28930219556E+04 0.  0.
        2    1    3    3  502    0 -0.11154262449E+04 -0.49752541806E+02  0.19589446504E+04  0.22547982541E+04  0.25500000920E-02 0. -1.
       -2    1    3    3    0  502  0.11154262449E+04  0.49752541806E+02 -0.19520212950E+03  0.11334702884E+04  0.25500000920E-02 0.  1.
</event>
<event>
 5   0  0.2534588E-07  0.2897653E+04  0.7818609E-02  0.8273576E-01
        2   -1    0    0  501    0  0.00000000000E+00  0.00000000000E+00  0.32707344328E+04  0.32707344328E+04  0.25500000920E-02 0.  1.
       -2   -1    0    0    0  501  0.00000000000E+00  0.00000000000E+00 -0.64178189265E+03  0.64178189265E+03  0.25500000920E-02 0. -1.
    10030    2    1    2    0    0  0.00000000000E+00  0.00000000000E+00  0.26289525402E+04  0.39125163255E+04  0.28976529362E+04 0.  0.
        3    1    3    3  502    0 -0.32648873768E+02  0.14134284180E+04  0.17419967566E+04  0.22435236910E+04  0.10100000352E+00 0.  1.
       -3    1    3    3    0  502  0.32648873768E+02 -0.14134284180E+04  0.88695578357E+03  0.16689926345E+04  0.10100000352E+00 0. -1.
</event>
<event>
 5   0  0.9395744E-08  0.2898075E+04  0.7818609E-02  0.8273450E-01
       -1   -1    0    0    0  501  0.00000000000E+00  0.00000000000E+00  0.12484772126E+04  0.12484772126E+04  0.50400001928E-02 0.  1.
        1   -1    0    0  501    0  0.00000000000E+00  0.00000000000E+00 -0.16818171358E+04  0.16818171359E+04  0.50400001928E-02 0. -1.
    10030    2    1    2    0    0  0.00000000000E+00  0.00000000000E+00 -0.43333992327E+03  0.29302943484E+04  0.28980754785E+04 0.  0.
        2    1    3    3  502    0  0.12008494052E+04  0.60161362124E+03  0.33318836800E+03  0.13838326242E+04  0.25500000920E-02 0. -1.
       -2    1    3    3    0  502 -0.12008494052E+04 -0.60161362124E+03 -0.76652829127E+03  0.15464617242E+04  0.25500000920E-02 0.  1.
</event>
<event>
 5   0  0.2492232E-07  0.2899624E+04  0.7818609E-02  0.8272989E-01
       -2   -1    0    0    0  501  0.00000000000E+00  0.00000000000E+00  0.14902784411E+04  0.14902784411E+04  0.25500000920E-02 0. -1.
        2   -1    0    0  501    0  0.00000000000E+00  0.00000000000E+00 -0.14104447533E+04  0.14104447533E+04  0.25500000920E-02 0.  1.
    10030    2    1    2    0    0  0.00000000000E+00  0.00000000000E+00  0.79833687822E+02  0.29007231944E+04  0.28996243952E+04 0.  0.
        4    1    3    3  502    0 -0.13915359706E+04 -0.33942367205E+03  0.26444121491E+03  0.14565409557E+04  0.12699999809E+01 0. -1.
       -4    1    3    3    0  502  0.13915359706E+04  0.33942367205E+03 -0.18460752709E+03  0.14441822387E+04  0.12699999809E+01 0.  1.
</event>
<event>
 5   0  0.2534588E-07  0.2899719E+04  0.7818609E-02  0.8272961E-01
        2   -1    0    0  501    0  0.00000000000E+00  0.00000000000E+00  0.16471056234E+04  0.16471056234E+04  0.25500000920E-02 0.  1.
       -2   -1    0    0    0  501  0.00000000000E+00  0.00000000000E+00 -0.12762340633E+04  0.12762340633E+04  0.25500000920E-02 0. -1.
    10030    2    1    2    0    0  0.00000000000E+00  0.00000000000E+00  0.37087156010E+03  0.29233396867E+04  0.28997188156E+04 0.  0.
        3    1    3    3  502    0 -0.63112991097E+03  0.52058596405E+03  0.13921647905E+04  0.16147623741E+04  0.10100000352E+00 0.  1.
       -3    1    3    3    0  502  0.63112991097E+03 -0.52058596405E+03 -0.10212932304E+04  0.13085773127E+04  0.10100000352E+00 0. -1.
</event>
<event>
 5   0  0.9763851E-08  0.2902613E+04  0.7818609E-02  0.8272101E-01
        1   -1    0    0  501    0  0.00000000000E+00  0.00000000000E+00  0.20259003252E+04  0.20259003253E+04  0.50400001928E-02 0. -1.
       -1   -1    0    0    0  501  0.00000000000E+00  0.00000000000E+00 -0.10396811024E+04  0.10396811025E+04  0.50400001928E-02 0.  1.
    10030    2    1    2    0    0  0.00000000000E+00  0.00000000000E+00  0.98621922281E+03  0.30655814277E+04  0.29026128117E+04 0.  0.
        3    1    3    3  502    0  0.33134427409E+03 -0.13192429397E+04  0.10275852981E+04  0.17047353217E+04  0.10100000352E+00 0. -1.
       -3    1    3    3    0  502 -0.33134427409E+03  0.13192429397E+04 -0.41366075293E+02  0.13608461060E+04  0.10100000352E+00 0.  1.
</event>
<event>
 5   0  0.2534588E-07  0.2896342E+04  0.7818609E-02  0.8273967E-01
        2   -1    0    0  501    0  0.00000000000E+00  0.00000000000E+00  0.98309518723E+03  0.98309518723E+03  0.25500000920E-02 0.  1.
       -2   -1    0    0    0  501  0.00000000000E+00  0.00000000000E+00 -0.21332614834E+04  0.21332614834E+04  0.25500000920E-02 0. -1.
    10030    2    1    2    0    0  0.00000000000E+00  0.00000000000E+00 -0.11501662962E+04  0.31163566706E+04  0.28963418979E+04 0.  0.
        3    1    3    3  502    0 -0.21472822087E+03 -0.28746043284E+03  0.93451146864E+03  0.10010261757E+04  0.10100000352E+00 0.  1.
       -3    1    3    3    0  502  0.21472822087E+03  0.28746043284E+03 -0.20846777648E+04  0.21153304949E+04  0.10100000352E+00 0. -1.
</event>
<event>
 5   0  0.9395744E-08  0.2900089E+04  0.7818609E-02  0.8272851E-01
       -1   -1    0    0    0  501  0.00000000000E+00  0.00000000000E+00  0.15888317339E+04  0.15888317339E+04  0.50400001928E-02 0.  1.
        1   -1    0    0  501    0  0.00000000000E+00  0.00000000000E+00 -0.13233801980E+04  0.13233801981E+04  0.50400001928E-02 0. -1.
    10030    2    1    2    0    0  0.00000000000E+00  0.00000000000E+00  0.26545153584E+03  0.29122119319E+04  0.29000885881E+04 0.  0.
        2    1    3    3  502    0 -0.73864046154E+03 -0.11971253553E+02 -0.11202464227E+04  0.13418960801E+04  0.25500000920E-02 0. -1.
       -2    1    3    3    0  502  0.73864046154E+03  0.11971253553E+02  0.13856979585E+04  0.15703158518E+04  0.25500000920E-02 0.  1.
</event>
<event>
 5   0  0.9421924E-08  0.2901284E+04  0.7818609E-02  0.8272496E-01
        1   -1    0    0  501    0  0.00000000000E+00  0.00000000000E+00  0.20400665705E+04  0.20400665705E+04  0.50400001928E-02 0. -1.
       -1   -1    0    0    0  501  0.00000000000E+00  0.00000000000E+00 -0.10315162857E+04  0.10315162857E+04  0.50400001928E-02 0.  1.
    10030    2    1    2    0    0  0.00000000000E+00  0.00000000000E+00  0.10085502848E+04  0.30715828563E+04  0.29012837789E+04 0.  0.
        1    1    3    3  502    0 -0.54100594390E+03  0.11339113880E+04  0.12720460127E+04  0.17878880071E+04  0.50400001928E-02 0. -1.
       -1    1    3    3    0  502  0.54100594390E+03 -0.11339113880E+04 -0.26349572790E+03  0.12836948492E+04  0.50400001928E-02 0.  1.
</event>
<event>
 5   0  0.2492232E-07  0.2903327E+04  0.7818609E-02  0.8271888E-01
       -2   -1    0    0    0  501  0.00000000000E+00  0.00000000000E+00  0.10639913787E+04  0.10639913787E+04  0.25500000920E-02 0.  1.
        2   -1    0    0  501    0  0.00000000000E+00  0.00000000000E+00 -0.19805869971E+04  0.19805869971E+04  0.25500000920E-02 0. -1.
    10030    2    1    2    0    0  0.00000000000E+00  0.00000000000E+00 -0.91659561833E+03  0.30445783758E+04  0.29033273944E+04 0.  0.
        4    1    3    3  502    0 -0.10344731483E+04  0.66955366649E+01  0.60965280207E+03  0.12007737825E+04  0.12699999809E+01 0.  1.
       -4    1    3    3    0  502  0.10344731483E+04 -0.66955366649E+01 -0.15262484204E+04  0.18438045933E+04  0.12699999809E+01 0. -1.
</event>
<event>
 5   0  0.2492232E-07  0.2900515E+04  0.7818609E-02  0.8272724E-01
        2   -1    0    0  501    0  0.00000000000E+00  0.00000000000E+00  0.94329709305E+03  0.94329709305E+03  0.25500000920E-02 0.  1.
       -2   -1    0    0    0  501  0.00000000000E+00  0.00000000000E+00 -0.22296760200E+04  0.22296760200E+04  0.25500000920E-02 0. -1.
    10030    2    1    2    0    0  0.00000000000E+00  0.00000000000E+00 -0.12863789269E+04  0.31729731130E+04  0.29005150633E+04 0.  0.
        4    1    3    3  502    0  0.14406385223E+04  0.15554218217E+03 -0.70894004188E+03  0.16131429937E+04  0.12699999809E+01 0.  1.
       -4    1    3    3    0  502 -0.14406385223E+04 -0.15554218217E+03 -0.57743888502E+03  0.15598301193E+04  0.12699999809E+01 0. -1.
</event>
<event>
 5   0  0.2492232E-07  0.2902579E+04  0.7818609E-02  0.8272110E-01
        2   -1    0    0  501    0  0.00000000000E+00  0.00000000000E+00  0.11956422552E+04  0.11956422552E+04  0.25500000920E-02 0.  1.
       -2   -1    0    0    0  501  0.00000000000E+00  0.00000000000E+00 -0.17615985272E+04  0.17615985272E+04  0.25500000920E-02 0. -1.
    10030    2    1    2    0    0  0.00000000000E+00  0.00000000000E+00 -0.56595627203E+03  0.29572407824E+04  0.29025792915E+04 0.  0.
        4    1    3    3  502    0  0.11159769204E+04  0.48885930986E+03  0.52044836140E+03  0.13248607555E+04  0.12699999809E+01 0.  1.
       -4    1    3    3    0  502 -0.11159769204E+04 -0.48885930986E+03 -0.10864046334E+04  0.16323800269E+04  0.12699999809E+01 0. -1.
</event>
<event>
 5   0  0.9421924E-08  0.2902072E+04  0.7818609E-02  0.8272261E-01
       -1   -1    0    0    0  501  0.00000000000E+00  0.00000000000E+00  0.15450081949E+04  0.15450081949E+04  0.50400001928E-02 0.  1.
        1   -1    0    0  501    0  0.00000000000E+00  0.00000000000E+00 -0.13627793571E+04  0.13627793571E+04  0.50400001928E-02 0. -1.
    10030    2    1    2    0    0  0.00000000000E+00  0.00000000000E+00  0.18222883780E+03  0.29077875520E+04  0.29020718631E+04 0.  0.
        1    1    3    3  502    0  0.16950140730E+03  0.10055351162E+04  0.11254623018E+04  0.15187155724E+04  0.50400001928E-02 0.  1.
       -1    1    3    3    0  502 -0.16950140730E+03 -0.10055351162E+04 -0.94323346396E+03  0.13890719796E+04  0.50400001928E-02 0. -1.
</event>
<event>
 5   0  0.2534588E-07  0.2900247E+04  0.7818609E-02  0.8272804E-01
        2   -1    0    0  501    0  0.00000000000E+00  0.00000000000E+00  0.13932473074E+04  0.13932473074E+04  0.25500000920E-02 0.  1.
       -2   -1    0    0    0  501  0.00000000000E+00  0.00000000000E+00 -0.15093219996E+04  0.15093219996E+04  0.25500000920E-02 0. -1.
    10030    2    1    2    0    0  0.00000000000E+00  0.00000000000E+00 -0.11607469228E+03  0.29025693070E+04  0.29002474460E+04 0.  0.
        3    1    3    3  502    0  0.39143974580E+03 -0.11116882343E+04  0.78749581456E+03  0.14174715069E+04  0.10100000352E+00 0.  1.
       -3    1    3    3    0  502 -0.39143974580E+03  0.11116882343E+04 -0.90357050685E+03  0.14850978001E+04  0.10100000352E+00 0. -1.
</event>
<event>
 5   0  0.2546841E-07  0.2900501E+04  0.7818609E-02  0.8272728E-01
       -2   -1    0    0    0  501  0.00000000000E+00  0.00000000000E+00  0.93546238456E+03  0.93546238456E+03  0.25500000920E-02 0. -1.
        2   -1    0    0  501    0  0.00000000000E+00  0.00000000000E+00 -0.22483288013E+04  0.22483288013E+04  0.25500000920E-02 0.  1.
    10030    2    1    2    0    0  0.00000000000E+00  0.00000000000E+00 -0.13128664168E+04  0.31837911859E+04  0.29005013510E+04 0.  0.
        1    1    3    3  502    0 -0.91967781787E+03 -0.25190624502E+03 -0.18558411885E+04  0.20864828209E+04  0.50400001928E-02 0.  1.
       -1    1    3    3    0  502  0.91967781787E+03  0.25190624502E+03  0.54297477179E+03  0.10973083649E+04  0.50400001928E-02 0. -1.
</event>
<event>
 5   0  0.9395744E-08  0.2896264E+04  0.7818609E-02  0.8273990E-01
       -1   -1    0    0    0  501  0.00000000000E+00  0.00000000000E+00  0.96453078139E+03  0.96453078141E+03  0.50400001928E-02 0. -1.
        1   -1    0    0  501    0  0.00000000000E+00  0.00000000000E+00 -0.21742033254E+04  0.21742033254E+04  0.50400001928E-02 0.  1.
    10030    2    1    2    0    0  0.00000000000E+00  0.00000000000E+00 -0.12096725440E+04  0.31387341068E+04  0.28962638225E+04 0.  0.
        2    1    3    3  502    0 -0.18915040257E+03  0.34961898651E+03 -0.21139211930E+04  0.21509705067E+04  0.25500000920E-02 0.  1.
       -2    1    3    3    0  502  0.18915040257E+03 -0.34961898651E+03  0.90424864898E+03  0.98776360011E+03  0.25500000920E-02 0. -1.
</event>
<event>
 5   0  0.9421924E-08  0.2898401E+04  0.7818609E-02  0.8273353E-01
        1   -1    0    0  501    0  0.00000000000E+00  0.00000000000E+00  0.19862220770E+04  0.19862220770E+04  0.50400001928E-02 0.  1.
       -1   -1    0    0    0  501  0.00000000000E+00  0.00000000000E+00 -0.10573750063E+04  0.10573750063E+04  0.50400001928E-02 0. -1.
    10030    2    1    2    0    0  0.00000000000E+00  0.00000000000E+00  0.92884707070E+03  0.30435970834E+04  0.28984006495E+04 0.  0.
        1    1    3    3  502    0  0.12742786059E+04  0.17687013482E+03 -0.23616604034E+03  0.13079921287E+04  0.50400001928E-02 0. -1.
       -1    1    3    3    0  502 -0.12742786059E+04 -0.17687013482E+03  0.11650131110E+04  0.17356049547E+04  0.50400001928E-02 0.  1.
</event>
<event>
 5   0  0.9395744E-08  0.2897478E+04  0.7818609E-02  0.8273628E-01
        1   -1    0    0  501    0  0.00000000000E+00  0.00000000000E+00  0.21377135492E+04  0.21377135492E+04  0.50400001928E-02 0. -1.
       -1   -1    0    0    0  501  0.00000000000E+00  0.00000000000E+00 -0.98181732655E+03  0.98181732656E+03  0.50400001928E-02 0.  1.
    10030    2    1    2    0    0  0.00000000000E+00  0.00000000000E+00  0.11558962227E+04  0.31195308758E+04  0.28974776630E+04 0.  0.
        2    1    3    3  502    0 -0.59046593740E+03 -0.48187182679E+03  0.19044387195E+04  0.20512769967E+04  0.25500000920E-02 0. -1.
       -2    1    3    3    0  502  0.59046593740E+03  0.48187182679E+03 -0.74854249683E+03  0.10682538791E+04  0.25500000920E-02 0.  1.
</event>
<event>
 5   0  0.2534588E-07  0.2899644E+04  0.7818609E-02  0.8272984E-01
       -2   -1    0    0    0  501  0.00000000000E+00  0.00000000000E+00  0.11154240266E+04  0.11154240266E+04  0.25500000920E-02 0.  1.
        2   -1    0    0  501    0  0.00000000000E+00  0.00000000000E+00 -0.18844700978E+04  0.18844700978E+04  0.25500000920E-02 0. -1.
    10030    2    1    2    0    0  0.00000000000E+00  0.00000000000E+00 -0.76904607119E+03  0.29998941244E+04  0.28996435812E+04 0.  0.
        3    1    3    3  502    0  0.12364110302E+04  0.39808774966E+03  0.28179132928E+03  0.13291322190E+04  0.10100000352E+00 0.  1.
       -3    1    3    3    0  502 -0.12364110302E+04 -0.39808774966E+03 -0.10508374005E+04  0.16707619054E+04  0.10100000352E+00 0. -1.
</event>
<event>
 5   0  0.9395744E-08  0.2900967E+04  0.7818609E-02  0.8272590E-01
        1   -1    0    0  501    0  0.00000000000E+00  0.00000000000E+00  0.19963972526E+04  0.19963972526E+04  0.50400001928E-02 0.  1.
       -1   -1    0    0    0  501  0.00000000000E+00  0.00000000000E+00 -0.10538493584E+04  0.10538493584E+04  0.50400001928E-02 0. -1.
    10030    2    1    2    0    0  0.00000000000E+00  0.00000000000E+00  0.94254789421E+03  0.30502466110E+04  0.29009667104E+04 0.  0.
        2    1    3    3  502    0 -0.57828707612E+03  0.82779144568E+03 -0.62358051215E+03  0.11868054917E+04  0.25500000920E-02 0. -1.
       -2    1    3    3    0  502  0.57828707612E+03 -0.82779144568E+03  0.15661284064E+04  0.18634411193E+04  0.25500000920E-02 0.  1.
</event>
<event>
 5   0  0.2492232E-07  0.2899718E+04  0.7818609E-02  0.8272961E-01
        2   -1    0    0  501    0  0.00000000000E+00  0.00000000000E+00  0.10026510361E+04  0.10026510361E+04  0.25500000920E-02 0. -1.
       -2   -1    0    0    0  501  0.00000000000E+00  0.00000000000E+00 -0.20965329649E+04  0.20965329649E+04  0.25500000920E-02 0.  1.
    10030    2    1    2    0    0  0.00000000000E+00  0.00000000000E+00 -0.10938819288E+04  0.30991840010E+04  0.28997178824E+04 0.  0.
        4    1    3    3  502    0  0.54799155397E+03 -0.47102389515E+02 -0.19807017760E+04  0.20556494148E+04  0.12699999809E+01 0.  1.
       -4    1    3    3    0  502 -0.54799155397E+03  0.47102389515E+02  0.88681984716E+03  0.10435345862E+04  0.12699999809E+01 0. -1.
</event>
<event>
 5   0  0.9763851E-08  0.2900264E+04  0.7818609E-02  0.8272799E-01
        1   -1    0    0  501    0  0.00000000000E+00  0.00000000000E+00  0.14711594777E+04  0.14711594777E+04  0.50400001928E-02 0.  1.
       -1   -1    0    0    0  501  0.00000000000E+00  0.00000000000E+00 -0.14294054019E+04  0.14294054019E+04  0.50400001928E-02 0. -1.
    10030    2    1    2    0    0  0.00000000000E+00  0.00000000000E+00  0.41754075756E+02  0.29005648796E+04  0.29002643358E+04 0.  0.
        3    1    3    3  502    0  0.13982564235E+04  0.35423031134E+03  0.17016793997E+03  0.14524315052E+04  0.10100000352E+00 0. -1.
       -3    1    3    3    0  502 -0.13982564235E+04 -0.35423031134E+03 -0.12841386422E+03  0.14481333744E+04  0.10100000352E+00 0.  1.
</event>
<event>
 5   0  0.9421924E-08  0.2904973E+04  0.7818609E-02  0.8271399E-01
        1   -1    0    0  501    0  0.00000000000E+00  0.00000000000E+00  0.15373705553E+04  0.15373705553E+04  0.50400001928E-02 0. -1.
       -1   -1    0    0    0  501  0.00000000000E+00  0.00000000000E+00 -0.13722893869E+04  0.13722893869E+04  0.50400001928E-02 0.  1.
    10030    2    1    2    0    0  0.00000000000E+00  0.00000000000E+00  0.16508116837E+03  0.29096599422E+04  0.29049731818E+04 0.  0.
        1    1    3    3  502    0 -0.11241422515E+04  0.29093682741E+03  0.95651769311E+03  0.15044155464E+04  0.50400001928E-02 0. -1.
       -1    1    3    3    0  502  0.11241422515E+04 -0.29093682741E+03 -0.79143652473E+03  0.14052443958E+04  0.50400001928E-02 0.  1.
</event>
<event>
 5   0  0.2492232E-07  0.2897779E+04  0.7818609E-02  0.8273539E-01
        2   -1    0    0  501    0  0.00000000000E+00  0.00000000000E+00  0.14395238773E+04  0.14395238773E+04  0.25500000920E-02 0.  1.
       -2   -1    0    0    0  501  0.00000000000E+00  0.00000000000E+00 -0.14583159198E+04  0.14583159198E+04  0.25500000920E-02 0. -1.
    10030    2    1    2    0    0  0.00000000000E+00  0.00000000000E+00 -0.18792042467E+02  0.28978397971E+04  0.28977788647E+04 0.  0.
        4    1    3    3  502    0 -0.59456688923E+03  0.12205672208E+04 -0.51535611218E+03  0.14522009714E+04  0.12699999809E+01 0.  1.
       -4    1    3    3    0  502  0.59456688923E+03 -0.12205672208E+04  0.49656406971E+03  0.14456388257E+04  0.12699999809E+01 0. -1.
</event>
<event>
 5   0  0.2678723E-07  0.2899632E+04  0.7818609E-02  0.8272987E-01
       -2   -1    0    0    0  501  0.00000000000E+00  0.00000000000E+00  0.90091730282E+03  0.90091730282E+03  0.25500000920E-02 0.  1.
        2   -1    0    0  501    0  0.00000000000E+00  0.00000000000E+00 -0.23331407284E+04  0.23331407284E+04  0.25500000920E-02 0. -1.
    10030    2    1    2    0    0  0.00000000000E+00  0.00000000000E+00 -0.14322234256E+04  0.32340580313E+04  0.28996322885E+04 0.  0.
        5    1    3    3  502    0  0.10536603326E+04 -0.99242661982E+03 -0.80831461498E+03  0.16578616646E+04  0.46999998093E+01 0. -1.
       -5    1    3    3    0  502 -0.10536603326E+04  0.99242661982E+03 -0.62390881065E+03  0.15761963666E+04  0.46999998093E+01 0.  1.
</event>
<event>
 5   0  0.9395744E-08  0.2902134E+04  0.7818609E-02  0.8272243E-01
       -1   -1    0    0    0  501  0.00000000000E+00  0.00000000000E+00  0.14321152061E+04  0.14321152061E+04  0.50400001928E-02 0. -1.
        1   -1    0    0  501    0  0.00000000000E+00  0.00000000000E+00 -0.14702699219E+04  0.14702699220E+04  0.50400001928E-02 0.  1.
    10030    2    1    2    0    0  0.00000000000E+00  0.00000000000E+00 -0.38154715853E+02  0.29023851281E+04  0.29021343265E+04 0.  0.
        2    1    3    3  502    0  0.85059070226E+03  0.80705944315E+03  0.83583359180E+03  0.14399539162E+04  0.25500000920E-02 0. -1.
       -2    1    3    3    0  502 -0.85059070226E+03 -0.80705944315E+03 -0.87398830765E+03  0.14624312119E+04  0.25500000920E-02 0.  1.
</event>
<event>
 5   0  0.9443352E-08  0.2900019E+04  0.7818609E-02  0.8272872E-01
        1   -1    0    0  501    0  0.00000000000E+00  0.00000000000E+00  0.26539141898E+04  0.26539141898E+04  0.50400001928E-02 0.  1.
       -1   -1    0    0    0  501  0.00000000000E+00  0.00000000000E+00 -0.79223661670E+03  0.79223661671E+03  0.50400001928E-02 0. -1.
    10030    2    1    2    0    0  0.00000000000E+00  0.00000000000E+00  0.18616775731E+04  0.34461508065E+04  0.29000193094E+04 0.  0.
        4    1    3    3  502    0 -0.49301056635E+03 -0.98500981429E+03 -0.18973031493E+03  0.11177222187E+04  0.12699999809E+01 0. -1.
       -4    1    3    3    0  502  0.49301056635E+03  0.98500981429E+03  0.20514078880E+04  0.23284285878E+04  0.12699999809E+01 0.  1.
</event>
<event>
 5   0  0.9421924E-08  0.2901793E+04  0.7818609E-02  0.8272344E-01
        1   -1    0    0  501    0  0.00000000000E+00  0.00000000000E+00  0.21158006531E+04  0.21158006531E+04  0.50400001928E-02 0.  1.
       -1   -1    0    0    0  501  0.00000000000E+00  0.00000000000E+00 -0.99494284099E+03  0.99494284100E+03  0.50400001928E-02 0. -1.
    10030    2    1    2    0    0  0.00000000000E+00  0.00000000000E+00  0.11208578122E+04  0.31107434942E+04  0.29017930407E+04 0.  0.
        1    1    3    3  502    0 -0.98336714828E+03  0.20418799392E+03  0.16829168662E+04  0.19598247023E+04  0.50400001928E-02 0.  1.
       -1    1    3    3    0  502  0.98336714828E+03 -0.20418799392E+03 -0.56205905405E+03  0.11509187919E+04  0.50400001928E-02 0. -1.
</event>
<event>
 5   0  0.9388076E-08  0.2901641E+04  0.7818609E-02  0.8272389E-01
        1   -1    0    0  501    0  0.00000000000E+00  0.00000000000E+00  0.24664391669E+04  0.24664391669E+04  0.50400001928E-02 0.  1.
       -1   -1    0    0    0  501  0.00000000000E+00  0.00000000000E+00 -0.85340838775E+03  0.85340838777E+03  0.50400001928E-02 0. -1.
    10030    2    1    2    0    0  0.00000000000E+00  0.00000000000E+00  0.16130307792E+04  0.33198475547E+04  0.29016408275E+04 0.  0.
        5    1    3    3  502    0  0.10970556018E+04 -0.32646722238E+03 -0.21345754533E+03  0.11643444741E+04  0.46999998093E+01 0. -1.
       -5    1    3    3    0  502 -0.10970556018E+04  0.32646722238E+03  0.18264883245E+04  0.21555030806E+04  0.46999998093E+01 0.  1.
</event>
<event>
 5   0  0.9763851E-08  0.2899643E+04  0.7818609E-02  0.8272984E-01
       -1   -1    0    0    0  501  0.00000000000E+00  0.00000000000E+00  0.69924980039E+03  0.69924980041E+03  0.50400001928E-02 0.  1.
        1   -1    0    0  501    0  0.00000000000E+00  0.00000000000E+00 -0.30060545702E+04  0.30060545702E+04  0.50400001928E-02 0. -1.
    10030    2    1    2    0    0  0.00000000000E+00  0.00000000000E+00 -0.23068047698E+04  0.37053043706E+04  0.28996434665E+04 0.  0.
        3    1    3    3  502    0 -0.76014318727E+03  0.43005585231E+02 -0.27300392587E+04  0.28342162073E+04  0.10100000352E+00 0. -1.
       -3    1    3    3    0  502  0.76014318727E+03 -0.43005585231E+02  0.42323448887E+03  0.87108816333E+03  0.10100000352E+00 0.  1.
</event>
<event>
 5   0  0.2546841E-07  0.2898754E+04  0.7818609E-02  0.8273248E-01
        2   -1    0    0  501    0  0.00000000000E+00  0.00000000000E+00  0.20861374787E+04  0.20861374787E+04  0.25500000920E-02 0.  1.
       -2   -1    0    0    0  501  0.00000000000E+00  0.00000000000E+00 -0.10069775233E+04  0.10069775233E+04  0.25500000920E-02 0. -1.
    10030    2    1    2    0    0  0.00000000000E+00  0.00000000000E+00  0.10791599554E+04  0.30931150020E+04  0.28987539058E+04 0.  0.
        1    1    3    3  502    0  0.41056056345E+03  0.12890887170E+04 -0.15269393783E+02  0.13529755544E+04  0.50400001928E-02 0. -1.
       -1    1    3    3    0  502 -0.41056056345E+03 -0.12890887170E+04  0.10944293492E+04  0.17401394476E+04  0.50400001928E-02 0.  1.
</event>
<event>
 5   0  0.9388076E-08  0.2899436E+04  0.7818609E-02  0.8273045E-01
        1   -1    0    0  501    0  0.00000000000E+00  0.00000000000E+00  0.23812639961E+04  0.23812639961E+04  0.50400001928E-02 0. -1.
       -1   -1    0    0    0  501  0.00000000000E+00  0.00000000000E+00 -0.88259085378E+03  0.88259085380E+03  0.50400001928E-02 0.  1.
    10030    2    1    2    0    0  0.00000000000E+00  0.00000000000E+00  0.14986731423E+04  0.32638548499E+04  0.28994356854E+04 0.  0.
        5    1    3    3  502    0 -0.44325646672E+03  0.42163057115E+03 -0.73016424725E+03  0.95258099487E+03  0.46999998093E+01 0.  1.
       -5    1    3    3    0  502  0.44325646672E+03 -0.42163057115E+03  0.22288373895E+04  0.23112738550E+04  0.46999998093E+01 0. -1.
</event>
<event>
 5   0  0.9421924E-08  0.2898932E+04  0.7818609E-02  0.8273195E-01
       -1   -1    0    0    0  501  0.00000000000E+00  0.00000000000E+00  0.12461305655E+04  0.12461305655E+04  0.50400001928E-02 0.  1.
        1   -1    0    0  501    0  0.00000000000E+00  0.00000000000E+00 -0.16859808902E+04  0.16859808903E+04  0.50400001928E-02 0. -1.
    10030    2    1    2    0    0  0.00000000000E+00  0.00000000000E+00 -0.43985032472E+03  0.29321114558E+04  0.28989324382E+04 0.  0.
        1    1    3    3  502    0 -0.12850393858E+04 -0.67016493330E+03 -0.19719442124E+03  0.14626458562E+04  0.50400001928E-02 0. -1.
       -1    1    3    3    0  502  0.12850393858E+04  0.67016493330E+03 -0.24265590348E+03  0.14694655996E+04  0.50400001928E-02 0.  1.
</event>
<event>
 5   0  0.9763851E-08  0.2901103E+04  0.7818609E-02  0.8272549E-01
       -1   -1    0    0    0  501  0.00000000000E+00  0.00000000000E+00  0.12681159865E+04  0.12681159866E+04  0.50400001928E-02 0.  1.
        1   -1    0    0  501    0  0.00000000000E+00  0.00000000000E+00 -0.16592326733E+04  0.16592326733E+04  0.50400001928E-02 0. -1.
    10030    2    1    2    0    0  0.00000000000E+00  0.00000000000E+00 -0.39111668671E+03  0.29273486598E+04  0.29011028788E+04 0.  0.
        3    1    3    3  502    0  0.47311481498E+03  0.13693163145E+04 -0.26856391670E+03  0.14734284458E+04  0.10100000352E+00 0.  1.
       -3    1    3    3    0  502 -0.47311481498E+03 -0.13693163145E+04 -0.12255277001E+03  0.14539202141E+04  0.10100000352E+00 0. -1.
</event>
<event>
 5   0  0.9443352E-08  0.2899418E+04  0.7818609E-02  0.8273051E-01
        1   -1    0    0  501    0  0.00000000000E+00  0.00000000000E+00  0.19109545719E+04  0.19109545720E+04  0.50400001928E-02 0. -1.
       -1   -1    0    0    0  501  0.00000000000E+00  0.00000000000E+00 -0.10997939076E+04  0.10997939076E+04  0.50400001928E-02 0.  1.
    10030    2    1    2    0    0  0.00000000000E+00  0.00000000000E+00  0.81116066440E+03  0.30107484795E+04  0.28994180077E+04 0.  0.
        4    1    3    3  502    0 -0.13511843667E+04  0.20132156010E+03 -0.98256544820E+02  0.13696297036E+04  0.12699999809E+01 0.  1.
       -4    1    3    3    0  502  0.13511843667E+04 -0.20132156010E+03  0.90941720922E+03  0.16411187759E+04  0.12699999809E+01 0. -1.
</event>
<event>
 5   0  0.9763851E-08  0.2900277E+04  0.7818609E-02  0.8272795E-01
        1   -1    0    0  501    0  0.00000000000E+00  0.00000000000E+00  0.18954621625E+04  0.18954621625E+04  0.50400001928E-02 0. -1.
       -1   -1    0    0    0  501  0.00000000000E+00  0.00000000000E+00 -0.11094399961E+04  0.11094399961E+04  0.50400001928E-02 0.  1.
    10030    2    1    2    0    0  0.00000000000E+00  0.00000000000E+00  0.78602216640E+03  0.30049021586E+04  0.29002769069E+04 0.  0.
        3    1    3    3  502    0  0.53134629322E+03 -0.11683673764E+04  0.10922578137E+04  0.16853600064E+04  0.10100000352E+00 0. -1.
       -3    1    3    3    0  502 -0.53134629322E+03  0.11683673764E+04 -0.30623564725E+03  0.13195421522E+04  0.10100000352E+00 0.  1.
</event>
<event>
 5   0  0.2546841E-07  0.2890737E+04  0.7818609E-02  0.8275639E-01
       -2   -1    0    0    0  501  0.00000000000E+00  0.00000000000E+00  0.14606684343E+04  0.14606684343E+04  0.25500000920E-02 0.  1.
        2   -1    0    0  501    0  0.00000000000E+00  0.00000000000E+00 -0.14302290728E+04  0.14302290728E+04  0.25500000920E-02 0. -1.
    10030    2    1    2    0    0  0.00000000000E+00  0.00000000000E+00  0.30439361477E+02  0.28908975071E+04  0.28907372488E+04 0.  0.
        1    1    3    3  502    0 -0.26721742304E+03  0.51163783182E+03 -0.13099620932E+04  0.14314954096E+04  0.50400001928E-02 0. -1.
       -1    1    3    3    0  502  0.26721742304E+03 -0.51163783182E+03  0.13404014547E+04  0.14594020974E+04  0.50400001928E-02 0.  1.
</event>
<event>
 5   0  0.2534588E-07  0.2896918E+04  0.7818609E-02  0.8273795E-01
        2   -1    0    0  501    0  0.00000000000E+00  0.00000000000E+00  0.28504215870E+04  0.28504215870E+04  0.25500000920E-02 0. -1.
       -2   -1    0    0    0  501  0.00000000000E+00  0.00000000000E+00 -0.73604345981E+03  0.73604345981E+03  0.25500000920E-02 0.  1.
    10030    2    1    2    0    0  0.00000000000E+00  0.00000000000E+00  0.21143781272E+04  0.35864650469E+04  0.28969184779E+04 0.  0.
        3    1    3    3  502    0 -0.70585309392E+03 -0.76347075963E+03 -0.19126707387E+03  0.10572129846E+04  0.10100000352E+00 0.  1.
       -3    1    3    3    0  502  0.70585309392E+03  0.76347075963E+03  0.23056452011E+04  0.25292520623E+04  0.10100000352E+00 0. -1.
</event>
<event>
 5   0  0.9763851E-08  0.2894674E+04  0.7818609E-02  0.8274464E-01
        1   -1    0    0  501    0  0.00000000000E+00  0.00000000000E+00  0.18181599025E+04  0.18181599025E+04  0.50400001928E-02 0. -1.
       -1   -1    0    0    0  501  0.00000000000E+00  0.00000000000E+00 -0.11521454082E+04  0.11521454082E+04  0.50400001928E-02 0.  1.
    10030    2    1    2    0    0  0.00000000000E+00  0.00000000000E+00  0.66601449428E+03  0.29703053107E+04  0.28946741323E+04 0.  0.
        3    1    3    3  502    0 -0.46555803728E+03  0.11954838104E+04 -0.35446672022E+03  0.13310043174E+04  0.10100000352E+00 0.  1.
       -3    1    3    3    0  502  0.46555803728E+03 -0.11954838104E+04  0.10204812145E+04  0.16393009932E+04  0.10100000352E+00 0. -1.
</event>
<event>
 5   0  0.8407500E-08  0.2899723E+04  0.7818609E-02  0.8272960E-01
        4   -1    0    0  501    0  0.00000000000E+00  0.00000000000E+00  0.11105222147E+04  0.11105229409E+04  0.12699999809E+01 0. -1.
       -4   -1    0    0    0  501  0.00000000000E+00  0.00000000000E+00 -0.18928906566E+04  0.18928910826E+04  0.12699999809E+01 0.  1.
    10030    2    1    2    0    0  0.00000000000E+00  0.00000000000E+00 -0.78236844188E+03  0.30034140236E+04  0.28997233347E+04 0.  0.
        5    1    3    3  502    0  0.72152190506E+03 -0.29301228142E+03 -0.16578739432E+04  0.18316708651E+04  0.46999998093E+01 0.  1.
       -5    1    3    3    0  502 -0.72152190506E+03  0.29301228142E+03  0.87550550132E+03  0.11717431585E+04  0.46999998093E+01 0. -1.
</event>
<event>
 5   0  0.9443352E-08  0.2901467E+04  0.7818609E-02  0.8272441E-01
       -1   -1    0    0    0  501  0.00000000000E+00  0.00000000000E+00  0.16173696138E+04  0.16173696138E+04  0.50400001928E-02 0. -1.
        1   -1    0    0  501    0  0.00000000000E+00  0.00000000000E+00 -0.13012654002E+04  0.13012654002E+04  0.50400001928E-02 0.  1.
    10030    2    1    2    0    0  0.00000000000E+00  0.00000000000E+00  0.31610421357E+03  0.29186350139E+04  0.29014666069E+04 0.  0.
        4    1    3    3  502    0 -0.10093690820E+04  0.26510610574E+03  0.11717442760E+04  0.15691059404E+04  0.12699999809E+01 0. -1.
       -4    1    3    3    0  502  0.10093690820E+04 -0.26510610574E+03 -0.85564006241E+03  0.13495290735E+04  0.12699999809E+01 0.  1.
</event>
<event>
 5   0  0.9395744E-08  0.2896783E+04  0.7818609E-02  0.8273835E-01
       -1   -1    0    0    0  501  0.00000000000E+00  0.00000000000E+00  0.12091746879E+04  0.12091746879E+04  0.50400001928E-02 0. -1.
        1   -1    0    0  501    0  0.00000000000E+00  0.00000000000E+00 -0.17349336120E+04  0.17349336121E+04  0.50400001928E-02 0.  1.
    10030    2    1    2    0    0  0.00000000000E+00  0.00000000000E+00 -0.52575892411E+03  0.29441083000E+04  0.28967829114E+04 0.  0.
        2    1    3    3  502    0  0.39762398012E+03  0.13840837484E+04 -0.42047780189E+03  0.15001980649E+04  0.25500000920E-02 0. -1.
       -2    1    3    3    0  502 -0.39762398012E+03 -0.13840837484E+04 -0.10528112222E+03  0.14439102351E+04  0.25500000920E-02 0.  1.
</event>
<event>
 5   0  0.9421924E-08  0.2893101E+04  0.7818609E-02  0.8274933E-01
        1   -1    0    0  501    0  0.00000000000E+00  0.00000000000E+00  0.18869337415E+04  0.18869337415E+04  0.50400001928E-02 0. -1.
       -1   -1    0    0    0  501  0.00000000000E+00  0.00000000000E+00 -0.11089466824E+04  0.11089466824E+04  0.50400001928E-02 0.  1.
    10030    2    1    2    0    0  0.00000000000E+00  0.00000000000E+00  0.77798705909E+03  0.29958804239E+04  0.28931013895E+04 0.  0.
        1    1    3    3  502    0 -0.12671348347E+04 -0.54961791907E+03  0.83414712443E+03  0.16135401983E+04  0.50400001928E-02 0.  1.
       -1    1    3    3    0  502  0.12671348347E+04  0.54961791907E+03 -0.56160065335E+02  0.13823402256E+04  0.50400001928E-02 0. -1.
</event>
<event>
 5   0  0.9388076E-08  0.2897917E+04  0.7818609E-02  0.8273497E-01
        1   -1    0    0  501    0  0.00000000000E+00  0.00000000000E+00  0.14102238288E+04  0.14102238288E+04  0.50400001928E-02 0.  1.
       -1   -1    0    0    0  501  0.00000000000E+00  0.00000000000E+00 -0.14887575585E+04  0.14887575585E+04  0.50400001928E-02 0. -1.
    10030    2    1    2    0    0  0.00000000000E+00  0.00000000000E+00 -0.78533729666E+02  0.28989813873E+04  0.28979174483E+04 0.  0.
        5    1    3    3  502    0  0.10354249046E+04  0.79552876558E+03  0.58904695949E+03  0.14324696020E+04  0.46999998093E+01 0.  1.
       -5    1    3    3    0  502 -0.10354249046E+04 -0.79552876558E+03 -0.66758068916E+03  0.14665117853E+04  0.46999998093E+01 0. -1.
</event>
<event>
 5   0  0.2678723E-07  0.2901035E+04  0.7818609E-02  0.8272570E-01
       -2   -1    0    0    0  501  0.00000000000E+00  0.00000000000E+00  0.16597720276E+04  0.16597720276E+04  0.25500000920E-02 0. -1.
        2   -1    0    0  501    0  0.00000000000E+00  0.00000000000E+00 -0.12676446206E+04  0.12676446206E+04  0.25500000920E-02 0.  1.
    10030    2    1    2    0    0  0.00000000000E+00  0.00000000000E+00  0.39212740699E+03  0.29274166481E+04  0.29010350443E+04 0.  0.
        5    1    3    3  502    0  0.57991340095E+03  0.13048427298E+04  0.45346155242E+03  0.14981867613E+04  0.46999998093E+01 0. -1.
       -5    1    3    3    0  502 -0.57991340095E+03 -0.13048427298E+04 -0.61334145425E+02  0.14292298869E+04  0.46999998093E+01 0.  1.
</event>
<event>
 5   0  0.2492232E-07  0.2900468E+04  0.7818609E-02  0.8272738E-01
        2   -1    0    0  501    0  0.00000000000E+00  0.00000000000E+00  0.21457733832E+04  0.21457733832E+04  0.25500000920E-02 0.  1.
       -2   -1    0    0    0  501  0.00000000000E+00  0.00000000000E+00 -0.98014953972E+03  0.98014953972E+03  0.25500000920E-02 0. -1.
    10030    2    1    2    0    0  0.00000000000E+00  0.00000000000E+00  0.11656238435E+04  0.31259229229E+04  0.29004680959E+04 0.  0.
        4    1    3    3  502    0 -0.29491618891E+03  0.13162401511E+04  0.87613373807E+01  0.13489040247E+04  0.12699999809E+01 0. -1.
       -4    1    3    3    0  502  0.29491618891E+03 -0.13162401511E+04  0.11568625061E+04  0.17770188982E+04  0.12699999809E+01 0.  1.
</event>
<event>
 5   0  0.9388076E-08  0.2906627E+04  0.7818609E-02  0.8270908E-01
        1   -1    0    0  501    0  0.00000000000E+00  0.00000000000E+00  0.21475551923E+04  0.21475551923E+04  0.50400001928E-02 0.  1.
       -1   -1    0    0    0  501  0.00000000000E+00  0.00000000000E+00 -0.98349998588E+03  0.98349998590E+03  0.50400001928E-02 0. -1.
    10030    2    1    2    0    0  0.00000000000E+00  0.00000000000E+00  0.11640552064E+04  0.31310551782E+04  0.29066272560E+04 0.  0.
        5    1    3    3  502    0 -0.12018541309E+04 -0.49270299765E+03  0.12841923626E+04  0.18265764999E+04  0.46999998093E+01 0.  1.
       -5    1    3    3    0  502  0.12018541309E+04  0.49270299765E+03 -0.12013715621E+03  0.13044786783E+04  0.46999998093E+01 0. -1.
</event>
<event>
 5   0  0.8407500E-08  0.2900300E+04  0.7818609E-02  0.8272788E-01
       -3   -1    0    0    0  501  0.00000000000E+00  0.00000000000E+00  0.23182545337E+04  0.23182545359E+04  0.10100000352E+00 0.  1.
        3   -1    0    0  501    0  0.00000000000E+00  0.00000000000E+00 -0.90712015021E+03  0.90712015583E+03  0.10100000352E+00 0. -1.
    10030    2    1    2    0    0  0.00000000000E+00  0.00000000000E+00  0.14111343835E+04  0.32253746918E+04  0.29003002696E+04 0.  0.
        5    1    3    3  502    0 -0.11795264813E+04 -0.74391731762E+03  0.11479157800E+04  0.18062193730E+04  0.46999998093E+01 0.  1.
       -5    1    3    3    0  502  0.11795264813E+04  0.74391731762E+03  0.26321860346E+03  0.14191553187E+04  0.46999998093E+01 0. -1.
</event>
<event>
 5   0  0.2546841E-07  0.2896009E+04  0.7818609E-02  0.8274066E-01
        2   -1    0    0  501    0  0.00000000000E+00  0.00000000000E+00  0.16590273340E+04  0.16590273340E+04  0.25500000920E-02 0. -1.
       -2   -1    0    0    0  501  0.00000000000E+00  0.00000000000E+00 -0.12638227272E+04  0.12638227272E+04  0.25500000920E-02 0.  1.
    10030    2    1    2    0    0  0.00000000000E+00  0.00000000000E+00  0.39520460683E+03  0.29228500612E+04  0.28960085979E+04 0.  0.
        1    1    3    3  502    0 -0.19431700232E+03 -0.14003756587E+04  0.51340071389E+03  0.15041247874E+04  0.50400001928E-02 0. -1.
       -1    1    3    3    0  502  0.19431700232E+03  0.14003756587E+04 -0.11819610707E+03  0.14187252738E+04  0.50400001928E-02 0.  1.
</event>
<event>
 5   0  0.2492232E-07  0.2900023E+04  0.7818609E-02  0.8272871E-01
       -2   -1    0    0    0  501  0.00000000000E+00  0.00000000000E+00  0.10003926599E+04  0.10003926599E+04  0.25500000920E-02 0.  1.
        2   -1    0    0  501    0  0.00000000000E+00  0.00000000000E+00 -0.21017076968E+04  0.21017076968E+04  0.25500000920E-02 0. -1.
    10030    2    1    2    0    0  0.00000000000E+00  0.00000000000E+00 -0.11013150369E+04  0.31021003567E+04  0.29000227262E+04 0.  0.
        4    1    3    3  502    0  0.42989130710E+03  0.12294744385E+04 -0.12323370375E+04  0.17930616604E+04  0.12699999809E+01 0. -1.
       -4    1    3    3    0  502 -0.42989130710E+03 -0.12294744385E+04  0.13102200065E+03  0.13090386963E+04  0.12699999809E+01 0.  1.
</event>
<event>
 5   0  0.2492232E-07  0.2899884E+04  0.7818609E-02  0.8272912E-01
        2   -1    0    0  501    0  0.00000000000E+00  0.00000000000E+00  0.16215861269E+04  0.16215861269E+04  0.25500000920E-02 0.  1.
       -2   -1    0    0    0  501  0.00000000000E+00  0.00000000000E+00 -0.12964664776E+04  0.12964664776E+04  0.25500000920E-02 0. -1.
    10030    2    1    2    0    0  0.00000000000E+00  0.00000000000E+00  0.32511964935E+03  0.29180526045E+04  0.28998841729E+04 0.  0.
        4    1    3    3  502    0 -0.20474938689E+03  0.11566719154E+04  0.10178960461E+04  0.15543249997E+04  0.12699999809E+01 0.  1.
       -4    1    3    3    0  502  0.20474938689E+03 -0.11566719154E+04 -0.69277639675E+03  0.13637276048E+04  0.12699999809E+01 0. -1.
</event>
<event>
 5   0  0.9421924E-08  0.2898979E+04  0.7818609E-02  0.8273181E-01
        1   -1    0    0  501    0  0.00000000000E+00  0.00000000000E+00  0.27509354610E+04  0.27509354610E+04  0.50400001928E-02 0. -1.
       -1   -1    0    0    0  501  0.00000000000E+00  0.00000000000E+00 -0.76374742833E+03  0.76374742835E+03  0.50400001928E-02 0.  1.
    10030    2    1    2    0    0  0.00000000000E+00  0.00000000000E+00  0.19871880326E+04  0.35146828893E+04  0.28989790505E+04 0.  0.
        1    1    3    3  502    0 -0.83948506110E+03  0.64403154071E+03 -0.20753044629E+03  0.10782303462E+04  0.50400001928E-02 0.  1.
       -1    1    3    3    0  502  0.83948506110E+03 -0.64403154071E+03  0.21947184789E+04  0.24364525431E+04  0.50400001928E-02 0. -1.
</event>
<event>
 5   0  0.9388076E-08  0.2900146E+04  0.7818609E-02  0.8272834E-01
       -1   -1    0    0    0  501  0.00000000000E+00  0.00000000000E+00  0.14452674373E+04  0.14452674373E+04  0.50400001928E-02 0. -1.
        1   -1    0    0  501    0  0.00000000000E+00  0.00000000000E+00 -0.14548946464E+04  0.14548946464E+04  0.50400001928E-02 0.  1.
    10030    2    1    2    0    0  0.00000000000E+00  0.00000000000E+00 -0.96272090763E+01  0.29001620837E+04  0.29001461046E+04 0.  0.
        5    1    3    3  502    0 -0.31868878685E+03 -0.94151326791E+03  0.10509762769E+04  0.14465763033E+04  0.46999998093E+01 0. -1.
       -5    1    3    3    0  502  0.31868878685E+03  0.94151326791E+03 -0.10606034860E+04  0.14535857804E+04  0.46999998093E+01 0.  1.
</event>
<event>
 5   0  0.9763851E-08  0.2899856E+04  0.7818609E-02  0.8272920E-01
        1   -1    0    0  501    0  0.00000000000E+00  0.00000000000E+00  0.14367561279E+04  0.14367561279E+04  0.50400001928E-02 0.  1.
       -1   -1    0    0    0  501  0.00000000000E+00  0.00000000000E+00 -0.14632210670E+04  0.14632210670E+04  0.50400001928E-02 0. -1.
    10030    2    1    2    0    0  0.00000000000E+00  0.00000000000E+00 -0.26464939089E+02  0.28999771948E+04  0.28998564340E+04 0.  0.
        3    1    3    3  502    0  0.61519307860E+03 -0.74871835330E+03 -0.10918181239E+04  0.14598316761E+04  0.10100000352E+00 0. -1.
       -3    1    3    3    0  502 -0.61519307860E+03  0.74871835330E+03  0.10653531848E+04  0.14401455188E+04  0.10100000352E+00 0.  1.
</event>
<event>
 5   0  0.2492232E-07  0.2900289E+04  0.7818609E-02  0.8272791E-01
        2   -1    0    0  501    0  0.00000000000E+00  0.00000000000E+00  0.15435289942E+04  0.15435289942E+04  0.25500000920E-02 0.  1.
       -2   -1    0    0    0  501  0.00000000000E+00  0.00000000000E+00 -0.13624102823E+04  0.13624102823E+04  0.25500000920E-02 0. -1.
    10030    2    1    2    0    0  0.00000000000E+00  0.00000000000E+00  0.18111871190E+03  0.29059392764E+04  0.29002894839E+04 0.  0.
        4    1    3    3  502    0  0.91903338712E+03  0.96981004952E+03 -0.47424457694E+03  0.14177670579E+04  0.12699999809E+01 0.  1.
       -4    1    3    3    0  502 -0.91903338712E+03 -0.96981004952E+03  0.65536328885E+03  0.14881722185E+04  0.12699999809E+01 0. -1.
</event>
<event>
 5   0  0.9443352E-08  0.2899811E+04  0.7818609E-02  0.8272934E-01
       -1   -1    0    0    0  501  0.00000000000E+00  0.00000000000E+00  0.99878301187E+03  0.99878301189E+03  0.50400001928E-02 0.  1.
        1   -1    0    0  501    0  0.00000000000E+00  0.00000000000E+00 -0.21047875038E+04  0.21047875038E+04  0.50400001928E-02 0. -1.
    10030    2    1    2    0    0  0.00000000000E+00  0.00000000000E+00 -0.11060044919E+04  0.31035705157E+04  0.28998110300E+04 0.  0.
        4    1    3    3  502    0  0.23871704830E+03  0.13921546003E+04 -0.20267322979E+03  0.14269401919E+04  0.12699999809E+01 0. -1.
       -4    1    3    3    0  502 -0.23871704830E+03 -0.13921546003E+04 -0.90333126211E+03  0.16766303237E+04  0.12699999809E+01 0.  1.
</event>
<event>
 5   0  0.2546841E-07  0.2898101E+04  0.7818609E-02  0.8273443E-01
       -2   -1    0    0    0  501  0.00000000000E+00  0.00000000000E+00  0.15273232166E+04  0.15273232166E+04  0.25500000920E-02 0. -1.
        2   -1    0    0  501    0  0.00000000000E+00  0.00000000000E+00 -0.13747895164E+04  0.13747895164E+04  0.25500000920E-02 0.  1.
    10030    2    1    2    0    0  0.00000000000E+00  0.00000000000E+00  0.15253370024E+03  0.29021127330E+04  0.28981014105E+04 0.  0.
        1    1    3    3  502    0 -0.33111333037E+03  0.13862980809E+04  0.33795122571E+03  0.14648103760E+04  0.50400001928E-02 0. -1.
       -1    1    3    3    0  502  0.33111333037E+03 -0.13862980809E+04 -0.18541752547E+03  0.14373023570E+04  0.50400001928E-02 0.  1.
</event>
<event>
 5   0  0.9388076E-08  0.2899556E+04  0.7818609E-02  0.8273009E-01
       -1   -1    0    0    0  501  0.00000000000E+00  0.00000000000E+00  0.92981612012E+03  0.92981612013E+03  0.50400001928E-02 0. -1.
        1   -1    0    0  501    0  0.00000000000E+00  0.00000000000E+00 -0.22605080076E+04  0.22605080076E+04  0.50400001928E-02 0.  1.
    10030    2    1    2    0    0  0.00000000000E+00  0.00000000000E+00 -0.13306918875E+04  0.31903241278E+04  0.28995563696E+04 0.  0.
        5    1    3    3  502    0 -0.10006570903E+03 -0.12086571267E+04  0.20864601161E+03  0.12306179116E+04  0.46999998093E+01 0. -1.
       -5    1    3    3    0  502  0.10006570903E+03  0.12086571267E+04 -0.15393378991E+04  0.19597062162E+04  0.46999998093E+01 0.  1.
</event>
<event>
 5   0  0.2534588E-07  0.2899626E+04  0.7818609E-02  0.8272989E-01
        2   -1    0    0  501    0  0.00000000000E+00  0.00000000000E+00  0.24024906215E+04  0.24024906215E+04  0.25500000920E-02 0. -1.
       -2   -1    0    0    0  501  0.00000000000E+00  0.00000000000E+00 -0.87490797622E+03  0.87490797622E+03  0.25500000920E-02 0.  1.
    10030    2    1    2    0    0  0.00000000000E+00  0.00000000000E+00  0.15275826453E+04  0.32773985978E+04  0.28996263260E+04 0.  0.
        3    1    3    3  502    0  0.11446064050E+04 -0.87886497231E+03  0.92134619895E+03  0.17121350094E+04  0.10100000352E+00 0. -1.
       -3    1    3    3    0  502 -0.11446064050E+04  0.87886497231E+03  0.60623644637E+03  0.15652635883E+04  0.10100000352E+00 0.  1.
</event>
<event>
 5   0  0.2546841E-07  0.2898895E+04  0.7818609E-02  0.8273206E-01
       -2   -1    0    0    0  501  0.00000000000E+00  0.00000000000E+00  0.11682884536E+04  0.11682884536E+04  0.25500000920E-02 0. -1.
        2   -1    0    0  501    0  0.00000000000E+00  0.00000000000E+00 -0.17982699689E+04  0.17982699689E+04  0.25500000920E-02 0.  1.
    10030    2    1    2    0    0  0.00000000000E+00  0.00000000000E+00 -0.62998151533E+03  0.29665584225E+04  0.28988949903E+04 0.  0.
        1    1    3    3  502    0  0.22365188882E+03  0.10629191110E+03  0.11464822004E+04  0.11729192528E+04  0.50400001928E-02 0. -1.
       -1    1    3    3    0  502 -0.22365188882E+03 -0.10629191110E+03 -0.17764637157E+04  0.17936391697E+04  0.50400001928E-02 0.  1.
</event>
<event>
 5   0  0.9388076E-08  0.2899349E+04  0.7818609E-02  0.8273071E-01
        1   -1    0    0  501    0  0.00000000000E+00  0.00000000000E+00  0.16222246971E+04  0.16222246971E+04  0.50400001928E-02 0. -1.
       -1   -1    0    0    0  501  0.00000000000E+00  0.00000000000E+00 -0.12954774968E+04  0.12954774968E+04  0.50400001928E-02 0.  1.
    10030    2    1    2    0    0  0.00000000000E+00  0.00000000000E+00  0.32674720027E+03  0.29177021940E+04  0.28993486096E+04 0.  0.
        5    1    3    3  502    0  0.30358846795E+03 -0.12520471219E+04 -0.50547314052E+03  0.13839483875E+04  0.46999998093E+01 0.  1.
       -5    1    3    3    0  502 -0.30358846795E+03  0.12520471219E+04  0.83222034079E+03  0.15337538065E+04  0.46999998093E+01 0. -1.
</event>
<event>
 5   0  0.9395744E-08  0.2900391E+04  0.7818609E-02  0.8272761E-01
        1   -1    0    0  501    0  0.00000000000E+00  0.00000000000E+00  0.16717101173E+04  0.16717101173E+04  0.50400001928E-02 0.  1.
       -1   -1    0    0    0  501  0.00000000000E+00  0.00000000000E+00 -0.12580333204E+04  0.12580333204E+04  0.50400001928E-02 0. -1.
    10030    2    1    2    0    0  0.00000000000E+00  0.00000000000E+00  0.41367679687E+03  0.29297434377E+04  0.29003910285E+04 0.  0.
        2    1    3    3  502    0  0.89684546266E+03  0.97773488610E+03 -0.38455200574E+03  0.13813679946E+04  0.25500000920E-02 0.  1.
       -2    1    3    3    0  502 -0.89684546266E+03 -0.97773488610E+03  0.79822880262E+03  0.15483754431E+04  0.25500000920E-02 0. -1.
</event>
<event>
 5   0  0.2608591E-07  0.2901322E+04  0.7818609E-02  0.8272484E-01
       -2   -1    0    0    0  501  0.00000000000E+00  0.00000000000E+00  0.76453333377E+03  0.76453333377E+03  0.25500000920E-02 0.  1.
        2   -1    0    0  501    0  0.00000000000E+00  0.00000000000E+00 -0.27525523831E+04  0.27525523831E+04  0.25500000920E-02 0. -1.
    10030    2    1    2    0    0  0.00000000000E+00  0.00000000000E+00 -0.19880190494E+04  0.35170857169E+04  0.29013224915E+04 0.  0.
        2    1    3    3  502    0  0.83134241867E+03  0.11596750271E+04 -0.67687229436E+03  0.15792822700E+04  0.25500000920E-02 0.  1.
       -2    1    3    3    0  502 -0.83134241867E+03 -0.11596750271E+04 -0.13111467550E+04  0.19378034469E+04  0.25500000920E-02 0. -1.
</event>
<event>
 5   0  0.2608591E-07  0.2901046E+04  0.7818609E-02  0.8272566E-01
       -2   -1    0    0    0  501  0.00000000000E+00  0.00000000000E+00  0.12580956775E+04  0.12580956775E+04  0.25500000920E-02 0.  1.
        2   -1    0    0  501    0  0.00000000000E+00  0.00000000000E+00 -0.16723820740E+04  0.16723820740E+04  0.25500000920E-02 0. -1.
    10030    2    1    2    0    0  0.00000000000E+00  0.00000000000E+00 -0.41428639650E+03  0.29304777516E+04  0.29010457828E+04 0.  0.
        2    1    3    3  502    0  0.11897701231E+04  0.12461679219E+03  0.62150501901E+03  0.13480915322E+04  0.25500000920E-02 0.  1.
       -2    1    3    3    0  502 -0.11897701231E+04 -0.12461679219E+03 -0.10357914155E+04  0.15823862193E+04  0.25500000920E-02 0. -1.
</event>
<event>
 5   0  0.9763851E-08  0.2893278E+04  0.7818609E-02  0.8274880E-01
        1   -1    0    0  501    0  0.00000000000E+00  0.00000000000E+00  0.20036405493E+04  0.20036405493E+04  0.50400001928E-02 0. -1.
       -1   -1    0    0    0  501  0.00000000000E+00  0.00000000000E+00 -0.10444806829E+04  0.10444806829E+04  0.50400001928E-02 0.  1.
    10030    2    1    2    0    0  0.00000000000E+00  0.00000000000E+00  0.95915986636E+03  0.30481212322E+04  0.28932776218E+04 0.  0.
        3    1    3    3  502    0  0.97757952080E+03  0.24411862065E+03 -0.61400476251E+03  0.11799396082E+04  0.10100000352E+00 0.  1.
       -3    1    3    3    0  502 -0.97757952080E+03 -0.24411862065E+03  0.15731646289E+04  0.18681816240E+04  0.10100000352E+00 0. -1.
</event>
<event>
 5   0  0.9395744E-08  0.2908781E+04  0.7818609E-02  0.8270270E-01
        1   -1    0    0  501    0  0.00000000000E+00  0.00000000000E+00  0.76985414916E+03  0.76985414918E+03  0.50400001928E-02 0. -1.
       -1   -1    0    0    0  501  0.00000000000E+00  0.00000000000E+00 -0.27475998777E+04  0.27475998777E+04  0.50400001928E-02 0.  1.
    10030    2    1    2    0    0  0.00000000000E+00  0.00000000000E+00 -0.19777457286E+04  0.35174540269E+04  0.29087806147E+04 0.  0.
        2    1    3    3  502    0  0.13290824168E+04  0.18191243076E+03 -0.30942828159E+03  0.13766982475E+04  0.25500000920E-02 0. -1.
       -2    1    3    3    0  502 -0.13290824168E+04 -0.18191243076E+03 -0.16683174470E+04  0.21407557794E+04  0.25500000920E-02 0.  1.
</event>
<event>
 5   0  0.2546841E-07  0.2900551E+04  0.7818609E-02  0.8272713E-01
       -2   -1    0    0    0  501  0.00000000000E+00  0.00000000000E+00  0.10639149922E+04  0.10639149922E+04  0.25500000920E-02 0.  1.
        2   -1    0    0  501    0  0.00000000000E+00  0.00000000000E+00 -0.19769433911E+04  0.19769433911E+04  0.25500000920E-02 0. -1.
    10030    2    1    2    0    0  0.00000000000E+00  0.00000000000E+00 -0.91302839889E+03  0.30408583833E+04  0.29005514735E+04 0.  0.
        1    1    3    3  502    0 -0.11806372001E+02 -0.73970404261E+03  0.85122207455E+03  0.11277767870E+04  0.50400001928E-02 0.  1.
       -1    1    3    3    0  502  0.11806372001E+02  0.73970404261E+03 -0.17642504734E+04  0.19130815963E+04  0.50400001928E-02 0. -1.
</event>
<event>
 5   0  0.9443352E-08  0.2902779E+04  0.7818609E-02  0.8272051E-01
        1   -1    0    0  501    0  0.00000000000E+00  0.00000000000E+00  0.22413178329E+04  0.22413178329E+04  0.50400001928E-02 0. -1.
       -1   -1    0    0    0  501  0.00000000000E+00  0.00000000000E+00 -0.93986314652E+03  0.93986314654E+03  0.50400001928E-02 0.  1.
    10030    2    1    2    0    0  0.00000000000E+00  0.00000000000E+00  0.13014546864E+04  0.31811809794E+04  0.29027793790E+04 0.  0.
        4    1    3    3  502    0  0.18790935756E+02 -0.14178787599E+04  0.31153142180E+03  0.14518218612E+04  0.12699999809E+01 0.  1.
       -4    1    3    3    0  502 -0.18790935756E+02  0.14178787599E+04  0.98992326459E+03  0.17293591182E+04  0.12699999809E+01 0. -1.
</event>
<event>
 5   0  0.2546841E-07  0.2900054E+04  0.7818609E-02  0.8272861E-01
       -2   -1    0    0    0  501  0.00000000000E+00  0.00000000000E+00  0.22175065366E+04  0.22175065366E+04  0.25500000920E-02 0. -1.
        2   -1    0    0  501    0  0.00000000000E+00  0.00000000000E+00 -0.94817224498E+03  0.94817224498E+03  0.25500000920E-02 0.  1.
    10030    2    1    2    0    0  0.00000000000E+00  0.00000000000E+00  0.12693342916E+04  0.31656787816E+04  0.29000538968E+04 0.  0.
        1    1    3    3  502    0  0.84098032856E+03 -0.37664172104E+03  0.18567987220E+04  0.20728744277E+04  0.50400001928E-02 0. -1.
       -1    1    3    3    0  502 -0.84098032856E+03  0.37664172104E+03 -0.58746443031E+03  0.10928043539E+04  0.50400001928E-02 0.  1.
</event>
<event>
 5   0  0.9421924E-08  0.2897985E+04  0.7818609E-02  0.8273477E-01
       -1   -1    0    0    0  501  0.00000000000E+00  0.00000000000E+00  0.11226273134E+04  0.11226273134E+04  0.50400001928E-02 0. -1.
        1   -1    0    0  501    0  0.00000000000E+00  0.00000000000E+00 -0.18702368536E+04  0.18702368536E+04  0.50400001928E-02 0.  1.
    10030    2    1    2    0    0  0.00000000000E+00  0.00000000000E+00 -0.74760954022E+03  0.29928641670E+04  0.28979847994E+04 0.  0.
        1    1    3    3  502    0  0.86713125911E+03  0.37268348182E+03 -0.15092406864E+04  0.17800609674E+04  0.50400001928E-02 0.  1.
       -1    1    3    3    0  502 -0.86713125911E+03 -0.37268348182E+03  0.76163114619E+03  0.12128031996E+04  0.50400001928E-02 0. -1.
</event>
<event>
 5   0  0.2492232E-07  0.2900695E+04  0.7818609E-02  0.8272671E-01
       -2   -1    0    0    0  501  0.00000000000E+00  0.00000000000E+00  0.17288403763E+04  0.17288403763E+04  0.25500000920E-02 0.  1.
        2   -1    0    0  501    0  0.00000000000E+00  0.00000000000E+00 -0.12167159475E+04  0.12167159475E+04  0.25500000920E-02 0. -1.
    10030    2    1    2    0    0  0.00000000000E+00  0.00000000000E+00  0.51212442878E+03  0.29455563237E+04  0.29006948522E+04 0.  0.
        4    1    3    3  502    0 -0.18432605800E+03 -0.13456850065E+04 -0.26039154659E+03  0.13829857565E+04  0.12699999809E+01 0.  1.
       -4    1    3    3    0  502  0.18432605800E+03  0.13456850065E+04  0.77251597536E+03  0.15625705672E+04  0.12699999809E+01 0. -1.
</event>
<event>
 5   0  0.8407500E-08  0.2900451E+04  0.7818609E-02  0.8272743E-01
       -3   -1    0    0    0  501  0.00000000000E+00  0.00000000000E+00  0.16631803652E+04  0.16631803683E+04  0.10100000352E+00 0.  1.
        3   -1    0    0  501    0  0.00000000000E+00  0.00000000000E+00 -0.12645377078E+04  0.12645377118E+04  0.10100000352E+00 0. -1.
    10030    2    1    2    0    0  0.00000000000E+00  0.00000000000E+00  0.39864265743E+03  0.29277180801E+04  0.29004512043E+04 0.  0.
        5    1    3    3  502    0  0.10416434945E+04  0.92763197661E+03  0.60005470144E+03  0.15184235208E+04  0.46999998093E+01 0.  1.
       -5    1    3    3    0  502 -0.10416434945E+04 -0.92763197661E+03 -0.20141204401E+03  0.14092945594E+04  0.46999998093E+01 0. -1.
</event>
<event>
 5   0  0.2534588E-07  0.2900415E+04  0.7818609E-02  0.8272754E-01
        2   -1    0    0  501    0  0.00000000000E+00  0.00000000000E+00  0.13628499819E+04  0.13628499819E+04  0.25500000920E-02 0.  1.
       -2   -1    0    0    0  501  0.00000000000E+00  0.00000000000E+00 -0.15431646399E+04  0.15431646399E+04  0.25500000920E-02 0. -1.
    10030    2    1    2    0    0  0.00000000000E+00  0.00000000000E+00 -0.18031465802E+03  0.29060146217E+04  0.29004150748E+04 0.  0.
        3    1    3    3  502    0 -0.12305953504E+04  0.52105555287E+03  0.47416898535E+03  0.14179915523E+04  0.10100000352E+00 0.  1.
       -3    1    3    3    0  502  0.12305953504E+04 -0.52105555287E+03 -0.65448364337E+03  0.14880230694E+04  0.10100000352E+00 0. -1.
</event>
<event>
 5   0  0.2608591E-07  0.2900811E+04  0.7818609E-02  0.8272636E-01
        2   -1    0    0  501    0  0.00000000000E+00  0.00000000000E+00  0.14896060074E+04  0.14896060074E+04  0.25500000920E-02 0. -1.
       -2   -1    0    0    0  501  0.00000000000E+00  0.00000000000E+00 -0.14122366748E+04  0.14122366748E+04  0.25500000920E-02 0.  1.
    10030    2    1    2    0    0  0.00000000000E+00  0.00000000000E+00  0.77369332625E+02  0.29018426821E+04  0.29008110828E+04 0.  0.
        2    1    3    3  502    0 -0.58456034244E+03  0.28235622464E+03 -0.12587886888E+04  0.14163279263E+04  0.25500000920E-02 0.  1.
       -2    1    3    3    0  502  0.58456034244E+03 -0.28235622464E+03  0.13361580215E+04  0.14855147559E+04  0.25500000920E-02 0. -1.
</event>
<event>
 5   0  0.2546841E-07  0.2904622E+04  0.7818609E-02  0.8271504E-01
        2   -1    0    0  501    0  0.00000000000E+00  0.00000000000E+00  0.23240708221E+04  0.23240708221E+04  0.25500000920E-02 0.  1.
       -2   -1    0    0    0  501  0.00000000000E+00  0.00000000000E+00 -0.90754876600E+03  0.90754876600E+03  0.25500000920E-02 0. -1.
    10030    2    1    2    0    0  0.00000000000E+00  0.00000000000E+00  0.14165220561E+04  0.32316195881E+04  0.29046222520E+04 0.  0.
        1    1    3    3  502    0 -0.34647631165E+03  0.97208337746E+03 -0.42864789956E+03  0.11174663078E+04  0.50400001928E-02 0. -1.
       -1    1    3    3    0  502  0.34647631165E+03 -0.97208337746E+03  0.18451699556E+04  0.21141532803E+04  0.50400001928E-02 0.  1.
</event>
<event>
 5   0  0.9443352E-08  0.2900033E+04  0.7818609E-02  0.8272868E-01
       -1   -1    0    0    0  501  0.00000000000E+00  0.00000000000E+00  0.91565362453E+03  0.91565362455E+03  0.50400001928E-02 0.  1.
        1   -1    0    0  501    0  0.00000000000E+00  0.00000000000E+00 -0.22962254366E+04  0.22962254366E+04  0.50400001928E-02 0. -1.
    10030    2    1    2    0    0  0.00000000000E+00  0.00000000000E+00 -0.13805718121E+04  0.32118790612E+04  0.29000325128E+04 0.  0.
        4    1    3    3  502    0  0.12507657268E+04 -0.37159709978E+03 -0.13907911721E+04  0.19070398542E+04  0.12699999809E+01 0. -1.
       -4    1    3    3    0  502 -0.12507657268E+04  0.37159709978E+03  0.10219360045E+02  0.13048392070E+04  0.12699999809E+01 0.  1.
</event>
<event>
 5   0  0.2608591E-07  0.2904105E+04  0.7818609E-02  0.8271657E-01
        2   -1    0    0  501    0  0.00000000000E+00  0.00000000000E+00  0.12820260722E+04  0.12820260722E+04  0.25500000920E-02 0. -1.
       -2   -1    0    0    0  501  0.00000000000E+00  0.00000000000E+00 -0.16446281778E+04  0.16446281778E+04  0.25500000920E-02 0.  1.
    10030    2    1    2    0    0  0.00000000000E+00  0.00000000000E+00 -0.36260210562E+03  0.29266542500E+04  0.29041048211E+04 0.  0.
        2    1    3    3  502    0 -0.68503898824E+03  0.11359772640E+04 -0.77642294932E+03  0.15370606221E+04  0.25500000920E-02 0. -1.
       -2    1    3    3    0  502  0.68503898824E+03 -0.11359772640E+04  0.41382084370E+03  0.13895936278E+04  0.25500000920E-02 0.  1.
</event>
<event>
 5   0  0.9388076E-08  0.2901750E+04  0.7818609E-02  0.8272357E-01
       -1   -1    0    0    0  501  0.00000000000E+00  0.00000000000E+00  0.15800446771E+04  0.15800446771E+04  0.50400001928E-02 0.  1.
        1   -1    0    0  501    0  0.00000000000E+00  0.00000000000E+00 -0.13322651118E+04  0.13322651118E+04  0.50400001928E-02 0. -1.
    10030    2    1    2    0    0  0.00000000000E+00  0.00000000000E+00  0.24777956538E+03  0.29123097889E+04  0.29017500915E+04 0.  0.
        5    1    3    3  502    0  0.50031765913E+02 -0.72263541777E+03 -0.11377892041E+04  0.13488111386E+04  0.46999998093E+01 0. -1.
       -5    1    3    3    0  502 -0.50031765913E+02  0.72263541777E+03  0.13855687695E+04  0.15634986503E+04  0.46999998093E+01 0.  1.
</event>
<event>
 5   0  0.9443352E-08  0.2899808E+04  0.7818609E-02  0.8272935E-01
       -1   -1    0    0    0  501  0.00000000000E+00  0.00000000000E+00  0.75798188733E+03  0.75798188735E+03  0.50400001928E-02 0.  1.
        1   -1    0    0  501    0  0.00000000000E+00  0.00000000000E+00 -0.27734453461E+04  0.27734453461E+04  0.50400001928E-02 0. -1.
    10030    2    1    2    0    0  0.00000000000E+00  0.00000000000E+00 -0.20154634587E+04  0.35314272334E+04  0.28998078129E+04 0.  0.
        4    1    3    3  502    0  0.10537349559E+04  0.77523709595E+03 -0.24635936065E+03  0.13311816028E+04  0.12699999809E+01 0.  1.
       -4    1    3    3    0  502 -0.10537349559E+04 -0.77523709595E+03 -0.17691040981E+04  0.22002456306E+04  0.12699999809E+01 0. -1.
</event>
<event>
 5   0  0.9395744E-08  0.2899802E+04  0.7818609E-02  0.8272936E-01
       -1   -1    0    0    0  501  0.00000000000E+00  0.00000000000E+00  0.13280942908E+04  0.13280942908E+04  0.50400001928E-02 0.  1.
        1   -1    0    0  501    0  0.00000000000E+00  0.00000000000E+00 -0.15828789201E+04  0.15828789201E+04  0.50400001928E-02 0. -1.
    10030    2    1    2    0    0  0.00000000000E+00  0.00000000000E+00 -0.25478462939E+03  0.29109732109E+04  0.28998016876E+04 0.  0.
        2    1    3    3  502    0 -0.74372485329E+02  0.39140663989E+03  0.12720666724E+04  0.13329981408E+04  0.25500000920E-02 0.  1.
       -2    1    3    3    0  502  0.74372485329E+02 -0.39140663989E+03 -0.15268513018E+04  0.15779750701E+04  0.25500000920E-02 0. -1.
</event>
<event>
 5   0  0.9388076E-08  0.2900026E+04  0.7818609E-02  0.8272870E-01
        1   -1    0    0  501    0  0.00000000000E+00  0.00000000000E+00  0.17358978639E+04  0.17358978639E+04  0.50400001928E-02 0. -1.
       -1   -1    0    0    0  501  0.00000000000E+00  0.00000000000E+00 -0.12112104667E+04  0.12112104667E+04  0.50400001928E-02 0.  1.
    10030    2    1    2    0    0  0.00000000000E+00  0.00000000000E+00  0.52468739716E+03  0.29471083306E+04  0.29000259736E+04 0.  0.
        5    1    3    3  502    0  0.39323960410E+03  0.64809860636E+01  0.16806512883E+04  0.17260620592E+04  0.46999998093E+01 0. -1.
       -5    1    3    3    0  502 -0.39323960410E+03 -0.64809860636E+01 -0.11559638911E+04  0.12210462714E+04  0.46999998093E+01 0.  1.
</event>
<event>
 5   0  0.2534588E-07  0.2900719E+04  0.7818609E-02  0.8272664E-01
       -2   -1    0    0    0  501  0.00000000000E+00  0.00000000000E+00  0.84030234144E+03  0.84030234145E+03  0.25500000920E-02 0. -1.
        2   -1    0    0  501    0  0.00000000000E+00  0.00000000000E+00 -0.25033159347E+04  0.25033159347E+04  0.25500000920E-02 0.  1.
    10030    2    1    2    0    0  0.00000000000E+00  0.00000000000E+00 -0.16630135932E+04  0.33436182761E+04  0.29007186980E+04 0.  0.
        3    1    3    3  502    0  0.53609383030E+03 -0.37460959799E+03 -0.23236959902E+04  0.24139784611E+04  0.10100000352E+00 0.  1.
       -3    1    3    3    0  502 -0.53609383030E+03  0.37460959799E+03  0.66068239695E+03  0.92963981500E+03  0.10100000352E+00 0. -1.
</event>
<event>
 5   0  0.2492232E-07  0.2901122E+04  0.7818609E-02  0.8272544E-01
        2   -1    0    0  501    0  0.00000000000E+00  0.00000000000E+00  0.10729729210E+04  0.10729729210E+04  0.25500000920E-02 0. -1.
       -2   -1    0    0    0  501  0.00000000000E+00  0.00000000000E+00 -0.19610256662E+04  0.19610256662E+04  0.25500000920E-02 0.  1.
    10030    2    1    2    0    0  0.00000000000E+00  0.00000000000E+00 -0.88805274519E+03  0.30339985872E+04  0.29011221534E+04 0.  0.
        4    1    3    3  502    0 -0.28451418998E+03  0.78691577931E+03 -0.16831761297E+04  0.18796989824E+04  0.12699999809E+01 0.  1.
       -4    1    3    3    0  502  0.28451418998E+03 -0.78691577931E+03  0.79512338454E+03  0.11542996048E+04  0.12699999809E+01 0. -1.
</event>
<event>
 5   0  0.2534588E-07  0.2898901E+04  0.7818609E-02  0.8273205E-01
        2   -1    0    0  501    0  0.00000000000E+00  0.00000000000E+00  0.16424610091E+04  0.16424610091E+04  0.25500000920E-02 0. -1.
       -2   -1    0    0    0  501  0.00000000000E+00  0.00000000000E+00 -0.12791209263E+04  0.12791209263E+04  0.25500000920E-02 0.  1.
    10030    2    1    2    0    0  0.00000000000E+00  0.00000000000E+00  0.36334008276E+03  0.29215819354E+04  0.28989006519E+04 0.  0.
        3    1    3    3  502    0  0.69985501659E+03 -0.73488748422E+03 -0.86134248908E+03  0.13310775907E+04  0.10100000352E+00 0.  1.
       -3    1    3    3    0  502 -0.69985501659E+03  0.73488748422E+03  0.12246825718E+04  0.15905043447E+04  0.10100000352E+00 0. -1.
</event>
<event>
 5   0  0.9395744E-08  0.2899398E+04  0.7818609E-02  0.8273056E-01
        1   -1    0    0  501    0  0.00000000000E+00  0.00000000000E+00  0.12381314246E+04  0.12381314246E+04  0.50400001928E-02 0. -1.
       -1   -1    0    0    0  501  0.00000000000E+00  0.00000000000E+00 -0.16974189444E+04  0.16974189444E+04  0.50400001928E-02 0.  1.
    10030    2    1    2    0    0  0.00000000000E+00  0.00000000000E+00 -0.45928751978E+03  0.29355503690E+04  0.28993983760E+04 0.  0.
        2    1    3    3  502    0 -0.25504792487E+03  0.10257181504E+04 -0.12342253598E+04  0.16249490475E+04  0.25500000920E-02 0.  1.
       -2    1    3    3    0  502  0.25504792487E+03 -0.10257181504E+04  0.77493784004E+03  0.13106013215E+04  0.25500000920E-02 0. -1.
</event>
<event>
 5   0  0.9395744E-08  0.2900372E+04  0.7818609E-02  0.8272767E-01
       -1   -1    0    0    0  501  0.00000000000E+00  0.00000000000E+00  0.17666053190E+04  0.17666053190E+04  0.50400001928E-02 0. -1.
        1   -1    0    0  501    0  0.00000000000E+00  0.00000000000E+00 -0.11904407175E+04  0.11904407175E+04  0.50400001928E-02 0.  1.
    10030    2    1    2    0    0  0.00000000000E+00  0.00000000000E+00  0.57616460148E+03  0.29570460366E+04  0.29003716338E+04 0.  0.
        2    1    3    3  502    0 -0.60308242459E+02  0.80963487245E+03  0.15131835178E+04  0.17172274367E+04  0.25500000920E-02 0. -1.
       -2    1    3    3    0  502  0.60308242459E+02 -0.80963487245E+03 -0.93701891637E+03  0.12398185998E+04  0.25500000920E-02 0.  1.
</event>
<event>
 5   0  0.8407500E-08  0.2899980E+04  0.7818609E-02  0.8272883E-01
        3   -1    0    0  501    0  0.00000000000E+00  0.00000000000E+00  0.13184067363E+04  0.13184067402E+04  0.10100000352E+00 0. -1.
       -3   -1    0    0    0  501  0.00000000000E+00  0.00000000000E+00 -0.15947059039E+04  0.15947059071E+04  0.10100000352E+00 0.  1.
    10030    2    1    2    0    0  0.00000000000E+00  0.00000000000E+00 -0.27629916757E+03  0.29131126473E+04  0.28999800113E+04 0.  0.
        5    1    3    3  502    0 -0.21387852571E+03 -0.13527549695E+04  0.34019894257E+03  0.14111865369E+04  0.46999998093E+01 0. -1.
       -5    1    3    3    0  502  0.21387852571E+03  0.13527549695E+04 -0.61649811014E+03  0.15019261104E+04  0.46999998093E+01 0.  1.
</event>
<event>
 5   0  0.9443352E-08  0.2899734E+04  0.7818609E-02  0.8272957E-01
       -1   -1    0    0    0  501  0.00000000000E+00  0.00000000000E+00  0.13391943772E+04  0.13391943773E+04  0.50400001928E-02 0. -1.
        1   -1    0    0  501    0  0.00000000000E+00  0.00000000000E+00 -0.15696852043E+04  0.15696852043E+04  0.50400001928E-02 0.  1.
    10030    2    1    2    0    0  0.00000000000E+00  0.00000000000E+00 -0.23049082705E+03  0.29088795816E+04  0.28997335048E+04 0.  0.
        4    1    3    3  502    0  0.11963543969E+03  0.52075621887E+02  0.13332922661E+04  0.13396620427E+04  0.12699999809E+01 0. -1.
       -4    1    3    3    0  502 -0.11963543969E+03 -0.52075621887E+02 -0.15637830932E+04  0.15692175389E+04  0.12699999809E+01 0.  1.
</event>
<event>
 5   0  0.9763851E-08  0.2899678E+04  0.7818609E-02  0.8272973E-01
        1   -1    0    0  501    0  0.00000000000E+00  0.00000000000E+00  0.15479551305E+04  0.15479551305E+04  0.50400001928E-02 0. -1.
       -1   -1    0    0    0  501  0.00000000000E+00  0.00000000000E+00 -0.13579421221E+04  0.13579421221E+04  0.50400001928E-02 0.  1.
    10030    2    1    2    0    0  0.00000000000E+00  0.00000000000E+00  0.19001300839E+03  0.29058972525E+04  0.28996782406E+04 0.  0.
        3    1    3    3  502    0  0.71157195424E+03 -0.12093533451E+04 -0.27069161572E+03  0.14290360809E+04  0.10100000352E+00 0.  1.
       -3    1    3    3    0  502 -0.71157195424E+03  0.12093533451E+04  0.46070462411E+03  0.14768611717E+04  0.10100000352E+00 0. -1.
</event>
<event>
 5   0  0.2492232E-07  0.2896637E+04  0.7818609E-02  0.8273879E-01
       -2   -1    0    0    0  501  0.00000000000E+00  0.00000000000E+00  0.10530905802E+04  0.10530905802E+04  0.25500000920E-02 0.  1.
        2   -1    0    0  501    0  0.00000000000E+00  0.00000000000E+00 -0.19918768541E+04  0.19918768541E+04  0.25500000920E-02 0. -1.
    10030    2    1    2    0    0  0.00000000000E+00  0.00000000000E+00 -0.93878627388E+03  0.30449674344E+04  0.28966371896E+04 0.  0.
        4    1    3    3  502    0  0.16435787874E+03 -0.61535835076E+03 -0.18367496511E+04  0.19440499752E+04  0.12699999809E+01 0. -1.
       -4    1    3    3    0  502 -0.16435787874E+03  0.61535835076E+03  0.89796337724E+03  0.11009174592E+04  0.12699999809E+01 0.  1.
</event>
<event>
 5   0  0.2678723E-07  0.2906706E+04  0.7818609E-02  0.8270885E-01
        2   -1    0    0  501    0  0.00000000000E+00  0.00000000000E+00  0.24786807028E+04  0.24786807028E+04  0.25500000920E-02 0. -1.
       -2   -1    0    0    0  501  0.00000000000E+00  0.00000000000E+00 -0.85216112985E+03  0.85216112985E+03  0.25500000920E-02 0.  1.
    10030    2    1    2    0    0  0.00000000000E+00  0.00000000000E+00  0.16265195730E+04  0.33308418327E+04  0.29067062791E+04 0.  0.
        5    1    3    3  502    0 -0.10946294102E+04  0.87195461703E+03  0.12625040408E+04  0.18847962603E+04  0.46999998093E+01 0. -1.
       -5    1    3    3    0  502  0.10946294102E+04 -0.87195461703E+03  0.36401553224E+03  0.14460455724E+04  0.46999998093E+01 0.  1.
</event>
<event>
 5   0  0.9388076E-08  0.2899610E+04  0.7818609E-02  0.8272994E-01
       -1   -1    0    0    0  501  0.00000000000E+00  0.00000000000E+00  0.83875055997E+03  0.83875055999E+03  0.50400001928E-02 0. -1.
        1   -1    0    0  501    0  0.00000000000E+00  0.00000000000E+00 -0.25060303331E+04  0.25060303331E+04  0.50400001928E-02 0.  1.
    10030    2    1    2    0    0  0.00000000000E+00  0.00000000000E+00 -0.16672797731E+04  0.33447808931E+04  0.28996098670E+04 0.  0.
        5    1    3    3  502    0  0.10618936680E+04 -0.75744408829E+01  0.30493172776E+03  0.11048443251E+04  0.46999998093E+01 0. -1.
       -5    1    3    3    0  502 -0.10618936680E+04  0.75744408829E+01 -0.19722115009E+04  0.22399365680E+04  0.46999998093E+01 0.  1.
</event>
<event>
 5   0  0.2546841E-07  0.2899416E+04  0.7818609E-02  0.8273051E-01
       -2   -1    0    0    0  501  0.00000000000E+00  0.00000000000E+00  0.68089263801E+03  0.68089263801E+03  0.25500000920E-02 0. -1.
        2   -1    0    0  501    0  0.00000000000E+00  0.00000000000E+00 -0.30866148693E+04  0.30866148693E+04  0.25500000920E-02 0.  1.
    10030    2    1    2    0    0  0.00000000000E+00  0.00000000000E+00 -0.24057222313E+04  0.37675075073E+04  0.28994160383E+04 0.  0.
        1    1    3    3  502    0  0.55211922548E+03  0.25103513755E+03 -0.29138333868E+04  0.29762861565E+04  0.50400001928E-02 0.  1.
       -1    1    3    3    0  502 -0.55211922548E+03 -0.25103513755E+03  0.50811115556E+03  0.79122135074E+03  0.50400001928E-02 0. -1.
</event>
<event>
 5   0  0.2608591E-07  0.2900307E+04  0.7818609E-02  0.8272786E-01
        2   -1    0    0  501    0  0.00000000000E+00  0.00000000000E+00  0.15654413834E+04  0.15654413834E+04  0.25500000920E-02 0.  1.
       -2   -1    0    0    0  501  0.00000000000E+00  0.00000000000E+00 -0.13433561073E+04  0.13433561073E+04  0.25500000920E-02 0. -1.
    10030    2    1    2    0    0  0.00000000000E+00  0.00000000000E+00  0.22208527617E+03  0.29087974907E+04  0.29003070479E+04 0.  0.
        2    1    3    3  502    0 -0.10873241521E+04 -0.93984141409E+03  0.30492059295E+03  0.14692012331E+04  0.25500000920E-02 0. -1.
       -2    1    3    3    0  502  0.10873241521E+04  0.93984141409E+03 -0.82835316776E+02  0.14395962576E+04  0.25500000920E-02 0.  1.
</event>
<event>
 5   0  0.2608591E-07  0.2900196E+04  0.7818609E-02  0.8272819E-01
        2   -1    0    0  501    0  0.00000000000E+00  0.00000000000E+00  0.20445982170E+04  0.20445982170E+04  0.25500000920E-02 0.  1.
       -2   -1    0    0    0  501  0.00000000000E+00  0.00000000000E+00 -0.10284586464E+04  0.10284586464E+04  0.25500000920E-02 0. -1.
    10030    2    1    2    0    0  0.00000000000E+00  0.00000000000E+00  0.10161395706E+04  0.30730568634E+04  0.29001963483E+04 0.  0.
        2    1    3    3  502    0 -0.10689998968E+04 -0.94017800467E+03  0.21578590756E+03  0.14398815985E+04  0.25500000920E-02 0. -1.
       -2    1    3    3    0  502  0.10689998968E+04  0.94017800467E+03  0.80035366309E+03  0.16331752649E+04  0.25500000920E-02 0.  1.
</event>
<event>
 5   0  0.9443352E-08  0.2899867E+04  0.7818609E-02  0.8272917E-01
        1   -1    0    0  501    0  0.00000000000E+00  0.00000000000E+00  0.16653264833E+04  0.16653264833E+04  0.50400001928E-02 0. -1.
       -1   -1    0    0    0  501  0.00000000000E+00  0.00000000000E+00 -0.12623994913E+04  0.12623994913E+04  0.50400001928E-02 0.  1.
    10030    2    1    2    0    0  0.00000000000E+00  0.00000000000E+00  0.40292699202E+03  0.29277259747E+04  0.28998671042E+04 0.  0.
        4    1    3    3  502    0  0.57668481409E+03 -0.80304135922E+03 -0.86932207837E+03  0.13164965964E+04  0.12699999809E+01 0.  1.
       -4    1    3    3    0  502 -0.57668481409E+03  0.80304135922E+03  0.12722490704E+04  0.16112293783E+04  0.12699999809E+01 0. -1.
</event>
<event>
 5   0  0.9421924E-08  0.2893947E+04  0.7818609E-02  0.8274681E-01
       -1   -1    0    0    0  501  0.00000000000E+00  0.00000000000E+00  0.92994069270E+03  0.92994069271E+03  0.50400001928E-02 0. -1.
        1   -1    0    0  501    0  0.00000000000E+00  0.00000000000E+00 -0.22514689727E+04  0.22514689727E+04  0.50400001928E-02 0.  1.
    10030    2    1    2    0    0  0.00000000000E+00  0.00000000000E+00 -0.13215282800E+04  0.31814096654E+04  0.28939472117E+04 0.  0.
        1    1    3    3  502    0  0.31825481274E+03  0.13484087346E+04 -0.11196486409E+04  0.17813212289E+04  0.50400001928E-02 0.  1.
       -1    1    3    3    0  502 -0.31825481274E+03 -0.13484087346E+04 -0.20187963907E+03  0.14000884365E+04  0.50400001928E-02 0. -1.
</event>
<event>
 5   0  0.2678723E-07  0.2899554E+04  0.7818609E-02  0.8273010E-01
       -2   -1    0    0    0  501  0.00000000000E+00  0.00000000000E+00  0.86194953827E+03  0.86194953827E+03  0.25500000920E-02 0. -1.
        2   -1    0    0  501    0  0.00000000000E+00  0.00000000000E+00 -0.24384870123E+04  0.24384870123E+04  0.25500000920E-02 0.  1.
    10030    2    1    2    0    0  0.00000000000E+00  0.00000000000E+00 -0.15765374741E+04  0.33004365506E+04  0.28995535893E+04 0.  0.
        5    1    3    3  502    0 -0.66951809593E+03 -0.55757758878E+03  0.53067740143E+03  0.10201901012E+04  0.46999998093E+01 0. -1.
       -5    1    3    3    0  502  0.66951809593E+03  0.55757758878E+03 -0.21072148755E+04  0.22802464494E+04  0.46999998093E+01 0.  1.
</event>
<event>
 5   0  0.9388076E-08  0.2900771E+04  0.7818609E-02  0.8272648E-01
        1   -1    0    0  501    0  0.00000000000E+00  0.00000000000E+00  0.16662006936E+04  0.16662006936E+04  0.50400001928E-02 0.  1.
       -1   -1    0    0    0  501  0.00000000000E+00  0.00000000000E+00 -0.12625242632E+04  0.12625242632E+04  0.50400001928E-02 0. -1.
    10030    2    1    2    0    0  0.00000000000E+00  0.00000000000E+00  0.40367643040E+03  0.29287249568E+04  0.29007714856E+04 0.  0.
        5    1    3    3  502    0  0.64202728077E+03 -0.12929220441E+04  0.34372815572E+03  0.14839196664E+04  0.46999998093E+01 0. -1.
       -5    1    3    3    0  502 -0.64202728077E+03  0.12929220441E+04  0.59948274681E+02  0.14448052903E+04  0.46999998093E+01 0.  1.
</event>
<event>
 5   0  0.2608591E-07  0.2900858E+04  0.7818609E-02  0.8272622E-01
        2   -1    0    0  501    0  0.00000000000E+00  0.00000000000E+00  0.16605638918E+04  0.16605638918E+04  0.25500000920E-02 0.  1.
       -2   -1    0    0    0  501  0.00000000000E+00  0.00000000000E+00 -0.12668850888E+04  0.12668850888E+04  0.25500000920E-02 0. -1.
    10030    2    1    2    0    0  0.00000000000E+00  0.00000000000E+00  0.39367880305E+03  0.29274489806E+04  0.29008575515E+04 0.  0.
        2    1    3    3  502    0 -0.16402030475E+03  0.13312708555E+04 -0.36008797522E+03  0.13888297596E+04  0.25500000920E-02 0. -1.
       -2    1    3    3    0  502  0.16402030475E+03 -0.13312708555E+04  0.75376677827E+03  0.15386192210E+04  0.25500000920E-02 0.  1.
</event>
<event>
 5   0  0.2492232E-07  0.2898874E+04  0.7818609E-02  0.8273213E-01
        2   -1    0    0  501    0  0.00000000000E+00  0.00000000000E+00  0.10772903598E+04  0.10772903599E+04  0.25500000920E-02 0.  1.
       -2   -1    0    0    0  501  0.00000000000E+00  0.00000000000E+00 -0.19501400834E+04  0.19501400834E+04  0.25500000920E-02 0. -1.
    10030    2    1    2    0    0  0.00000000000E+00  0.00000000000E+00 -0.87284972355E+03  0.30274304432E+04  0.28988736517E+04 0.  0.
        4    1    3    3  502    0  0.45932471935E+03 -0.86551376652E+03 -0.15518600875E+04  0.18353104975E+04  0.12699999809E+01 0. -1.
       -4    1    3    3    0  502 -0.45932471935E+03  0.86551376652E+03  0.67901036400E+03  0.11921199458E+04  0.12699999809E+01 0.  1.
</event>
<event>
 5   0  0.9443352E-08  0.2898608E+04  0.7818609E-02  0.8273292E-01
       -1   -1    0    0    0  501  0.00000000000E+00  0.00000000000E+00  0.10593051260E+04  0.10593051260E+04  0.50400001928E-02 0.  1.
        1   -1    0    0  501    0  0.00000000000E+00  0.00000000000E+00 -0.19828865036E+04  0.19828865036E+04  0.50400001928E-02 0. -1.
    10030    2    1    2    0    0  0.00000000000E+00  0.00000000000E+00 -0.92358137757E+03  0.30421916296E+04  0.28986078297E+04 0.  0.
        4    1    3    3  502    0 -0.13156742174E+04 -0.42694955979E+03 -0.91588387413E+03  0.16589543263E+04  0.12699999809E+01 0. -1.
       -4    1    3    3    0  502  0.13156742174E+04  0.42694955979E+03 -0.76975034372E+01  0.13832373033E+04  0.12699999809E+01 0.  1.
</event>
<event>
 5   0  0.2678723E-07  0.2900561E+04  0.7818609E-02  0.8272711E-01
        2   -1    0    0  501    0  0.00000000000E+00  0.00000000000E+00  0.23655100005E+04  0.23655100005E+04  0.25500000920E-02 0. -1.
       -2   -1    0    0    0  501  0.00000000000E+00  0.00000000000E+00 -0.88915840494E+03  0.88915840494E+03  0.25500000920E-02 0.  1.
    10030    2    1    2    0    0  0.00000000000E+00  0.00000000000E+00  0.14763515955E+04  0.32546684054E+04  0.29005607036E+04 0.  0.
        5    1    3    3  502    0 -0.92510228712E+03  0.29683487298E+03  0.19463652402E+04  0.21753815577E+04  0.46999998093E+01 0. -1.
       -5    1    3    3    0  502  0.92510228712E+03 -0.29683487298E+03 -0.47001364466E+03  0.10792868477E+04  0.46999998093E+01 0.  1.
</event>
<event>
 5   0  0.2534588E-07  0.2900974E+04  0.7818609E-02  0.8272588E-01
       -2   -1    0    0    0  501  0.00000000000E+00  0.00000000000E+00  0.72131954620E+03  0.72131954620E+03  0.25500000920E-02 0.  1.
        2   -1    0    0  501    0  0.00000000000E+00  0.00000000000E+00 -0.29167553709E+04  0.29167553709E+04  0.25500000920E-02 0. -1.
    10030    2    1    2    0    0  0.00000000000E+00  0.00000000000E+00 -0.21954358247E+04  0.36380749171E+04  0.29009740851E+04 0.  0.
        3    1    3    3  502    0 -0.37105593597E+03 -0.12506656468E+04 -0.30251815645E+03  0.13391655286E+04  0.10100000352E+00 0.  1.
       -3    1    3    3    0  502  0.37105593597E+03  0.12506656468E+04 -0.18929176683E+04  0.22989093886E+04  0.10100000352E+00 0. -1.
</event>
<event>
 5   0  0.2492232E-07  0.2895721E+04  0.7818609E-02  0.8274152E-01
       -2   -1    0    0    0  501  0.00000000000E+00  0.00000000000E+00  0.11387144952E+04  0.11387144952E+04  0.25500000920E-02 0.  1.
        2   -1    0    0  501    0  0.00000000000E+00  0.00000000000E+00 -0.18409355497E+04  0.18409355497E+04  0.25500000920E-02 0. -1.
    10030    2    1    2    0    0  0.00000000000E+00  0.00000000000E+00 -0.70222105450E+03  0.29796500448E+04  0.28957209776E+04 0.  0.
        4    1    3    3  502    0 -0.10189823275E+04 -0.46239789677E+03  0.59430197172E+03  0.12670174605E+04  0.12699999809E+01 0.  1.
       -4    1    3    3    0  502  0.10189823275E+04  0.46239789677E+03 -0.12965230262E+04  0.17126325844E+04  0.12699999809E+01 0. -1.
</event>
<event>
 5   0  0.9395744E-08  0.2900489E+04  0.7818609E-02  0.8272732E-01
       -1   -1    0    0    0  501  0.00000000000E+00  0.00000000000E+00  0.13511672712E+04  0.13511672712E+04  0.50400001928E-02 0. -1.
        1   -1    0    0  501    0  0.00000000000E+00  0.00000000000E+00 -0.15565865813E+04  0.15565865813E+04  0.50400001928E-02 0.  1.
    10030    2    1    2    0    0  0.00000000000E+00  0.00000000000E+00 -0.20541931010E+03  0.29077538525E+04  0.29004888164E+04 0.  0.
        2    1    3    3  502    0 -0.69700381385E+03  0.11491111539E+04 -0.64899480471E+03  0.14924694359E+04  0.25500000920E-02 0.  1.
       -2    1    3    3    0  502  0.69700381385E+03 -0.11491111539E+04  0.44357549462E+03  0.14152844166E+04  0.25500000920E-02 0. -1.
</event>
<event>
 5   0  0.2534588E-07  0.2900608E+04  0.7818609E-02  0.8272697E-01
        2   -1    0    0  501    0  0.00000000000E+00  0.00000000000E+00  0.12657939027E+04  0.12657939027E+04  0.25500000920E-02 0. -1.
       -2   -1    0    0    0  501  0.00000000000E+00  0.00000000000E+00 -0.16617093295E+04  0.16617093295E+04  0.25500000920E-02 0.  1.
    10030    2    1    2    0    0  0.00000000000E+00  0.00000000000E+00 -0.39591542677E+03  0.29275032322E+04  0.29006078931E+04 0.  0.
        3    1    3    3  502    0  0.11650127112E+04  0.74495839129E+03  0.24331930071E+03  0.14040733294E+04  0.10100000352E+00 0. -1.
       -3    1    3    3    0  502 -0.11650127112E+04 -0.74495839129E+03 -0.63923472748E+03  0.15234299029E+04  0.10100000352E+00 0.  1.
</event>
<event>
 5   0  0.9388076E-08  0.2901221E+04  0.7818609E-02  0.8272514E-01
        1   -1    0    0  501    0  0.00000000000E+00  0.00000000000E+00  0.15389918182E+04  0.15389918182E+04  0.50400001928E-02 0.  1.
       -1   -1    0    0    0  501  0.00000000000E+00  0.00000000000E+00 -0.13673044459E+04  0.13673044459E+04  0.50400001928E-02 0. -1.
    10030    2    1    2    0    0  0.00000000000E+00  0.00000000000E+00  0.17168737226E+03  0.29062962641E+04  0.29012206777E+04 0.  0.
        5    1    3    3  502    0 -0.66377922923E+03 -0.11016504640E+04 -0.58615898680E+03  0.14134500550E+04  0.46999998093E+01 0. -1.
       -5    1    3    3    0  502  0.66377922923E+03  0.11016504640E+04  0.75784635906E+03  0.14928462091E+04  0.46999998093E+01 0.  1.
</event>
<event>
 5   0  0.2492232E-07  0.2900874E+04  0.7818609E-02  0.8272617E-01
       -2   -1    0    0    0  501  0.00000000000E+00  0.00000000000E+00  0.22232195299E+04  0.22232195299E+04  0.25500000920E-02 0. -1.
        2   -1    0    0  501    0  0.00000000000E+00  0.00000000000E+00 -0.94627070246E+03  0.94627070247E+03  0.25500000920E-02 0.  1.
    10030    2    1    2    0    0  0.00000000000E+00  0.00000000000E+00  0.12769488274E+04  0.31694902323E+04  0.29008740105E+04 0.  0.
        4    1    3    3  502    0  0.66791422180E+02 -0.11220177298E+03 -0.93983511310E+03  0.94886352267E+03  0.12699999809E+01 0.  1.
       -4    1    3    3    0  502 -0.66791422180E+02  0.11220177298E+03  0.22167839405E+04  0.22206267097E+04  0.12699999809E+01 0. -1.
</event>
<event>
 5   0  0.9421924E-08  0.2899686E+04  0.7818609E-02  0.8272971E-01
       -1   -1    0    0    0  501  0.00000000000E+00  0.00000000000E+00  0.17048291308E+04  0.17048291308E+04  0.50400001928E-02 0. -1.
        1   -1    0    0  501    0  0.00000000000E+00  0.00000000000E+00 -0.12329947599E+04  0.12329947599E+04  0.50400001928E-02 0.  1.
    10030    2    1    2    0    0  0.00000000000E+00  0.00000000000E+00  0.47183437094E+03  0.29378238908E+04  0.28996864554E+04 0.  0.
        1    1    3    3  502    0  0.12175559504E+04 -0.89207970366E+02 -0.55644615283E+03  0.13416530384E+04  0.50400001928E-02 0.  1.
       -1    1    3    3    0  502 -0.12175559504E+04  0.89207970366E+02  0.10282805238E+04  0.15961708524E+04  0.50400001928E-02 0. -1.
</event>
<event>
 5   0  0.2678723E-07  0.2899335E+04  0.7818609E-02  0.8273075E-01
        2   -1    0    0  501    0  0.00000000000E+00  0.00000000000E+00  0.19782187697E+04  0.19782187697E+04  0.25500000920E-02 0. -1.
       -2   -1    0    0    0  501  0.00000000000E+00  0.00000000000E+00 -0.10623377895E+04  0.10623377895E+04  0.25500000920E-02 0.  1.
    10030    2    1    2    0    0  0.00000000000E+00  0.00000000000E+00  0.91588098019E+03  0.30405565591E+04  0.28993354789E+04 0.  0.
        5    1    3    3  502    0 -0.12969477661E+04  0.63647160502E+03  0.58354425770E+03  0.15581128337E+04  0.46999998093E+01 0.  1.
       -5    1    3    3    0  502  0.12969477661E+04 -0.63647160502E+03  0.33233672249E+03  0.14824437254E+04  0.46999998093E+01 0. -1.
</event>
<event>
 5   0  0.9388076E-08  0.2900107E+04  0.7818609E-02  0.8272846E-01
       -1   -1    0    0    0  501  0.00000000000E+00  0.00000000000E+00  0.81808029425E+03  0.81808029427E+03  0.50400001928E-02 0.  1.
        1   -1    0    0  501    0  0.00000000000E+00  0.00000000000E+00 -0.25702299096E+04  0.25702299096E+04  0.50400001928E-02 0. -1.
    10030    2    1    2    0    0  0.00000000000E+00  0.00000000000E+00 -0.17521496154E+04  0.33883102039E+04  0.29001065089E+04 0.  0.
        5    1    3    3  502    0 -0.29390131632E+03 -0.62184248860E+03 -0.23675129004E+04  0.24654016890E+04  0.46999998093E+01 0. -1.
       -5    1    3    3    0  502  0.29390131632E+03  0.62184248860E+03  0.61536328504E+03  0.92290851493E+03  0.46999998093E+01 0.  1.
</event>
<event>
 5   0  0.9388076E-08  0.2899907E+04  0.7818609E-02  0.8272905E-01
        1   -1    0    0  501    0  0.00000000000E+00  0.00000000000E+00  0.34721028104E+04  0.34721028104E+04  0.50400001928E-02 0.  1.
       -1   -1    0    0    0  501  0.00000000000E+00  0.00000000000E+00 -0.60550218056E+03  0.60550218058E+03  0.50400001928E-02 0. -1.
    10030    2    1    2    0    0  0.00000000000E+00  0.00000000000E+00  0.28666006299E+04  0.40776049910E+04  0.28999074626E+04 0.  0.
        5    1    3    3  502    0  0.92343314793E+03 -0.81592197875E+03  0.25077476854E+04  0.27941506755E+04  0.46999998093E+01 0.  1.
       -5    1    3    3    0  502 -0.92343314793E+03  0.81592197875E+03  0.35885294449E+03  0.12834543155E+04  0.46999998093E+01 0. -1.
</event>
<event>
 5   0  0.2678723E-07  0.2899802E+04  0.7818609E-02  0.8272936E-01
       -2   -1    0    0    0  501  0.00000000000E+00  0.00000000000E+00  0.15479402288E+04  0.15479402288E+04  0.25500000920E-02 0. -1.
        2   -1    0    0  501    0  0.00000000000E+00  0.00000000000E+00 -0.13580708163E+04  0.13580708163E+04  0.25500000920E-02 0.  1.
    10030    2    1    2    0    0  0.00000000000E+00  0.00000000000E+00  0.18986941254E+03  0.29060110451E+04  0.28998016830E+04 0.  0.
        5    1    3    3  502    0  0.90300152391E+03  0.11339661684E+04  0.64881543468E+02  0.14510419456E+04  0.46999998093E+01 0.  1.
       -5    1    3    3    0  502 -0.90300152391E+03 -0.11339661684E+04  0.12498786908E+03  0.14549690995E+04  0.46999998093E+01 0. -1.
</event>
<event>
 5   0  0.9421924E-08  0.2903425E+04  0.7818609E-02  0.8271859E-01
       -1   -1    0    0    0  501  0.00000000000E+00  0.00000000000E+00  0.10941055151E+04  0.10941055151E+04  0.50400001928E-02 0.  1.
        1   -1    0    0  501    0  0.00000000000E+00  0.00000000000E+00 -0.19262023513E+04  0.19262023513E+04  0.50400001928E-02 0. -1.
    10030    2    1    2    0    0  0.00000000000E+00  0.00000000000E+00 -0.83209683625E+03  0.30203078664E+04  0.29034246095E+04 0.  0.
        1    1    3    3  502    0  0.12339182078E+04  0.15601575982E+02  0.37937149656E+03  0.12910152150E+04  0.50400001928E-02 0. -1.
       -1    1    3    3    0  502 -0.12339182078E+04 -0.15601575982E+02 -0.12114683328E+04  0.17292926514E+04  0.50400001928E-02 0.  1.
</event>
<event>
 5   0  0.9443352E-08  0.2902421E+04  0.7818609E-02  0.8272157E-01
        1   -1    0    0  501    0  0.00000000000E+00  0.00000000000E+00  0.21770614718E+04  0.21770614719E+04  0.50400001928E-02 0. -1.
       -1   -1    0    0    0  501  0.00000000000E+00  0.00000000000E+00 -0.96736459527E+03  0.96736459528E+03  0.50400001928E-02 0.  1.
    10030    2    1    2    0    0  0.00000000000E+00  0.00000000000E+00  0.12096968766E+04  0.31444260671E+04  0.29024211890E+04 0.  0.
        4    1    3    3  502    0 -0.56408652666E+03  0.12058596045E+04  0.12307006583E+04  0.18129855814E+04  0.12699999809E+01 0. -1.
       -4    1    3    3    0  502  0.56408652666E+03 -0.12058596045E+04 -0.21003781733E+02  0.13314404857E+04  0.12699999809E+01 0.  1.
</event>
<event>
 5   0  0.9388076E-08  0.2900092E+04  0.7818609E-02  0.8272850E-01
        1   -1    0    0  501    0  0.00000000000E+00  0.00000000000E+00  0.15372588930E+04  0.15372588930E+04  0.50400001928E-02 0. -1.
       -1   -1    0    0    0  501  0.00000000000E+00  0.00000000000E+00 -0.13677808277E+04  0.13677808277E+04  0.50400001928E-02 0.  1.
    10030    2    1    2    0    0  0.00000000000E+00  0.00000000000E+00  0.16947806527E+03  0.29050397207E+04  0.29000918890E+04 0.  0.
        5    1    3    3  502    0  0.60932347528E+03 -0.66089206134E+03  0.12244665358E+04  0.15190107971E+04  0.46999998093E+01 0. -1.
       -5    1    3    3    0  502 -0.60932347528E+03  0.66089206134E+03 -0.10549884705E+04  0.13860289237E+04  0.46999998093E+01 0.  1.
</event>
<event>
 5   0  0.9443352E-08  0.2897982E+04  0.7818609E-02  0.8273478E-01
       -1   -1    0    0    0  501  0.00000000000E+00  0.00000000000E+00  0.12486910312E+04  0.12486910313E+04  0.50400001928E-02 0.  1.
        1   -1    0    0  501    0  0.00000000000E+00  0.00000000000E+00 -0.16814210166E+04  0.16814210166E+04  0.50400001928E-02 0. -1.
    10030    2    1    2    0    0  0.00000000000E+00  0.00000000000E+00 -0.43272998532E+03  0.29301120478E+04  0.28979822934E+04 0.  0.
        4    1    3    3  502    0 -0.12701420290E+04  0.49846411985E+03  0.27673711939E+03  0.13922328464E+04  0.12699999809E+01 0.  1.
       -4    1    3    3    0  502  0.12701420290E+04 -0.49846411985E+03 -0.70946710471E+03  0.15378792014E+04  0.12699999809E+01 0. -1.
</event>
<event>
 5   0  0.9443352E-08  0.2900630E+04  0.7818609E-02  0.8272690E-01
       -1   -1    0    0    0  501  0.00000000000E+00  0.00000000000E+00  0.14044383245E+04  0.14044383245E+04  0.50400001928E-02 0.  1.
        1   -1    0    0  501    0  0.00000000000E+00  0.00000000000E+00 -0.14976899349E+04  0.14976899349E+04  0.50400001928E-02 0. -1.
    10030    2    1    2    0    0  0.00000000000E+00  0.00000000000E+00 -0.93251610364E+02  0.29021282594E+04  0.29006296852E+04 0.  0.
        4    1    3    3  502    0 -0.23834576170E+03  0.69217690753E+03  0.12060170119E+04  0.14108140272E+04  0.12699999809E+01 0.  1.
       -4    1    3    3    0  502  0.23834576170E+03 -0.69217690753E+03 -0.12992686223E+04  0.14913142322E+04  0.12699999809E+01 0. -1.
</event>
<event>
 5   0  0.9443352E-08  0.2899507E+04  0.7818609E-02  0.8273024E-01
       -1   -1    0    0    0  501  0.00000000000E+00  0.00000000000E+00  0.12678571515E+04  0.12678571515E+04  0.50400001928E-02 0. -1.
        1   -1    0    0  501    0  0.00000000000E+00  0.00000000000E+00 -0.16577464647E+04  0.16577464647E+04  0.50400001928E-02 0.  1.
    10030    2    1    2    0    0  0.00000000000E+00  0.00000000000E+00 -0.38988931324E+03  0.29256036162E+04  0.28995073448E+04 0.  0.
        4    1    3    3  502    0  0.66425102779E+03  0.12448116178E+04  0.14121858969E+03  0.14180020080E+04  0.12699999809E+01 0. -1.
       -4    1    3    3    0  502 -0.66425102779E+03 -0.12448116178E+04 -0.53110790293E+03  0.15076016082E+04  0.12699999809E+01 0.  1.
</event>
<event>
 5   0  0.9421924E-08  0.2899197E+04  0.7818609E-02  0.8273117E-01
       -1   -1    0    0    0  501  0.00000000000E+00  0.00000000000E+00  0.18333532334E+04  0.18333532334E+04  0.50400001928E-02 0.  1.
        1   -1    0    0  501    0  0.00000000000E+00  0.00000000000E+00 -0.11461704564E+04  0.11461704564E+04  0.50400001928E-02 0. -1.
    10030    2    1    2    0    0  0.00000000000E+00  0.00000000000E+00  0.68718277705E+03  0.29795236898E+04  0.28991966558E+04 0.  0.
        1    1    3    3  502    0 -0.13677039049E+04  0.17031312134E+03  0.80516187316E+03  0.15962162049E+04  0.50400001928E-02 0.  1.
       -1    1    3    3    0  502  0.13677039049E+04 -0.17031312134E+03 -0.11797909611E+03  0.13833074849E+04  0.50400001928E-02 0. -1.
</event>
<event>
 5   0  0.2608591E-07  0.2897898E+04  0.7818609E-02  0.8273503E-01
       -2   -1    0    0    0  501  0.00000000000E+00  0.00000000000E+00  0.16027769216E+04  0.16027769216E+04  0.25500000920E-02 0.  1.
        2   -1    0    0  501    0  0.00000000000E+00  0.00000000000E+00 -0.13098852187E+04  0.13098852187E+04  0.25500000920E-02 0. -1.
    10030    2    1    2    0    0  0.00000000000E+00  0.00000000000E+00  0.29289170289E+03  0.29126621403E+04  0.28978984098E+04 0.  0.
        2    1    3    3  502    0 -0.30302961016E+02  0.24712291478E+02  0.16022465247E+04  0.16027235859E+04  0.25500000920E-02 0.  1.
       -2    1    3    3    0  502  0.30302961016E+02 -0.24712291478E+02 -0.13093548218E+04  0.13099385544E+04  0.25500000920E-02 0. -1.
</event>
<event>
 5   0  0.9421924E-08  0.2900732E+04  0.7818609E-02  0.8272660E-01
        1   -1    0    0  501    0  0.00000000000E+00  0.00000000000E+00  0.15517405484E+04  0.15517405484E+04  0.50400001928E-02 0. -1.
       -1   -1    0    0    0  501  0.00000000000E+00  0.00000000000E+00 -0.13556141696E+04  0.13556141697E+04  0.50400001928E-02 0.  1.
    10030    2    1    2    0    0  0.00000000000E+00  0.00000000000E+00  0.19612637873E+03  0.29073547180E+04  0.29007319594E+04 0.  0.
        1    1    3    3  502    0  0.14407963439E+04  0.25290459446E+02 -0.66713386811E+02  0.14425617449E+04  0.50400001928E-02 0.  1.
       -1    1    3    3    0  502 -0.14407963439E+04 -0.25290459446E+02  0.26283976554E+03  0.14647929732E+04  0.50400001928E-02 0. -1.
</event>
<event>
 5   0  0.9421924E-08  0.2899299E+04  0.7818609E-02  0.8273086E-01
       -1   -1    0    0    0  501  0.00000000000E+00  0.00000000000E+00  0.80018126400E+03  0.80018126402E+03  0.50400001928E-02 0. -1.
        1   -1    0    0  501    0  0.00000000000E+00  0.00000000000E+00 -0.26262589044E+04  0.26262589044E+04  0.50400001928E-02 0.  1.
    10030    2    1    2    0    0  0.00000000000E+00  0.00000000000E+00 -0.18260776404E+04  0.34264401685E+04  0.28992986530E+04 0.  0.
        1    1    3    3  502    0 -0.10344880518E+04 -0.60904927942E+03  0.47347669731E+02  0.12013943382E+04  0.50400001928E-02 0. -1.
       -1    1    3    3    0  502  0.10344880518E+04  0.60904927942E+03 -0.18734253102E+04  0.22250458303E+04  0.50400001928E-02 0.  1.
</event>
<event>
 5   0  0.2678723E-07  0.2899396E+04  0.7818609E-02  0.8273057E-01
        2   -1    0    0  501    0  0.00000000000E+00  0.00000000000E+00  0.24355224102E+04  0.24355224102E+04  0.25500000920E-02 0.  1.
       -2   -1    0    0    0  501  0.00000000000E+00  0.00000000000E+00 -0.86290490693E+03  0.86290490693E+03  0.25500000920E-02 0. -1.
    10030    2    1    2    0    0  0.00000000000E+00  0.00000000000E+00  0.15726175033E+04  0.32984273172E+04  0.28993959638E+04 0.  0.
        5    1    3    3  502    0  0.14016768797E+04 -0.35382490137E+03  0.90942493933E+03  0.17079127455E+04  0.46999998093E+01 0. -1.
       -5    1    3    3    0  502 -0.14016768797E+04  0.35382490137E+03  0.66319256399E+03  0.15905145717E+04  0.46999998093E+01 0.  1.
</event>
<event>
 5   0  0.9395744E-08  0.2899747E+04  0.7818609E-02  0.8272953E-01
       -1   -1    0    0    0  501  0.00000000000E+00  0.00000000000E+00  0.13910138881E+04  0.13910138881E+04  0.50400001928E-02 0.  1.
        1   -1    0    0  501    0  0.00000000000E+00  0.00000000000E+00 -0.15112235424E+04  0.15112235424E+04  0.50400001928E-02 0. -1.
    10030    2    1    2    0    0  0.00000000000E+00  0.00000000000E+00 -0.12020965436E+03  0.29022374305E+04  0.28997468410E+04 0.  0.
        2    1    3    3  502    0  0.96611314114E+03  0.10514548403E+04  0.19150929406E+03  0.14406969468E+04  0.25500000920E-02 0.  1.
       -2    1    3    3    0  502 -0.96611314114E+03 -0.10514548403E+04 -0.31171894842E+03  0.14615404837E+04  0.25500000920E-02 0. -1.
</event>
<event>
 5   0  0.9388076E-08  0.2900348E+04  0.7818609E-02  0.8272774E-01
       -1   -1    0    0    0  501  0.00000000000E+00  0.00000000000E+00  0.19108021809E+04  0.19108021809E+04  0.50400001928E-02 0.  1.
        1   -1    0    0  501    0  0.00000000000E+00  0.00000000000E+00 -0.11005875906E+04  0.11005875906E+04  0.50400001928E-02 0. -1.
    10030    2    1    2    0    0  0.00000000000E+00  0.00000000000E+00  0.81021459025E+03  0.30113897715E+04  0.29003483711E+04 0.  0.
        5    1    3    3  502    0 -0.92216529603E+03 -0.10435852279E+04  0.82497039898E+03  0.16186590779E+04  0.46999998093E+01 0.  1.
       -5    1    3    3    0  502  0.92216529603E+03  0.10435852279E+04 -0.14755808724E+02  0.13927306937E+04  0.46999998093E+01 0. -1.
</event>
<event>
 5   0  0.9443352E-08  0.2901611E+04  0.7818609E-02  0.8272398E-01
       -1   -1    0    0    0  501  0.00000000000E+00  0.00000000000E+00  0.85745526363E+03  0.85745526364E+03  0.50400001928E-02 0. -1.
        1   -1    0    0  501    0  0.00000000000E+00  0.00000000000E+00 -0.24547483195E+04  0.24547483195E+04  0.50400001928E-02 0.  1.
    10030    2    1    2    0    0  0.00000000000E+00  0.00000000000E+00 -0.15972930559E+04  0.33122035832E+04  0.29016111852E+04 0.  0.
        4    1    3    3  502    0 -0.27317793831E+02 -0.13008386350E+04 -0.66028107379E+02  0.13028003455E+04  0.12699999809E+01 0. -1.
       -4    1    3    3    0  502  0.27317793831E+02  0.13008386350E+04 -0.15312649485E+04  0.20094032377E+04  0.12699999809E+01 0.  1.
</event>
<event>
 5   0  0.9443352E-08  0.2899616E+04  0.7818609E-02  0.8272992E-01
        1   -1    0    0  501    0  0.00000000000E+00  0.00000000000E+00  0.16171103828E+04  0.16171103828E+04  0.50400001928E-02 0. -1.
       -1   -1    0    0    0  501  0.00000000000E+00  0.00000000000E+00 -0.12998145278E+04  0.12998145278E+04  0.50400001928E-02 0.  1.
    10030    2    1    2    0    0  0.00000000000E+00  0.00000000000E+00  0.31729585495E+03  0.29169249106E+04  0.28996162288E+04 0.  0.
        4    1    3    3  502    0  0.94652582314E+01  0.57283174737E+03 -0.11811113967E+04  0.13127267599E+04  0.12699999809E+01 0.  1.
       -4    1    3    3    0  502 -0.94652582314E+01 -0.57283174737E+03  0.14984072516E+04  0.16041981507E+04  0.12699999809E+01 0. -1.
</event>
<event>
 5   0  0.2492232E-07  0.2903747E+04  0.7818609E-02  0.8271764E-01
        2   -1    0    0  501    0  0.00000000000E+00  0.00000000000E+00  0.14573916725E+04  0.14573916725E+04  0.25500000920E-02 0.  1.
       -2   -1    0    0    0  501  0.00000000000E+00  0.00000000000E+00 -0.14463762203E+04  0.14463762203E+04  0.25500000920E-02 0. -1.
    10030    2    1    2    0    0  0.00000000000E+00  0.00000000000E+00  0.11015452170E+02  0.29037678928E+04  0.29037469992E+04 0.  0.
        4    1    3    3  502    0  0.15600902774E+03  0.12262316299E+04 -0.75604369372E+03  0.14489949988E+04  0.12699999809E+01 0. -1.
       -4    1    3    3    0  502 -0.15600902774E+03 -0.12262316299E+04  0.76705914589E+03  0.14547728940E+04  0.12699999809E+01 0.  1.
</event>
<event>
 5   0  0.9763851E-08  0.2906912E+04  0.7818609E-02  0.8270824E-01
        1   -1    0    0  501    0  0.00000000000E+00  0.00000000000E+00  0.18596617764E+04  0.18596617764E+04  0.50400001928E-02 0.  1.
       -1   -1    0    0    0  501  0.00000000000E+00  0.00000000000E+00 -0.11359773501E+04  0.11359773501E+04  0.50400001928E-02 0. -1.
    10030    2    1    2    0    0  0.00000000000E+00  0.00000000000E+00  0.72368442626E+03  0.29956391266E+04  0.29069115273E+04 0.  0.
        3    1    3    3  502    0  0.75716081349E+03 -0.49057276277E+03  0.15361770753E+04  0.17815145663E+04  0.10100000352E+00 0.  1.
       -3    1    3    3    0  502 -0.75716081349E+03  0.49057276277E+03 -0.81249264899E+03  0.12141245603E+04  0.10100000352E+00 0. -1.
</event>
<event>
 5   0  0.2608591E-07  0.2901270E+04  0.7818609E-02  0.8272500E-01
       -2   -1    0    0    0  501  0.00000000000E+00  0.00000000000E+00  0.17742378507E+04  0.17742378507E+04  0.25500000920E-02 0.  1.
        2   -1    0    0  501    0  0.00000000000E+00  0.00000000000E+00 -0.11860541983E+04  0.11860541983E+04  0.25500000920E-02 0. -1.
    10030    2    1    2    0    0  0.00000000000E+00  0.00000000000E+00  0.58818365242E+03  0.29602920489E+04  0.29012702401E+04 0.  0.
        2    1    3    3  502    0  0.43864782349E+03  0.13289055757E+04  0.68388480008E+03  0.15575944151E+04  0.25500000920E-02 0.  1.
       -2    1    3    3    0  502 -0.43864782349E+03 -0.13289055757E+04 -0.95701147661E+02  0.14026976338E+04  0.25500000920E-02 0. -1.
</event>
<event>
 5   0  0.2678723E-07  0.2902227E+04  0.7818609E-02  0.8272215E-01
        2   -1    0    0  501    0  0.00000000000E+00  0.00000000000E+00  0.15083590441E+04  0.15083590441E+04  0.25500000920E-02 0.  1.
       -2   -1    0    0    0  501  0.00000000000E+00  0.00000000000E+00 -0.13960409620E+04  0.13960409620E+04  0.25500000920E-02 0. -1.
    10030    2    1    2    0    0  0.00000000000E+00  0.00000000000E+00  0.11231808214E+03  0.29044000061E+04  0.29022274280E+04 0.  0.
        5    1    3    3  502    0 -0.75367507050E+03 -0.99900614638E+03 -0.67901292070E+03  0.14237696544E+04  0.46999998093E+01 0. -1.
       -5    1    3    3    0  502  0.75367507050E+03  0.99900614638E+03  0.79133100283E+03  0.14806303517E+04  0.46999998093E+01 0.  1.
</event>
<event>
 5   0  0.2534588E-07  0.2900462E+04  0.7818609E-02  0.8272740E-01
        2   -1    0    0  501    0  0.00000000000E+00  0.00000000000E+00  0.17513893886E+04  0.17513893886E+04  0.25500000920E-02 0.  1.
       -2   -1    0    0    0  501  0.00000000000E+00  0.00000000000E+00 -0.12008579316E+04  0.12008579316E+04  0.25500000920E-02 0. -1.
    10030    2    1    2    0    0  0.00000000000E+00  0.00000000000E+00  0.55053145703E+03  0.29522473201E+04  0.29004619208E+04 0.  0.
        3    1    3    3  502    0  0.98030940342E+03 -0.72795462239E+02 -0.81000939795E+03  0.12737428864E+04  0.10100000352E+00 0. -1.
       -3    1    3    3    0  502 -0.98030940342E+03  0.72795462239E+02  0.13605408550E+04  0.16785044337E+04  0.10100000352E+00 0.  1.
</event>
<event>
 5   0  0.9395744E-08  0.2899945E+04  0.7818609E-02  0.8272894E-01
       -1   -1    0    0    0  501  0.00000000000E+00  0.00000000000E+00  0.12489502225E+04  0.12489502225E+04  0.50400001928E-02 0.  1.
        1   -1    0    0  501    0  0.00000000000E+00  0.00000000000E+00 -0.16833504661E+04  0.16833504661E+04  0.50400001928E-02 0. -1.
    10030    2    1    2    0    0  0.00000000000E+00  0.00000000000E+00 -0.43440024361E+03  0.29323006887E+04  0.28999454748E+04 0.  0.
        2    1    3    3  502    0  0.13259578064E+04 -0.51088400540E+03  0.74557482442E+02  0.14229284555E+04  0.25500000920E-02 0.  1.
       -2    1    3    3    0  502 -0.13259578064E+04  0.51088400540E+03 -0.50895772605E+03  0.15093722331E+04  0.25500000920E-02 0. -1.
</event>
<event>
 5   0  0.2534588E-07  0.2893242E+04  0.7818609E-02  0.8274891E-01
        2   -1    0    0  501    0  0.00000000000E+00  0.00000000000E+00  0.22264682097E+04  0.22264682097E+04  0.25500000920E-02 0.  1.
       -2   -1    0    0    0  501  0.00000000000E+00  0.00000000000E+00 -0.93992435177E+03  0.93992435177E+03  0.25500000920E-02 0. -1.
    10030    2    1    2    0    0  0.00000000000E+00  0.00000000000E+00  0.12865438579E+04  0.31663925614E+04  0.28932415652E+04 0.  0.
        3    1    3    3  502    0  0.74762940217E+03  0.11370716811E+04  0.10619647227E+03  0.13649759822E+04  0.10100000352E+00 0.  1.
       -3    1    3    3    0  502 -0.74762940217E+03 -0.11370716811E+04  0.11803473856E+04  0.18014165792E+04  0.10100000352E+00 0. -1.
</event>
<event>
 5   0  0.9388076E-08  0.2899923E+04  0.7818609E-02  0.8272900E-01
        1   -1    0    0  501    0  0.00000000000E+00  0.00000000000E+00  0.17245426661E+04  0.17245426661E+04  0.50400001928E-02 0. -1.
       -1   -1    0    0    0  501  0.00000000000E+00  0.00000000000E+00 -0.12190993496E+04  0.12190993496E+04  0.50400001928E-02 0.  1.
    10030    2    1    2    0    0  0.00000000000E+00  0.00000000000E+00  0.50544331649E+03  0.29436420157E+04  0.28999233387E+04 0.  0.
        5    1    3    3  502    0  0.27395559151E+03 -0.16923834175E+03  0.16877794790E+04  0.17182301773E+04  0.46999998093E+01 0. -1.
       -5    1    3    3    0  502 -0.27395559151E+03  0.16923834175E+03 -0.11823361625E+04  0.12254118384E+04  0.46999998093E+01 0.  1.
</event>
<event>
 5   0  0.9763851E-08  0.2900289E+04  0.7818609E-02  0.8272792E-01
       -1   -1    0    0    0  501  0.00000000000E+00  0.00000000000E+00  0.16810324454E+04  0.16810324454E+04  0.50400001928E-02 0.  1.
        1   -1    0    0  501    0  0.00000000000E+00  0.00000000000E+00 -0.12509683846E+04  0.12509683846E+04  0.50400001928E-02 0. -1.
    10030    2    1    2    0    0  0.00000000000E+00  0.00000000000E+00  0.43006406077E+03  0.29320008300E+04  0.29002885668E+04 0.  0.
        3    1    3    3  502    0  0.59384605151E+03 -0.12833171053E+04  0.54004777141E+03  0.15136735220E+04  0.10100000352E+00 0.  1.
       -3    1    3    3    0  502 -0.59384605151E+03  0.12833171053E+04 -0.10998371063E+03  0.14183273079E+04  0.10100000352E+00 0. -1.
</event>
<event>
 5   0  0.9421924E-08  0.2900042E+04  0.7818609E-02  0.8272865E-01
        1   -1    0    0  501    0  0.00000000000E+00  0.00000000000E+00  0.15419129222E+04  0.15419129222E+04  0.50400001928E-02 0. -1.
       -1   -1    0    0    0  501  0.00000000000E+00  0.00000000000E+00 -0.13636057859E+04  0.13636057859E+04  0.50400001928E-02 0.  1.
    10030    2    1    2    0    0  0.00000000000E+00  0.00000000000E+00  0.17830713630E+03  0.29055187081E+04  0.29000423322E+04 0.  0.
        1    1    3    3  502    0  0.10136982176E+04 -0.20937134763E+03  0.11065222276E+04  0.15151936766E+04  0.50400001928E-02 0. -1.
       -1    1    3    3    0  502 -0.10136982176E+04  0.20937134763E+03 -0.92821509128E+03  0.13903250315E+04  0.50400001928E-02 0.  1.
</event>
<event>
 5   0  0.2492232E-07  0.2900022E+04  0.7818609E-02  0.8272871E-01
       -2   -1    0    0    0  501  0.00000000000E+00  0.00000000000E+00  0.10144297630E+04  0.10144297630E+04  0.25500000920E-02 0.  1.
        2   -1    0    0  501    0  0.00000000000E+00  0.00000000000E+00 -0.20726246875E+04  0.20726246875E+04  0.25500000920E-02 0. -1.
    10030    2    1    2    0    0  0.00000000000E+00  0.00000000000E+00 -0.10581949246E+04  0.30870544505E+04  0.29000221865E+04 0.  0.
        4    1    3    3  502    0  0.19975835317E+03  0.79557556425E+03 -0.18019069523E+04  0.19798267995E+04  0.12699999809E+01 0. -1.
       -4    1    3    3    0  502 -0.19975835317E+03 -0.79557556425E+03  0.74371202779E+03  0.11072276511E+04  0.12699999809E+01 0.  1.
</event>
<event>
 5   0  0.9443352E-08  0.2900916E+04  0.7818609E-02  0.8272605E-01
       -1   -1    0    0    0  501  0.00000000000E+00  0.00000000000E+00  0.97231496080E+03  0.97231496081E+03  0.50400001928E-02 0.  1.
        1   -1    0    0  501    0  0.00000000000E+00  0.00000000000E+00 -0.21637317447E+04  0.21637317447E+04  0.50400001928E-02 0. -1.
    10030    2    1    2    0    0  0.00000000000E+00  0.00000000000E+00 -0.11914167839E+04  0.31360467055E+04  0.29009162322E+04 0.  0.
        4    1    3    3  502    0  0.25752094204E+03  0.90978237830E+02  0.94426528814E+03  0.98297132340E+03  0.12699999809E+01 0.  1.
       -4    1    3    3    0  502 -0.25752094204E+03 -0.90978237830E+02 -0.21356820721E+04  0.21530753821E+04  0.12699999809E+01 0. -1.
</event>
<event>
 5   0  0.8407500E-08  0.2901243E+04  0.7818609E-02  0.8272508E-01
       -4   -1    0    0    0  501  0.00000000000E+00  0.00000000000E+00  0.10971070581E+04  0.10971077931E+04  0.12699999809E+01 0. -1.
        4   -1    0    0  501    0  0.00000000000E+00  0.00000000000E+00 -0.19180455490E+04  0.19180459695E+04  0.12699999809E+01 0.  1.
    10030    2    1    2    0    0  0.00000000000E+00  0.00000000000E+00 -0.82093849094E+03  0.30151537626E+04  0.29012432173E+04 0.  0.
        4    1    3    3  502    0 -0.56133578306E+03  0.11562222169E+04 -0.11094487313E+04  0.16978886231E+04  0.12699999809E+01 0.  1.
       -4    1    3    3    0  502  0.56133578306E+03 -0.11562222169E+04  0.28851024031E+03  0.13172651395E+04  0.12699999809E+01 0. -1.
</event>
<event>
 5   0  0.9388076E-08  0.2899978E+04  0.7818609E-02  0.8272884E-01
        1   -1    0    0  501    0  0.00000000000E+00  0.00000000000E+00  0.15436592618E+04  0.15436592618E+04  0.50400001928E-02 0.  1.
       -1   -1    0    0    0  501  0.00000000000E+00  0.00000000000E+00 -0.13620026275E+04  0.13620026275E+04  0.50400001928E-02 0. -1.
    10030    2    1    2    0    0  0.00000000000E+00  0.00000000000E+00  0.18165663437E+03  0.29056618893E+04  0.28999779106E+04 0.  0.
        5    1    3    3  502    0  0.11559322382E+04  0.52997128134E+03  0.78889823516E+03  0.14964729914E+04  0.46999998093E+01 0.  1.
       -5    1    3    3    0  502 -0.11559322382E+04 -0.52997128134E+03 -0.60724160079E+03  0.14091888980E+04  0.46999998093E+01 0. -1.
</event>
<event>
 5   0  0.2608591E-07  0.2902040E+04  0.7818609E-02  0.8272271E-01
       -2   -1    0    0    0  501  0.00000000000E+00  0.00000000000E+00  0.87333571915E+03  0.87333571916E+03  0.25500000920E-02 0.  1.
        2   -1    0    0  501    0  0.00000000000E+00  0.00000000000E+00 -0.24108244718E+04  0.24108244718E+04  0.25500000920E-02 0. -1.
    10030    2    1    2    0    0  0.00000000000E+00  0.00000000000E+00 -0.15374887526E+04  0.32841601910E+04  0.29020400575E+04 0.  0.
        2    1    3    3  502    0 -0.37579459193E+03  0.68672673680E+02  0.81540437225E+03  0.90045644077E+03  0.25500000920E-02 0.  1.
       -2    1    3    3    0  502  0.37579459193E+03 -0.68672673680E+02 -0.23528931249E+04  0.23837037502E+04  0.25500000920E-02 0. -1.
</event>
<event>
 5   0  0.2492232E-07  0.2899351E+04  0.7818609E-02  0.8273070E-01
        2   -1    0    0  501    0  0.00000000000E+00  0.00000000000E+00  0.12872219150E+04  0.12872219150E+04  0.25500000920E-02 0. -1.
       -2   -1    0    0    0  501  0.00000000000E+00  0.00000000000E+00 -0.16326320678E+04  0.16326320678E+04  0.25500000920E-02 0.  1.
    10030    2    1    2    0    0  0.00000000000E+00  0.00000000000E+00 -0.34541015282E+03  0.29198539827E+04  0.28993514976E+04 0.  0.
        4    1    3    3  502    0  0.76623083732E+03 -0.63807296898E+03  0.88702470811E+03  0.13345640695E+04  0.12699999809E+01 0. -1.
       -4    1    3    3    0  502 -0.76623083732E+03  0.63807296898E+03 -0.12324348609E+04  0.15852899133E+04  0.12699999809E+01 0.  1.
</event>
<event>
 5   0  0.2608591E-07  0.2901298E+04  0.7818609E-02  0.8272491E-01
       -2   -1    0    0    0  501  0.00000000000E+00  0.00000000000E+00  0.13992842483E+04  0.13992842483E+04  0.25500000920E-02 0. -1.
        2   -1    0    0  501    0  0.00000000000E+00  0.00000000000E+00 -0.15038988602E+04  0.15038988602E+04  0.25500000920E-02 0.  1.
    10030    2    1    2    0    0  0.00000000000E+00  0.00000000000E+00 -0.10461461192E+03  0.29031831085E+04  0.29012976311E+04 0.  0.
        2    1    3    3  502    0 -0.11144595301E+04  0.76983266319E+02 -0.97834673829E+03  0.14849608776E+04  0.25500000920E-02 0.  1.
       -2    1    3    3    0  502  0.11144595301E+04 -0.76983266319E+02  0.87373212637E+03  0.14182222309E+04  0.25500000920E-02 0. -1.
</event>
<event>
 5   0  0.9443352E-08  0.2903065E+04  0.7818609E-02  0.8271966E-01
       -1   -1    0    0    0  501  0.00000000000E+00  0.00000000000E+00  0.12790216262E+04  0.12790216262E+04  0.50400001928E-02 0.  1.
        1   -1    0    0  501    0  0.00000000000E+00  0.00000000000E+00 -0.16473110763E+04  0.16473110763E+04  0.50400001928E-02 0. -1.
    10030    2    1    2    0    0  0.00000000000E+00  0.00000000000E+00 -0.36828945003E+03  0.29263327025E+04  0.29030649264E+04 0.  0.
        4    1    3    3  502    0  0.73858412303E+03 -0.10472232344E+03 -0.14393040607E+04  0.16211326485E+04  0.12699999809E+01 0. -1.
       -4    1    3    3    0  502 -0.73858412303E+03  0.10472232344E+03  0.10710146107E+04  0.13052000540E+04  0.12699999809E+01 0.  1.
</event>
<event>
 5   0  0.2678723E-07  0.2899505E+04  0.7818609E-02  0.8273025E-01
       -2   -1    0    0    0  501  0.00000000000E+00  0.00000000000E+00  0.98509138886E+03  0.98509138886E+03  0.25500000920E-02 0. -1.
        2   -1    0    0  501    0  0.00000000000E+00  0.00000000000E+00 -0.21335912564E+04  0.21335912564E+04  0.25500000920E-02 0.  1.
    10030    2    1    2    0    0  0.00000000000E+00  0.00000000000E+00 -0.11484998675E+04  0.31186826453E+04  0.28995050433E+04 0.  0.
        5    1    3    3  502    0 -0.10458765123E+04  0.11540085004E+02  0.50551173347E+03  0.11617035143E+04  0.46999998093E+01 0. -1.
       -5    1    3    3    0  502  0.10458765123E+04 -0.11540085004E+02 -0.16540116010E+04  0.19569791309E+04  0.46999998093E+01 0.  1.
</event>
<event>
 5   0  0.9395744E-08  0.2900921E+04  0.7818609E-02  0.8272604E-01
        1   -1    0    0  501    0  0.00000000000E+00  0.00000000000E+00  0.10373877948E+04  0.10373877948E+04  0.50400001928E-02 0.  1.
       -1   -1    0    0    0  501  0.00000000000E+00  0.00000000000E+00 -0.20280124641E+04  0.20280124641E+04  0.50400001928E-02 0. -1.
    10030    2    1    2    0    0  0.00000000000E+00  0.00000000000E+00 -0.99062466926E+03  0.30654002589E+04  0.29009208041E+04 0.  0.
        2    1    3    3  502    0  0.36629818297E+03 -0.65221727268E+03  0.81783497265E+03  0.11083391954E+04  0.25500000920E-02 0.  1.
       -2    1    3    3    0  502 -0.36629818297E+03  0.65221727268E+03 -0.18084596419E+04  0.19570610634E+04  0.25500000920E-02 0. -1.
</event>
<event>
 5   0  0.9421924E-08  0.2902778E+04  0.7818609E-02  0.8272051E-01
       -1   -1    0    0    0  501  0.00000000000E+00  0.00000000000E+00  0.12315424635E+04  0.12315424635E+04  0.50400001928E-02 0.  1.
        1   -1    0    0  501    0  0.00000000000E+00  0.00000000000E+00 -0.17104809947E+04  0.17104809948E+04  0.50400001928E-02 0. -1.
    10030    2    1    2    0    0  0.00000000000E+00  0.00000000000E+00 -0.47893853123E+03  0.29420234583E+04  0.29027779647E+04 0.  0.
        1    1    3    3  502    0  0.43475933371E+03  0.12873321168E+04 -0.75655353150E+03  0.15551890249E+04  0.50400001928E-02 0. -1.
       -1    1    3    3    0  502 -0.43475933371E+03 -0.12873321168E+04  0.27761500027E+03  0.13868344334E+04  0.50400001928E-02 0.  1.
</event>
<event>
 5   0  0.9388076E-08  0.2899782E+04  0.7818609E-02  0.8272942E-01
        1   -1    0    0  501    0  0.00000000000E+00  0.00000000000E+00  0.23987602394E+04  0.23987602394E+04  0.50400001928E-02 0.  1.
       -1   -1    0    0    0  501  0.00000000000E+00  0.00000000000E+00 -0.87636273037E+03  0.87636273038E+03  0.50400001928E-02 0. -1.
    10030    2    1    2    0    0  0.00000000000E+00  0.00000000000E+00  0.15223975091E+04  0.32751229698E+04  0.28997821111E+04 0.  0.
        5    1    3    3  502    0 -0.55623535362E+03  0.12305695918E+04  0.13571980616E+04  0.19146038643E+04  0.46999998093E+01 0.  1.
       -5    1    3    3    0  502  0.55623535362E+03 -0.12305695918E+04  0.16519944748E+03  0.13605191055E+04  0.46999998093E+01 0. -1.
</event>
<event>
 5   0  0.9443352E-08  0.2899832E+04  0.7818609E-02  0.8272928E-01
        1   -1    0    0  501    0  0.00000000000E+00  0.00000000000E+00  0.13875751474E+04  0.13875751474E+04  0.50400001928E-02 0. -1.
       -1   -1    0    0    0  501  0.00000000000E+00  0.00000000000E+00 -0.15150574712E+04  0.15150574712E+04  0.50400001928E-02 0.  1.
    10030    2    1    2    0    0  0.00000000000E+00  0.00000000000E+00 -0.12748232380E+03  0.29026326186E+04  0.28998317840E+04 0.  0.
        4    1    3    3  502    0 -0.69886384868E+03  0.37346439620E+03  0.11516672434E+04  0.13979361168E+04  0.12699999809E+01 0. -1.
       -4    1    3    3    0  502  0.69886384868E+03 -0.37346439620E+03 -0.12791495672E+04  0.15046965018E+04  0.12699999809E+01 0.  1.
</event>
<event>
 5   0  0.2546841E-07  0.2899595E+04  0.7818609E-02  0.8272998E-01
        2   -1    0    0  501    0  0.00000000000E+00  0.00000000000E+00  0.16812271001E+04  0.16812271001E+04  0.25500000920E-02 0. -1.
       -2   -1    0    0    0  501  0.00000000000E+00  0.00000000000E+00 -0.12502249996E+04  0.12502249996E+04  0.25500000920E-02 0.  1.
    10030    2    1    2    0    0  0.00000000000E+00  0.00000000000E+00  0.43100210051E+03  0.29314520997E+04  0.28995945582E+04 0.  0.
        1    1    3    3  502    0  0.10288612459E+04  0.88297770365E+03  0.73466724557E+03  0.15420574082E+04  0.50400001928E-02 0. -1.
       -1    1    3    3    0  502 -0.10288612459E+04 -0.88297770365E+03 -0.30366514506E+03  0.13893946915E+04  0.50400001928E-02 0.  1.
</event>
<event>
 5   0  0.9421924E-08  0.2900238E+04  0.7818609E-02  0.8272807E-01
        1   -1    0    0  501    0  0.00000000000E+00  0.00000000000E+00  0.15308995125E+04  0.15308995125E+04  0.50400001928E-02 0.  1.
       -1   -1    0    0    0  501  0.00000000000E+00  0.00000000000E+00 -0.13736007108E+04  0.13736007108E+04  0.50400001928E-02 0. -1.
    10030    2    1    2    0    0  0.00000000000E+00  0.00000000000E+00  0.15729880170E+03  0.29045002234E+04  0.29002376859E+04 0.  0.
        1    1    3    3  502    0 -0.10204333973E+04 -0.60198655384E+03  0.91604370180E+03  0.14976008123E+04  0.50400001928E-02 0.  1.
       -1    1    3    3    0  502  0.10204333973E+04  0.60198655384E+03 -0.75874490010E+03  0.14068994111E+04  0.50400001928E-02 0. -1.
</event>
<event>
 5   0  0.2534588E-07  0.2899911E+04  0.7818609E-02  0.8272904E-01
       -2   -1    0    0    0  501  0.00000000000E+00  0.00000000000E+00  0.12366598920E+04  0.12366598920E+04  0.25500000920E-02 0. -1.
        2   -1    0    0  501    0  0.00000000000E+00  0.00000000000E+00 -0.17000398297E+04  0.17000398297E+04  0.25500000920E-02 0.  1.
    10030    2    1    2    0    0  0.00000000000E+00  0.00000000000E+00 -0.46337993768E+03  0.29366997217E+04  0.28999110829E+04 0.  0.
        3    1    3    3  502    0  0.13477655054E+04  0.52292781648E+03 -0.34466554945E+03  0.14861762042E+04  0.10100000352E+00 0. -1.
       -3    1    3    3    0  502 -0.13477655054E+04 -0.52292781648E+03 -0.11871438823E+03  0.14505235175E+04  0.10100000352E+00 0.  1.
</event>
<event>
 5   0  0.2546841E-07  0.2908684E+04  0.7818609E-02  0.8270299E-01
        2   -1    0    0  501    0  0.00000000000E+00  0.00000000000E+00  0.25933468387E+04  0.25933468387E+04  0.25500000920E-02 0. -1.
       -2   -1    0    0    0  501  0.00000000000E+00  0.00000000000E+00 -0.81559087537E+03  0.81559087538E+03  0.25500000920E-02 0.  1.
    10030    2    1    2    0    0  0.00000000000E+00  0.00000000000E+00  0.17777559633E+04  0.34089377141E+04  0.29086835636E+04 0.  0.
        1    1    3    3  502    0  0.30360697675E+03 -0.97540234869E+03 -0.32429674498E+03  0.10718000359E+04  0.50400001928E-02 0.  1.
       -1    1    3    3    0  502 -0.30360697675E+03  0.97540234869E+03  0.21020527083E+04  0.23371376781E+04  0.50400001928E-02 0. -1.
</event>
<event>
 5   0  0.2546841E-07  0.2901199E+04  0.7818609E-02  0.8272521E-01
       -2   -1    0    0    0  501  0.00000000000E+00  0.00000000000E+00  0.12939588490E+04  0.12939588490E+04  0.25500000920E-02 0.  1.
        2   -1    0    0  501    0  0.00000000000E+00  0.00000000000E+00 -0.16262023604E+04  0.16262023604E+04  0.25500000920E-02 0. -1.
    10030    2    1    2    0    0  0.00000000000E+00  0.00000000000E+00 -0.33224351134E+03  0.29201612094E+04  0.29011990173E+04 0.  0.
        1    1    3    3  502    0  0.34389137984E+03  0.13541217287E+04  0.22672654049E+03  0.14153839979E+04  0.50400001928E-02 0. -1.
       -1    1    3    3    0  502 -0.34389137984E+03 -0.13541217287E+04 -0.55897005184E+03  0.15047772115E+04  0.50400001928E-02 0.  1.
</event>
<event>
 5   0  0.2678723E-07  0.2899863E+04  0.7818609E-02  0.8272918E-01
        2   -1    0    0  501    0  0.00000000000E+00  0.00000000000E+00  0.17419182395E+04  0.17419182395E+04  0.25500000920E-02 0.  1.
       -2   -1    0    0    0  501  0.00000000000E+00  0.00000000000E+00 -0.12068887490E+04  0.12068887490E+04  0.25500000920E-02 0. -1.
    10030    2    1    2    0    0  0.00000000000E+00  0.00000000000E+00  0.53502949054E+03  0.29488069884E+04  0.28998631173E+04 0.  0.
        5    1    3    3  502    0 -0.63215555484E+03  0.27997515535E+03  0.15634948112E+04  0.17095452167E+04  0.46999998093E+01 0.  1.
       -5    1    3    3    0  502  0.63215555484E+03 -0.27997515535E+03 -0.10284653207E+04  0.12392617718E+04  0.46999998093E+01 0. -1.
</event>
<event>
 5   0  0.9388076E-08  0.2898365E+04  0.7818609E-02  0.8273364E-01
       -1   -1    0    0    0  501  0.00000000000E+00  0.00000000000E+00  0.24324536519E+04  0.24324536519E+04  0.50400001928E-02 0.  1.
        1   -1    0    0  501    0  0.00000000000E+00  0.00000000000E+00 -0.86337916618E+03  0.86337916620E+03  0.50400001928E-02 0. -1.
    10030    2    1    2    0    0  0.00000000000E+00  0.00000000000E+00  0.15690744857E+04  0.32958328181E+04  0.28983649223E+04 0.  0.
        5    1    3    3  502    0  0.18800361330E+03  0.77005145623E+03 -0.59500186489E+03  0.99114777560E+03  0.46999998093E+01 0. -1.
       -5    1    3    3    0  502 -0.18800361330E+03 -0.77005145623E+03  0.21640763506E+04  0.23046850425E+04  0.46999998093E+01 0.  1.
</event>
<event>
 5   0  0.2534588E-07  0.2900506E+04  0.7818609E-02  0.8272727E-01
        2   -1    0    0  501    0  0.00000000000E+00  0.00000000000E+00  0.12413275371E+04  0.12413275371E+04  0.25500000920E-02 0.  1.
       -2   -1    0    0    0  501  0.00000000000E+00  0.00000000000E+00 -0.16943418072E+04  0.16943418072E+04  0.25500000920E-02 0. -1.
    10030    2    1    2    0    0  0.00000000000E+00  0.00000000000E+00 -0.45301427009E+03  0.29356693444E+04  0.29005055716E+04 0.  0.
        3    1    3    3  502    0 -0.12560953788E+04 -0.32243320668E+03  0.43058961185E+03  0.13664355811E+04  0.10100000352E+00 0.  1.
       -3    1    3    3    0  502  0.12560953788E+04  0.32243320668E+03 -0.88360388195E+03  0.15692337633E+04  0.10100000352E+00 0. -1.
</event>
<event>
 5   0  0.9395744E-08  0.2901904E+04  0.7818609E-02  0.8272311E-01
       -1   -1    0    0    0  501  0.00000000000E+00  0.00000000000E+00  0.95652447766E+03  0.95652447767E+03  0.50400001928E-02 0. -1.
        1   -1    0    0  501    0  0.00000000000E+00  0.00000000000E+00 -0.22009498256E+04  0.22009498256E+04  0.50400001928E-02 0.  1.
    10030    2    1    2    0    0  0.00000000000E+00  0.00000000000E+00 -0.12444253479E+04  0.31574743033E+04  0.29019044659E+04 0.  0.
        2    1    3    3  502    0  0.52716401851E+03 -0.59728810228E+03 -0.19416995891E+04  0.20987739930E+04  0.25500000920E-02 0.  1.
       -2    1    3    3    0  502 -0.52716401851E+03  0.59728810228E+03  0.69727424115E+03  0.10587003102E+04  0.25500000920E-02 0. -1.
</event>
<event>
 5   0  0.9421924E-08  0.2899305E+04  0.7818609E-02  0.8273084E-01
       -1   -1    0    0    0  501  0.00000000000E+00  0.00000000000E+00  0.10899758751E+04  0.10899758751E+04  0.50400001928E-02 0.  1.
        1   -1    0    0  501    0  0.00000000000E+00  0.00000000000E+00 -0.19280179088E+04  0.19280179088E+04  0.50400001928E-02 0. -1.
    10030    2    1    2    0    0  0.00000000000E+00  0.00000000000E+00 -0.83804203371E+03  0.30179937838E+04  0.28993054391E+04 0.  0.
        1    1    3    3  502    0 -0.37351332896E+03 -0.82535842164E+03  0.75901609794E+03  0.11818773913E+04  0.50400001928E-02 0.  1.
       -1    1    3    3    0  502  0.37351332896E+03  0.82535842164E+03 -0.15970581317E+04  0.18361163925E+04  0.50400001928E-02 0. -1.
</event>
<event>
 5   0  0.9763851E-08  0.2907477E+04  0.7818609E-02  0.8270656E-01
        1   -1    0    0  501    0  0.00000000000E+00  0.00000000000E+00  0.17108191758E+04  0.17108191758E+04  0.50400001928E-02 0. -1.
       -1   -1    0    0    0  501  0.00000000000E+00  0.00000000000E+00 -0.12352886042E+04  0.12352886042E+04  0.50400001928E-02 0.  1.
    10030    2    1    2    0    0  0.00000000000E+00  0.00000000000E+00  0.47553057162E+03  0.29461077800E+04  0.29074768660E+04 0.  0.
        3    1    3    3  502    0  0.11509469749E+04  0.17977904862E+03 -0.64347731682E+03  0.13308127264E+04  0.10100000352E+00 0. -1.
       -3    1    3    3    0  502 -0.11509469749E+04 -0.17977904862E+03  0.11190078884E+04  0.16152950535E+04  0.10100000352E+00 0.  1.
</event>
<event>
 5   0  0.9763851E-08  0.2901267E+04  0.7818609E-02  0.8272501E-01
       -1   -1    0    0    0  501  0.00000000000E+00  0.00000000000E+00  0.85802787177E+03  0.85802787178E+03  0.50400001928E-02 0. -1.
        1   -1    0    0  501    0  0.00000000000E+00  0.00000000000E+00 -0.24525283498E+04  0.24525283498E+04  0.50400001928E-02 0.  1.
    10030    2    1    2    0    0  0.00000000000E+00  0.00000000000E+00 -0.15945004780E+04  0.33105562216E+04  0.29012670890E+04 0.  0.
        3    1    3    3  502    0  0.63326581389E+03 -0.79653847179E+02  0.68919871111E+03  0.93934296187E+03  0.10100000352E+00 0. -1.
       -3    1    3    3    0  502 -0.63326581389E+03  0.79653847179E+02 -0.22836991891E+04  0.23712132597E+04  0.10100000352E+00 0.  1.
</event>
<event>
 5   0  0.2608591E-07  0.2900476E+04  0.7818609E-02  0.8272736E-01
       -2   -1    0    0    0  501  0.00000000000E+00  0.00000000000E+00  0.10498971778E+04  0.10498971778E+04  0.25500000920E-02 0.  1.
        2   -1    0    0  501    0  0.00000000000E+00  0.00000000000E+00 -0.20032342898E+04  0.20032342898E+04  0.25500000920E-02 0. -1.
    10030    2    1    2    0    0  0.00000000000E+00  0.00000000000E+00 -0.95333711200E+03  0.30531314677E+04  0.29004758420E+04 0.  0.
        2    1    3    3  502    0  0.69105113797E+03  0.34099757747E+03 -0.17698888994E+04  0.19303724354E+04  0.25500000920E-02 0. -1.
       -2    1    3    3    0  502 -0.69105113797E+03 -0.34099757747E+03  0.81655178737E+03  0.11227590323E+04  0.25500000920E-02 0.  1.
</event>
<event>
 5   0  0.9388076E-08  0.2899188E+04  0.7818609E-02  0.8273119E-01
       -1   -1    0    0    0  501  0.00000000000E+00  0.00000000000E+00  0.10185632780E+04  0.10185632781E+04  0.50400001928E-02 0. -1.
        1   -1    0    0  501    0  0.00000000000E+00  0.00000000000E+00 -0.20630260876E+04  0.20630260876E+04  0.50400001928E-02 0.  1.
    10030    2    1    2    0    0  0.00000000000E+00  0.00000000000E+00 -0.10444628096E+04  0.30815893657E+04  0.28991878963E+04 0.  0.
        5    1    3    3  502    0  0.13083795597E+03  0.43831370570E+03 -0.19842948064E+04  0.20363411905E+04  0.46999998093E+01 0.  1.
       -5    1    3    3    0  502 -0.13083795597E+03 -0.43831370570E+03  0.93983199687E+03  0.10452481752E+04  0.46999998093E+01 0. -1.
</event>
<event>
 5   0  0.2678723E-07  0.2894934E+04  0.7818609E-02  0.8274386E-01
       -2   -1    0    0    0  501  0.00000000000E+00  0.00000000000E+00  0.19511390363E+04  0.19511390363E+04  0.25500000920E-02 0. -1.
        2   -1    0    0  501    0  0.00000000000E+00  0.00000000000E+00 -0.10738138168E+04  0.10738138168E+04  0.25500000920E-02 0.  1.
    10030    2    1    2    0    0  0.00000000000E+00  0.00000000000E+00  0.87732521953E+03  0.30249528531E+04  0.28949335437E+04 0.  0.
        5    1    3    3  502    0  0.56216954795E+03  0.41980565658E+03  0.17615677319E+04  0.18961577872E+04  0.46999998093E+01 0. -1.
       -5    1    3    3    0  502 -0.56216954795E+03 -0.41980565658E+03 -0.88424251240E+03  0.11287950658E+04  0.46999998093E+01 0.  1.
</event>
<event>
 5   0  0.9395744E-08  0.2899613E+04  0.7818609E-02  0.8272993E-01
        1   -1    0    0  501    0  0.00000000000E+00  0.00000000000E+00  0.14530562897E+04  0.14530562897E+04  0.50400001928E-02 0. -1.
       -1   -1    0    0    0  501  0.00000000000E+00  0.00000000000E+00 -0.14465642456E+04  0.14465642456E+04  0.50400001928E-02 0.  1.
    10030    2    1    2    0    0  0.00000000000E+00  0.00000000000E+00  0.64920441346E+01  0.28996205353E+04  0.28996132676E+04 0.  0.
        2    1    3    3  502    0  0.10418058319E+03  0.94805204290E+03  0.10951658828E+04  0.14522549985E+04  0.25500000920E-02 0. -1.
       -2    1    3    3    0  502 -0.10418058319E+03 -0.94805204290E+03 -0.10886738386E+04  0.14473655367E+04  0.25500000920E-02 0.  1.
</event>
<event>
 5   0  0.9395744E-08  0.2911829E+04  0.7818609E-02  0.8269367E-01
       -1   -1    0    0    0  501  0.00000000000E+00  0.00000000000E+00  0.11664638660E+04  0.11664638661E+04  0.50400001928E-02 0.  1.
        1   -1    0    0  501    0  0.00000000000E+00  0.00000000000E+00 -0.18171902720E+04  0.18171902720E+04  0.50400001928E-02 0. -1.
    10030    2    1    2    0    0  0.00000000000E+00  0.00000000000E+00 -0.65072640599E+03  0.29836541381E+04  0.29118288343E+04 0.  0.
        2    1    3    3  502    0  0.65417826295E+03 -0.79172958172E+03  0.73203222737E+03  0.12612121599E+04  0.25500000920E-02 0. -1.
       -2    1    3    3    0  502 -0.65417826295E+03  0.79172958172E+03 -0.13827586334E+04  0.17224419782E+04  0.25500000920E-02 0.  1.
</event>
<event>
 5   0  0.9421924E-08  0.2904880E+04  0.7818609E-02  0.8271427E-01
        1   -1    0    0  501    0  0.00000000000E+00  0.00000000000E+00  0.15000277940E+04  0.15000277940E+04  0.50400001928E-02 0. -1.
       -1   -1    0    0    0  501  0.00000000000E+00  0.00000000000E+00 -0.14063615741E+04  0.14063615742E+04  0.50400001928E-02 0.  1.
    10030    2    1    2    0    0  0.00000000000E+00  0.00000000000E+00  0.93666219868E+02  0.29063893682E+04  0.29048796530E+04 0.  0.
        1    1    3    3  502    0  0.13716578731E+04 -0.47623456234E+03  0.10252238241E+02  0.14520157670E+04  0.50400001928E-02 0. -1.
       -1    1    3    3    0  502 -0.13716578731E+04  0.47623456234E+03  0.83413981627E+02  0.14543736011E+04  0.50400001928E-02 0.  1.
</event>
<event>
 5   0  0.9395744E-08  0.2902069E+04  0.7818609E-02  0.8272262E-01
       -1   -1    0    0    0  501  0.00000000000E+00  0.00000000000E+00  0.97650067100E+03  0.97650067101E+03  0.50400001928E-02 0.  1.
        1   -1    0    0  501    0  0.00000000000E+00  0.00000000000E+00 -0.21561700473E+04  0.21561700473E+04  0.50400001928E-02 0. -1.
    10030    2    1    2    0    0  0.00000000000E+00  0.00000000000E+00 -0.11796693763E+04  0.31326707183E+04  0.29020692604E+04 0.  0.
        2    1    3    3  502    0  0.30048915546E+03 -0.11096541425E+04  0.36588494134E+03  0.12064401513E+04  0.25500000920E-02 0.  1.
       -2    1    3    3    0  502 -0.30048915546E+03  0.11096541425E+04 -0.15455543176E+04  0.19262305670E+04  0.25500000920E-02 0. -1.
</event>
<event>
 5   0  0.2546841E-07  0.2899777E+04  0.7818609E-02  0.8272944E-01
       -2   -1    0    0    0  501  0.00000000000E+00  0.00000000000E+00  0.34387631253E+04  0.34387631253E+04  0.25500000920E-02 0.  1.
        2   -1    0    0  501    0  0.00000000000E+00  0.00000000000E+00 -0.61131764984E+03  0.61131764985E+03  0.25500000920E-02 0. -1.
    10030    2    1    2    0    0  0.00000000000E+00  0.00000000000E+00  0.28274454755E+04  0.40500807752E+04  0.28997769515E+04 0.  0.
        1    1    3    3  502    0  0.53600300413E+02 -0.10039329984E+04  0.28728577210E+04  0.30436928134E+04  0.50400001928E-02 0.  1.
       -1    1    3    3    0  502 -0.53600300413E+02  0.10039329984E+04 -0.45412245530E+02  0.10063879617E+04  0.50400001928E-02 0. -1.
</event>
<event>
 5   0  0.2546841E-07  0.2900150E+04  0.7818609E-02  0.8272833E-01
        2   -1    0    0  501    0  0.00000000000E+00  0.00000000000E+00  0.17887536976E+04  0.17887536976E+04  0.25500000920E-02 0. -1.
       -2   -1    0    0    0  501  0.00000000000E+00  0.00000000000E+00 -0.11755207080E+04  0.11755207080E+04  0.25500000920E-02 0.  1.
    10030    2    1    2    0    0  0.00000000000E+00  0.00000000000E+00  0.61323298956E+03  0.29642744056E+04  0.29001496604E+04 0.  0.
        1    1    3    3  502    0  0.42258693395E+03  0.56584316763E+03  0.16010942727E+04  0.17499317350E+04  0.50400001928E-02 0. -1.
       -1    1    3    3    0  502 -0.42258693395E+03 -0.56584316763E+03 -0.98786128311E+03  0.12143426707E+04  0.50400001928E-02 0.  1.
</event>
<event>
 5   0  0.9443352E-08  0.2909465E+04  0.7818609E-02  0.8270067E-01
        1   -1    0    0  501    0  0.00000000000E+00  0.00000000000E+00  0.12488201662E+04  0.12488201662E+04  0.50400001928E-02 0.  1.
       -1   -1    0    0    0  501  0.00000000000E+00  0.00000000000E+00 -0.16945967495E+04  0.16945967496E+04  0.50400001928E-02 0. -1.
    10030    2    1    2    0    0  0.00000000000E+00  0.00000000000E+00 -0.44577658331E+03  0.29434169158E+04  0.29094649642E+04 0.  0.
        4    1    3    3  502    0 -0.17550094888E+03 -0.84095561975E+03 -0.14105719106E+04  0.16515815649E+04  0.12699999809E+01 0. -1.
       -4    1    3    3    0  502  0.17550094888E+03  0.84095561975E+03  0.96479532730E+03  0.12918353509E+04  0.12699999809E+01 0.  1.
</event>
<event>
 5   0  0.2678723E-07  0.2900063E+04  0.7818609E-02  0.8272859E-01
       -2   -1    0    0    0  501  0.00000000000E+00  0.00000000000E+00  0.13927234496E+04  0.13927234496E+04  0.25500000920E-02 0.  1.
        2   -1    0    0  501    0  0.00000000000E+00  0.00000000000E+00 -0.15096972760E+04  0.15096972760E+04  0.25500000920E-02 0. -1.
    10030    2    1    2    0    0  0.00000000000E+00  0.00000000000E+00 -0.11697382636E+03  0.29024207256E+04  0.29000626187E+04 0.  0.
        5    1    3    3  502    0 -0.41765715323E+03  0.10560274859E+04 -0.96085032800E+03  0.14875775581E+04  0.46999998093E+01 0. -1.
       -5    1    3    3    0  502  0.41765715323E+03 -0.10560274859E+04  0.84387650164E+03  0.14148431675E+04  0.46999998093E+01 0.  1.
</event>
<event>
 5   0  0.9388076E-08  0.2900005E+04  0.7818609E-02  0.8272876E-01
        1   -1    0    0  501    0  0.00000000000E+00  0.00000000000E+00  0.16326326365E+04  0.16326326365E+04  0.50400001928E-02 0. -1.
       -1   -1    0    0    0  501  0.00000000000E+00  0.00000000000E+00 -0.12878014484E+04  0.12878014484E+04  0.50400001928E-02 0.  1.
    10030    2    1    2    0    0  0.00000000000E+00  0.00000000000E+00  0.34483118809E+03  0.29204340849E+04  0.29000046027E+04 0.  0.
        5    1    3    3  502    0  0.12412391592E+04  0.48517071239E+03  0.74777159201E+03  0.15281523858E+04  0.46999998093E+01 0. -1.
       -5    1    3    3    0  502 -0.12412391592E+04 -0.48517071239E+03 -0.40294040392E+03  0.13922816991E+04  0.46999998093E+01 0.  1.
</event>
<event>
 5   0  0.9395744E-08  0.2902211E+04  0.7818609E-02  0.8272220E-01
       -1   -1    0    0    0  501  0.00000000000E+00  0.00000000000E+00  0.16025881015E+04  0.16025881015E+04  0.50400001928E-02 0. -1.
        1   -1    0    0  501    0  0.00000000000E+00  0.00000000000E+00 -0.13139413779E+04  0.13139413780E+04  0.50400001928E-02 0.  1.
    10030    2    1    2    0    0  0.00000000000E+00  0.00000000000E+00  0.28864672359E+03  0.29165294795E+04  0.29022107563E+04 0.  0.
        2    1    3    3  502    0 -0.44395236112E+03 -0.13626009024E+04 -0.84686682513E+02  0.14355997883E+04  0.25500000920E-02 0.  1.
       -2    1    3    3    0  502  0.44395236112E+03  0.13626009024E+04  0.37333340610E+03  0.14809296912E+04  0.25500000920E-02 0. -1.
</event>
<event>
 5   0  0.2678723E-07  0.2904612E+04  0.7818609E-02  0.8271507E-01
       -2   -1    0    0    0  501  0.00000000000E+00  0.00000000000E+00  0.79266705503E+03  0.79266705503E+03  0.25500000920E-02 0. -1.
        2   -1    0    0  501    0  0.00000000000E+00  0.00000000000E+00 -0.26608803960E+04  0.26608803960E+04  0.25500000920E-02 0.  1.
    10030    2    1    2    0    0  0.00000000000E+00  0.00000000000E+00 -0.18682133409E+04  0.34535474510E+04  0.29046116623E+04 0.  0.
        5    1    3    3  502    0  0.13991113522E+04  0.17134501739E+03 -0.51830347686E+03  0.15018429595E+04  0.46999998093E+01 0. -1.
       -5    1    3    3    0  502 -0.13991113522E+04 -0.17134501739E+03 -0.13499098641E+04  0.19517044915E+04  0.46999998093E+01 0.  1.
</event>
<event>
 5   0  0.2546841E-07  0.2900987E+04  0.7818609E-02  0.8272584E-01
        2   -1    0    0  501    0  0.00000000000E+00  0.00000000000E+00  0.14081951789E+04  0.14081951789E+04  0.25500000920E-02 0. -1.
       -2   -1    0    0    0  501  0.00000000000E+00  0.00000000000E+00 -0.14940625516E+04  0.14940625516E+04  0.25500000920E-02 0.  1.
    10030    2    1    2    0    0  0.00000000000E+00  0.00000000000E+00 -0.85867372668E+02  0.29022577305E+04  0.29009871990E+04 0.  0.
        1    1    3    3  502    0  0.16940095371E+03 -0.53428814378E+03 -0.13813429051E+04  0.14907275825E+04  0.50400001928E-02 0.  1.
       -1    1    3    3    0  502 -0.16940095371E+03  0.53428814378E+03  0.12954755324E+04  0.14115301481E+04  0.50400001928E-02 0. -1.
</event>
<event>
 5   0  0.9443352E-08  0.2899937E+04  0.7818609E-02  0.8272896E-01
       -1   -1    0    0    0  501  0.00000000000E+00  0.00000000000E+00  0.14309594507E+04  0.14309594507E+04  0.50400001928E-02 0.  1.
        1   -1    0    0  501    0  0.00000000000E+00  0.00000000000E+00 -0.14692299302E+04  0.14692299302E+04  0.50400001928E-02 0. -1.
    10030    2    1    2    0    0  0.00000000000E+00  0.00000000000E+00 -0.38270479503E+02  0.29001893809E+04  0.28999368641E+04 0.  0.
        4    1    3    3  502    0  0.48891289302E+03 -0.13613634260E+04  0.81176267654E+02  0.14487709943E+04  0.12699999809E+01 0.  1.
       -4    1    3    3    0  502 -0.48891289302E+03  0.13613634260E+04 -0.11944674716E+03  0.14514183866E+04  0.12699999809E+01 0. -1.
</event>
<event>
 5   0  0.8407500E-08  0.2899979E+04  0.7818609E-02  0.8272884E-01
       -3   -1    0    0    0  501  0.00000000000E+00  0.00000000000E+00  0.11842576448E+04  0.11842576491E+04  0.10100000352E+00 0. -1.
        3   -1    0    0  501    0  0.00000000000E+00  0.00000000000E+00 -0.17753483106E+04  0.17753483135E+04  0.10100000352E+00 0.  1.
    10030    2    1    2    0    0  0.00000000000E+00  0.00000000000E+00 -0.59109066585E+03  0.29596059626E+04  0.28999791859E+04 0.  0.
        4    1    3    3  502    0  0.42506997388E+03 -0.12906544245E+04 -0.81190778324E+03  0.15829305694E+04  0.12699999809E+01 0.  1.
       -4    1    3    3    0  502 -0.42506997388E+03  0.12906544245E+04  0.22081711739E+03  0.13766753932E+04  0.12699999809E+01 0. -1.
</event>
<event>
 5   0  0.9388076E-08  0.2900256E+04  0.7818609E-02  0.8272801E-01
       -1   -1    0    0    0  501  0.00000000000E+00  0.00000000000E+00  0.16902898644E+04  0.16902898644E+04  0.50400001928E-02 0. -1.
        1   -1    0    0  501    0  0.00000000000E+00  0.00000000000E+00 -0.12440893588E+04  0.12440893588E+04  0.50400001928E-02 0.  1.
    10030    2    1    2    0    0  0.00000000000E+00  0.00000000000E+00  0.44620050568E+03  0.29343792232E+04  0.29002562877E+04 0.  0.
        5    1    3    3  502    0 -0.10929581236E+04  0.87399799125E+03  0.60759722424E+03  0.15256560640E+04  0.46999998093E+01 0.  1.
       -5    1    3    3    0  502  0.10929581236E+04 -0.87399799125E+03 -0.16139671857E+03  0.14087231592E+04  0.46999998093E+01 0. -1.
</event>
<event>
 5   0  0.9763851E-08  0.2899691E+04  0.7818609E-02  0.8272970E-01
        1   -1    0    0  501    0  0.00000000000E+00  0.00000000000E+00  0.13629166440E+04  0.13629166440E+04  0.50400001928E-02 0.  1.
       -1   -1    0    0    0  501  0.00000000000E+00  0.00000000000E+00 -0.15423183918E+04  0.15423183918E+04  0.50400001928E-02 0. -1.
    10030    2    1    2    0    0  0.00000000000E+00  0.00000000000E+00 -0.17940174782E+03  0.29052350358E+04  0.28996906087E+04 0.  0.
        3    1    3    3  502    0  0.14687760956E+03 -0.94060515947E+03  0.10058890864E+04  0.13849635239E+04  0.10100000352E+00 0.  1.
       -3    1    3    3    0  502 -0.14687760956E+03  0.94060515947E+03 -0.11852908342E+04  0.15202715119E+04  0.10100000352E+00 0. -1.
</event>
<event>
 5   0  0.9388076E-08  0.2899216E+04  0.7818609E-02  0.8273111E-01
       -1   -1    0    0    0  501  0.00000000000E+00  0.00000000000E+00  0.19941773184E+04  0.19941773184E+04  0.50400001928E-02 0. -1.
        1   -1    0    0  501    0  0.00000000000E+00  0.00000000000E+00 -0.10537492429E+04  0.10537492430E+04  0.50400001928E-02 0.  1.
    10030    2    1    2    0    0  0.00000000000E+00  0.00000000000E+00  0.94042807542E+03  0.30479265613E+04  0.28992156453E+04 0.  0.
        5    1    3    3  502    0  0.10378202245E+04 -0.33112512747E+03  0.14756299856E+04  0.18341811832E+04  0.46999998093E+01 0. -1.
       -5    1    3    3    0  502 -0.10378202245E+04  0.33112512747E+03 -0.53520191016E+03  0.12137453782E+04  0.46999998093E+01 0.  1.
</event>
<event>
 5   0  0.9443352E-08  0.2900242E+04  0.7818609E-02  0.8272805E-01
        1   -1    0    0  501    0  0.00000000000E+00  0.00000000000E+00  0.13797417146E+04  0.13797417147E+04  0.50400001928E-02 0.  1.
       -1   -1    0    0    0  501  0.00000000000E+00  0.00000000000E+00 -0.15240907113E+04  0.15240907113E+04  0.50400001928E-02 0. -1.
    10030    2    1    2    0    0  0.00000000000E+00  0.00000000000E+00 -0.14434899662E+03  0.29038324259E+04  0.29002424252E+04 0.  0.
        4    1    3    3  502    0 -0.11607535273E+04 -0.81811284026E+03 -0.36612358048E+03  0.14665283699E+04  0.12699999809E+01 0. -1.
       -4    1    3    3    0  502  0.11607535273E+04  0.81811284026E+03  0.22177458386E+03  0.14373040560E+04  0.12699999809E+01 0.  1.
</event>
<event>
 5   0  0.9388076E-08  0.2900287E+04  0.7818609E-02  0.8272792E-01
        1   -1    0    0  501    0  0.00000000000E+00  0.00000000000E+00  0.11799927118E+04  0.11799927118E+04  0.50400001928E-02 0. -1.
       -1   -1    0    0    0  501  0.00000000000E+00  0.00000000000E+00 -0.17821432598E+04  0.17821432598E+04  0.50400001928E-02 0.  1.
    10030    2    1    2    0    0  0.00000000000E+00  0.00000000000E+00 -0.60215054797E+03  0.29621359716E+04  0.29002869223E+04 0.  0.
        5    1    3    3  502    0 -0.64460634142E+03  0.12986409926E+04 -0.27029617315E+03  0.14748111318E+04  0.46999998093E+01 0.  1.
       -5    1    3    3    0  502  0.64460634142E+03 -0.12986409926E+04 -0.33185437482E+03  0.14873248398E+04  0.46999998093E+01 0. -1.
</event>
<event>
 5   0  0.2492232E-07  0.2898966E+04  0.7818609E-02  0.8273185E-01
       -2   -1    0    0    0  501  0.00000000000E+00  0.00000000000E+00  0.93625246257E+03  0.93625246257E+03  0.25500000920E-02 0. -1.
        2   -1    0    0  501    0  0.00000000000E+00  0.00000000000E+00 -0.22440531957E+04  0.22440531957E+04  0.25500000920E-02 0.  1.
    10030    2    1    2    0    0  0.00000000000E+00  0.00000000000E+00 -0.13078007332E+04  0.31803056583E+04  0.28989655608E+04 0.  0.
        4    1    3    3  502    0 -0.10353234633E+04 -0.13354723379E+03  0.44931217861E+03  0.11364913480E+04  0.12699999809E+01 0. -1.
       -4    1    3    3    0  502  0.10353234633E+04  0.13354723379E+03 -0.17571129118E+04  0.20438143103E+04  0.12699999809E+01 0.  1.
</event>
<event>
 5   0  0.9388076E-08  0.2899299E+04  0.7818609E-02  0.8273086E-01
       -1   -1    0    0    0  501  0.00000000000E+00  0.00000000000E+00  0.12802069306E+04  0.12802069306E+04  0.50400001928E-02 0.  1.
        1   -1    0    0  501    0  0.00000000000E+00  0.00000000000E+00 -0.16415188796E+04  0.16415188796E+04  0.50400001928E-02 0. -1.
    10030    2    1    2    0    0  0.00000000000E+00  0.00000000000E+00 -0.36131194892E+03  0.29217258102E+04  0.28992991197E+04 0.  0.
        5    1    3    3  502    0  0.71182284218E+03 -0.11068195583E+04 -0.79340577356E+03  0.15366379225E+04  0.46999998093E+01 0. -1.
       -5    1    3    3    0  502 -0.71182284218E+03  0.11068195583E+04  0.43209382464E+03  0.13850878877E+04  0.46999998093E+01 0.  1.
</event>
<event>
 5   0  0.2534588E-07  0.2901413E+04  0.7818609E-02  0.8272457E-01
        2   -1    0    0  501    0  0.00000000000E+00  0.00000000000E+00  0.15434245869E+04  0.15434245869E+04  0.25500000920E-02 0. -1.
       -2   -1    0    0    0  501  0.00000000000E+00  0.00000000000E+00 -0.13635585630E+04  0.13635585630E+04  0.25500000920E-02 0.  1.
    10030    2    1    2    0    0  0.00000000000E+00  0.00000000000E+00  0.17986602392E+03  0.29069831499E+04  0.29014133189E+04 0.  0.
        3    1    3    3  502    0 -0.47848537146E+03 -0.33051846305E+01 -0.12822180969E+04  0.13685914047E+04  0.10100000352E+00 0.  1.
       -3    1    3    3    0  502  0.47848537146E+03  0.33051846305E+01  0.14620841208E+04  0.15383917451E+04  0.10100000352E+00 0. -1.
</event>
<event>
 5   0  0.2534588E-07  0.2899209E+04  0.7818609E-02  0.8273113E-01
       -2   -1    0    0    0  501  0.00000000000E+00  0.00000000000E+00  0.15350078691E+04  0.15350078691E+04  0.25500000920E-02 0. -1.
        2   -1    0    0  501    0  0.00000000000E+00  0.00000000000E+00 -0.13689531654E+04  0.13689531654E+04  0.25500000920E-02 0.  1.
    10030    2    1    2    0    0  0.00000000000E+00  0.00000000000E+00  0.16605470373E+03  0.29039610345E+04  0.28992094655E+04 0.  0.
        3    1    3    3  502    0 -0.65336563373E+03 -0.10879911851E+04 -0.61865084572E+03  0.14118570570E+04  0.10100000352E+00 0.  1.
       -3    1    3    3    0  502  0.65336563373E+03  0.10879911851E+04  0.78470554945E+03  0.14921039775E+04  0.10100000352E+00 0. -1.
</event>
<event>
 5   0  0.9395744E-08  0.2899842E+04  0.7818609E-02  0.8272924E-01
        1   -1    0    0  501    0  0.00000000000E+00  0.00000000000E+00  0.20558962157E+04  0.20558962157E+04  0.50400001928E-02 0.  1.
       -1   -1    0    0    0  501  0.00000000000E+00  0.00000000000E+00 -0.10225569600E+04  0.10225569600E+04  0.50400001928E-02 0. -1.
    10030    2    1    2    0    0  0.00000000000E+00  0.00000000000E+00  0.10333392557E+04  0.30784531757E+04  0.28998420539E+04 0.  0.
        2    1    3    3  502    0 -0.64522564168E+03 -0.58870180938E+02  0.18936709128E+04  0.20014423182E+04  0.25500000920E-02 0.  1.
       -2    1    3    3    0  502  0.64522564168E+03  0.58870180938E+02 -0.86033165714E+03  0.10770108575E+04  0.25500000920E-02 0. -1.
</event>
<event>
 5   0  0.2678723E-07  0.2900382E+04  0.7818609E-02  0.8272764E-01
       -2   -1    0    0    0  501  0.00000000000E+00  0.00000000000E+00  0.21280922829E+04  0.21280922829E+04  0.25500000920E-02 0. -1.
        2   -1    0    0  501    0  0.00000000000E+00  0.00000000000E+00 -0.98823452453E+03  0.98823452454E+03  0.25500000920E-02 0.  1.
    10030    2    1    2    0    0  0.00000000000E+00  0.00000000000E+00  0.11398577584E+04  0.31163268075E+04  0.29003822268E+04 0.  0.
        5    1    3    3  502    0 -0.31311436114E+03  0.94752833325E+02  0.20879209207E+04  0.21133988179E+04  0.46999998093E+01 0. -1.
       -5    1    3    3    0  502  0.31311436114E+03 -0.94752833325E+02 -0.94806316228E+03  0.10029279896E+04  0.46999998093E+01 0.  1.
</event>
<event>
 5   0  0.9388076E-08  0.2897485E+04  0.7818609E-02  0.8273626E-01
       -1   -1    0    0    0  501  0.00000000000E+00  0.00000000000E+00  0.17374936882E+04  0.17374936882E+04  0.50400001928E-02 0. -1.
        1   -1    0    0  501    0  0.00000000000E+00  0.00000000000E+00 -0.12079784288E+04  0.12079784288E+04  0.50400001928E-02 0.  1.
    10030    2    1    2    0    0  0.00000000000E+00  0.00000000000E+00  0.52951525937E+03  0.29454721170E+04  0.28974850444E+04 0.  0.
        5    1    3    3  502    0 -0.63779720194E+03 -0.86205951416E+03  0.12550060283E+04  0.16507556142E+04  0.46999998093E+01 0. -1.
       -5    1    3    3    0  502  0.63779720194E+03  0.86205951416E+03 -0.72549076897E+03  0.12947165028E+04  0.46999998093E+01 0.  1.
</event>
<event>
 5   0  0.9395744E-08  0.2902097E+04  0.7818609E-02  0.8272254E-01
       -1   -1    0    0    0  501  0.00000000000E+00  0.00000000000E+00  0.89482361653E+03  0.89482361654E+03  0.50400001928E-02 0. -1.
        1   -1    0    0  501    0  0.00000000000E+00  0.00000000000E+00 -0.23530237002E+04  0.23530237002E+04  0.50400001928E-02 0.  1.
    10030    2    1    2    0    0  0.00000000000E+00  0.00000000000E+00 -0.14582000837E+04  0.32478473168E+04  0.29020966057E+04 0.  0.
        2    1    3    3  502    0 -0.59667486531E+03 -0.10858547762E+04 -0.15743567107E+04  0.20034222078E+04  0.25500000920E-02 0.  1.
       -2    1    3    3    0  502  0.59667486531E+03  0.10858547762E+04  0.11615662701E+03  0.12444251090E+04  0.25500000920E-02 0. -1.
</event>
<event>
 5   0  0.2678723E-07  0.2898362E+04  0.7818609E-02  0.8273365E-01
        2   -1    0    0  501    0  0.00000000000E+00  0.00000000000E+00  0.19138543573E+04  0.19138543573E+04  0.25500000920E-02 0. -1.
       -2   -1    0    0    0  501  0.00000000000E+00  0.00000000000E+00 -0.10973276821E+04  0.10973276821E+04  0.25500000920E-02 0.  1.
    10030    2    1    2    0    0  0.00000000000E+00  0.00000000000E+00  0.81652667522E+03  0.30111820394E+04  0.28983618586E+04 0.  0.
        5    1    3    3  502    0  0.64202224888E+03  0.10862154103E+04 -0.33225575688E+03  0.13047882830E+04  0.46999998093E+01 0. -1.
       -5    1    3    3    0  502 -0.64202224888E+03 -0.10862154103E+04  0.11487824321E+04  0.17063937564E+04  0.46999998093E+01 0.  1.
</event>
<event>
 5   0  0.2546841E-07  0.2902873E+04  0.7818609E-02  0.8272023E-01
        2   -1    0    0  501    0  0.00000000000E+00  0.00000000000E+00  0.16446836493E+04  0.16446836493E+04  0.25500000920E-02 0. -1.
       -2   -1    0    0    0  501  0.00000000000E+00  0.00000000000E+00 -0.12808956897E+04  0.12808956897E+04  0.25500000920E-02 0.  1.
    10030    2    1    2    0    0  0.00000000000E+00  0.00000000000E+00  0.36378795966E+03  0.29255793390E+04  0.29028731955E+04 0.  0.
        1    1    3    3  502    0  0.92469315518E+03 -0.58944791167E+02  0.13078328653E+04  0.16027971560E+04  0.50400001928E-02 0. -1.
       -1    1    3    3    0  502 -0.92469315518E+03  0.58944791167E+02 -0.94404490567E+03  0.13227821830E+04  0.50400001928E-02 0.  1.
</event>
<event>
 5   0  0.9395744E-08  0.2910160E+04  0.7818609E-02  0.8269861E-01
        1   -1    0    0  501    0  0.00000000000E+00  0.00000000000E+00  0.28804287941E+04  0.28804287941E+04  0.50400001928E-02 0.  1.
       -1   -1    0    0    0  501  0.00000000000E+00  0.00000000000E+00 -0.73504945638E+03  0.73504945640E+03  0.50400001928E-02 0. -1.
    10030    2    1    2    0    0  0.00000000000E+00  0.00000000000E+00  0.21453793378E+04  0.36154782505E+04  0.29101598714E+04 0.  0.
        2    1    3    3  502    0 -0.16814654114E+03  0.32106788557E+03 -0.67807417242E+03  0.76885787357E+03  0.25500000920E-02 0. -1.
       -2    1    3    3    0  502  0.16814654114E+03 -0.32106788557E+03  0.28234535102E+04  0.28466203770E+04  0.25500000920E-02 0.  1.
</event>
<event>
 5   0  0.2546841E-07  0.2898118E+04  0.7818609E-02  0.8273438E-01
        2   -1    0    0  501    0  0.00000000000E+00  0.00000000000E+00  0.24233378128E+04  0.24233378128E+04  0.25500000920E-02 0.  1.
       -2   -1    0    0    0  501  0.00000000000E+00  0.00000000000E+00 -0.86647939495E+03  0.86647939496E+03  0.25500000920E-02 0. -1.
    10030    2    1    2    0    0  0.00000000000E+00  0.00000000000E+00  0.15568584178E+04  0.32898172077E+04  0.28981182045E+04 0.  0.
        1    1    3    3  502    0 -0.66200415461E+03  0.70710337959E+03 -0.44497631859E+03  0.10659496303E+04  0.50400001928E-02 0. -1.
       -1    1    3    3    0  502  0.66200415461E+03 -0.70710337959E+03  0.20018347364E+04  0.22238675774E+04  0.50400001928E-02 0.  1.
</event>
<event>
 5   0  0.9443352E-08  0.2899870E+04  0.7818609E-02  0.8272916E-01
        1   -1    0    0  501    0  0.00000000000E+00  0.00000000000E+00  0.14853609509E+04  0.14853609509E+04  0.50400001928E-02 0.  1.
       -1   -1    0    0    0  501  0.00000000000E+00  0.00000000000E+00 -0.14153539988E+04  0.14153539989E+04  0.50400001928E-02 0. -1.
    10030    2    1    2    0    0  0.00000000000E+00  0.00000000000E+00  0.70006952036E+02  0.29007149497E+04  0.28998700396E+04 0.  0.
        4    1    3    3  502    0 -0.11357256687E+04  0.16124874738E+03  0.92207412516E+03  0.14717663735E+04  0.12699999809E+01 0.  1.
       -4    1    3    3    0  502  0.11357256687E+04 -0.16124874738E+03 -0.85206717312E+03  0.14289485762E+04  0.12699999809E+01 0. -1.
</event>
<event>
 5   0  0.2534588E-07  0.2899528E+04  0.7818609E-02  0.8273018E-01
       -2   -1    0    0    0  501  0.00000000000E+00  0.00000000000E+00  0.12704366763E+04  0.12704366763E+04  0.25500000920E-02 0.  1.
        2   -1    0    0  501    0  0.00000000000E+00  0.00000000000E+00 -0.16544041821E+04  0.16544041821E+04  0.25500000920E-02 0. -1.
    10030    2    1    2    0    0  0.00000000000E+00  0.00000000000E+00 -0.38396750575E+03  0.29248408584E+04  0.28995280653E+04 0.  0.
        3    1    3    3  502    0 -0.53070555335E+02 -0.59481403858E+03 -0.15245750369E+04  0.16373604606E+04  0.10100000352E+00 0. -1.
       -3    1    3    3    0  502  0.53070555335E+02  0.59481403858E+03  0.11406075312E+04  0.12874803978E+04  0.10100000352E+00 0.  1.
</event>
<event>
 5   0  0.9443352E-08  0.2899416E+04  0.7818609E-02  0.8273051E-01
       -1   -1    0    0    0  501  0.00000000000E+00  0.00000000000E+00  0.11305005189E+04  0.11305005189E+04  0.50400001928E-02 0. -1.
        1   -1    0    0  501    0  0.00000000000E+00  0.00000000000E+00 -0.18590464579E+04  0.18590464579E+04  0.50400001928E-02 0.  1.
    10030    2    1    2    0    0  0.00000000000E+00  0.00000000000E+00 -0.72854593906E+03  0.29895469768E+04  0.28994157931E+04 0.  0.
        4    1    3    3  502    0 -0.10243321770E+04 -0.46218700971E+03  0.58004538607E+03  0.12646452086E+04  0.12699999809E+01 0. -1.
       -4    1    3    3    0  502  0.10243321770E+04  0.46218700971E+03 -0.13085913251E+04  0.17249017682E+04  0.12699999809E+01 0.  1.
</event>
<event>
 5   0  0.2534588E-07  0.2899306E+04  0.7818609E-02  0.8273084E-01
       -2   -1    0    0    0  501  0.00000000000E+00  0.00000000000E+00  0.11611582783E+04  0.11611582783E+04  0.25500000920E-02 0.  1.
        2   -1    0    0  501    0  0.00000000000E+00  0.00000000000E+00 -0.18098260125E+04  0.18098260125E+04  0.25500000920E-02 0. -1.
    10030    2    1    2    0    0  0.00000000000E+00  0.00000000000E+00 -0.64866773418E+03  0.29709842908E+04  0.28993064389E+04 0.  0.
        3    1    3    3  502    0 -0.10461570485E+03 -0.35005321122E+03  0.11132069650E+04  0.11716276940E+04  0.10100000352E+00 0.  1.
       -3    1    3    3    0  502  0.10461570485E+03  0.35005321122E+03 -0.17618746992E+04  0.17993565967E+04  0.10100000352E+00 0. -1.
</event>
<event>
 5   0  0.2492232E-07  0.2902831E+04  0.7818609E-02  0.8272036E-01
       -2   -1    0    0    0  501  0.00000000000E+00  0.00000000000E+00  0.13955569019E+04  0.13955569019E+04  0.25500000920E-02 0. -1.
        2   -1    0    0  501    0  0.00000000000E+00  0.00000000000E+00 -0.15095103525E+04  0.15095103525E+04  0.25500000920E-02 0.  1.
    10030    2    1    2    0    0  0.00000000000E+00  0.00000000000E+00 -0.11395345065E+03  0.29050672544E+04  0.29028314390E+04 0.  0.
        4    1    3    3  502    0 -0.46925651856E+03 -0.10355412424E+04  0.84597018476E+03  0.14171148547E+04  0.12699999809E+01 0. -1.
       -4    1    3    3    0  502  0.46925651856E+03  0.10355412424E+04 -0.95992363540E+03  0.14879523997E+04  0.12699999809E+01 0.  1.
</event>
<event>
 5   0  0.2608591E-07  0.2893661E+04  0.7818609E-02  0.8274766E-01
        2   -1    0    0  501    0  0.00000000000E+00  0.00000000000E+00  0.90627956740E+03  0.90627956740E+03  0.25500000920E-02 0. -1.
       -2   -1    0    0    0  501  0.00000000000E+00  0.00000000000E+00 -0.23097938945E+04  0.23097938945E+04  0.25500000920E-02 0.  1.
    10030    2    1    2    0    0  0.00000000000E+00  0.00000000000E+00 -0.14035143271E+04  0.32160734619E+04  0.28936613565E+04 0.  0.
        2    1    3    3  502    0  0.73318928655E+03 -0.64298483227E+02  0.68267183181E+03  0.10038633646E+04  0.25500000920E-02 0. -1.
       -2    1    3    3    0  502 -0.73318928655E+03  0.64298483227E+02 -0.20861861589E+04  0.22122100973E+04  0.25500000920E-02 0.  1.
</event>
<event>
 5   0  0.2608591E-07  0.2915392E+04  0.7818609E-02  0.8268313E-01
       -2   -1    0    0    0  501  0.00000000000E+00  0.00000000000E+00  0.13315206117E+04  0.13315206117E+04  0.25500000920E-02 0. -1.
        2   -1    0    0  501    0  0.00000000000E+00  0.00000000000E+00 -0.15958276293E+04  0.15958276293E+04  0.25500000920E-02 0.  1.
    10030    2    1    2    0    0  0.00000000000E+00  0.00000000000E+00 -0.26430701762E+03  0.29273482410E+04  0.29153918304E+04 0.  0.
        2    1    3    3  502    0 -0.11535305652E+04 -0.72580498038E+03  0.38712479388E+03  0.14167890600E+04  0.25500000920E-02 0. -1.
       -2    1    3    3    0  502  0.11535305652E+04  0.72580498038E+03 -0.65143181150E+03  0.15105591810E+04  0.25500000920E-02 0.  1.
</event>
<event>
 5   0  0.9443352E-08  0.2901120E+04  0.7818609E-02  0.8272544E-01
        1   -1    0    0  501    0  0.00000000000E+00  0.00000000000E+00  0.13735515835E+04  0.13735515835E+04  0.50400001928E-02 0.  1.
       -1   -1    0    0    0  501  0.00000000000E+00  0.00000000000E+00 -0.15318862231E+04  0.15318862232E+04  0.50400001928E-02 0. -1.
    10030    2    1    2    0    0  0.00000000000E+00  0.00000000000E+00 -0.15833463963E+03  0.29054378067E+04  0.29011202992E+04 0.  0.
        4    1    3    3  502    0 -0.68150028047E+03 -0.28429746177E+03  0.11712321165E+04  0.13845771783E+04  0.12699999809E+01 0.  1.
       -4    1    3    3    0  502  0.68150028047E+03  0.28429746177E+03 -0.13295667561E+04  0.15208606284E+04  0.12699999809E+01 0. -1.
</event>
<event>
 5   0  0.2608591E-07  0.2898009E+04  0.7818609E-02  0.8273470E-01
        2   -1    0    0  501    0  0.00000000000E+00  0.00000000000E+00  0.30084618656E+04  0.30084618656E+04  0.25500000920E-02 0.  1.
       -2   -1    0    0    0  501  0.00000000000E+00  0.00000000000E+00 -0.69790289637E+03  0.69790289637E+03  0.25500000920E-02 0. -1.
    10030    2    1    2    0    0  0.00000000000E+00  0.00000000000E+00  0.23105589692E+04  0.37063647620E+04  0.28980091440E+04 0.  0.
        2    1    3    3  502    0 -0.34189156064E+03 -0.21168042427E+03 -0.62511343902E+03  0.74328006358E+03  0.25500000920E-02 0. -1.
       -2    1    3    3    0  502  0.34189156064E+03  0.21168042427E+03  0.29356724083E+04  0.29630846984E+04  0.25500000920E-02 0.  1.
</event>
<event>
 5   0  0.2678723E-07  0.2903503E+04  0.7818609E-02  0.8271836E-01
       -2   -1    0    0    0  501  0.00000000000E+00  0.00000000000E+00  0.13880516029E+04  0.13880516029E+04  0.25500000920E-02 0.  1.
        2   -1    0    0  501    0  0.00000000000E+00  0.00000000000E+00 -0.15183743791E+04  0.15183743791E+04  0.25500000920E-02 0. -1.
    10030    2    1    2    0    0  0.00000000000E+00  0.00000000000E+00 -0.13032277615E+03  0.29064259820E+04  0.29035027058E+04 0.  0.
        5    1    3    3  502    0 -0.14104970632E+04  0.24297831892E+03 -0.30834521711E+03  0.14641172397E+04  0.46999998093E+01 0. -1.
       -5    1    3    3    0  502  0.14104970632E+04 -0.24297831892E+03  0.17802244096E+03  0.14423087423E+04  0.46999998093E+01 0.  1.
</event>
<event>
 5   0  0.2678723E-07  0.2900096E+04  0.7818609E-02  0.8272849E-01
        2   -1    0    0  501    0  0.00000000000E+00  0.00000000000E+00  0.20870992379E+04  0.20870992379E+04  0.25500000920E-02 0. -1.
       -2   -1    0    0    0  501  0.00000000000E+00  0.00000000000E+00 -0.10074459381E+04  0.10074459381E+04  0.25500000920E-02 0.  1.
    10030    2    1    2    0    0  0.00000000000E+00  0.00000000000E+00  0.10796532999E+04  0.30945451760E+04  0.29000963085E+04 0.  0.
        5    1    3    3  502    0  0.50556570753E+03 -0.12535486569E+04  0.11000392596E+04  0.17427247007E+04  0.46999998093E+01 0. -1.
       -5    1    3    3    0  502 -0.50556570753E+03  0.12535486569E+04 -0.20385959710E+02  0.13518204753E+04  0.46999998093E+01 0.  1.
</event>
<event>
 5   0  0.2534588E-07  0.2902147E+04  0.7818609E-02  0.8272239E-01
        2   -1    0    0  501    0  0.00000000000E+00  0.00000000000E+00  0.23603202008E+04  0.23603202008E+04  0.25500000920E-02 0. -1.
       -2   -1    0    0    0  501  0.00000000000E+00  0.00000000000E+00 -0.89208818486E+03  0.89208818487E+03  0.25500000920E-02 0.  1.
    10030    2    1    2    0    0  0.00000000000E+00  0.00000000000E+00  0.14682320160E+04  0.32524083857E+04  0.29021466287E+04 0.  0.
        3    1    3    3  502    0  0.10027805868E+04  0.82337538647E+03  0.60139203692E+01  0.12975176722E+04  0.10100000352E+00 0.  1.
       -3    1    3    3    0  502 -0.10027805868E+04 -0.82337538647E+03  0.14622180956E+04  0.19548907135E+04  0.10100000352E+00 0. -1.
</event>
<event>
 5   0  0.9388076E-08  0.2899474E+04  0.7818609E-02  0.8273034E-01
       -1   -1    0    0    0  501  0.00000000000E+00  0.00000000000E+00  0.12095711278E+04  0.12095711278E+04  0.50400001928E-02 0.  1.
        1   -1    0    0  501    0  0.00000000000E+00  0.00000000000E+00 -0.17375885176E+04  0.17375885176E+04  0.50400001928E-02 0. -1.
    10030    2    1    2    0    0  0.00000000000E+00  0.00000000000E+00 -0.52801738986E+03  0.29471596454E+04  0.28994736783E+04 0.  0.
        5    1    3    3  502    0  0.25527471508E+03  0.92387918140E+03  0.84153596957E+03  0.12755088397E+04  0.46999998093E+01 0.  1.
       -5    1    3    3    0  502 -0.25527471508E+03 -0.92387918140E+03 -0.13695533594E+04  0.16716508057E+04  0.46999998093E+01 0. -1.
</event>
<event>
 5   0  0.9421924E-08  0.2900643E+04  0.7818609E-02  0.8272686E-01
        1   -1    0    0  501    0  0.00000000000E+00  0.00000000000E+00  0.15420969328E+04  0.15420969328E+04  0.50400001928E-02 0. -1.
       -1   -1    0    0    0  501  0.00000000000E+00  0.00000000000E+00 -0.13640077472E+04  0.13640077472E+04  0.50400001928E-02 0.  1.
    10030    2    1    2    0    0  0.00000000000E+00  0.00000000000E+00  0.17808918552E+03  0.29061046800E+04  0.29006428000E+04 0.  0.
        1    1    3    3  502    0 -0.27437755317E+03 -0.37807389449E+03 -0.12865700316E+04  0.13687532128E+04  0.50400001928E-02 0.  1.
       -1    1    3    3    0  502  0.27437755317E+03  0.37807389449E+03  0.14646592171E+04  0.15373514672E+04  0.50400001928E-02 0. -1.
</event>
<event>
 5   0  0.2534588E-07  0.2900617E+04  0.7818609E-02  0.8272694E-01
        2   -1    0    0  501    0  0.00000000000E+00  0.00000000000E+00  0.15655426597E+04  0.15655426597E+04  0.25500000920E-02 0. -1.
       -2   -1    0    0    0  501  0.00000000000E+00  0.00000000000E+00 -0.13435565928E+04  0.13435565928E+04  0.25500000920E-02 0.  1.
    10030    2    1    2    0    0  0.00000000000E+00  0.00000000000E+00  0.22198606699E+03  0.29090992525E+04  0.29006172872E+04 0.  0.
        3    1    3    3  502    0  0.41278931156E+03 -0.28471676433E+03  0.14758311835E+04  0.15586970020E+04  0.10100000352E+00 0. -1.
       -3    1    3    3    0  502 -0.41278931156E+03  0.28471676433E+03 -0.12538451165E+04  0.13504022505E+04  0.10100000352E+00 0.  1.
</event>
<event>
 5   0  0.9395744E-08  0.2899700E+04  0.7818609E-02  0.8272967E-01
        1   -1    0    0  501    0  0.00000000000E+00  0.00000000000E+00  0.14763573199E+04  0.14763573199E+04  0.50400001928E-02 0.  1.
       -1   -1    0    0    0  501  0.00000000000E+00  0.00000000000E+00 -0.14238188884E+04  0.14238188885E+04  0.50400001928E-02 0. -1.
    10030    2    1    2    0    0  0.00000000000E+00  0.00000000000E+00  0.52538431487E+02  0.29001762084E+04  0.28997002868E+04 0.  0.
        2    1    3    3  502    0 -0.37633632590E+03  0.10376618208E+04  0.96647369099E+03  0.14671204722E+04  0.25500000920E-02 0.  1.
       -2    1    3    3    0  502  0.37633632590E+03 -0.10376618208E+04 -0.91393525950E+03  0.14330557362E+04  0.25500000920E-02 0. -1.
</event>
<event>
 5   0  0.2492232E-07  0.2899483E+04  0.7818609E-02  0.8273031E-01
       -2   -1    0    0    0  501  0.00000000000E+00  0.00000000000E+00  0.11818627874E+04  0.11818627874E+04  0.25500000920E-02 0. -1.
        2   -1    0    0  501    0  0.00000000000E+00  0.00000000000E+00 -0.17783372605E+04  0.17783372605E+04  0.25500000920E-02 0.  1.
    10030    2    1    2    0    0  0.00000000000E+00  0.00000000000E+00 -0.59647447308E+03  0.29602000479E+04  0.28994831481E+04 0.  0.
        4    1    3    3  502    0  0.13943558722E+03  0.65827221139E+03 -0.16092555249E+04  0.17442676241E+04  0.12699999809E+01 0. -1.
       -4    1    3    3    0  502 -0.13943558722E+03 -0.65827221139E+03  0.10127810518E+04  0.12159324237E+04  0.12699999809E+01 0.  1.
</event>
<event>
 5   0  0.9443352E-08  0.2897819E+04  0.7818609E-02  0.8273527E-01
       -1   -1    0    0    0  501  0.00000000000E+00  0.00000000000E+00  0.18052737777E+04  0.18052737777E+04  0.50400001928E-02 0. -1.
        1   -1    0    0  501    0  0.00000000000E+00  0.00000000000E+00 -0.11628921279E+04  0.11628921279E+04  0.50400001928E-02 0.  1.
    10030    2    1    2    0    0  0.00000000000E+00  0.00000000000E+00  0.64238164984E+03  0.29681659056E+04  0.28978189487E+04 0.  0.
        4    1    3    3  502    0 -0.45226213710E+03 -0.37597495011E+03  0.16775110454E+04  0.17776228858E+04  0.12699999809E+01 0. -1.
       -4    1    3    3    0  502  0.45226213710E+03  0.37597495011E+03 -0.10351293955E+04  0.11905430199E+04  0.12699999809E+01 0.  1.
</event>
<event>
 5   0  0.2492232E-07  0.2896919E+04  0.7818609E-02  0.8273795E-01
        2   -1    0    0  501    0  0.00000000000E+00  0.00000000000E+00  0.27141899677E+04  0.27141899677E+04  0.25500000920E-02 0. -1.
       -2   -1    0    0    0  501  0.00000000000E+00  0.00000000000E+00 -0.77298760650E+03  0.77298760650E+03  0.25500000920E-02 0.  1.
    10030    2    1    2    0    0  0.00000000000E+00  0.00000000000E+00  0.19412023612E+04  0.34871775742E+04  0.28969191958E+04 0.  0.
        4    1    3    3  502    0  0.16706151113E+03  0.78153630736E+03  0.24247662212E+04  0.25530768474E+04  0.12699999809E+01 0. -1.
       -4    1    3    3    0  502 -0.16706151113E+03 -0.78153630736E+03 -0.48356386001E+03  0.93410072682E+03  0.12699999809E+01 0.  1.
</event>
<event>
 5   0  0.2546841E-07  0.2898745E+04  0.7818609E-02  0.8273251E-01
        2   -1    0    0  501    0  0.00000000000E+00  0.00000000000E+00  0.14598976733E+04  0.14598976733E+04  0.25500000920E-02 0. -1.
       -2   -1    0    0    0  501  0.00000000000E+00  0.00000000000E+00 -0.14389230521E+04  0.14389230521E+04  0.25500000920E-02 0.  1.
    10030    2    1    2    0    0  0.00000000000E+00  0.00000000000E+00  0.20974621210E+02  0.28988207254E+04  0.28987448428E+04 0.  0.
        1    1    3    3  502    0  0.68960924407E+03 -0.12721344808E+04  0.92911364583E+02  0.14500067478E+04  0.50400001928E-02 0. -1.
       -1    1    3    3    0  502 -0.68960924407E+03  0.12721344808E+04 -0.71936743373E+02  0.14488139777E+04  0.50400001928E-02 0.  1.
</event>
<event>
 5   0  0.2608591E-07  0.2901825E+04  0.7818609E-02  0.8272335E-01
       -2   -1    0    0    0  501  0.00000000000E+00  0.00000000000E+00  0.92127549012E+03  0.92127549012E+03  0.25500000920E-02 0.  1.
        2   -1    0    0  501    0  0.00000000000E+00  0.00000000000E+00 -0.22850353934E+04  0.22850353934E+04  0.25500000920E-02 0. -1.
    10030    2    1    2    0    0  0.00000000000E+00  0.00000000000E+00 -0.13637599032E+04  0.32063108835E+04  0.29018250133E+04 0.  0.
        2    1    3    3  502    0 -0.67243420885E+03  0.11868804735E+04 -0.12280034696E+04  0.18354415123E+04  0.25500000920E-02 0. -1.
       -2    1    3    3    0  502  0.67243420885E+03 -0.11868804735E+04 -0.13575643368E+03  0.13708693712E+04  0.25500000920E-02 0.  1.
</event>
<event>
 5   0  0.9763851E-08  0.2905969E+04  0.7818609E-02  0.8271104E-01
        1   -1    0    0  501    0  0.00000000000E+00  0.00000000000E+00  0.18414001748E+04  0.18414001748E+04  0.50400001928E-02 0.  1.
       -1   -1    0    0    0  501  0.00000000000E+00  0.00000000000E+00 -0.11464990532E+04  0.11464990532E+04  0.50400001928E-02 0. -1.
    10030    2    1    2    0    0  0.00000000000E+00  0.00000000000E+00  0.69490112159E+03  0.29878992280E+04  0.29059687245E+04 0.  0.
        3    1    3    3  502    0  0.88316688607E+03 -0.11312526688E+04  0.11423588785E+03  0.14397104561E+04  0.10100000352E+00 0. -1.
       -3    1    3    3    0  502 -0.88316688607E+03  0.11312526688E+04  0.58066523374E+03  0.15481887718E+04  0.10100000352E+00 0.  1.
</event>
<event>
 5   0  0.9421924E-08  0.2901668E+04  0.7818609E-02  0.8272381E-01
       -1   -1    0    0    0  501  0.00000000000E+00  0.00000000000E+00  0.11949637480E+04  0.11949637480E+04  0.50400001928E-02 0. -1.
        1   -1    0    0  501    0  0.00000000000E+00  0.00000000000E+00 -0.17614921093E+04  0.17614921093E+04  0.50400001928E-02 0.  1.
    10030    2    1    2    0    0  0.00000000000E+00  0.00000000000E+00 -0.56652836126E+03  0.29564558573E+04  0.29016679431E+04 0.  0.
        1    1    3    3  502    0 -0.31646037846E+03  0.33192249091E+03 -0.16856980660E+04  0.17469681396E+04  0.50400001928E-02 0.  1.
       -1    1    3    3    0  502  0.31646037846E+03 -0.33192249091E+03  0.11191697048E+04  0.12094877177E+04  0.50400001928E-02 0. -1.
</event>
<event>
 5   0  0.9395744E-08  0.2898420E+04  0.7818609E-02  0.8273348E-01
       -1   -1    0    0    0  501  0.00000000000E+00  0.00000000000E+00  0.17165228685E+04  0.17165228685E+04  0.50400001928E-02 0.  1.
        1   -1    0    0  501    0  0.00000000000E+00  0.00000000000E+00 -0.12235251742E+04  0.12235251742E+04  0.50400001928E-02 0. -1.
    10030    2    1    2    0    0  0.00000000000E+00  0.00000000000E+00  0.49299769428E+03  0.29400480427E+04  0.28984195291E+04 0.  0.
        2    1    3    3  502    0 -0.37390112137E+03  0.37000927834E+03  0.16162638534E+04  0.16997110809E+04  0.25500000920E-02 0.  1.
       -2    1    3    3    0  502  0.37390112137E+03 -0.37000927834E+03 -0.11232661591E+04  0.12403369618E+04  0.25500000920E-02 0. -1.
</event>
<event>
 5   0  0.2608591E-07  0.2901710E+04  0.7818609E-02  0.8272369E-01
        2   -1    0    0  501    0  0.00000000000E+00  0.00000000000E+00  0.20816507968E+04  0.20816507968E+04  0.25500000920E-02 0. -1.
       -2   -1    0    0    0  501  0.00000000000E+00  0.00000000000E+00 -0.10112071200E+04  0.10112071200E+04  0.25500000920E-02 0.  1.
    10030    2    1    2    0    0  0.00000000000E+00  0.00000000000E+00  0.10704436768E+04  0.30928579169E+04  0.29017099146E+04 0.  0.
        2    1    3    3  502    0 -0.81609276379E+03 -0.71447312309E+03 -0.49184127489E+03  0.11909605713E+04  0.25500000920E-02 0.  1.
       -2    1    3    3    0  502  0.81609276379E+03  0.71447312309E+03  0.15622849517E+04  0.19018973456E+04  0.25500000920E-02 0. -1.
</event>
<event>
 5   0  0.2678723E-07  0.2900447E+04  0.7818609E-02  0.8272745E-01
        2   -1    0    0  501    0  0.00000000000E+00  0.00000000000E+00  0.26914404908E+04  0.26914404908E+04  0.25500000920E-02 0.  1.
       -2   -1    0    0    0  501  0.00000000000E+00  0.00000000000E+00 -0.78142087512E+03  0.78142087512E+03  0.25500000920E-02 0. -1.
    10030    2    1    2    0    0  0.00000000000E+00  0.00000000000E+00  0.19100196157E+04  0.34728613660E+04  0.29004467130E+04 0.  0.
        5    1    3    3  502    0  0.12409161350E+04 -0.45027280490E+03  0.23609148596E+03  0.13410368126E+04  0.46999998093E+01 0.  1.
       -5    1    3    3    0  502 -0.12409161350E+04  0.45027280490E+03  0.16739281298E+04  0.21318245534E+04  0.46999998093E+01 0. -1.
</event>
<event>
 5   0  0.9421924E-08  0.2900036E+04  0.7818609E-02  0.8272867E-01
        1   -1    0    0  501    0  0.00000000000E+00  0.00000000000E+00  0.15968230664E+04  0.15968230664E+04  0.50400001928E-02 0. -1.
       -1   -1    0    0    0  501  0.00000000000E+00  0.00000000000E+00 -0.13167092983E+04  0.13167092983E+04  0.50400001928E-02 0.  1.
    10030    2    1    2    0    0  0.00000000000E+00  0.00000000000E+00  0.28011376810E+03  0.29135323648E+04  0.29000357097E+04 0.  0.
        1    1    3    3  502    0  0.10209572523E+04 -0.19149468628E+03  0.11564608103E+04  0.15544856164E+04  0.50400001928E-02 0. -1.
       -1    1    3    3    0  502 -0.10209572523E+04  0.19149468628E+03 -0.87634704221E+03  0.13590467484E+04  0.50400001928E-02 0.  1.
</event>
<event>
 5   0  0.2546841E-07  0.2900471E+04  0.7818609E-02  0.8272737E-01
       -2   -1    0    0    0  501  0.00000000000E+00  0.00000000000E+00  0.15686677511E+04  0.15686677511E+04  0.25500000920E-02 0. -1.
        2   -1    0    0  501    0  0.00000000000E+00  0.00000000000E+00 -0.13407451283E+04  0.13407451283E+04  0.25500000920E-02 0.  1.
    10030    2    1    2    0    0  0.00000000000E+00  0.00000000000E+00  0.22792262285E+03  0.29094128794E+04  0.29004714411E+04 0.  0.
        1    1    3    3  502    0 -0.44731764470E+03 -0.13435504924E+04 -0.19999340621E+03  0.14301113115E+04  0.50400001928E-02 0. -1.
       -1    1    3    3    0  502  0.44731764470E+03  0.13435504924E+04  0.42791602907E+03  0.14793015679E+04  0.50400001928E-02 0.  1.
</event>
<event>
 5   0  0.9421924E-08  0.2900121E+04  0.7818609E-02  0.8272842E-01
       -1   -1    0    0    0  501  0.00000000000E+00  0.00000000000E+00  0.17855850862E+04  0.17855850862E+04  0.50400001928E-02 0.  1.
        1   -1    0    0  501    0  0.00000000000E+00  0.00000000000E+00 -0.11775831313E+04  0.11775831313E+04  0.50400001928E-02 0. -1.
    10030    2    1    2    0    0  0.00000000000E+00  0.00000000000E+00  0.60800195494E+03  0.29631682175E+04  0.29001206023E+04 0.  0.
        1    1    3    3  502    0 -0.11423749200E+04 -0.32275615781E+03 -0.54685904903E+03  0.13069991640E+04  0.50400001928E-02 0. -1.
       -1    1    3    3    0  502  0.11423749200E+04  0.32275615781E+03  0.11548610040E+04  0.16561690535E+04  0.50400001928E-02 0.  1.
</event>
<event>
 5   0  0.2678723E-07  0.2906148E+04  0.7818609E-02  0.8271051E-01
        2   -1    0    0  501    0  0.00000000000E+00  0.00000000000E+00  0.27371958218E+04  0.27371958218E+04  0.25500000920E-02 0.  1.
       -2   -1    0    0    0  501  0.00000000000E+00  0.00000000000E+00 -0.77138228486E+03  0.77138228487E+03  0.25500000920E-02 0. -1.
    10030    2    1    2    0    0  0.00000000000E+00  0.00000000000E+00  0.19658135370E+04  0.35085781067E+04  0.29061482186E+04 0.  0.
        5    1    3    3  502    0 -0.50837198286E+03  0.66446873993E+03  0.24172227246E+04  0.25579187966E+04  0.46999998093E+01 0.  1.
       -5    1    3    3    0  502  0.50837198286E+03 -0.66446873993E+03 -0.45140918765E+03  0.95065931016E+03  0.46999998093E+01 0. -1.
</event>
<event>
 5   0  0.2546841E-07  0.2899717E+04  0.7818609E-02  0.8272962E-01
        2   -1    0    0  501    0  0.00000000000E+00  0.00000000000E+00  0.25576885897E+04  0.25576885897E+04  0.25500000920E-02 0. -1.
       -2   -1    0    0    0  501  0.00000000000E+00  0.00000000000E+00 -0.82187069001E+03  0.82187069002E+03  0.25500000920E-02 0.  1.
    10030    2    1    2    0    0  0.00000000000E+00  0.00000000000E+00  0.17358178997E+04  0.33795592798E+04  0.28997167352E+04 0.  0.
        1    1    3    3  502    0  0.89821772452E+03  0.10071671312E+04  0.25019559308E+03  0.13725081222E+04  0.50400001928E-02 0. -1.
       -1    1    3    3    0  502 -0.89821772452E+03 -0.10071671312E+04  0.14856223066E+04  0.20070511575E+04  0.50400001928E-02 0.  1.
</event>
<event>
 5   0  0.2678723E-07  0.2900460E+04  0.7818609E-02  0.8272741E-01
        2   -1    0    0  501    0  0.00000000000E+00  0.00000000000E+00  0.22810644774E+04  0.22810644774E+04  0.25500000920E-02 0. -1.
       -2   -1    0    0    0  501  0.00000000000E+00  0.00000000000E+00 -0.92201137242E+03  0.92201137242E+03  0.25500000920E-02 0.  1.
    10030    2    1    2    0    0  0.00000000000E+00  0.00000000000E+00  0.13590531050E+04  0.32030758499E+04  0.29004602320E+04 0.  0.
        5    1    3    3  502    0  0.89686197709E+03 -0.58090864293E+03  0.17622968634E+04  0.20609533188E+04  0.46999998093E+01 0. -1.
       -5    1    3    3    0  502 -0.89686197709E+03  0.58090864293E+03 -0.40324375837E+03  0.11421225311E+04  0.46999998093E+01 0.  1.
</event>
<event>
 5   0  0.2678723E-07  0.2899183E+04  0.7818609E-02  0.8273121E-01
        2   -1    0    0  501    0  0.00000000000E+00  0.00000000000E+00  0.24008235723E+04  0.24008235723E+04  0.25500000920E-02 0.  1.
       -2   -1    0    0    0  501  0.00000000000E+00  0.00000000000E+00 -0.87524781502E+03  0.87524781502E+03  0.25500000920E-02 0. -1.
    10030    2    1    2    0    0  0.00000000000E+00  0.00000000000E+00  0.15255757572E+04  0.32760713873E+04  0.28991830476E+04 0.  0.
        5    1    3    3  502    0 -0.23130719550E+03  0.91468276411E+03  0.20063742533E+04  0.22171394435E+04  0.46999998093E+01 0.  1.
       -5    1    3    3    0  502  0.23130719550E+03 -0.91468276411E+03 -0.48079849608E+03  0.10589319437E+04  0.46999998093E+01 0. -1.
</event>
<event>
 5   0  0.9395744E-08  0.2900287E+04  0.7818609E-02  0.8272792E-01
       -1   -1    0    0    0  501  0.00000000000E+00  0.00000000000E+00  0.12610833609E+04  0.12610833609E+04  0.50400001928E-02 0. -1.
        1   -1    0    0  501    0  0.00000000000E+00  0.00000000000E+00 -0.16675477323E+04  0.16675477323E+04  0.50400001928E-02 0.  1.
    10030    2    1    2    0    0  0.00000000000E+00  0.00000000000E+00 -0.40646437138E+03  0.29286310932E+04  0.29002873642E+04 0.  0.
        2    1    3    3  502    0 -0.80913852466E+03  0.10365541565E+04 -0.82057177924E+03  0.15499960376E+04  0.25500000920E-02 0.  1.
       -2    1    3    3    0  502  0.80913852466E+03 -0.10365541565E+04  0.41410740786E+03  0.13786350557E+04  0.25500000920E-02 0. -1.
</event>
<event>
 5   0  0.2546841E-07  0.2901402E+04  0.7818609E-02  0.8272460E-01
        2   -1    0    0  501    0  0.00000000000E+00  0.00000000000E+00  0.16048851046E+04  0.16048851046E+04  0.25500000920E-02 0.  1.
       -2   -1    0    0    0  501  0.00000000000E+00  0.00000000000E+00 -0.13113300556E+04  0.13113300556E+04  0.25500000920E-02 0. -1.
    10030    2    1    2    0    0  0.00000000000E+00  0.00000000000E+00  0.29355504899E+03  0.29162151603E+04  0.29014024702E+04 0.  0.
        1    1    3    3  502    0  0.47522124333E+03 -0.12257382779E+04  0.76331321099E+03  0.15201699294E+04  0.50400001928E-02 0.  1.
       -1    1    3    3    0  502 -0.47522124333E+03  0.12257382779E+04 -0.46975816200E+03  0.13960452309E+04  0.50400001928E-02 0. -1.
</event>
<event>
 5   0  0.9395744E-08  0.2900389E+04  0.7818609E-02  0.8272762E-01
        1   -1    0    0  501    0  0.00000000000E+00  0.00000000000E+00  0.19128479936E+04  0.19128479936E+04  0.50400001928E-02 0.  1.
       -1   -1    0    0    0  501  0.00000000000E+00  0.00000000000E+00 -0.10994410209E+04  0.10994410209E+04  0.50400001928E-02 0. -1.
    10030    2    1    2    0    0  0.00000000000E+00  0.00000000000E+00  0.81340697268E+03  0.30122890145E+04  0.29003886298E+04 0.  0.
        2    1    3    3  502    0  0.13567539041E+03 -0.36855216553E+03 -0.10431591890E+04  0.11146387773E+04  0.25500000920E-02 0. -1.
       -2    1    3    3    0  502 -0.13567539041E+03  0.36855216553E+03  0.18565661617E+04  0.18976502373E+04  0.25500000920E-02 0.  1.
</event>
<event>
 5   0  0.2492232E-07  0.2899291E+04  0.7818609E-02  0.8273089E-01
        2   -1    0    0  501    0  0.00000000000E+00  0.00000000000E+00  0.21840806917E+04  0.21840806917E+04  0.25500000920E-02 0. -1.
       -2   -1    0    0    0  501  0.00000000000E+00  0.00000000000E+00 -0.96217676468E+03  0.96217676468E+03  0.25500000920E-02 0.  1.
    10030    2    1    2    0    0  0.00000000000E+00  0.00000000000E+00  0.12219039270E+04  0.31462574563E+04  0.28992907365E+04 0.  0.
        4    1    3    3  502    0 -0.56119071085E+03  0.22854116811E+03  0.20400601364E+04  0.21281477985E+04  0.12699999809E+01 0. -1.
       -4    1    3    3    0  502  0.56119071085E+03 -0.22854116811E+03 -0.81815620939E+03  0.10181096578E+04  0.12699999809E+01 0.  1.
</event>
<event>
 5   0  0.9763851E-08  0.2901730E+04  0.7818609E-02  0.8272363E-01
        1   -1    0    0  501    0  0.00000000000E+00  0.00000000000E+00  0.29168545565E+04  0.29168545565E+04  0.50400001928E-02 0. -1.
       -1   -1    0    0    0  501  0.00000000000E+00  0.00000000000E+00 -0.72167119311E+03  0.72167119312E+03  0.50400001928E-02 0.  1.
    10030    2    1    2    0    0  0.00000000000E+00  0.00000000000E+00  0.21951833634E+04  0.36385257497E+04  0.29017304547E+04 0.  0.
        3    1    3    3  502    0 -0.10684173053E+04  0.53953277103E+03  0.69381658504E+02  0.11989265924E+04  0.10100000352E+00 0.  1.
       -3    1    3    3    0  502  0.10684173053E+04 -0.53953277103E+03  0.21258017049E+04  0.24395991573E+04  0.10100000352E+00 0. -1.
</event>
<event>
 5   0  0.2534588E-07  0.2899827E+04  0.7818609E-02  0.8272929E-01
        2   -1    0    0  501    0  0.00000000000E+00  0.00000000000E+00  0.11052468626E+04  0.11052468626E+04  0.25500000920E-02 0.  1.
       -2   -1    0    0    0  501  0.00000000000E+00  0.00000000000E+00 -0.19020632982E+04  0.19020632982E+04  0.25500000920E-02 0. -1.
    10030    2    1    2    0    0  0.00000000000E+00  0.00000000000E+00 -0.79681643556E+03  0.30073101608E+04  0.28998272313E+04 0.  0.
        3    1    3    3  502    0 -0.75743769587E+03  0.11302372638E+04 -0.91808177520E+03  0.16413477059E+04  0.10100000352E+00 0. -1.
       -3    1    3    3    0  502  0.75743769587E+03 -0.11302372638E+04  0.12126533964E+03  0.13659624549E+04  0.10100000352E+00 0.  1.
</event>
<event>
 5   0  0.9443352E-08  0.2900496E+04  0.7818609E-02  0.8272730E-01
        1   -1    0    0  501    0  0.00000000000E+00  0.00000000000E+00  0.14589325772E+04  0.14589325772E+04  0.50400001928E-02 0. -1.
       -1   -1    0    0    0  501  0.00000000000E+00  0.00000000000E+00 -0.14416155702E+04  0.14416155702E+04  0.50400001928E-02 0.  1.
    10030    2    1    2    0    0  0.00000000000E+00  0.00000000000E+00  0.17317007038E+02  0.29005481475E+04  0.29004964535E+04 0.  0.
        4    1    3    3  502    0 -0.40037655835E+03 -0.13698490710E+04  0.26640413080E+03  0.14518128804E+04  0.12699999809E+01 0.  1.
       -4    1    3    3    0  502  0.40037655835E+03  0.13698490710E+04 -0.24908712376E+03  0.14487352671E+04  0.12699999809E+01 0. -1.
</event>
<event>
 5   0  0.2546841E-07  0.2902403E+04  0.7818609E-02  0.8272163E-01
       -2   -1    0    0    0  501  0.00000000000E+00  0.00000000000E+00  0.17757697172E+04  0.17757697172E+04  0.25500000920E-02 0. -1.
        2   -1    0    0  501    0  0.00000000000E+00  0.00000000000E+00 -0.11859569173E+04  0.11859569173E+04  0.25500000920E-02 0.  1.
    10030    2    1    2    0    0  0.00000000000E+00  0.00000000000E+00  0.58981279982E+03  0.29617266345E+04  0.29024034039E+04 0.  0.
        1    1    3    3  502    0  0.52647894506E+03 -0.94710289337E+03 -0.69012281358E+03  0.12846997579E+04  0.50400001928E-02 0.  1.
       -1    1    3    3    0  502 -0.52647894506E+03  0.94710289337E+03  0.12799356134E+04  0.16770268766E+04  0.50400001928E-02 0. -1.
</event>
<event>
 5   0  0.9388076E-08  0.2906416E+04  0.7818609E-02  0.8270971E-01
       -1   -1    0    0    0  501  0.00000000000E+00  0.00000000000E+00  0.14605710381E+04  0.14605710381E+04  0.50400001928E-02 0. -1.
        1   -1    0    0  501    0  0.00000000000E+00  0.00000000000E+00 -0.14458820199E+04  0.14458820199E+04  0.50400001928E-02 0.  1.
    10030    2    1    2    0    0  0.00000000000E+00  0.00000000000E+00  0.14689018160E+02  0.29064530580E+04  0.29064159391E+04 0.  0.
        5    1    3    3  502    0 -0.39572361328E+03 -0.11981007376E+04 -0.71360072676E+03  0.14495829203E+04  0.46999998093E+01 0.  1.
       -5    1    3    3    0  502  0.39572361328E+03  0.11981007376E+04  0.72828974492E+03  0.14568701377E+04  0.46999998093E+01 0. -1.
</event>
<event>
 5   0  0.9443352E-08  0.2900387E+04  0.7818609E-02  0.8272762E-01
        1   -1    0    0  501    0  0.00000000000E+00  0.00000000000E+00  0.78194646680E+03  0.78194646682E+03  0.50400001928E-02 0.  1.
       -1   -1    0    0    0  501  0.00000000000E+00  0.00000000000E+00 -0.26895198114E+04  0.26895198114E+04  0.50400001928E-02 0. -1.
    10030    2    1    2    0    0  0.00000000000E+00  0.00000000000E+00 -0.19075733446E+04  0.34714662782E+04  0.29003865356E+04 0.  0.
        4    1    3    3  502    0  0.92984700530E+03 -0.99746636510E+03 -0.36316362994E+03  0.14111853308E+04  0.12699999809E+01 0.  1.
       -4    1    3    3    0  502 -0.92984700530E+03  0.99746636510E+03 -0.15444097146E+04  0.20602809474E+04  0.12699999809E+01 0. -1.
</event>
<event>
 5   0  0.2534588E-07  0.2902301E+04  0.7818609E-02  0.8272193E-01
        2   -1    0    0  501    0  0.00000000000E+00  0.00000000000E+00  0.11842866786E+04  0.11842866786E+04  0.25500000920E-02 0.  1.
       -2   -1    0    0    0  501  0.00000000000E+00  0.00000000000E+00 -0.17781482130E+04  0.17781482130E+04  0.25500000920E-02 0. -1.
    10030    2    1    2    0    0  0.00000000000E+00  0.00000000000E+00 -0.59386153437E+03  0.29624348916E+04  0.29023006331E+04 0.  0.
        3    1    3    3  502    0  0.62631285149E+03  0.32322681357E+02 -0.16326797067E+04  0.17489870150E+04  0.10100000352E+00 0. -1.
       -3    1    3    3    0  502 -0.62631285149E+03 -0.32322681357E+02  0.10388181724E+04  0.12134478765E+04  0.10100000352E+00 0.  1.
</event>
<event>
 5   0  0.9388076E-08  0.2899382E+04  0.7818609E-02  0.8273061E-01
       -1   -1    0    0    0  501  0.00000000000E+00  0.00000000000E+00  0.12698276999E+04  0.12698276999E+04  0.50400001928E-02 0.  1.
        1   -1    0    0  501    0  0.00000000000E+00  0.00000000000E+00 -0.16550303511E+04  0.16550303512E+04  0.50400001928E-02 0. -1.
    10030    2    1    2    0    0  0.00000000000E+00  0.00000000000E+00 -0.38520265121E+03  0.29248580511E+04  0.28993815783E+04 0.  0.
        5    1    3    3  502    0 -0.17672420221E+03 -0.13123238886E+04  0.40263067902E+03  0.13840372054E+04  0.46999998093E+01 0.  1.
       -5    1    3    3    0  502  0.17672420221E+03  0.13123238886E+04 -0.78783333023E+03  0.15408208457E+04  0.46999998093E+01 0. -1.
</event>
<event>
 5   0  0.9763851E-08  0.2899877E+04  0.7818609E-02  0.8272914E-01
        1   -1    0    0  501    0  0.00000000000E+00  0.00000000000E+00  0.15159032701E+04  0.15159032701E+04  0.50400001928E-02 0.  1.
       -1   -1    0    0    0  501  0.00000000000E+00  0.00000000000E+00 -0.13868440210E+04  0.13868440210E+04  0.50400001928E-02 0. -1.
    10030    2    1    2    0    0  0.00000000000E+00  0.00000000000E+00  0.12905924917E+03  0.29027472911E+04  0.28998768157E+04 0.  0.
        3    1    3    3  502    0 -0.34906106704E+03  0.12785809914E+04 -0.52402210770E+03  0.14252060061E+04  0.10100000352E+00 0. -1.
       -3    1    3    3    0  502  0.34906106704E+03 -0.12785809914E+04  0.65308135686E+03  0.14775412851E+04  0.10100000352E+00 0.  1.
</event>
<event>
 5   0  0.9395744E-08  0.2899926E+04  0.7818609E-02  0.8272900E-01
       -1   -1    0    0    0  501  0.00000000000E+00  0.00000000000E+00  0.16144738303E+04  0.16144738303E+04  0.50400001928E-02 0. -1.
        1   -1    0    0  501    0  0.00000000000E+00  0.00000000000E+00 -0.13022151256E+04  0.13022151256E+04  0.50400001928E-02 0.  1.
    10030    2    1    2    0    0  0.00000000000E+00  0.00000000000E+00  0.31225870470E+03  0.29166889559E+04  0.28999256830E+04 0.  0.
        2    1    3    3  502    0 -0.87663318085E+03 -0.75470057269E+03  0.10354448174E+04  0.15524833842E+04  0.25500000920E-02 0. -1.
       -2    1    3    3    0  502  0.87663318085E+03  0.75470057269E+03 -0.72318611274E+03  0.13642055717E+04  0.25500000920E-02 0.  1.
</event>
<event>
 5   0  0.2608591E-07  0.2899575E+04  0.7818609E-02  0.8273004E-01
        2   -1    0    0  501    0  0.00000000000E+00  0.00000000000E+00  0.20714606667E+04  0.20714606667E+04  0.25500000920E-02 0.  1.
       -2   -1    0    0    0  501  0.00000000000E+00  0.00000000000E+00 -0.10146869913E+04  0.10146869913E+04  0.25500000920E-02 0. -1.
    10030    2    1    2    0    0  0.00000000000E+00  0.00000000000E+00  0.10567736754E+04  0.30861476580E+04  0.28995752734E+04 0.  0.
        2    1    3    3  502    0 -0.11739457281E+04 -0.81906878595E+03  0.28367562235E+03  0.14592786257E+04  0.25500000920E-02 0. -1.
       -2    1    3    3    0  502  0.11739457281E+04  0.81906878595E+03  0.77309805309E+03  0.16268690323E+04  0.25500000920E-02 0.  1.
</event>
<event>
 5   0  0.9443352E-08  0.2899681E+04  0.7818609E-02  0.8272972E-01
        1   -1    0    0  501    0  0.00000000000E+00  0.00000000000E+00  0.28920053198E+04  0.28920053198E+04  0.50400001928E-02 0.  1.
       -1   -1    0    0    0  501  0.00000000000E+00  0.00000000000E+00 -0.72684426774E+03  0.72684426775E+03  0.50400001928E-02 0. -1.
    10030    2    1    2    0    0  0.00000000000E+00  0.00000000000E+00  0.21651610521E+04  0.36188495876E+04  0.28996810094E+04 0.  0.
        4    1    3    3  502    0 -0.95564593339E+03 -0.43987180316E+02 -0.27703694004E+03  0.99596440754E+03  0.12699999809E+01 0. -1.
       -4    1    3    3    0  502  0.95564593339E+03  0.43987180316E+02  0.24421979921E+04  0.26228851801E+04  0.12699999809E+01 0.  1.
</event>
<event>
 5   0  0.9395744E-08  0.2899518E+04  0.7818609E-02  0.8273021E-01
        1   -1    0    0  501    0  0.00000000000E+00  0.00000000000E+00  0.30701964163E+04  0.30701964163E+04  0.50400001928E-02 0. -1.
       -1   -1    0    0    0  501  0.00000000000E+00  0.00000000000E+00 -0.68458216427E+03  0.68458216428E+03  0.50400001928E-02 0.  1.
    10030    2    1    2    0    0  0.00000000000E+00  0.00000000000E+00  0.23856142521E+04  0.37547785806E+04  0.28995183789E+04 0.  0.
        2    1    3    3  502    0  0.47192942369E+03  0.12963038290E+04  0.61559384286E+03  0.15106544203E+04  0.25500000920E-02 0. -1.
       -2    1    3    3    0  502 -0.47192942369E+03 -0.12963038290E+04  0.17700204092E+04  0.22441241603E+04  0.25500000920E-02 0.  1.
</event>
<event>
 5   0  0.9763851E-08  0.2900447E+04  0.7818609E-02  0.8272745E-01
        1   -1    0    0  501    0  0.00000000000E+00  0.00000000000E+00  0.12921349147E+04  0.12921349147E+04  0.50400001928E-02 0. -1.
       -1   -1    0    0    0  501  0.00000000000E+00  0.00000000000E+00 -0.16276535322E+04  0.16276535322E+04  0.50400001928E-02 0.  1.
    10030    2    1    2    0    0  0.00000000000E+00  0.00000000000E+00 -0.33551861756E+03  0.29197884469E+04  0.29004468332E+04 0.  0.
        3    1    3    3  502    0 -0.43445090294E+03  0.33830008434E+03  0.11828107243E+04  0.13046975718E+04  0.10100000352E+00 0. -1.
       -3    1    3    3    0  502  0.43445090294E+03 -0.33830008434E+03 -0.15183293419E+04  0.16150908751E+04  0.10100000352E+00 0.  1.
</event>
<event>
 5   0  0.2546841E-07  0.2900353E+04  0.7818609E-02  0.8272772E-01
        2   -1    0    0  501    0  0.00000000000E+00  0.00000000000E+00  0.13787662863E+04  0.13787662863E+04  0.25500000920E-02 0. -1.
       -2   -1    0    0    0  501  0.00000000000E+00  0.00000000000E+00 -0.15252853665E+04  0.15252853665E+04  0.25500000920E-02 0.  1.
    10030    2    1    2    0    0  0.00000000000E+00  0.00000000000E+00 -0.14651908013E+03  0.29040516528E+04  0.29003531098E+04 0.  0.
        1    1    3    3  502    0  0.83639117282E+03  0.44536214974E+03  0.10259173774E+04  0.13965686892E+04  0.50400001928E-02 0. -1.
       -1    1    3    3    0  502 -0.83639117282E+03 -0.44536214974E+03 -0.11724364576E+04  0.15074829636E+04  0.50400001928E-02 0.  1.
</event>
<event>
 5   0  0.2492232E-07  0.2899539E+04  0.7818609E-02  0.8273015E-01
        2   -1    0    0  501    0  0.00000000000E+00  0.00000000000E+00  0.16199622454E+04  0.16199622454E+04  0.25500000920E-02 0.  1.
       -2   -1    0    0    0  501  0.00000000000E+00  0.00000000000E+00 -0.12974575071E+04  0.12974575071E+04  0.25500000920E-02 0. -1.
    10030    2    1    2    0    0  0.00000000000E+00  0.00000000000E+00  0.32250473830E+03  0.29174197525E+04  0.28995393955E+04 0.  0.
        4    1    3    3  502    0 -0.39373274441E+03 -0.13868085572E+04  0.31571488956E+03  0.14757848599E+04  0.12699999809E+01 0. -1.
       -4    1    3    3    0  502  0.39373274441E+03  0.13868085572E+04  0.67898487408E+01  0.14416348925E+04  0.12699999809E+01 0.  1.
</event>
<event>
 5   0  0.9421924E-08  0.2902876E+04  0.7818609E-02  0.8272022E-01
        1   -1    0    0  501    0  0.00000000000E+00  0.00000000000E+00  0.25894797367E+04  0.25894797367E+04  0.50400001928E-02 0.  1.
       -1   -1    0    0    0  501  0.00000000000E+00  0.00000000000E+00 -0.81355039891E+03  0.81355039893E+03  0.50400001928E-02 0. -1.
    10030    2    1    2    0    0  0.00000000000E+00  0.00000000000E+00  0.17759293378E+04  0.34030301356E+04  0.29028760034E+04 0.  0.
        1    1    3    3  502    0  0.13543937331E+04  0.49739549584E+03  0.10729038365E+04  0.17980287278E+04  0.50400001928E-02 0.  1.
       -1    1    3    3    0  502 -0.13543937331E+04 -0.49739549584E+03  0.70302550130E+03  0.16050014078E+04  0.50400001928E-02 0. -1.
</event>
<event>
 5   0  0.2546841E-07  0.2898404E+04  0.7818609E-02  0.8273353E-01
        2   -1    0    0  501    0  0.00000000000E+00  0.00000000000E+00  0.16151308823E+04  0.16151308823E+04  0.25500000920E-02 0. -1.
       -2   -1    0    0    0  501  0.00000000000E+00  0.00000000000E+00 -0.13003192906E+04  0.13003192906E+04  0.25500000920E-02 0.  1.
    10030    2    1    2    0    0  0.00000000000E+00  0.00000000000E+00  0.31481159173E+03  0.29154501729E+04  0.28984035904E+04 0.  0.
        1    1    3    3  502    0 -0.82462625611E+03  0.29210965204E+03 -0.10047460830E+04  0.13322354155E+04  0.50400001928E-02 0.  1.
       -1    1    3    3    0  502  0.82462625611E+03 -0.29210965204E+03  0.13195576747E+04  0.15832147574E+04  0.50400001928E-02 0. -1.
</event>
<event>
 5   0  0.2492232E-07  0.2900766E+04  0.7818609E-02  0.8272650E-01
       -2   -1    0    0    0  501  0.00000000000E+00  0.00000000000E+00  0.14555707727E+04  0.14555707727E+04  0.25500000920E-02 0.  1.
        2   -1    0    0  501    0  0.00000000000E+00  0.00000000000E+00 -0.14452136092E+04  0.14452136092E+04  0.25500000920E-02 0. -1.
    10030    2    1    2    0    0  0.00000000000E+00  0.00000000000E+00  0.10357163489E+02  0.29007843820E+04  0.29007658919E+04 0.  0.
        4    1    3    3  502    0  0.11757930765E+04 -0.47500738103E+03 -0.69873478147E+03  0.14478788895E+04  0.12699999809E+01 0. -1.
       -4    1    3    3    0  502 -0.11757930765E+04  0.47500738103E+03  0.70909194496E+03  0.14529054925E+04  0.12699999809E+01 0.  1.
</event>
<event>
 5   0  0.2678723E-07  0.2901251E+04  0.7818609E-02  0.8272505E-01
       -2   -1    0    0    0  501  0.00000000000E+00  0.00000000000E+00  0.12123699769E+04  0.12123699769E+04  0.25500000920E-02 0.  1.
        2   -1    0    0  501    0  0.00000000000E+00  0.00000000000E+00 -0.17357035601E+04  0.17357035601E+04  0.25500000920E-02 0. -1.
    10030    2    1    2    0    0  0.00000000000E+00  0.00000000000E+00 -0.52333358318E+03  0.29480735369E+04  0.29012513748E+04 0.  0.
        5    1    3    3  502    0 -0.31318497960E+03 -0.22619449783E+03  0.11591275622E+04  0.12218214181E+04  0.46999998093E+01 0.  1.
       -5    1    3    3    0  502  0.31318497960E+03  0.22619449783E+03 -0.16824611453E+04  0.17262521189E+04  0.46999998093E+01 0. -1.
</event>
<event>
 5   0  0.2546841E-07  0.2897064E+04  0.7818609E-02  0.8273752E-01
        2   -1    0    0  501    0  0.00000000000E+00  0.00000000000E+00  0.89964977630E+03  0.89964977631E+03  0.25500000920E-02 0. -1.
       -2   -1    0    0    0  501  0.00000000000E+00  0.00000000000E+00 -0.23322907483E+04  0.23322907483E+04  0.25500000920E-02 0.  1.
    10030    2    1    2    0    0  0.00000000000E+00  0.00000000000E+00 -0.14326409720E+04  0.32319405246E+04  0.28970639275E+04 0.  0.
        1    1    3    3  502    0 -0.60367456030E+03  0.18811268659E+03 -0.21702046626E+04  0.22604419115E+04  0.50400001928E-02 0.  1.
       -1    1    3    3    0  502  0.60367456030E+03 -0.18811268659E+03  0.73756369059E+03  0.97149861313E+03  0.50400001928E-02 0. -1.
</event>
<event>
 5   0  0.2678723E-07  0.2900779E+04  0.7818609E-02  0.8272646E-01
       -2   -1    0    0    0  501  0.00000000000E+00  0.00000000000E+00  0.11122238921E+04  0.11122238921E+04  0.25500000920E-02 0. -1.
        2   -1    0    0  501    0  0.00000000000E+00  0.00000000000E+00 -0.18913725225E+04  0.18913725225E+04  0.25500000920E-02 0.  1.
    10030    2    1    2    0    0  0.00000000000E+00  0.00000000000E+00 -0.77914863042E+03  0.30035964147E+04  0.29007790047E+04 0.  0.
        5    1    3    3  502    0 -0.18094708734E+03 -0.12602525528E+04 -0.11089135752E+04  0.16883985763E+04  0.46999998093E+01 0.  1.
       -5    1    3    3    0  502  0.18094708734E+03  0.12602525528E+04  0.32976494474E+03  0.13151978384E+04  0.46999998093E+01 0. -1.
</event>
<event>
 5   0  0.2546841E-07  0.2899996E+04  0.7818609E-02  0.8272879E-01
       -2   -1    0    0    0  501  0.00000000000E+00  0.00000000000E+00  0.92054701498E+03  0.92054701498E+03  0.25500000920E-02 0.  1.
        2   -1    0    0  501    0  0.00000000000E+00  0.00000000000E+00 -0.22839611165E+04  0.22839611165E+04  0.25500000920E-02 0. -1.
    10030    2    1    2    0    0  0.00000000000E+00  0.00000000000E+00 -0.13634141015E+04  0.32045081315E+04  0.28999955780E+04 0.  0.
        1    1    3    3  502    0  0.63350067307E+03  0.45055210213E+03 -0.20342313213E+04  0.21777092019E+04  0.50400001928E-02 0. -1.
       -1    1    3    3    0  502 -0.63350067307E+03 -0.45055210213E+03  0.67081721974E+03  0.10267989296E+04  0.50400001928E-02 0.  1.
</event>
<event>
 5   0  0.9443352E-08  0.2899178E+04  0.7818609E-02  0.8273122E-01
       -1   -1    0    0    0  501  0.00000000000E+00  0.00000000000E+00  0.10559090884E+04  0.10559090884E+04  0.50400001928E-02 0.  1.
        1   -1    0    0  501    0  0.00000000000E+00  0.00000000000E+00 -0.19900469193E+04  0.19900469193E+04  0.50400001928E-02 0. -1.
    10030    2    1    2    0    0  0.00000000000E+00  0.00000000000E+00 -0.93413783088E+03  0.30459560078E+04  0.28991782481E+04 0.  0.
        4    1    3    3  502    0  0.11637231863E+04 -0.11278022608E+03 -0.13673872894E+04  0.17990888377E+04  0.12699999809E+01 0. -1.
       -4    1    3    3    0  502 -0.11637231863E+04  0.11278022608E+03  0.43324945851E+03  0.12468671701E+04  0.12699999809E+01 0.  1.
</event>
<event>
 5   0  0.9763851E-08  0.2899009E+04  0.7818609E-02  0.8273172E-01
        1   -1    0    0  501    0  0.00000000000E+00  0.00000000000E+00  0.30174121061E+04  0.30174121061E+04  0.50400001928E-02 0.  1.
       -1   -1    0    0    0  501  0.00000000000E+00  0.00000000000E+00 -0.69631300109E+03  0.69631300111E+03  0.50400001928E-02 0. -1.
    10030    2    1    2    0    0  0.00000000000E+00  0.00000000000E+00  0.23210991050E+04  0.37137251072E+04  0.28990089887E+04 0.  0.
        3    1    3    3  502    0 -0.73637248886E+03 -0.11279133603E+04  0.47471205742E+03  0.14282102570E+04  0.10100000352E+00 0. -1.
       -3    1    3    3    0  502  0.73637248886E+03  0.11279133603E+04  0.18463870476E+04  0.22855148502E+04  0.10100000352E+00 0.  1.
</event>
<event>
 5   0  0.2546841E-07  0.2899286E+04  0.7818609E-02  0.8273090E-01
        2   -1    0    0  501    0  0.00000000000E+00  0.00000000000E+00  0.71692278364E+03  0.71692278365E+03  0.25500000920E-02 0. -1.
       -2   -1    0    0    0  501  0.00000000000E+00  0.00000000000E+00 -0.29312283519E+04  0.29312283519E+04  0.25500000920E-02 0.  1.
    10030    2    1    2    0    0  0.00000000000E+00  0.00000000000E+00 -0.22143055683E+04  0.36481511355E+04  0.28992856979E+04 0.  0.
        1    1    3    3  502    0 -0.14120300994E+04 -0.31296882499E+03 -0.98331537646E+03  0.17489104084E+04  0.50400001928E-02 0. -1.
       -1    1    3    3    0  502  0.14120300994E+04  0.31296882499E+03 -0.12309901918E+04  0.18992407271E+04  0.50400001928E-02 0.  1.
</event>
<event>
 5   0  0.9395744E-08  0.2899689E+04  0.7818609E-02  0.8272970E-01
        1   -1    0    0  501    0  0.00000000000E+00  0.00000000000E+00  0.22979463245E+04  0.22979463245E+04  0.50400001928E-02 0.  1.
       -1   -1    0    0    0  501  0.00000000000E+00  0.00000000000E+00 -0.91475145553E+03  0.91475145554E+03  0.50400001928E-02 0. -1.
    10030    2    1    2    0    0  0.00000000000E+00  0.00000000000E+00  0.13831948690E+04  0.32126977800E+04  0.28996894627E+04 0.  0.
        2    1    3    3  502    0 -0.21578052884E+03 -0.14265245010E+04  0.85029435552E+03  0.16746742608E+04  0.25500000920E-02 0. -1.
       -2    1    3    3    0  502  0.21578052884E+03  0.14265245010E+04  0.53290051343E+03  0.15380235193E+04  0.25500000920E-02 0.  1.
</event>
<event>
 5   0  0.2608591E-07  0.2893522E+04  0.7818609E-02  0.8274807E-01
       -2   -1    0    0    0  501  0.00000000000E+00  0.00000000000E+00  0.89280212005E+03  0.89280212006E+03  0.25500000920E-02 0. -1.
        2   -1    0    0  501    0  0.00000000000E+00  0.00000000000E+00 -0.23444364081E+04  0.23444364081E+04  0.25500000920E-02 0.  1.
    10030    2    1    2    0    0  0.00000000000E+00  0.00000000000E+00 -0.14516342881E+04  0.32372385282E+04  0.28935222795E+04 0.  0.
        2    1    3    3  502    0 -0.13127741373E+04  0.37456356058E+03 -0.18991410290E+03  0.13783109820E+04  0.25500000920E-02 0. -1.
       -2    1    3    3    0  502  0.13127741373E+04 -0.37456356058E+03 -0.12617201852E+04  0.18589275463E+04  0.25500000920E-02 0.  1.
</event>
<event>
 5   0  0.9443352E-08  0.2900120E+04  0.7818609E-02  0.8272842E-01
        1   -1    0    0  501    0  0.00000000000E+00  0.00000000000E+00  0.13364337380E+04  0.13364337380E+04  0.50400001928E-02 0. -1.
       -1   -1    0    0    0  501  0.00000000000E+00  0.00000000000E+00 -0.15733473162E+04  0.15733473162E+04  0.50400001928E-02 0.  1.
    10030    2    1    2    0    0  0.00000000000E+00  0.00000000000E+00 -0.23691357824E+03  0.29097810542E+04  0.29001202975E+04 0.  0.
        4    1    3    3  502    0  0.44609463836E+03  0.36412033694E+02  0.12653935280E+04  0.13422178125E+04  0.12699999809E+01 0. -1.
       -4    1    3    3    0  502 -0.44609463836E+03 -0.36412033694E+02 -0.15023071062E+04  0.15675632417E+04  0.12699999809E+01 0.  1.
</event>
<event>
 5   0  0.2678723E-07  0.2900272E+04  0.7818609E-02  0.8272797E-01
        2   -1    0    0  501    0  0.00000000000E+00  0.00000000000E+00  0.17423390917E+04  0.17423390917E+04  0.25500000920E-02 0. -1.
       -2   -1    0    0    0  501  0.00000000000E+00  0.00000000000E+00 -0.12069375703E+04  0.12069375703E+04  0.25500000920E-02 0.  1.
    10030    2    1    2    0    0  0.00000000000E+00  0.00000000000E+00  0.53540152140E+03  0.29492766621E+04  0.29002720632E+04 0.  0.
        5    1    3    3  502    0 -0.60232854260E+03 -0.13189423711E+04  0.28959991914E+03  0.14786138288E+04  0.46999998093E+01 0. -1.
       -5    1    3    3    0  502  0.60232854260E+03  0.13189423711E+04  0.24580160226E+03  0.14706628333E+04  0.46999998093E+01 0.  1.
</event>
<event>
 5   0  0.9421924E-08  0.2900087E+04  0.7818609E-02  0.8272852E-01
        1   -1    0    0  501    0  0.00000000000E+00  0.00000000000E+00  0.17930409201E+04  0.17930409201E+04  0.50400001928E-02 0.  1.
       -1   -1    0    0    0  501  0.00000000000E+00  0.00000000000E+00 -0.11726591741E+04  0.11726591741E+04  0.50400001928E-02 0. -1.
    10030    2    1    2    0    0  0.00000000000E+00  0.00000000000E+00  0.62038174607E+03  0.29657000942E+04  0.29000868156E+04 0.  0.
        1    1    3    3  502    0 -0.23952498763E+03  0.10173175125E+03 -0.11485838467E+04  0.11776953858E+04  0.50400001928E-02 0. -1.
       -1    1    3    3    0  502  0.23952498763E+03 -0.10173175125E+03  0.17689655927E+04  0.17880047084E+04  0.50400001928E-02 0.  1.
</event>
<event>
 5   0  0.2546841E-07  0.2896645E+04  0.7818609E-02  0.8273876E-01
        2   -1    0    0  501    0  0.00000000000E+00  0.00000000000E+00  0.14907332676E+04  0.14907332676E+04  0.25500000920E-02 0.  1.
       -2   -1    0    0    0  501  0.00000000000E+00  0.00000000000E+00 -0.14071185921E+04  0.14071185921E+04  0.25500000920E-02 0. -1.
    10030    2    1    2    0    0  0.00000000000E+00  0.00000000000E+00  0.83614675505E+02  0.28978518596E+04  0.28966452987E+04 0.  0.
        1    1    3    3  502    0  0.81384335118E+02  0.28991468934E+03 -0.13754565259E+04  0.14080321700E+04  0.50400001928E-02 0. -1.
       -1    1    3    3    0  502 -0.81384335118E+02 -0.28991468934E+03  0.14590712014E+04  0.14898196897E+04  0.50400001928E-02 0.  1.
</event>
<event>
 5   0  0.9395744E-08  0.2899074E+04  0.7818609E-02  0.8273153E-01
       -1   -1    0    0    0  501  0.00000000000E+00  0.00000000000E+00  0.79047994062E+03  0.79047994063E+03  0.50400001928E-02 0.  1.
        1   -1    0    0  501    0  0.00000000000E+00  0.00000000000E+00 -0.26580782882E+04  0.26580782882E+04  0.50400001928E-02 0. -1.
    10030    2    1    2    0    0  0.00000000000E+00  0.00000000000E+00 -0.18675983476E+04  0.34485582288E+04  0.28990740366E+04 0.  0.
        2    1    3    3  502    0 -0.42360211709E+03 -0.81870269098E+03  0.39691288263E+03  0.10036197917E+04  0.25500000920E-02 0.  1.
       -2    1    3    3    0  502  0.42360211709E+03  0.81870269098E+03 -0.22645112302E+04  0.24449384372E+04  0.25500000920E-02 0. -1.
</event>
<event>
 5   0  0.9395744E-08  0.2899407E+04  0.7818609E-02  0.8273054E-01
       -1   -1    0    0    0  501  0.00000000000E+00  0.00000000000E+00  0.15469273138E+04  0.15469273138E+04  0.50400001928E-02 0. -1.
        1   -1    0    0  501    0  0.00000000000E+00  0.00000000000E+00 -0.13585898510E+04  0.13585898510E+04  0.50400001928E-02 0.  1.
    10030    2    1    2    0    0  0.00000000000E+00  0.00000000000E+00  0.18833746284E+03  0.29055171648E+04  0.28994066626E+04 0.  0.
        2    1    3    3  502    0  0.10386058093E+04 -0.10059235921E+04 -0.11197754301E+02  0.14459286601E+04  0.25500000920E-02 0.  1.
       -2    1    3    3    0  502 -0.10386058093E+04  0.10059235921E+04  0.19953521714E+03  0.14595885047E+04  0.25500000920E-02 0. -1.
</event>
<event>
 5   0  0.9388076E-08  0.2902448E+04  0.7818609E-02  0.8272149E-01
        1   -1    0    0  501    0  0.00000000000E+00  0.00000000000E+00  0.15729584779E+04  0.15729584779E+04  0.50400001928E-02 0. -1.
       -1   -1    0    0    0  501  0.00000000000E+00  0.00000000000E+00 -0.13389111046E+04  0.13389111047E+04  0.50400001928E-02 0.  1.
    10030    2    1    2    0    0  0.00000000000E+00  0.00000000000E+00  0.23404737326E+03  0.29118695826E+04  0.29024483274E+04 0.  0.
        5    1    3    3  502    0 -0.14997072787E+03  0.11029363034E+04  0.10512120362E+04  0.15310220585E+04  0.46999998093E+01 0. -1.
       -5    1    3    3    0  502  0.14997072787E+03 -0.11029363034E+04 -0.81716466290E+03  0.13808475241E+04  0.46999998093E+01 0.  1.
</event>
<event>
 5   0  0.9388076E-08  0.2900253E+04  0.7818609E-02  0.8272802E-01
        1   -1    0    0  501    0  0.00000000000E+00  0.00000000000E+00  0.90342151128E+03  0.90342151130E+03  0.50400001928E-02 0.  1.
       -1   -1    0    0    0  501  0.00000000000E+00  0.00000000000E+00 -0.23276701972E+04  0.23276701972E+04  0.50400001928E-02 0. -1.
    10030    2    1    2    0    0  0.00000000000E+00  0.00000000000E+00 -0.14242486859E+04  0.32310917085E+04  0.29002533181E+04 0.  0.
        5    1    3    3  502    0 -0.38731340792E+03  0.46359901895E+03  0.75655481719E+03  0.96815959828E+03  0.46999998093E+01 0.  1.
       -5    1    3    3    0  502  0.38731340792E+03 -0.46359901895E+03 -0.21808035031E+04  0.22629321102E+04  0.46999998093E+01 0. -1.
</event>
<event>
 5   0  0.9443352E-08  0.2902461E+04  0.7818609E-02  0.8272146E-01
        1   -1    0    0  501    0  0.00000000000E+00  0.00000000000E+00  0.12514273634E+04  0.12514273634E+04  0.50400001928E-02 0. -1.
       -1   -1    0    0    0  501  0.00000000000E+00  0.00000000000E+00 -0.16829341254E+04  0.16829341254E+04  0.50400001928E-02 0.  1.
    10030    2    1    2    0    0  0.00000000000E+00  0.00000000000E+00 -0.43150676203E+03  0.29343614888E+04  0.29024608975E+04 0.  0.
        4    1    3    3  502    0  0.21103112949E+03 -0.56822842462E+03  0.11173179370E+04  0.12711485615E+04  0.12699999809E+01 0. -1.
       -4    1    3    3    0  502 -0.21103112949E+03  0.56822842462E+03 -0.15488246991E+04  0.16632129273E+04  0.12699999809E+01 0.  1.
</event>
<event>
 5   0  0.2492232E-07  0.2899934E+04  0.7818609E-02  0.8272897E-01
        2   -1    0    0  501    0  0.00000000000E+00  0.00000000000E+00  0.19853682442E+04  0.19853682442E+04  0.25500000920E-02 0.  1.
       -2   -1    0    0    0  501  0.00000000000E+00  0.00000000000E+00 -0.10589493753E+04  0.10589493753E+04  0.25500000920E-02 0. -1.
    10030    2    1    2    0    0  0.00000000000E+00  0.00000000000E+00  0.92641886889E+03  0.30443176195E+04  0.28999341110E+04 0.  0.
        4    1    3    3  502    0  0.59902664577E+03  0.40099189431E+03  0.17839316419E+04  0.19240689014E+04  0.12699999809E+01 0.  1.
       -4    1    3    3    0  502 -0.59902664577E+03 -0.40099189431E+03 -0.85751277299E+03  0.11202487181E+04  0.12699999809E+01 0. -1.
</event>
<event>
 5   0  0.2546841E-07  0.2898188E+04  0.7818609E-02  0.8273417E-01
       -2   -1    0    0    0  501  0.00000000000E+00  0.00000000000E+00  0.21727404024E+04  0.21727404024E+04  0.25500000920E-02 0.  1.
        2   -1    0    0  501    0  0.00000000000E+00  0.00000000000E+00 -0.96646320646E+03  0.96646320646E+03  0.25500000920E-02 0. -1.
    10030    2    1    2    0    0  0.00000000000E+00  0.00000000000E+00  0.12062771959E+04  0.31392036088E+04  0.28981881623E+04 0.  0.
        1    1    3    3  502    0 -0.21796712477E+03 -0.10689131107E+04  0.16362881409E+04  0.19666020914E+04  0.50400001928E-02 0.  1.
       -1    1    3    3    0  502  0.21796712477E+03  0.10689131107E+04 -0.43001094503E+03  0.11726015174E+04  0.50400001928E-02 0. -1.
</event>
<event>
 5   0  0.2678723E-07  0.2899974E+04  0.7818609E-02  0.8272885E-01
        2   -1    0    0  501    0  0.00000000000E+00  0.00000000000E+00  0.27380656383E+04  0.27380656383E+04  0.25500000920E-02 0. -1.
       -2   -1    0    0    0  501  0.00000000000E+00  0.00000000000E+00 -0.76786405149E+03  0.76786405149E+03  0.25500000920E-02 0.  1.
    10030    2    1    2    0    0  0.00000000000E+00  0.00000000000E+00  0.19702015868E+04  0.35059296898E+04  0.28999739132E+04 0.  0.
        5    1    3    3  502    0 -0.40253137785E+02  0.68083983308E+03 -0.56182747953E+03  0.88364891227E+03  0.46999998093E+01 0.  1.
       -5    1    3    3    0  502  0.40253137785E+02 -0.68083983308E+03  0.25320290663E+04  0.26222807775E+04  0.46999998093E+01 0. -1.
</event>
<event>
 5   0  0.2608591E-07  0.2900577E+04  0.7818609E-02  0.8272706E-01
       -2   -1    0    0    0  501  0.00000000000E+00  0.00000000000E+00  0.16365191040E+04  0.16365191040E+04  0.25500000920E-02 0. -1.
        2   -1    0    0  501    0  0.00000000000E+00  0.00000000000E+00 -0.12852506659E+04  0.12852506659E+04  0.25500000920E-02 0.  1.
    10030    2    1    2    0    0  0.00000000000E+00  0.00000000000E+00  0.35126843814E+03  0.29217697699E+04  0.29005773688E+04 0.  0.
        2    1    3    3  502    0  0.11548008107E+04 -0.48785916818E+03  0.91018484557E+03  0.15491958990E+04  0.25500000920E-02 0. -1.
       -2    1    3    3    0  502 -0.11548008107E+04  0.48785916818E+03 -0.55891640744E+03  0.13725738709E+04  0.25500000920E-02 0.  1.
</event>
<event>
 5   0  0.9395744E-08  0.2902790E+04  0.7818609E-02  0.8272048E-01
        1   -1    0    0  501    0  0.00000000000E+00  0.00000000000E+00  0.14628319159E+04  0.14628319159E+04  0.50400001928E-02 0.  1.
       -1   -1    0    0    0  501  0.00000000000E+00  0.00000000000E+00 -0.14400473209E+04  0.14400473210E+04  0.50400001928E-02 0. -1.
    10030    2    1    2    0    0  0.00000000000E+00  0.00000000000E+00  0.22784594919E+02  0.29028792368E+04  0.29027898177E+04 0.  0.
        2    1    3    3  502    0  0.10801193717E+04 -0.94906009187E+03 -0.18653870013E+03  0.14498860651E+04  0.25500000920E-02 0. -1.
       -2    1    3    3    0  502 -0.10801193717E+04  0.94906009187E+03  0.20932329505E+03  0.14529931717E+04  0.25500000920E-02 0.  1.
</event>
<event>
 5   0  0.9421924E-08  0.2886352E+04  0.7818609E-02  0.8276950E-01
       -1   -1    0    0    0  501  0.00000000000E+00  0.00000000000E+00  0.96821579166E+03  0.96821579167E+03  0.50400001928E-02 0.  1.
        1   -1    0    0  501    0  0.00000000000E+00  0.00000000000E+00 -0.21511292368E+04  0.21511292368E+04  0.50400001928E-02 0. -1.
    10030    2    1    2    0    0  0.00000000000E+00  0.00000000000E+00 -0.11829134451E+04  0.31193450285E+04  0.28863522287E+04 0.  0.
        1    1    3    3  502    0  0.20973595145E+03 -0.10082968382E+04  0.50114523223E+03  0.11453376040E+04  0.50400001928E-02 0.  1.
       -1    1    3    3    0  502 -0.20973595145E+03  0.10082968382E+04 -0.16840586774E+04  0.19740074245E+04  0.50400001928E-02 0. -1.
</event>
<event>
 5   0  0.2678723E-07  0.2900087E+04  0.7818609E-02  0.8272852E-01
       -2   -1    0    0    0  501  0.00000000000E+00  0.00000000000E+00  0.14781567596E+04  0.14781567596E+04  0.25500000920E-02 0. -1.
        2   -1    0    0  501    0  0.00000000000E+00  0.00000000000E+00 -0.14224645260E+04  0.14224645260E+04  0.25500000920E-02 0.  1.
    10030    2    1    2    0    0  0.00000000000E+00  0.00000000000E+00  0.55692233637E+02  0.29006212856E+04  0.29000865879E+04 0.  0.
        5    1    3    3  502    0  0.11509540122E+04 -0.18282252612E+03 -0.83514797409E+03  0.14337410655E+04  0.46999998093E+01 0.  1.
       -5    1    3    3    0  502 -0.11509540122E+04  0.18282252612E+03  0.89084020773E+03  0.14668802201E+04  0.46999998093E+01 0. -1.
</event>
<event>
 5   0  0.2546841E-07  0.2897174E+04  0.7818609E-02  0.8273719E-01
       -2   -1    0    0    0  501  0.00000000000E+00  0.00000000000E+00  0.13480125198E+04  0.13480125198E+04  0.25500000920E-02 0. -1.
        2   -1    0    0  501    0  0.00000000000E+00  0.00000000000E+00 -0.15566654572E+04  0.15566654572E+04  0.25500000920E-02 0.  1.
    10030    2    1    2    0    0  0.00000000000E+00  0.00000000000E+00 -0.20865293741E+03  0.29046779770E+04  0.28971741580E+04 0.  0.
        1    1    3    3  502    0  0.54411536104E+03 -0.11351928163E+03  0.12368438899E+04  0.13559981421E+04  0.50400001928E-02 0. -1.
       -1    1    3    3    0  502 -0.54411536104E+03  0.11351928163E+03 -0.14454968273E+04  0.15486798349E+04  0.50400001928E-02 0.  1.
</event>
<event>
 5   0  0.8407500E-08  0.2891163E+04  0.7818609E-02  0.8275511E-01
       -3   -1    0    0    0  501  0.00000000000E+00  0.00000000000E+00  0.11949829398E+04  0.11949829441E+04  0.10100000352E+00 0.  1.
        3   -1    0    0  501    0  0.00000000000E+00  0.00000000000E+00 -0.17487331771E+04  0.17487331800E+04  0.10100000352E+00 0. -1.
    10030    2    1    2    0    0  0.00000000000E+00  0.00000000000E+00 -0.55375023724E+03  0.29437161241E+04  0.28911633115E+04 0.  0.
        2    1    3    3  502    0  0.94504414593E+03 -0.93716704722E+03  0.29757511219E+03  0.13637967076E+04  0.25500000920E-02 0.  1.
       -2    1    3    3    0  502 -0.94504414593E+03  0.93716704722E+03 -0.85132534943E+03  0.15799194165E+04  0.25500000920E-02 0. -1.
</event>
<event>
 5   0  0.9763851E-08  0.2898254E+04  0.7818609E-02  0.8273397E-01
        1   -1    0    0  501    0  0.00000000000E+00  0.00000000000E+00  0.15429076482E+04  0.15429076482E+04  0.50400001928E-02 0.  1.
       -1   -1    0    0    0  501  0.00000000000E+00  0.00000000000E+00 -0.13610465598E+04  0.13610465598E+04  0.50400001928E-02 0. -1.
    10030    2    1    2    0    0  0.00000000000E+00  0.00000000000E+00  0.18186108844E+03  0.29039542080E+04  0.28982540583E+04 0.  0.
        3    1    3    3  502    0 -0.32348395861E+03 -0.14056412672E+04 -0.48986114250E+02  0.14432147772E+04  0.10100000352E+00 0.  1.
       -3    1    3    3    0  502  0.32348395861E+03  0.14056412672E+04  0.23084720269E+03  0.14607394308E+04  0.10100000352E+00 0. -1.
</event>
<event>
 5   0  0.2678723E-07  0.2898870E+04  0.7818609E-02  0.8273214E-01
       -2   -1    0    0    0  501  0.00000000000E+00  0.00000000000E+00  0.10694457549E+04  0.10694457549E+04  0.25500000920E-02 0.  1.
        2   -1    0    0  501    0  0.00000000000E+00  0.00000000000E+00 -0.19644403185E+04  0.19644403185E+04  0.25500000920E-02 0. -1.
    10030    2    1    2    0    0  0.00000000000E+00  0.00000000000E+00 -0.89499456360E+03  0.30338860733E+04  0.28988703726E+04 0.  0.
        5    1    3    3  502    0 -0.44079657920E+03  0.12606715030E+04  0.14198201224E+03  0.13430470001E+04  0.46999998093E+01 0.  1.
       -5    1    3    3    0  502  0.44079657920E+03 -0.12606715030E+04 -0.10369765758E+04  0.16908390732E+04  0.46999998093E+01 0. -1.
</event>
<event>
 5   0  0.9763851E-08  0.2899034E+04  0.7818609E-02  0.8273165E-01
       -1   -1    0    0    0  501  0.00000000000E+00  0.00000000000E+00  0.24705991571E+04  0.24705991571E+04  0.50400001928E-02 0.  1.
        1   -1    0    0  501    0  0.00000000000E+00  0.00000000000E+00 -0.85044100805E+03  0.85044100807E+03  0.50400001928E-02 0. -1.
    10030    2    1    2    0    0  0.00000000000E+00  0.00000000000E+00  0.16201581490E+04  0.33210401652E+04  0.28990335201E+04 0.  0.
        3    1    3    3  502    0 -0.39577185610E+03 -0.13229149430E+04  0.13151167750E+04  0.19069010070E+04  0.10100000352E+00 0.  1.
       -3    1    3    3    0  502  0.39577185610E+03  0.13229149430E+04  0.30504137405E+03  0.14141391581E+04  0.10100000352E+00 0. -1.
</event>
<event>
 5   0  0.2678723E-07  0.2899615E+04  0.7818609E-02  0.8272992E-01
        2   -1    0    0  501    0  0.00000000000E+00  0.00000000000E+00  0.14107093754E+04  0.14107093754E+04  0.25500000920E-02 0. -1.
       -2   -1    0    0    0  501  0.00000000000E+00  0.00000000000E+00 -0.14899895338E+04  0.14899895338E+04  0.25500000920E-02 0.  1.
    10030    2    1    2    0    0  0.00000000000E+00  0.00000000000E+00 -0.79280158432E+02  0.29006989092E+04  0.28996152880E+04 0.  0.
        5    1    3    3  502    0 -0.66047110846E+03  0.36451801869E+03  0.11988955592E+04  0.14164985433E+04  0.46999998093E+01 0. -1.
       -5    1    3    3    0  502  0.66047110846E+03 -0.36451801869E+03 -0.12781757177E+04  0.14842003660E+04  0.46999998093E+01 0.  1.
</event>
<event>
 5   0  0.9395744E-08  0.2905165E+04  0.7818609E-02  0.8271342E-01
       -1   -1    0    0    0  501  0.00000000000E+00  0.00000000000E+00  0.10006650212E+04  0.10006650212E+04  0.50400001928E-02 0. -1.
        1   -1    0    0  501    0  0.00000000000E+00  0.00000000000E+00 -0.21085938529E+04  0.21085938529E+04  0.50400001928E-02 0.  1.
    10030    2    1    2    0    0  0.00000000000E+00  0.00000000000E+00 -0.11079288317E+04  0.31092588741E+04  0.29051651330E+04 0.  0.
        2    1    3    3  502    0 -0.16574110204E+03 -0.14171173750E+04 -0.26222630641E+03  0.14506737756E+04  0.25500000920E-02 0. -1.
       -2    1    3    3    0  502  0.16574110204E+03  0.14171173750E+04 -0.84570252525E+03  0.16585850984E+04  0.25500000920E-02 0.  1.
</event>
<event>
 5   0  0.2546841E-07  0.2899361E+04  0.7818609E-02  0.8273068E-01
       -2   -1    0    0    0  501  0.00000000000E+00  0.00000000000E+00  0.77343480434E+03  0.77343480435E+03  0.25500000920E-02 0.  1.
        2   -1    0    0  501    0  0.00000000000E+00  0.00000000000E+00 -0.27171957846E+04  0.27171957846E+04  0.25500000920E-02 0. -1.
    10030    2    1    2    0    0  0.00000000000E+00  0.00000000000E+00 -0.19437609803E+04  0.34906305890E+04  0.28993611642E+04 0.  0.
        1    1    3    3  502    0  0.82523447955E+03 -0.18278786092E+03 -0.23898384503E+04  0.25349065401E+04  0.50400001928E-02 0. -1.
       -1    1    3    3    0  502 -0.82523447955E+03  0.18278786092E+03  0.44607747003E+03  0.95572404889E+03  0.50400001928E-02 0.  1.
</event>
<event>
 5   0  0.9395744E-08  0.2902361E+04  0.7818609E-02  0.8272175E-01
       -1   -1    0    0    0  501  0.00000000000E+00  0.00000000000E+00  0.14201276105E+04  0.14201276105E+04  0.50400001928E-02 0.  1.
        1   -1    0    0  501    0  0.00000000000E+00  0.00000000000E+00 -0.14829126725E+04  0.14829126725E+04  0.50400001928E-02 0. -1.
    10030    2    1    2    0    0  0.00000000000E+00  0.00000000000E+00 -0.62785061922E+02  0.29030402830E+04  0.29023612664E+04 0.  0.
        2    1    3    3  502    0  0.20219735747E+01  0.37073023050E+03 -0.14347461607E+04  0.14818709586E+04  0.25500000920E-02 0. -1.
       -2    1    3    3    0  502 -0.20219735747E+01 -0.37073023050E+03  0.13719610988E+04  0.14211693244E+04  0.25500000920E-02 0.  1.
</event>
<event>
 5   0  0.2492232E-07  0.2900627E+04  0.7818609E-02  0.8272691E-01
        2   -1    0    0  501    0  0.00000000000E+00  0.00000000000E+00  0.18186176020E+04  0.18186176020E+04  0.25500000920E-02 0.  1.
       -2   -1    0    0    0  501  0.00000000000E+00  0.00000000000E+00 -0.11565975283E+04  0.11565975283E+04  0.25500000920E-02 0. -1.
    10030    2    1    2    0    0  0.00000000000E+00  0.00000000000E+00  0.66202007372E+03  0.29752151303E+04  0.29006265692E+04 0.  0.
        4    1    3    3  502    0  0.11085275738E+04 -0.18760865047E+02 -0.62803131656E+03  0.12742096764E+04  0.12699999809E+01 0. -1.
       -4    1    3    3    0  502 -0.11085275738E+04  0.18760865047E+02  0.12900513903E+04  0.17010054540E+04  0.12699999809E+01 0.  1.
</event>
<event>
 5   0  0.9443352E-08  0.2899013E+04  0.7818609E-02  0.8273171E-01
       -1   -1    0    0    0  501  0.00000000000E+00  0.00000000000E+00  0.16939172524E+04  0.16939172524E+04  0.50400001928E-02 0.  1.
        1   -1    0    0  501    0  0.00000000000E+00  0.00000000000E+00 -0.12403614304E+04  0.12403614304E+04  0.50400001928E-02 0. -1.
    10030    2    1    2    0    0  0.00000000000E+00  0.00000000000E+00  0.45355582198E+03  0.29342786828E+04  0.28990133675E+04 0.  0.
        4    1    3    3  502    0 -0.47838511615E+03  0.88999359618E+03  0.12787121001E+04  0.16297383742E+04  0.12699999809E+01 0.  1.
       -4    1    3    3    0  502  0.47838511615E+03 -0.88999359618E+03 -0.82515627811E+03  0.13045403086E+04  0.12699999809E+01 0. -1.
</event>
<event>
 5   0  0.9395744E-08  0.2900703E+04  0.7818609E-02  0.8272668E-01
        1   -1    0    0  501    0  0.00000000000E+00  0.00000000000E+00  0.22672666131E+04  0.22672666131E+04  0.50400001928E-02 0. -1.
       -1   -1    0    0    0  501  0.00000000000E+00  0.00000000000E+00 -0.92777777602E+03  0.92777777603E+03  0.50400001928E-02 0.  1.
    10030    2    1    2    0    0  0.00000000000E+00  0.00000000000E+00  0.13394888371E+04  0.31950443892E+04  0.29007030706E+04 0.  0.
        2    1    3    3  502    0 -0.63418673431E+03 -0.76907767904E+03 -0.49064841505E+03  0.11110396742E+04  0.25500000920E-02 0.  1.
       -2    1    3    3    0  502  0.63418673431E+03  0.76907767904E+03  0.18301372522E+04  0.20840047150E+04  0.25500000920E-02 0. -1.
</event>
<event>
 5   0  0.9388076E-08  0.2900665E+04  0.7818609E-02  0.8272680E-01
        1   -1    0    0  501    0  0.00000000000E+00  0.00000000000E+00  0.25732096641E+04  0.25732096641E+04  0.50400001928E-02 0. -1.
       -1   -1    0    0    0  501  0.00000000000E+00  0.00000000000E+00 -0.81744792244E+03  0.81744792246E+03  0.50400001928E-02 0.  1.
    10030    2    1    2    0    0  0.00000000000E+00  0.00000000000E+00  0.17557617417E+04  0.33906575866E+04  0.29006653678E+04 0.  0.
        5    1    3    3  502    0  0.61506388938E+03 -0.12049297076E+04  0.26680786169E+03  0.13789009077E+04  0.46999998093E+01 0.  1.
       -5    1    3    3    0  502 -0.61506388938E+03  0.12049297076E+04  0.14889538800E+04  0.20117566789E+04  0.46999998093E+01 0. -1.
</event>
<event>
 5   0  0.9395744E-08  0.2899391E+04  0.7818609E-02  0.8273059E-01
        1   -1    0    0  501    0  0.00000000000E+00  0.00000000000E+00  0.14761291632E+04  0.14761291632E+04  0.50400001928E-02 0.  1.
       -1   -1    0    0    0  501  0.00000000000E+00  0.00000000000E+00 -0.14237348683E+04  0.14237348683E+04  0.50400001928E-02 0. -1.
    10030    2    1    2    0    0  0.00000000000E+00  0.00000000000E+00  0.52394294890E+02  0.28998640315E+04  0.28993906669E+04 0.  0.
        2    1    3    3  502    0 -0.55519472145E+03 -0.34324173121E+03 -0.12684486170E+04  0.14265405563E+04  0.25500000920E-02 0. -1.
       -2    1    3    3    0  502  0.55519472145E+03  0.34324173121E+03  0.13208429119E+04  0.14733234752E+04  0.25500000920E-02 0.  1.
</event>
<event>
 5   0  0.9763851E-08  0.2900462E+04  0.7818609E-02  0.8272740E-01
       -1   -1    0    0    0  501  0.00000000000E+00  0.00000000000E+00  0.10255416691E+04  0.10255416691E+04  0.50400001928E-02 0. -1.
        1   -1    0    0  501    0  0.00000000000E+00  0.00000000000E+00 -0.20507895920E+04  0.20507895920E+04  0.50400001928E-02 0.  1.
    10030    2    1    2    0    0  0.00000000000E+00  0.00000000000E+00 -0.10252479229E+04  0.30763312611E+04  0.29004621571E+04 0.  0.
        3    1    3    3  502    0 -0.13928787007E+04  0.24894134261E+03 -0.84984464360E+03  0.16505510581E+04  0.10100000352E+00 0. -1.
       -3    1    3    3    0  502  0.13928787007E+04 -0.24894134261E+03 -0.17540327929E+03  0.14257802030E+04  0.10100000352E+00 0.  1.
</event>
<event>
 5   0  0.9388076E-08  0.2903484E+04  0.7818609E-02  0.8271842E-01
        1   -1    0    0  501    0  0.00000000000E+00  0.00000000000E+00  0.24129276361E+04  0.24129276361E+04  0.50400001928E-02 0.  1.
       -1   -1    0    0    0  501  0.00000000000E+00  0.00000000000E+00 -0.87344309647E+03  0.87344309648E+03  0.50400001928E-02 0. -1.
    10030    2    1    2    0    0  0.00000000000E+00  0.00000000000E+00  0.15394845396E+04  0.32863707326E+04  0.29034841044E+04 0.  0.
        5    1    3    3  502    0  0.85168674092E+03 -0.36279898538E+02 -0.56031328491E+03  0.10201272484E+04  0.46999998093E+01 0. -1.
       -5    1    3    3    0  502 -0.85168674092E+03  0.36279898538E+02  0.20997978246E+04  0.22662434842E+04  0.46999998093E+01 0.  1.
</event>
<event>
 5   0  0.9388076E-08  0.2899389E+04  0.7818609E-02  0.8273059E-01
        1   -1    0    0  501    0  0.00000000000E+00  0.00000000000E+00  0.18951093091E+04  0.18951093091E+04  0.50400001928E-02 0. -1.
       -1   -1    0    0    0  501  0.00000000000E+00  0.00000000000E+00 -0.11089669879E+04  0.11089669879E+04  0.50400001928E-02 0.  1.
    10030    2    1    2    0    0  0.00000000000E+00  0.00000000000E+00  0.78614232125E+03  0.30040762970E+04  0.28993886681E+04 0.  0.
        5    1    3    3  502    0 -0.66678130390E+03 -0.12589475604E+04  0.67117524299E+03  0.15748157238E+04  0.46999998093E+01 0. -1.
       -5    1    3    3    0  502  0.66678130390E+03  0.12589475604E+04  0.11496707826E+03  0.14292605732E+04  0.46999998093E+01 0.  1.
</event>
<event>
 5   0  0.9388076E-08  0.2900120E+04  0.7818609E-02  0.8272842E-01
       -1   -1    0    0    0  501  0.00000000000E+00  0.00000000000E+00  0.80039120269E+03  0.80039120270E+03  0.50400001928E-02 0. -1.
        1   -1    0    0  501    0  0.00000000000E+00  0.00000000000E+00 -0.26270581471E+04  0.26270581471E+04  0.50400001928E-02 0.  1.
    10030    2    1    2    0    0  0.00000000000E+00  0.00000000000E+00 -0.18266669444E+04  0.34274493498E+04  0.29001201561E+04 0.  0.
        5    1    3    3  502    0 -0.10776837472E+04 -0.65764043140E+03 -0.17563014603E+04  0.21629863858E+04  0.46999998093E+01 0.  1.
       -5    1    3    3    0  502  0.10776837472E+04  0.65764043140E+03 -0.70365484151E+02  0.12644629640E+04  0.46999998093E+01 0. -1.
</event>
<event>
 5   0  0.2492232E-07  0.2900911E+04  0.7818609E-02  0.8272607E-01
        2   -1    0    0  501    0  0.00000000000E+00  0.00000000000E+00  0.15425527251E+04  0.15425527251E+04  0.25500000920E-02 0.  1.
       -2   -1    0    0    0  501  0.00000000000E+00  0.00000000000E+00 -0.13638567751E+04  0.13638567751E+04  0.25500000920E-02 0. -1.
    10030    2    1    2    0    0  0.00000000000E+00  0.00000000000E+00  0.17869594998E+03  0.29064095002E+04  0.29009108812E+04 0.  0.
        4    1    3    3  502    0 -0.45296023392E+03 -0.47302256995E+03  0.13859788127E+04  0.15329260280E+04  0.12699999809E+01 0.  1.
       -4    1    3    3    0  502  0.45296023392E+03  0.47302256995E+03 -0.12072828627E+04  0.13734834723E+04  0.12699999809E+01 0. -1.
</event>
<event>
 5   0  0.9443352E-08  0.2900075E+04  0.7818609E-02  0.8272855E-01
       -1   -1    0    0    0  501  0.00000000000E+00  0.00000000000E+00  0.10659627945E+04  0.10659627945E+04  0.50400001928E-02 0. -1.
        1   -1    0    0  501    0  0.00000000000E+00  0.00000000000E+00 -0.19724971601E+04  0.19724971601E+04  0.50400001928E-02 0.  1.
    10030    2    1    2    0    0  0.00000000000E+00  0.00000000000E+00 -0.90653436552E+03  0.30384599546E+04  0.29000748852E+04 0.  0.
        4    1    3    3  502    0 -0.55807094794E+03 -0.11580429820E+04  0.24964153123E+03  0.13095148866E+04  0.12699999809E+01 0. -1.
       -4    1    3    3    0  502  0.55807094794E+03  0.11580429820E+04 -0.11561758968E+04  0.17289450680E+04  0.12699999809E+01 0.  1.
</event>
<event>
 5   0  0.2534588E-07  0.2901475E+04  0.7818609E-02  0.8272439E-01
        2   -1    0    0  501    0  0.00000000000E+00  0.00000000000E+00  0.23059919484E+04  0.23059919484E+04  0.25500000920E-02 0.  1.
       -2   -1    0    0    0  501  0.00000000000E+00  0.00000000000E+00 -0.91268302009E+03  0.91268302010E+03  0.25500000920E-02 0. -1.
    10030    2    1    2    0    0  0.00000000000E+00  0.00000000000E+00  0.13933089283E+04  0.32186749685E+04  0.29014752770E+04 0.  0.
        3    1    3    3  502    0 -0.35469425677E+03  0.13422961723E+04  0.11634578513E+04  0.18114086264E+04  0.10100000352E+00 0.  1.
       -3    1    3    3    0  502  0.35469425677E+03 -0.13422961723E+04  0.22985107706E+03  0.14072663421E+04  0.10100000352E+00 0. -1.
</event>
<event>
 5   0  0.2546841E-07  0.2900323E+04  0.7818609E-02  0.8272782E-01
        2   -1    0    0  501    0  0.00000000000E+00  0.00000000000E+00  0.14310297865E+04  0.14310297865E+04  0.25500000920E-02 0.  1.
       -2   -1    0    0    0  501  0.00000000000E+00  0.00000000000E+00 -0.14695485051E+04  0.14695485051E+04  0.25500000920E-02 0. -1.
    10030    2    1    2    0    0  0.00000000000E+00  0.00000000000E+00 -0.38518718614E+02  0.29005782915E+04  0.29003225224E+04 0.  0.
        1    1    3    3  502    0  0.88458526179E+03 -0.63331486336E+03  0.93967288248E+03  0.14375548433E+04  0.50400001928E-02 0. -1.
       -1    1    3    3    0  502 -0.88458526179E+03  0.63331486336E+03 -0.97819160109E+03  0.14630234482E+04  0.50400001928E-02 0.  1.
</event>
<event>
 5   0  0.9443352E-08  0.2902427E+04  0.7818609E-02  0.8272156E-01
        1   -1    0    0  501    0  0.00000000000E+00  0.00000000000E+00  0.13525558496E+04  0.13525558496E+04  0.50400001928E-02 0. -1.
       -1   -1    0    0    0  501  0.00000000000E+00  0.00000000000E+00 -0.15570669693E+04  0.15570669693E+04  0.50400001928E-02 0.  1.
    10030    2    1    2    0    0  0.00000000000E+00  0.00000000000E+00 -0.20451111966E+03  0.29096228190E+04  0.29024265969E+04 0.  0.
        4    1    3    3  502    0  0.43549150954E+03  0.77677123245E+03 -0.12509552200E+04  0.15355510339E+04  0.12699999809E+01 0.  1.
       -4    1    3    3    0  502 -0.43549150954E+03 -0.77677123245E+03  0.10464441003E+04  0.13740717850E+04  0.12699999809E+01 0. -1.
</event>
<event>
 5   0  0.2546841E-07  0.2898850E+04  0.7818609E-02  0.8273220E-01
       -2   -1    0    0    0  501  0.00000000000E+00  0.00000000000E+00  0.10346448648E+04  0.10346448648E+04  0.25500000920E-02 0.  1.
        2   -1    0    0  501    0  0.00000000000E+00  0.00000000000E+00 -0.20304864201E+04  0.20304864201E+04  0.25500000920E-02 0. -1.
    10030    2    1    2    0    0  0.00000000000E+00  0.00000000000E+00 -0.99584155531E+03  0.30651312850E+04  0.28988496668E+04 0.  0.
        1    1    3    3  502    0 -0.58393379273E+03  0.12242783981E+04  0.42261556796E+02  0.13570638561E+04  0.50400001928E-02 0.  1.
       -1    1    3    3    0  502  0.58393379273E+03 -0.12242783981E+04 -0.10381031121E+04  0.17080674289E+04  0.50400001928E-02 0. -1.
</event>
<event>
 5   0  0.2534588E-07  0.2899982E+04  0.7818609E-02  0.8272883E-01
        2   -1    0    0  501    0  0.00000000000E+00  0.00000000000E+00  0.23083074977E+04  0.23083074977E+04  0.25500000920E-02 0. -1.
       -2   -1    0    0    0  501  0.00000000000E+00  0.00000000000E+00 -0.91082906667E+03  0.91082906667E+03  0.25500000920E-02 0.  1.
    10030    2    1    2    0    0  0.00000000000E+00  0.00000000000E+00  0.13974784310E+04  0.32191365643E+04  0.28999817680E+04 0.  0.
        3    1    3    3  502    0  0.39439774059E+03 -0.40729740326E+03 -0.78268722753E+03  0.96645747905E+03  0.10100000352E+00 0.  1.
       -3    1    3    3    0  502 -0.39439774059E+03  0.40729740326E+03  0.21801656585E+04  0.22526790853E+04  0.10100000352E+00 0. -1.
</event>
<event>
 5   0  0.9395744E-08  0.2912137E+04  0.7818609E-02  0.8269275E-01
        1   -1    0    0  501    0  0.00000000000E+00  0.00000000000E+00  0.16622117834E+04  0.16622117834E+04  0.50400001928E-02 0.  1.
       -1   -1    0    0    0  501  0.00000000000E+00  0.00000000000E+00 -0.12754908698E+04  0.12754908698E+04  0.50400001928E-02 0. -1.
    10030    2    1    2    0    0  0.00000000000E+00  0.00000000000E+00  0.38672091354E+03  0.29377026532E+04  0.29121373274E+04 0.  0.
        2    1    3    3  502    0 -0.66899986234E+02  0.79305107867E+03 -0.10366592947E+04  0.13069307995E+04  0.25500000920E-02 0. -1.
       -2    1    3    3    0  502  0.66899986234E+02 -0.79305107867E+03  0.14233802082E+04  0.16307718537E+04  0.25500000920E-02 0.  1.
</event>
<event>
 5   0  0.2534588E-07  0.2899970E+04  0.7818609E-02  0.8272886E-01
       -2   -1    0    0    0  501  0.00000000000E+00  0.00000000000E+00  0.80876062954E+03  0.80876062955E+03  0.25500000920E-02 0.  1.
        2   -1    0    0  501    0  0.00000000000E+00  0.00000000000E+00 -0.25996035752E+04  0.25996035752E+04  0.25500000920E-02 0. -1.
    10030    2    1    2    0    0  0.00000000000E+00  0.00000000000E+00 -0.17908429456E+04  0.34083642047E+04  0.28999703612E+04 0.  0.
        3    1    3    3  502    0 -0.36602201582E+03 -0.53262371442E+03 -0.24209706454E+04  0.25057452012E+04  0.10100000352E+00 0. -1.
       -3    1    3    3    0  502  0.36602201582E+03  0.53262371442E+03  0.63012769979E+03  0.90261900350E+03  0.10100000352E+00 0.  1.
</event>
<event>
 5   0  0.9421924E-08  0.2900461E+04  0.7818609E-02  0.8272740E-01
       -1   -1    0    0    0  501  0.00000000000E+00  0.00000000000E+00  0.12179301730E+04  0.12179301730E+04  0.50400001928E-02 0. -1.
        1   -1    0    0  501    0  0.00000000000E+00  0.00000000000E+00 -0.17268379977E+04  0.17268379977E+04  0.50400001928E-02 0.  1.
    10030    2    1    2    0    0  0.00000000000E+00  0.00000000000E+00 -0.50890782467E+03  0.29447681707E+04  0.29004607229E+04 0.  0.
        1    1    3    3  502    0 -0.13612724851E+04  0.17883315932E+03  0.21971805097E+03  0.13904388155E+04  0.50400001928E-02 0. -1.
       -1    1    3    3    0  502  0.13612724851E+04 -0.17883315932E+03 -0.72862587564E+03  0.15543293552E+04  0.50400001928E-02 0.  1.
</event>
<event>
 5   0  0.9395744E-08  0.2901290E+04  0.7818609E-02  0.8272494E-01
        1   -1    0    0  501    0  0.00000000000E+00  0.00000000000E+00  0.15162429521E+04  0.15162429521E+04  0.50400001928E-02 0. -1.
       -1   -1    0    0    0  501  0.00000000000E+00  0.00000000000E+00 -0.13878849570E+04  0.13878849570E+04  0.50400001928E-02 0.  1.
    10030    2    1    2    0    0  0.00000000000E+00  0.00000000000E+00  0.12835799516E+03  0.29041279091E+04  0.29012899092E+04 0.  0.
        2    1    3    3  502    0  0.27236897354E+03  0.50907709317E+02 -0.13611500868E+04  0.13890665972E+04  0.25500000920E-02 0.  1.
       -2    1    3    3    0  502 -0.27236897354E+03 -0.50907709317E+02  0.14895080820E+04  0.15150613119E+04  0.25500000920E-02 0. -1.
</event>
<event>
 5   0  0.9421924E-08  0.2897694E+04  0.7818609E-02  0.8273564E-01
       -1   -1    0    0    0  501  0.00000000000E+00  0.00000000000E+00  0.17853304585E+04  0.17853304585E+04  0.50400001928E-02 0. -1.
        1   -1    0    0  501    0  0.00000000000E+00  0.00000000000E+00 -0.11757813066E+04  0.11757813066E+04  0.50400001928E-02 0.  1.
    10030    2    1    2    0    0  0.00000000000E+00  0.00000000000E+00  0.60954915188E+03  0.29611117652E+04  0.28976943795E+04 0.  0.
        1    1    3    3  502    0  0.10846408763E+04 -0.70378892212E+03 -0.36328651571E+03  0.13430345379E+04  0.50400001928E-02 0.  1.
       -1    1    3    3    0  502 -0.10846408763E+04  0.70378892212E+03  0.97283566759E+03  0.16180772273E+04  0.50400001928E-02 0. -1.
</event>
<event>
 5   0  0.2546841E-07  0.2901737E+04  0.7818609E-02  0.8272361E-01
        2   -1    0    0  501    0  0.00000000000E+00  0.00000000000E+00  0.22343713273E+04  0.22343713273E+04  0.25500000920E-02 0. -1.
       -2   -1    0    0    0  501  0.00000000000E+00  0.00000000000E+00 -0.94210797900E+03  0.94210797900E+03  0.25500000920E-02 0.  1.
    10030    2    1    2    0    0  0.00000000000E+00  0.00000000000E+00  0.12922633483E+04  0.31764793063E+04  0.29017367596E+04 0.  0.
        1    1    3    3  502    0  0.63116347709E+03 -0.53098055001E+03  0.19527581832E+04  0.21198047555E+04  0.50400001928E-02 0. -1.
       -1    1    3    3    0  502 -0.63116347709E+03  0.53098055001E+03 -0.66049483493E+03  0.10566745508E+04  0.50400001928E-02 0.  1.
</event>
<event>
 5   0  0.9421924E-08  0.2899616E+04  0.7818609E-02  0.8272992E-01
        1   -1    0    0  501    0  0.00000000000E+00  0.00000000000E+00  0.19604641327E+04  0.19604641328E+04  0.50400001928E-02 0.  1.
       -1   -1    0    0    0  501  0.00000000000E+00  0.00000000000E+00 -0.10721661817E+04  0.10721661817E+04  0.50400001928E-02 0. -1.
    10030    2    1    2    0    0  0.00000000000E+00  0.00000000000E+00  0.88829795102E+03  0.30326303145E+04  0.28996160737E+04 0.  0.
        1    1    3    3  502    0  0.35040376686E+03  0.32541529147E+03  0.18756070507E+04  0.19356083593E+04  0.50400001928E-02 0.  1.
       -1    1    3    3    0  502 -0.35040376686E+03 -0.32541529147E+03 -0.98730909972E+03  0.10970219552E+04  0.50400001928E-02 0. -1.
</event>
<event>
 5   0  0.9443352E-08  0.2899954E+04  0.7818609E-02  0.8272891E-01
       -1   -1    0    0    0  501  0.00000000000E+00  0.00000000000E+00  0.27357113602E+04  0.27357113602E+04  0.50400001928E-02 0.  1.
        1   -1    0    0  501    0  0.00000000000E+00  0.00000000000E+00 -0.76851419715E+03  0.76851419717E+03  0.50400001928E-02 0. -1.
    10030    2    1    2    0    0  0.00000000000E+00  0.00000000000E+00  0.19671971631E+04  0.35042255574E+04  0.28999538063E+04 0.  0.
        4    1    3    3  502    0  0.86133467330E+03 -0.44833997904E+03  0.22847896632E+04  0.24825735788E+04  0.12699999809E+01 0.  1.
       -4    1    3    3    0  502 -0.86133467330E+03  0.44833997904E+03 -0.31759250016E+03  0.10216519786E+04  0.12699999809E+01 0. -1.
</event>
<event>
 5   0  0.2608591E-07  0.2898833E+04  0.7818609E-02  0.8273225E-01
       -2   -1    0    0    0  501  0.00000000000E+00  0.00000000000E+00  0.78340421963E+03  0.78340421963E+03  0.25500000920E-02 0. -1.
        2   -1    0    0  501    0  0.00000000000E+00  0.00000000000E+00 -0.26816403957E+04  0.26816403957E+04  0.25500000920E-02 0.  1.
    10030    2    1    2    0    0  0.00000000000E+00  0.00000000000E+00 -0.18982361761E+04  0.34650446154E+04  0.28988331456E+04 0.  0.
        2    1    3    3  502    0  0.43042344087E+03  0.13661005864E+04 -0.68367743984E+03  0.15871074294E+04  0.25500000920E-02 0.  1.
       -2    1    3    3    0  502 -0.43042344087E+03 -0.13661005864E+04 -0.12145587363E+04  0.18779371860E+04  0.25500000920E-02 0. -1.
</event>
<event>
 5   0  0.2608591E-07  0.2898810E+04  0.7818609E-02  0.8273232E-01
       -2   -1    0    0    0  501  0.00000000000E+00  0.00000000000E+00  0.78504269493E+03  0.78504269493E+03  0.25500000920E-02 0. -1.
        2   -1    0    0  501    0  0.00000000000E+00  0.00000000000E+00 -0.26760002518E+04  0.26760002518E+04  0.25500000920E-02 0.  1.
    10030    2    1    2    0    0  0.00000000000E+00  0.00000000000E+00 -0.18909575568E+04  0.34610429467E+04  0.28988097207E+04 0.  0.
        2    1    3    3  502    0 -0.44099694658E+02 -0.15748092941E+03  0.77399174787E+03  0.79108043331E+03  0.25500000920E-02 0. -1.
       -2    1    3    3    0  502  0.44099694658E+02  0.15748092941E+03 -0.26649493047E+04  0.26699625134E+04  0.25500000920E-02 0.  1.
</event>
<event>
 5   0  0.8407500E-08  0.2900572E+04  0.7818609E-02  0.8272707E-01
        4   -1    0    0  501    0  0.00000000000E+00  0.00000000000E+00  0.68915404823E+03  0.68915521843E+03  0.12699999809E+01 0. -1.
       -4   -1    0    0    0  501  0.00000000000E+00  0.00000000000E+00 -0.30520421284E+04  0.30520423927E+04  0.12699999809E+01 0.  1.
    10030    2    1    2    0    0  0.00000000000E+00  0.00000000000E+00 -0.23628880802E+04  0.37411976111E+04  0.29005722687E+04 0.  0.
        3    1    3    3  502    0 -0.10847503411E+04  0.67981801334E+03 -0.20605010164E+04  0.24257988958E+04  0.10100000352E+00 0.  1.
       -3    1    3    3    0  502  0.10847503411E+04 -0.67981801334E+03 -0.30238706377E+03  0.13153987153E+04  0.10100000352E+00 0. -1.
</event>
<event>
 5   0  0.2546841E-07  0.2901469E+04  0.7818609E-02  0.8272440E-01
       -2   -1    0    0    0  501  0.00000000000E+00  0.00000000000E+00  0.13489644107E+04  0.13489644107E+04  0.25500000920E-02 0.  1.
        2   -1    0    0  501    0  0.00000000000E+00  0.00000000000E+00 -0.15601829524E+04  0.15601829524E+04  0.25500000920E-02 0. -1.
    10030    2    1    2    0    0  0.00000000000E+00  0.00000000000E+00 -0.21121854167E+03  0.29091473631E+04  0.29014694739E+04 0.  0.
        1    1    3    3  502    0  0.12662772415E+03 -0.44824725413E+03 -0.14831703952E+04  0.15545914584E+04  0.50400001928E-02 0. -1.
       -1    1    3    3    0  502 -0.12662772415E+03  0.44824725413E+03  0.12719518535E+04  0.13545559047E+04  0.50400001928E-02 0.  1.
</event>
<event>
 5   0  0.9763851E-08  0.2898922E+04  0.7818609E-02  0.8273198E-01
        1   -1    0    0  501    0  0.00000000000E+00  0.00000000000E+00  0.22708116835E+04  0.22708116835E+04  0.50400001928E-02 0.  1.
       -1   -1    0    0    0  501  0.00000000000E+00  0.00000000000E+00 -0.92519244792E+03  0.92519244794E+03  0.50400001928E-02 0. -1.
    10030    2    1    2    0    0  0.00000000000E+00  0.00000000000E+00  0.13456192356E+04  0.31960041314E+04  0.28989224345E+04 0.  0.
        3    1    3    3  502    0 -0.12559555770E+04 -0.45557504542E+03  0.53097380350E+02  0.13370835334E+04  0.10100000352E+00 0. -1.
       -3    1    3    3    0  502  0.12559555770E+04  0.45557504542E+03  0.12925218552E+04  0.18589205980E+04  0.10100000352E+00 0.  1.
</event>
<event>
 5   0  0.2492232E-07  0.2895666E+04  0.7818609E-02  0.8274168E-01
       -2   -1    0    0    0  501  0.00000000000E+00  0.00000000000E+00  0.95003530735E+03  0.95003530736E+03  0.25500000920E-02 0. -1.
        2   -1    0    0  501    0  0.00000000000E+00  0.00000000000E+00 -0.22064651610E+04  0.22064651610E+04  0.25500000920E-02 0.  1.
    10030    2    1    2    0    0  0.00000000000E+00  0.00000000000E+00 -0.12564298537E+04  0.31565004684E+04  0.28956655936E+04 0.  0.
        4    1    3    3  502    0  0.58503552069E+03 -0.11750790993E+04  0.37661728065E+02  0.13132012293E+04  0.12699999809E+01 0. -1.
       -4    1    3    3    0  502 -0.58503552069E+03  0.11750790993E+04 -0.12940915818E+04  0.18432992391E+04  0.12699999809E+01 0.  1.
</event>
<event>
 5   0  0.2678723E-07  0.2899711E+04  0.7818609E-02  0.8272964E-01
        2   -1    0    0  501    0  0.00000000000E+00  0.00000000000E+00  0.17427129211E+04  0.17427129211E+04  0.25500000920E-02 0. -1.
       -2   -1    0    0    0  501  0.00000000000E+00  0.00000000000E+00 -0.12062115643E+04  0.12062115643E+04  0.25500000920E-02 0.  1.
    10030    2    1    2    0    0  0.00000000000E+00  0.00000000000E+00  0.53650135683E+03  0.29489244853E+04  0.28997106605E+04 0.  0.
        5    1    3    3  502    0  0.50144352356E+03  0.56240145983E+02  0.16505284133E+04  0.17259416834E+04  0.46999998093E+01 0. -1.
       -5    1    3    3    0  502 -0.50144352356E+03 -0.56240145983E+02 -0.11140270565E+04  0.12229828020E+04  0.46999998093E+01 0.  1.
</event>
<event>
 5   0  0.2534588E-07  0.2900521E+04  0.7818609E-02  0.8272722E-01
        2   -1    0    0  501    0  0.00000000000E+00  0.00000000000E+00  0.15416434224E+04  0.15416434224E+04  0.25500000920E-02 0.  1.
       -2   -1    0    0    0  501  0.00000000000E+00  0.00000000000E+00 -0.13642946585E+04  0.13642946585E+04  0.25500000920E-02 0. -1.
    10030    2    1    2    0    0  0.00000000000E+00  0.00000000000E+00  0.17734876397E+03  0.29059380809E+04  0.29005212542E+04 0.  0.
        3    1    3    3  502    0  0.64113077879E+03 -0.10808648706E+04  0.81386201741E+03  0.14972270829E+04  0.10100000352E+00 0.  1.
       -3    1    3    3    0  502 -0.64113077879E+03  0.10808648706E+04 -0.63651325344E+03  0.14087109981E+04  0.10100000352E+00 0. -1.
</event>
<event>
 5   0  0.9421924E-08  0.2899633E+04  0.7818609E-02  0.8272987E-01
        1   -1    0    0  501    0  0.00000000000E+00  0.00000000000E+00  0.25956925206E+04  0.25956925206E+04  0.50400001928E-02 0.  1.
       -1   -1    0    0    0  501  0.00000000000E+00  0.00000000000E+00 -0.80979079179E+03  0.80979079180E+03  0.50400001928E-02 0. -1.
    10030    2    1    2    0    0  0.00000000000E+00  0.00000000000E+00  0.17859017288E+04  0.34054833124E+04  0.28996330123E+04 0.  0.
        1    1    3    3  502    0 -0.10248682410E+04 -0.41744227164E+03 -0.20712689324E+03  0.11258394696E+04  0.50400001928E-02 0. -1.
       -1    1    3    3    0  502  0.10248682410E+04  0.41744227164E+03  0.19930286220E+04  0.22796438427E+04  0.50400001928E-02 0.  1.
</event>
<event>
 5   0  0.9395744E-08  0.2898167E+04  0.7818609E-02  0.8273423E-01
       -1   -1    0    0    0  501  0.00000000000E+00  0.00000000000E+00  0.12705663410E+04  0.12705663410E+04  0.50400001928E-02 0.  1.
        1   -1    0    0  501    0  0.00000000000E+00  0.00000000000E+00 -0.16526828530E+04  0.16526828530E+04  0.50400001928E-02 0. -1.
    10030    2    1    2    0    0  0.00000000000E+00  0.00000000000E+00 -0.38211651204E+03  0.29232491941E+04  0.28981671487E+04 0.  0.
        2    1    3    3  502    0 -0.11678430915E+03 -0.11180578556E+04  0.73126855678E+03  0.13410613876E+04  0.25500000920E-02 0.  1.
       -2    1    3    3    0  502  0.11678430915E+03  0.11180578556E+04 -0.11133850688E+04  0.15821878064E+04  0.25500000920E-02 0. -1.
</event>
<event>
 5   0  0.9395744E-08  0.2901284E+04  0.7818609E-02  0.8272496E-01
        1   -1    0    0  501    0  0.00000000000E+00  0.00000000000E+00  0.17670886362E+04  0.17670886362E+04  0.50400001928E-02 0.  1.
       -1   -1    0    0    0  501  0.00000000000E+00  0.00000000000E+00 -0.11908639598E+04  0.11908639598E+04  0.50400001928E-02 0. -1.
    10030    2    1    2    0    0  0.00000000000E+00  0.00000000000E+00  0.57622467634E+03  0.29579525960E+04  0.29012839714E+04 0.  0.
        2    1    3    3  502    0 -0.54113195823E+03  0.10842142249E+04 -0.52497207661E+03  0.13205831904E+04  0.25500000920E-02 0. -1.
       -2    1    3    3    0  502  0.54113195823E+03 -0.10842142249E+04  0.11011967530E+04  0.16373694056E+04  0.25500000920E-02 0.  1.
</event>
<event>
 5   0  0.2608591E-07  0.2899889E+04  0.7818609E-02  0.8272910E-01
       -2   -1    0    0    0  501  0.00000000000E+00  0.00000000000E+00  0.11640861128E+04  0.11640861128E+04  0.25500000920E-02 0.  1.
        2   -1    0    0  501    0  0.00000000000E+00  0.00000000000E+00 -0.18059999236E+04  0.18059999236E+04  0.25500000920E-02 0. -1.
    10030    2    1    2    0    0  0.00000000000E+00  0.00000000000E+00 -0.64191381079E+03  0.29700860364E+04  0.28998892605E+04 0.  0.
        2    1    3    3  502    0 -0.11750217835E+04  0.77905029556E+03 -0.66789530792E+03  0.15600255437E+04  0.25500000920E-02 0.  1.
       -2    1    3    3    0  502  0.11750217835E+04 -0.77905029556E+03  0.25981497131E+02  0.14100604927E+04  0.25500000920E-02 0. -1.
</event>
<event>
 5   0  0.2492232E-07  0.2899797E+04  0.7818609E-02  0.8272938E-01
       -2   -1    0    0    0  501  0.00000000000E+00  0.00000000000E+00  0.10810046040E+04  0.10810046040E+04  0.25500000920E-02 0.  1.
        2   -1    0    0  501    0  0.00000000000E+00  0.00000000000E+00 -0.19446779738E+04  0.19446779738E+04  0.25500000920E-02 0. -1.
    10030    2    1    2    0    0  0.00000000000E+00  0.00000000000E+00 -0.86367336981E+03  0.30256825778E+04  0.28997971260E+04 0.  0.
        4    1    3    3  502    0 -0.13473527547E+04 -0.31877840214E+03 -0.88089804341E+03  0.16410247076E+04  0.12699999809E+01 0. -1.
       -4    1    3    3    0  502  0.13473527547E+04  0.31877840214E+03  0.17224673600E+02  0.13846578702E+04  0.12699999809E+01 0.  1.
</event>
<event>
 5   0  0.2678723E-07  0.2897195E+04  0.7818609E-02  0.8273713E-01
       -2   -1    0    0    0  501  0.00000000000E+00  0.00000000000E+00  0.14985685720E+04  0.14985685720E+04  0.25500000920E-02 0.  1.
        2   -1    0    0  501    0  0.00000000000E+00  0.00000000000E+00 -0.14002923457E+04  0.14002923457E+04  0.25500000920E-02 0. -1.
    10030    2    1    2    0    0  0.00000000000E+00  0.00000000000E+00  0.98276226262E+02  0.28988609177E+04  0.28971945747E+04 0.  0.
        5    1    3    3  502    0 -0.27346653122E+03 -0.12679073118E+03 -0.13685579611E+04  0.14013681943E+04  0.46999998093E+01 0. -1.
       -5    1    3    3    0  502  0.27346653122E+03  0.12679073118E+03  0.14668341874E+04  0.14974927233E+04  0.46999998093E+01 0.  1.
</event>
<event>
 5   0  0.9421924E-08  0.2900143E+04  0.7818609E-02  0.8272835E-01
        1   -1    0    0  501    0  0.00000000000E+00  0.00000000000E+00  0.20376052759E+04  0.20376052759E+04  0.50400001928E-02 0.  1.
       -1   -1    0    0    0  501  0.00000000000E+00  0.00000000000E+00 -0.10319502326E+04  0.10319502326E+04  0.50400001928E-02 0. -1.
    10030    2    1    2    0    0  0.00000000000E+00  0.00000000000E+00  0.10056550433E+04  0.30695555085E+04  0.29001429195E+04 0.  0.
        1    1    3    3  502    0  0.32941612132E+03  0.57432593341E+03  0.18682824667E+04  0.19821313363E+04  0.50400001928E-02 0.  1.
       -1    1    3    3    0  502 -0.32941612132E+03 -0.57432593341E+03 -0.86262742341E+03  0.10874241723E+04  0.50400001928E-02 0. -1.
</event>
<event>
 5   0  0.9443352E-08  0.2901469E+04  0.7818609E-02  0.8272441E-01
       -1   -1    0    0    0  501  0.00000000000E+00  0.00000000000E+00  0.26598506726E+04  0.26598506726E+04  0.50400001928E-02 0.  1.
        1   -1    0    0  501    0  0.00000000000E+00  0.00000000000E+00 -0.79125874794E+03  0.79125874796E+03  0.50400001928E-02 0. -1.
    10030    2    1    2    0    0  0.00000000000E+00  0.00000000000E+00  0.18685919247E+04  0.34511094206E+04  0.29014686715E+04 0.  0.
        4    1    3    3  502    0  0.85948234192E+03  0.11490674695E+04  0.68040638306E+03  0.15880870268E+04  0.12699999809E+01 0. -1.
       -4    1    3    3    0  502 -0.85948234192E+03 -0.11490674695E+04  0.11881855416E+04  0.18630223938E+04  0.12699999809E+01 0.  1.
</event>
<event>
 5   0  0.2608591E-07  0.2898346E+04  0.7818609E-02  0.8273370E-01
       -2   -1    0    0    0  501  0.00000000000E+00  0.00000000000E+00  0.16076929021E+04  0.16076929021E+04  0.25500000920E-02 0.  1.
        2   -1    0    0  501    0  0.00000000000E+00  0.00000000000E+00 -0.13062832500E+04  0.13062832500E+04  0.25500000920E-02 0. -1.
    10030    2    1    2    0    0  0.00000000000E+00  0.00000000000E+00  0.30140965216E+03  0.29139761521E+04  0.28983459484E+04 0.  0.
        2    1    3    3  502    0 -0.11202545723E+03  0.57465605851E+03 -0.11820846978E+04  0.13191298350E+04  0.25500000920E-02 0. -1.
       -2    1    3    3    0  502  0.11202545723E+03 -0.57465605851E+03  0.14834943500E+04  0.15948463171E+04  0.25500000920E-02 0.  1.
</event>
<event>
 5   0  0.2546841E-07  0.2900647E+04  0.7818609E-02  0.8272685E-01
        2   -1    0    0  501    0  0.00000000000E+00  0.00000000000E+00  0.24749814420E+04  0.24749814420E+04  0.25500000920E-02 0.  1.
       -2   -1    0    0    0  501  0.00000000000E+00  0.00000000000E+00 -0.84988030714E+03  0.84988030715E+03  0.25500000920E-02 0. -1.
    10030    2    1    2    0    0  0.00000000000E+00  0.00000000000E+00  0.16251011348E+04  0.33248617491E+04  0.29006468162E+04 0.  0.
        1    1    3    3  502    0  0.56864907448E+03  0.78106717683E+03 -0.42731208693E+03  0.10564200511E+04  0.50400001928E-02 0. -1.
       -1    1    3    3    0  502 -0.56864907448E+03 -0.78106717683E+03  0.20524132217E+04  0.22684416980E+04  0.50400001928E-02 0.  1.
</event>
<event>
 5   0  0.2546841E-07  0.2901288E+04  0.7818609E-02  0.8272494E-01
        2   -1    0    0  501    0  0.00000000000E+00  0.00000000000E+00  0.13154066253E+04  0.13154066253E+04  0.25500000920E-02 0. -1.
       -2   -1    0    0    0  501  0.00000000000E+00  0.00000000000E+00 -0.15997854508E+04  0.15997854508E+04  0.25500000920E-02 0.  1.
    10030    2    1    2    0    0  0.00000000000E+00  0.00000000000E+00 -0.28437882542E+03  0.29151920761E+04  0.29012882525E+04 0.  0.
        1    1    3    3  502    0  0.85796970620E+03  0.86092605324E+03 -0.93785720313E+03  0.15352139328E+04  0.50400001928E-02 0.  1.
       -1    1    3    3    0  502 -0.85796970620E+03 -0.86092605324E+03  0.65347837771E+03  0.13799781433E+04  0.50400001928E-02 0. -1.
</event>
<event>
 5   0  0.9395744E-08  0.2897613E+04  0.7818609E-02  0.8273588E-01
        1   -1    0    0  501    0  0.00000000000E+00  0.00000000000E+00  0.22421590673E+04  0.22421590673E+04  0.50400001928E-02 0. -1.
       -1   -1    0    0    0  501  0.00000000000E+00  0.00000000000E+00 -0.93616891050E+03  0.93616891052E+03  0.50400001928E-02 0.  1.
    10030    2    1    2    0    0  0.00000000000E+00  0.00000000000E+00  0.13059901568E+04  0.31783279778E+04  0.28976125422E+04 0.  0.
        2    1    3    3  502    0  0.47590273712E+03  0.13654353797E+04  0.75197227467E+03  0.16298341919E+04  0.25500000920E-02 0.  1.
       -2    1    3    3    0  502 -0.47590273712E+03 -0.13654353797E+04  0.55401788212E+03  0.15484937859E+04  0.25500000920E-02 0. -1.
</event>
<event>
 5   0  0.2678723E-07  0.2900142E+04  0.7818609E-02  0.8272835E-01
        2   -1    0    0  501    0  0.00000000000E+00  0.00000000000E+00  0.17836605576E+04  0.17836605576E+04  0.25500000920E-02 0. -1.
       -2   -1    0    0    0  501  0.00000000000E+00  0.00000000000E+00 -0.11788707481E+04  0.11788707481E+04  0.25500000920E-02 0.  1.
    10030    2    1    2    0    0  0.00000000000E+00  0.00000000000E+00  0.60478980946E+03  0.29625313057E+04  0.29001415524E+04 0.  0.
        5    1    3    3  502    0  0.16119842593E+03 -0.23120264658E+03  0.17554023409E+04  0.17778917471E+04  0.46999998093E+01 0. -1.
       -5    1    3    3    0  502 -0.16119842593E+03  0.23120264658E+03 -0.11506125314E+04  0.11846395586E+04  0.46999998093E+01 0.  1.
</event>
<event>
 5   0  0.9443352E-08  0.2897418E+04  0.7818609E-02  0.8273646E-01
        1   -1    0    0  501    0  0.00000000000E+00  0.00000000000E+00  0.12579860145E+04  0.12579860145E+04  0.50400001928E-02 0.  1.
       -1   -1    0    0    0  501  0.00000000000E+00  0.00000000000E+00 -0.16683474594E+04  0.16683474594E+04  0.50400001928E-02 0. -1.
    10030    2    1    2    0    0  0.00000000000E+00  0.00000000000E+00 -0.41036144489E+03  0.29263334739E+04  0.28974180032E+04 0.  0.
        4    1    3    3  502    0  0.12289054266E+04  0.28574461057E+03 -0.92425340544E+03  0.15640027175E+04  0.12699999809E+01 0. -1.
       -4    1    3    3    0  502 -0.12289054266E+04 -0.28574461057E+03  0.51389196055E+03  0.13623307565E+04  0.12699999809E+01 0.  1.
</event>
<event>
 5   0  0.9421924E-08  0.2899823E+04  0.7818609E-02  0.8272930E-01
        1   -1    0    0  501    0  0.00000000000E+00  0.00000000000E+00  0.16759714857E+04  0.16759714857E+04  0.50400001928E-02 0.  1.
       -1   -1    0    0    0  501  0.00000000000E+00  0.00000000000E+00 -0.12543435565E+04  0.12543435565E+04  0.50400001928E-02 0. -1.
    10030    2    1    2    0    0  0.00000000000E+00  0.00000000000E+00  0.42162792925E+03  0.29303150422E+04  0.28998234663E+04 0.  0.
        1    1    3    3  502    0  0.12606998252E+03  0.93376994312E+03  0.13244106784E+04  0.16253872130E+04  0.50400001928E-02 0.  1.
       -1    1    3    3    0  502 -0.12606998252E+03 -0.93376994312E+03 -0.90278274913E+03  0.13049278292E+04  0.50400001928E-02 0. -1.
</event>
<event>
 5   0  0.9421924E-08  0.2903019E+04  0.7818609E-02  0.8271980E-01
       -1   -1    0    0    0  501  0.00000000000E+00  0.00000000000E+00  0.78475851432E+03  0.78475851434E+03  0.50400001928E-02 0.  1.
        1   -1    0    0  501    0  0.00000000000E+00  0.00000000000E+00 -0.26847499293E+04  0.26847499293E+04  0.50400001928E-02 0. -1.
    10030    2    1    2    0    0  0.00000000000E+00  0.00000000000E+00 -0.18999914150E+04  0.34695084437E+04  0.29030193702E+04 0.  0.
        1    1    3    3  502    0  0.12521273476E+04 -0.71267534590E+03 -0.73905701008E+03  0.16192388050E+04  0.50400001928E-02 0.  1.
       -1    1    3    3    0  502 -0.12521273476E+04  0.71267534590E+03 -0.11609344049E+04  0.18502696387E+04  0.50400001928E-02 0. -1.
</event>
<event>
 5   0  0.9395744E-08  0.2901444E+04  0.7818609E-02  0.8272448E-01
        1   -1    0    0  501    0  0.00000000000E+00  0.00000000000E+00  0.11888011870E+04  0.11888011871E+04  0.50400001928E-02 0.  1.
       -1   -1    0    0    0  501  0.00000000000E+00  0.00000000000E+00 -0.17703499863E+04  0.17703499863E+04  0.50400001928E-02 0. -1.
    10030    2    1    2    0    0  0.00000000000E+00  0.00000000000E+00 -0.58154879929E+03  0.29591511734E+04  0.29014438925E+04 0.  0.
        2    1    3    3  502    0 -0.79640550616E+03  0.87118233984E+03 -0.11509792723E+04  0.16486278187E+04  0.25500000920E-02 0. -1.
       -2    1    3    3    0  502  0.79640550616E+03 -0.87118233984E+03  0.56943047300E+03  0.13105233547E+04  0.25500000920E-02 0.  1.
</event>
<event>
 5   0  0.9763851E-08  0.2899149E+04  0.7818609E-02  0.8273131E-01
        1   -1    0    0  501    0  0.00000000000E+00  0.00000000000E+00  0.19131599816E+04  0.19131599816E+04  0.50400001928E-02 0.  1.
       -1   -1    0    0    0  501  0.00000000000E+00  0.00000000000E+00 -0.10983219151E+04  0.10983219151E+04  0.50400001928E-02 0. -1.
    10030    2    1    2    0    0  0.00000000000E+00  0.00000000000E+00  0.81483806652E+03  0.30114818968E+04  0.28991485198E+04 0.  0.
        3    1    3    3  502    0  0.38741346639E+03 -0.13560505809E+04  0.75552043096E+03  0.15999292183E+04  0.10100000352E+00 0.  1.
       -3    1    3    3    0  502 -0.38741346639E+03  0.13560505809E+04  0.59317635556E+02  0.14115526784E+04  0.10100000352E+00 0. -1.
</event>
<event>
 5   0  0.2534588E-07  0.2905469E+04  0.7818609E-02  0.8271252E-01
       -2   -1    0    0    0  501  0.00000000000E+00  0.00000000000E+00  0.19365978586E+04  0.19365978586E+04  0.25500000920E-02 0.  1.
        2   -1    0    0  501    0  0.00000000000E+00  0.00000000000E+00 -0.10897656166E+04  0.10897656166E+04  0.25500000920E-02 0. -1.
    10030    2    1    2    0    0  0.00000000000E+00  0.00000000000E+00  0.84683224201E+03  0.30263634753E+04  0.29054691598E+04 0.  0.
        3    1    3    3  502    0  0.98165926336E+03  0.10015889743E+04  0.28699317037E+02  0.14027327057E+04  0.10100000352E+00 0. -1.
       -3    1    3    3    0  502 -0.98165926336E+03 -0.10015889743E+04  0.81813292497E+03  0.16236307696E+04  0.10100000352E+00 0.  1.
</event>
<event>
 5   0  0.9763851E-08  0.2899727E+04  0.7818609E-02  0.8272959E-01
        1   -1    0    0  501    0  0.00000000000E+00  0.00000000000E+00  0.20474246875E+04  0.20474246875E+04  0.50400001928E-02 0. -1.
       -1   -1    0    0    0  501  0.00000000000E+00  0.00000000000E+00 -0.10267063420E+04  0.10267063420E+04  0.50400001928E-02 0.  1.
    10030    2    1    2    0    0  0.00000000000E+00  0.00000000000E+00  0.10207183455E+04  0.30741310295E+04  0.28997268226E+04 0.  0.
        3    1    3    3  502    0 -0.63716942671E+03 -0.13007533766E+04  0.44198453405E+03  0.15143627583E+04  0.10100000352E+00 0.  1.
       -3    1    3    3    0  502  0.63716942671E+03  0.13007533766E+04  0.57873381149E+03  0.15597682712E+04  0.10100000352E+00 0. -1.
</event>
<event>
 5   0  0.2492232E-07  0.2901349E+04  0.7818609E-02  0.8272476E-01
        2   -1    0    0  501    0  0.00000000000E+00  0.00000000000E+00  0.20805449259E+04  0.20805449259E+04  0.25500000920E-02 0. -1.
       -2   -1    0    0    0  501  0.00000000000E+00  0.00000000000E+00 -0.10114926532E+04  0.10114926532E+04  0.25500000920E-02 0.  1.
    10030    2    1    2    0    0  0.00000000000E+00  0.00000000000E+00  0.10690522726E+04  0.30920375791E+04  0.29013485880E+04 0.  0.
        4    1    3    3  502    0  0.11493829669E+04  0.77570764634E+03  0.98874318888E+03  0.17030614386E+04  0.12699999809E+01 0. -1.
       -4    1    3    3    0  502 -0.11493829669E+04 -0.77570764634E+03  0.80309083731E+02  0.13889761405E+04  0.12699999809E+01 0.  1.
</event>
<event>
 5   0  0.2534588E-07  0.2907770E+04  0.7818609E-02  0.8270569E-01
        2   -1    0    0  501    0  0.00000000000E+00  0.00000000000E+00  0.98559675962E+03  0.98559675962E+03  0.25500000920E-02 0.  1.
       -2   -1    0    0    0  501  0.00000000000E+00  0.00000000000E+00 -0.21446722505E+04  0.21446722505E+04  0.25500000920E-02 0. -1.
    10030    2    1    2    0    0  0.00000000000E+00  0.00000000000E+00 -0.11590754909E+04  0.31302690101E+04  0.29077702939E+04 0.  0.
        3    1    3    3  502    0  0.97244871420E+03 -0.57216238884E+03 -0.15666271242E+04  0.19306337968E+04  0.10100000352E+00 0. -1.
       -3    1    3    3    0  502 -0.97244871420E+03  0.57216238884E+03  0.40755163332E+03  0.11996352133E+04  0.10100000352E+00 0.  1.
</event>
<event>
 5   0  0.2608591E-07  0.2900332E+04  0.7818609E-02  0.8272779E-01
       -2   -1    0    0    0  501  0.00000000000E+00  0.00000000000E+00  0.28578332596E+04  0.28578332596E+04  0.25500000920E-02 0.  1.
        2   -1    0    0  501    0  0.00000000000E+00  0.00000000000E+00 -0.73586569015E+03  0.73586569016E+03  0.25500000920E-02 0. -1.
    10030    2    1    2    0    0  0.00000000000E+00  0.00000000000E+00  0.21219675694E+04  0.35936989497E+04  0.29003320113E+04 0.  0.
        2    1    3    3  502    0 -0.70858778178E+03 -0.32116461309E+03 -0.45540971551E+03  0.90146622909E+03  0.25500000920E-02 0. -1.
       -2    1    3    3    0  502  0.70858778178E+03  0.32116461309E+03  0.25773772849E+04  0.26922327207E+04  0.25500000920E-02 0.  1.
</event>
<event>
 5   0  0.9388076E-08  0.2900394E+04  0.7818609E-02  0.8272760E-01
       -1   -1    0    0    0  501  0.00000000000E+00  0.00000000000E+00  0.10842773272E+04  0.10842773272E+04  0.50400001928E-02 0. -1.
        1   -1    0    0  501    0  0.00000000000E+00  0.00000000000E+00 -0.19396069935E+04  0.19396069935E+04  0.50400001928E-02 0.  1.
    10030    2    1    2    0    0  0.00000000000E+00  0.00000000000E+00 -0.85532966635E+03  0.30238843207E+04  0.29003943778E+04 0.  0.
        5    1    3    3  502    0  0.34003319595E+03  0.11897798845E+04 -0.12160702137E+04  0.17349488761E+04  0.46999998093E+01 0.  1.
       -5    1    3    3    0  502 -0.34003319595E+03 -0.11897798845E+04  0.36074054737E+03  0.12889354446E+04  0.46999998093E+01 0. -1.
</event>
<event>
 5   0  0.9421924E-08  0.2899585E+04  0.7818609E-02  0.8273001E-01
       -1   -1    0    0    0  501  0.00000000000E+00  0.00000000000E+00  0.10749229273E+04  0.10749229273E+04  0.50400001928E-02 0.  1.
        1   -1    0    0  501    0  0.00000000000E+00  0.00000000000E+00 -0.19553938936E+04  0.19553938936E+04  0.50400001928E-02 0. -1.
    10030    2    1    2    0    0  0.00000000000E+00  0.00000000000E+00 -0.88047096632E+03  0.30303168209E+04  0.28995846103E+04 0.  0.
        1    1    3    3  502    0 -0.14008936994E+04 -0.26768302900E+03 -0.71223994214E+03  0.15941904203E+04  0.50400001928E-02 0. -1.
       -1    1    3    3    0  502  0.14008936994E+04  0.26768302900E+03 -0.16823102418E+03  0.14361264006E+04  0.50400001928E-02 0.  1.
</event>
<event>
 5   0  0.2492232E-07  0.2902238E+04  0.7818609E-02  0.8272212E-01
       -2   -1    0    0    0  501  0.00000000000E+00  0.00000000000E+00  0.92016016825E+03  0.92016016826E+03  0.25500000920E-02 0. -1.
        2   -1    0    0  501    0  0.00000000000E+00  0.00000000000E+00 -0.22884557185E+04  0.22884557186E+04  0.25500000920E-02 0.  1.
    10030    2    1    2    0    0  0.00000000000E+00  0.00000000000E+00 -0.13682955503E+04  0.32086158868E+04  0.29022376188E+04 0.  0.
        4    1    3    3  502    0  0.14212387366E+04  0.23068972375E+03 -0.48451150005E+03  0.15191742170E+04  0.12699999809E+01 0. -1.
       -4    1    3    3    0  502 -0.14212387366E+04 -0.23068972375E+03 -0.88378405024E+03  0.16894416698E+04  0.12699999809E+01 0.  1.
</event>
<event>
 5   0  0.2492232E-07  0.2900146E+04  0.7818609E-02  0.8272834E-01
        2   -1    0    0  501    0  0.00000000000E+00  0.00000000000E+00  0.15989915990E+04  0.15989915990E+04  0.25500000920E-02 0. -1.
       -2   -1    0    0    0  501  0.00000000000E+00  0.00000000000E+00 -0.13150233912E+04  0.13150233913E+04  0.25500000920E-02 0.  1.
    10030    2    1    2    0    0  0.00000000000E+00  0.00000000000E+00  0.28396820777E+03  0.29140149903E+04  0.29001457585E+04 0.  0.
        4    1    3    3  502    0 -0.98892889122E+03 -0.98408091390E+03 -0.25527247293E+03  0.14182951898E+04  0.12699999809E+01 0.  1.
       -4    1    3    3    0  502  0.98892889122E+03  0.98408091390E+03  0.53924068070E+03  0.14957198005E+04  0.12699999809E+01 0. -1.
</event>
<event>
 5   0  0.2678723E-07  0.2900839E+04  0.7818609E-02  0.8272628E-01
        2   -1    0    0  501    0  0.00000000000E+00  0.00000000000E+00  0.15881583830E+04  0.15881583830E+04  0.25500000920E-02 0.  1.
       -2   -1    0    0    0  501  0.00000000000E+00  0.00000000000E+00 -0.13246261333E+04  0.13246261333E+04  0.25500000920E-02 0. -1.
    10030    2    1    2    0    0  0.00000000000E+00  0.00000000000E+00  0.26353224975E+03  0.29127845163E+04  0.29008385669E+04 0.  0.
        5    1    3    3  502    0  0.19935056246E+03 -0.24532040838E+03  0.15531417645E+04  0.15849902776E+04  0.46999998093E+01 0.  1.
       -5    1    3    3    0  502 -0.19935056246E+03  0.24532040838E+03 -0.12896095148E+04  0.13277942386E+04  0.46999998093E+01 0. -1.
</event>
<event>
 5   0  0.2534588E-07  0.2898042E+04  0.7818609E-02  0.8273460E-01
        2   -1    0    0  501    0  0.00000000000E+00  0.00000000000E+00  0.95249824733E+03  0.95249824733E+03  0.25500000920E-02 0. -1.
       -2   -1    0    0    0  501  0.00000000000E+00  0.00000000000E+00 -0.22043733986E+04  0.22043733986E+04  0.25500000920E-02 0.  1.
    10030    2    1    2    0    0  0.00000000000E+00  0.00000000000E+00 -0.12518751513E+04  0.31568716460E+04  0.28980419588E+04 0.  0.
        3    1    3    3  502    0 -0.18126155335E+03 -0.13134576168E+04  0.10760466507E+02  0.13259496445E+04  0.10100000352E+00 0.  1.
       -3    1    3    3    0  502  0.18126155335E+03  0.13134576168E+04 -0.12626356178E+04  0.18309220015E+04  0.10100000352E+00 0. -1.
</event>
<event>
 5   0  0.2492232E-07  0.2902120E+04  0.7818609E-02  0.8272247E-01
        2   -1    0    0  501    0  0.00000000000E+00  0.00000000000E+00  0.20194778253E+04  0.20194778253E+04  0.25500000920E-02 0. -1.
       -2   -1    0    0    0  501  0.00000000000E+00  0.00000000000E+00 -0.10426336024E+04  0.10426336024E+04  0.25500000920E-02 0.  1.
    10030    2    1    2    0    0  0.00000000000E+00  0.00000000000E+00  0.97684422292E+03  0.30621114277E+04  0.29021202180E+04 0.  0.
        4    1    3    3  502    0  0.29575616539E+03 -0.90452695595E+02  0.19842961453E+04  0.20082545169E+04  0.12699999809E+01 0. -1.
       -4    1    3    3    0  502 -0.29575616539E+03  0.90452695595E+02 -0.10074519224E+04  0.10538569108E+04  0.12699999809E+01 0.  1.
</event>
<event>
 5   0  0.9388076E-08  0.2900246E+04  0.7818609E-02  0.8272804E-01
       -1   -1    0    0    0  501  0.00000000000E+00  0.00000000000E+00  0.18212882274E+04  0.18212882274E+04  0.50400001928E-02 0. -1.
        1   -1    0    0  501    0  0.00000000000E+00  0.00000000000E+00 -0.11545987632E+04  0.11545987632E+04  0.50400001928E-02 0.  1.
    10030    2    1    2    0    0  0.00000000000E+00  0.00000000000E+00  0.66668946421E+03  0.29758869906E+04  0.29002462894E+04 0.  0.
        5    1    3    3  502    0 -0.36036507866E+03 -0.58414644606E+03 -0.97736854357E+03  0.11943037387E+04  0.46999998093E+01 0.  1.
       -5    1    3    3    0  502  0.36036507866E+03  0.58414644606E+03  0.16440580078E+04  0.17815832519E+04  0.46999998093E+01 0. -1.
</event>
<event>
 5   0  0.9395744E-08  0.2892940E+04  0.7818609E-02  0.8274981E-01
       -1   -1    0    0    0  501  0.00000000000E+00  0.00000000000E+00  0.86226982115E+03  0.86226982116E+03  0.50400001928E-02 0. -1.
        1   -1    0    0  501    0  0.00000000000E+00  0.00000000000E+00 -0.24264734700E+04  0.24264734700E+04  0.50400001928E-02 0.  1.
    10030    2    1    2    0    0  0.00000000000E+00  0.00000000000E+00 -0.15642036488E+04  0.32887432911E+04  0.28929395742E+04 0.  0.
        2    1    3    3  502    0 -0.52150918279E+03  0.13414601955E+04 -0.94600689277E+03  0.17223287505E+04  0.25500000920E-02 0. -1.
       -2    1    3    3    0  502  0.52150918279E+03 -0.13414601955E+04 -0.61819675604E+03  0.15664145406E+04  0.25500000920E-02 0.  1.
</event>
<event>
 5   0  0.2492232E-07  0.2892524E+04  0.7818609E-02  0.8275105E-01
        2   -1    0    0  501    0  0.00000000000E+00  0.00000000000E+00  0.18462738199E+04  0.18462738199E+04  0.25500000920E-02 0. -1.
       -2   -1    0    0    0  501  0.00000000000E+00  0.00000000000E+00 -0.11329163517E+04  0.11329163517E+04  0.25500000920E-02 0.  1.
    10030    2    1    2    0    0  0.00000000000E+00  0.00000000000E+00  0.71335746822E+03  0.29791901716E+04  0.28925240191E+04 0.  0.
        4    1    3    3  502    0 -0.11427256531E+04  0.14878154194E+03 -0.54341288939E+03  0.12740710525E+04  0.12699999809E+01 0.  1.
       -4    1    3    3    0  502  0.11427256531E+04 -0.14878154194E+03  0.12567703576E+04  0.17051191191E+04  0.12699999809E+01 0. -1.
</event>
<event>
 5   0  0.2534588E-07  0.2900086E+04  0.7818609E-02  0.8272852E-01
        2   -1    0    0  501    0  0.00000000000E+00  0.00000000000E+00  0.17489187135E+04  0.17489187135E+04  0.25500000920E-02 0.  1.
       -2   -1    0    0    0  501  0.00000000000E+00  0.00000000000E+00 -0.12022428678E+04  0.12022428678E+04  0.25500000920E-02 0. -1.
    10030    2    1    2    0    0  0.00000000000E+00  0.00000000000E+00  0.54667584567E+03  0.29511615814E+04  0.29000862399E+04 0.  0.
        3    1    3    3  502    0  0.38343980414E+02  0.92720682181E+03 -0.86048528810E+03  0.12655503516E+04  0.10100000352E+00 0. -1.
       -3    1    3    3    0  502 -0.38343980414E+02 -0.92720682181E+03  0.14071611338E+04  0.16856112297E+04  0.10100000352E+00 0.  1.
</event>
<event>
 5   0  0.2608591E-07  0.2899726E+04  0.7818609E-02  0.8272959E-01
        2   -1    0    0  501    0  0.00000000000E+00  0.00000000000E+00  0.11542740210E+04  0.11542740210E+04  0.25500000920E-02 0.  1.
       -2   -1    0    0    0  501  0.00000000000E+00  0.00000000000E+00 -0.18211472181E+04  0.18211472181E+04  0.25500000920E-02 0. -1.
    10030    2    1    2    0    0  0.00000000000E+00  0.00000000000E+00 -0.66687319713E+03  0.29754212391E+04  0.28997261403E+04 0.  0.
        2    1    3    3  502    0 -0.12821632559E+04  0.67562912294E+03 -0.29130885569E+03  0.14782686413E+04  0.25500000920E-02 0.  1.
       -2    1    3    3    0  502  0.12821632559E+04 -0.67562912294E+03 -0.37556434144E+03  0.14971525978E+04  0.25500000920E-02 0. -1.
</event>
<event>
 5   0  0.2492232E-07  0.2900886E+04  0.7818609E-02  0.8272614E-01
       -2   -1    0    0    0  501  0.00000000000E+00  0.00000000000E+00  0.11235337447E+04  0.11235337447E+04  0.25500000920E-02 0. -1.
        2   -1    0    0  501    0  0.00000000000E+00  0.00000000000E+00 -0.18724720975E+04  0.18724720975E+04  0.25500000920E-02 0.  1.
    10030    2    1    2    0    0  0.00000000000E+00  0.00000000000E+00 -0.74893835280E+03  0.29960058421E+04  0.29008864765E+04 0.  0.
        4    1    3    3  502    0 -0.42931533688E+03  0.51117603271E+03  0.95545423094E+03  0.11655500827E+04  0.12699999809E+01 0. -1.
       -4    1    3    3    0  502  0.42931533688E+03 -0.51117603271E+03 -0.17043925837E+04  0.18304557594E+04  0.12699999809E+01 0.  1.
</event>
<event>
 5   0  0.9421924E-08  0.2899549E+04  0.7818609E-02  0.8273012E-01
        1   -1    0    0  501    0  0.00000000000E+00  0.00000000000E+00  0.19476595940E+04  0.19476595940E+04  0.50400001928E-02 0.  1.
       -1   -1    0    0    0  501  0.00000000000E+00  0.00000000000E+00 -0.10791651469E+04  0.10791651469E+04  0.50400001928E-02 0. -1.
    10030    2    1    2    0    0  0.00000000000E+00  0.00000000000E+00  0.86849444710E+03  0.30268247410E+04  0.28995491732E+04 0.  0.
        1    1    3    3  502    0  0.92014038801E+03  0.25379819105E+03 -0.70487823776E+03  0.11865602326E+04  0.50400001928E-02 0.  1.
       -1    1    3    3    0  502 -0.92014038801E+03 -0.25379819105E+03  0.15733726849E+04  0.18402645084E+04  0.50400001928E-02 0. -1.
</event>
<event>
 5   0  0.2608591E-07  0.2899076E+04  0.7818609E-02  0.8273152E-01
        2   -1    0    0  501    0  0.00000000000E+00  0.00000000000E+00  0.11673578765E+04  0.11673578765E+04  0.25500000920E-02 0. -1.
       -2   -1    0    0    0  501  0.00000000000E+00  0.00000000000E+00 -0.17999282581E+04  0.17999282581E+04  0.25500000920E-02 0.  1.
    10030    2    1    2    0    0  0.00000000000E+00  0.00000000000E+00 -0.63257038161E+03  0.29672861346E+04  0.28990760108E+04 0.  0.
        2    1    3    3  502    0 -0.91392724841E+03  0.15856359884E+03 -0.14563849180E+04  0.17266911883E+04  0.25500000920E-02 0.  1.
       -2    1    3    3    0  502  0.91392724841E+03 -0.15856359884E+03  0.82381453643E+03  0.12405949463E+04  0.25500000920E-02 0. -1.
</event>
<event>
 5   0  0.9388076E-08  0.2899764E+04  0.7818609E-02  0.8272948E-01
        1   -1    0    0  501    0  0.00000000000E+00  0.00000000000E+00  0.18823723083E+04  0.18823723083E+04  0.50400001928E-02 0.  1.
       -1   -1    0    0    0  501  0.00000000000E+00  0.00000000000E+00 -0.11167596046E+04  0.11167596046E+04  0.50400001928E-02 0. -1.
    10030    2    1    2    0    0  0.00000000000E+00  0.00000000000E+00  0.76561270370E+03  0.29991319128E+04  0.28997636832E+04 0.  0.
        5    1    3    3  502    0 -0.13821054951E+04  0.62267853439E+01 -0.70246455904E+02  0.13839114953E+04  0.46999998093E+01 0. -1.
       -5    1    3    3    0  502  0.13821054951E+04 -0.62267853439E+01  0.83585915961E+03  0.16152204175E+04  0.46999998093E+01 0.  1.
</event>
<event>
 5   0  0.9763851E-08  0.2910577E+04  0.7818609E-02  0.8269737E-01
        1   -1    0    0  501    0  0.00000000000E+00  0.00000000000E+00  0.16161861031E+04  0.16161861031E+04  0.50400001928E-02 0. -1.
       -1   -1    0    0    0  501  0.00000000000E+00  0.00000000000E+00 -0.13104089807E+04  0.13104089808E+04  0.50400001928E-02 0.  1.
    10030    2    1    2    0    0  0.00000000000E+00  0.00000000000E+00  0.30577712232E+03  0.29265950838E+04  0.29105771139E+04 0.  0.
        3    1    3    3  502    0 -0.94578600598E+03 -0.11060530424E+04  0.15236396421E+03  0.14632427309E+04  0.10100000352E+00 0.  1.
       -3    1    3    3    0  502  0.94578600598E+03  0.11060530424E+04  0.15341315811E+03  0.14633523530E+04  0.10100000352E+00 0. -1.
</event>
<event>
 5   0  0.2678723E-07  0.2901036E+04  0.7818609E-02  0.8272569E-01
       -2   -1    0    0    0  501  0.00000000000E+00  0.00000000000E+00  0.70149290553E+03  0.70149290553E+03  0.25500000920E-02 0. -1.
        2   -1    0    0  501    0  0.00000000000E+00  0.00000000000E+00 -0.29993203495E+04  0.29993203495E+04  0.25500000920E-02 0.  1.
    10030    2    1    2    0    0  0.00000000000E+00  0.00000000000E+00 -0.22978274440E+04  0.37008132551E+04  0.29010356403E+04 0.  0.
        5    1    3    3  502    0 -0.12578739887E+04  0.51982959054E+02 -0.22986060583E+03  0.12797684117E+04  0.46999998093E+01 0. -1.
       -5    1    3    3    0  502  0.12578739887E+04 -0.51982959054E+02 -0.20679668382E+04  0.24210448433E+04  0.46999998093E+01 0.  1.
</event>
<event>
 5   0  0.9388076E-08  0.2899704E+04  0.7818609E-02  0.8272966E-01
        1   -1    0    0  501    0  0.00000000000E+00  0.00000000000E+00  0.11918468047E+04  0.11918468047E+04  0.50400001928E-02 0. -1.
       -1   -1    0    0    0  501  0.00000000000E+00  0.00000000000E+00 -0.17637090915E+04  0.17637090915E+04  0.50400001928E-02 0.  1.
    10030    2    1    2    0    0  0.00000000000E+00  0.00000000000E+00 -0.57186228683E+03  0.29555558962E+04  0.28997041539E+04 0.  0.
        5    1    3    3  502    0  0.12656061940E+04 -0.52379166121E+03  0.19854741828E+03  0.13840375392E+04  0.46999998093E+01 0.  1.
       -5    1    3    3    0  502 -0.12656061940E+04  0.52379166121E+03 -0.77040970510E+03  0.15715183570E+04  0.46999998093E+01 0. -1.
</event>
<event>
 5   0  0.2534588E-07  0.2891976E+04  0.7818609E-02  0.8275269E-01
       -2   -1    0    0    0  501  0.00000000000E+00  0.00000000000E+00  0.68739037801E+03  0.68739037801E+03  0.25500000920E-02 0.  1.
        2   -1    0    0  501    0  0.00000000000E+00  0.00000000000E+00 -0.30417658446E+04  0.30417658446E+04  0.25500000920E-02 0. -1.
    10030    2    1    2    0    0  0.00000000000E+00  0.00000000000E+00 -0.23543754666E+04  0.37291562226E+04  0.28919755004E+04 0.  0.
        3    1    3    3  502    0  0.11228246135E+04  0.90808817596E+03 -0.10813719064E+04  0.18040854908E+04  0.10100000352E+00 0.  1.
       -3    1    3    3    0  502 -0.11228246135E+04 -0.90808817596E+03 -0.12730035601E+04  0.19250707318E+04  0.10100000352E+00 0. -1.
</event>
<event>
 5   0  0.9421924E-08  0.2912216E+04  0.7818609E-02  0.8269252E-01
        1   -1    0    0  501    0  0.00000000000E+00  0.00000000000E+00  0.85648485394E+03  0.85648485395E+03  0.50400001928E-02 0. -1.
       -1   -1    0    0    0  501  0.00000000000E+00  0.00000000000E+00 -0.24755265501E+04  0.24755265501E+04  0.50400001928E-02 0.  1.
    10030    2    1    2    0    0  0.00000000000E+00  0.00000000000E+00 -0.16190416961E+04  0.33320114040E+04  0.29122163351E+04 0.  0.
        1    1    3    3  502    0 -0.18153116983E+03 -0.13193475273E+04 -0.13590955187E+03  0.13386944647E+04  0.50400001928E-02 0. -1.
       -1    1    3    3    0  502  0.18153116983E+03  0.13193475273E+04 -0.14831321443E+04  0.19933169394E+04  0.50400001928E-02 0.  1.
</event>
<event>
 5   0  0.9388076E-08  0.2899348E+04  0.7818609E-02  0.8273071E-01
        1   -1    0    0  501    0  0.00000000000E+00  0.00000000000E+00  0.15540451354E+04  0.15540451354E+04  0.50400001928E-02 0.  1.
       -1   -1    0    0    0  501  0.00000000000E+00  0.00000000000E+00 -0.13523128196E+04  0.13523128196E+04  0.50400001928E-02 0. -1.
    10030    2    1    2    0    0  0.00000000000E+00  0.00000000000E+00  0.20173231582E+03  0.29063579549E+04  0.28993483121E+04 0.  0.
        5    1    3    3  502    0  0.41176265684E+02 -0.11160992448E+04 -0.82557606489E+03  0.13888739820E+04  0.46999998093E+01 0. -1.
       -5    1    3    3    0  502 -0.41176265684E+02  0.11160992448E+04  0.10273083807E+04  0.15174839729E+04  0.46999998093E+01 0.  1.
</event>
<event>
 5   0  0.2534588E-07  0.2896277E+04  0.7818609E-02  0.8273986E-01
       -2   -1    0    0    0  501  0.00000000000E+00  0.00000000000E+00  0.14347149227E+04  0.14347149227E+04  0.25500000920E-02 0. -1.
        2   -1    0    0  501    0  0.00000000000E+00  0.00000000000E+00 -0.14616879393E+04  0.14616879393E+04  0.25500000920E-02 0.  1.
    10030    2    1    2    0    0  0.00000000000E+00  0.00000000000E+00 -0.26973016581E+02  0.28964028620E+04  0.28962772649E+04 0.  0.
        3    1    3    3  502    0  0.61469076070E+03  0.11977046539E+04  0.52016976446E+03  0.14432317081E+04  0.10100000352E+00 0. -1.
       -3    1    3    3    0  502 -0.61469076070E+03 -0.11977046539E+04 -0.54714278104E+03  0.14531711538E+04  0.10100000352E+00 0.  1.
</event>
<event>
 5   0  0.2678723E-07  0.2903175E+04  0.7818609E-02  0.8271933E-01
        2   -1    0    0  501    0  0.00000000000E+00  0.00000000000E+00  0.99593183723E+03  0.99593183724E+03  0.25500000920E-02 0. -1.
       -2   -1    0    0    0  501  0.00000000000E+00  0.00000000000E+00 -0.21157137224E+04  0.21157137224E+04  0.25500000920E-02 0.  1.
    10030    2    1    2    0    0  0.00000000000E+00  0.00000000000E+00 -0.11197818851E+04  0.31116455596E+04  0.29031752648E+04 0.  0.
        5    1    3    3  502    0  0.11005682413E+04  0.59098628474E+03 -0.13522818667E+04  0.18409789731E+04  0.46999998093E+01 0.  1.
       -5    1    3    3    0  502 -0.11005682413E+04 -0.59098628474E+03  0.23249998154E+03  0.12706665865E+04  0.46999998093E+01 0. -1.
</event>
<event>
 5   0  0.2678723E-07  0.2899584E+04  0.7818609E-02  0.8273001E-01
       -2   -1    0    0    0  501  0.00000000000E+00  0.00000000000E+00  0.17704901878E+04  0.17704901878E+04  0.25500000920E-02 0. -1.
        2   -1    0    0  501    0  0.00000000000E+00  0.00000000000E+00 -0.11871831871E+04  0.11871831871E+04  0.25500000920E-02 0.  1.
    10030    2    1    2    0    0  0.00000000000E+00  0.00000000000E+00  0.58330700071E+03  0.29576733749E+04  0.28995835452E+04 0.  0.
        5    1    3    3  502    0  0.94893679935E+03  0.60330522525E+03 -0.64178384770E+03  0.12947458597E+04  0.46999998093E+01 0. -1.
       -5    1    3    3    0  502 -0.94893679935E+03 -0.60330522525E+03  0.12250908484E+04  0.16629275152E+04  0.46999998093E+01 0.  1.
</event>
<event>
 5   0  0.9443352E-08  0.2898940E+04  0.7818609E-02  0.8273193E-01
       -1   -1    0    0    0  501  0.00000000000E+00  0.00000000000E+00  0.12216442172E+04  0.12216442173E+04  0.50400001928E-02 0. -1.
        1   -1    0    0  501    0  0.00000000000E+00  0.00000000000E+00 -0.17197832983E+04  0.17197832983E+04  0.50400001928E-02 0.  1.
    10030    2    1    2    0    0  0.00000000000E+00  0.00000000000E+00 -0.49813908110E+03  0.29414275156E+04  0.28989400279E+04 0.  0.
        4    1    3    3  502    0 -0.24834979098E+02 -0.13715307390E+04 -0.72417180536E+03  0.15511736720E+04  0.12699999809E+01 0.  1.
       -4    1    3    3    0  502  0.24834979098E+02  0.13715307390E+04  0.22603272427E+03  0.13902538436E+04  0.12699999809E+01 0. -1.
</event>
<event>
 5   0  0.8407500E-08  0.2901345E+04  0.7818609E-02  0.8272477E-01
        3   -1    0    0  501    0  0.00000000000E+00  0.00000000000E+00  0.16630825142E+04  0.16630825173E+04  0.10100000352E+00 0.  1.
       -3   -1    0    0    0  501  0.00000000000E+00  0.00000000000E+00 -0.12653914744E+04  0.12653914785E+04  0.10100000352E+00 0. -1.
    10030    2    1    2    0    0  0.00000000000E+00  0.00000000000E+00  0.39769103978E+03  0.29284739957E+04  0.29013448228E+04 0.  0.
        1    1    3    3  502    0 -0.39301992931E+03  0.12424645925E+04  0.84219665898E+03  0.15516050209E+04  0.50400001928E-02 0. -1.
       -1    1    3    3    0  502  0.39301992931E+03 -0.12424645925E+04 -0.44450561920E+03  0.13768689749E+04  0.50400001928E-02 0.  1.
</event>
<event>
 5   0  0.9443352E-08  0.2899567E+04  0.7818609E-02  0.8273006E-01
        1   -1    0    0  501    0  0.00000000000E+00  0.00000000000E+00  0.23801975941E+04  0.23801975941E+04  0.50400001928E-02 0.  1.
       -1   -1    0    0    0  501  0.00000000000E+00  0.00000000000E+00 -0.88306617065E+03  0.88306617066E+03  0.50400001928E-02 0. -1.
    10030    2    1    2    0    0  0.00000000000E+00  0.00000000000E+00  0.14971314235E+04  0.32632637648E+04  0.28995668469E+04 0.  0.
        4    1    3    3  502    0  0.11818252016E+04  0.71310682684E+03  0.24950542996E+03  0.14026712822E+04  0.12699999809E+01 0. -1.
       -4    1    3    3    0  502 -0.11818252016E+04 -0.71310682684E+03  0.12476259935E+04  0.18605924826E+04  0.12699999809E+01 0.  1.
</event>
<event>
 5   0  0.9763851E-08  0.2893718E+04  0.7818609E-02  0.8274749E-01
        1   -1    0    0  501    0  0.00000000000E+00  0.00000000000E+00  0.20391384423E+04  0.20391384423E+04  0.50400001928E-02 0.  1.
       -1   -1    0    0    0  501  0.00000000000E+00  0.00000000000E+00 -0.10266107508E+04  0.10266107508E+04  0.50400001928E-02 0. -1.
    10030    2    1    2    0    0  0.00000000000E+00  0.00000000000E+00  0.10125276915E+04  0.30657491931E+04  0.28937183327E+04 0.  0.
        3    1    3    3  502    0 -0.75682825033E+03 -0.17080691605E+03 -0.78758304530E+03  0.11055546420E+04  0.10100000352E+00 0. -1.
       -3    1    3    3    0  502  0.75682825033E+03  0.17080691605E+03  0.18001107368E+04  0.19601945510E+04  0.10100000352E+00 0.  1.
</event>
<event>
 5   0  0.9421924E-08  0.2899971E+04  0.7818609E-02  0.8272886E-01
       -1   -1    0    0    0  501  0.00000000000E+00  0.00000000000E+00  0.15201338659E+04  0.15201338659E+04  0.50400001928E-02 0. -1.
        1   -1    0    0  501    0  0.00000000000E+00  0.00000000000E+00 -0.13830740066E+04  0.13830740066E+04  0.50400001928E-02 0.  1.
    10030    2    1    2    0    0  0.00000000000E+00  0.00000000000E+00  0.13705985933E+03  0.29032078726E+04  0.28999707837E+04 0.  0.
        1    1    3    3  502    0 -0.81108424886E+02 -0.37951506280E+03 -0.13301148800E+04  0.13855741963E+04  0.50400001928E-02 0.  1.
       -1    1    3    3    0  502  0.81108424886E+02  0.37951506280E+03  0.14671747393E+04  0.15176336762E+04  0.50400001928E-02 0. -1.
</event>
<event>
 5   0  0.2534588E-07  0.2898928E+04  0.7818609E-02  0.8273196E-01
       -2   -1    0    0    0  501  0.00000000000E+00  0.00000000000E+00  0.13581011891E+04  0.13581011891E+04  0.25500000920E-02 0. -1.
        2   -1    0    0  501    0  0.00000000000E+00  0.00000000000E+00 -0.15469734363E+04  0.15469734363E+04  0.25500000920E-02 0.  1.
    10030    2    1    2    0    0  0.00000000000E+00  0.00000000000E+00 -0.18887224718E+03  0.29050746254E+04  0.28989283974E+04 0.  0.
        3    1    3    3  502    0 -0.75301324549E+03  0.12307541011E+04 -0.23315593800E+03  0.14615561251E+04  0.10100000352E+00 0.  1.
       -3    1    3    3    0  502  0.75301324549E+03 -0.12307541011E+04  0.44283690816E+02  0.14435185003E+04  0.10100000352E+00 0. -1.
</event>
<event>
 5   0  0.2678723E-07  0.2898961E+04  0.7818609E-02  0.8273187E-01
        2   -1    0    0  501    0  0.00000000000E+00  0.00000000000E+00  0.12537873627E+04  0.12537873627E+04  0.25500000920E-02 0. -1.
       -2   -1    0    0    0  501  0.00000000000E+00  0.00000000000E+00 -0.16757183009E+04  0.16757183009E+04  0.25500000920E-02 0.  1.
    10030    2    1    2    0    0  0.00000000000E+00  0.00000000000E+00 -0.42193093819E+03  0.29295056635E+04  0.28989614892E+04 0.  0.
        5    1    3    3  502    0 -0.78696403402E+03 -0.28137565920E+03 -0.14077099254E+04  0.16371175817E+04  0.46999998093E+01 0.  1.
       -5    1    3    3    0  502  0.78696403402E+03  0.28137565920E+03  0.98577898716E+03  0.12923880818E+04  0.46999998093E+01 0. -1.
</event>
<event>
 5   0  0.2678723E-07  0.2899256E+04  0.7818609E-02  0.8273099E-01
       -2   -1    0    0    0  501  0.00000000000E+00  0.00000000000E+00  0.20073917289E+04  0.20073917289E+04  0.25500000920E-02 0. -1.
        2   -1    0    0  501    0  0.00000000000E+00  0.00000000000E+00 -0.10468413913E+04  0.10468413913E+04  0.25500000920E-02 0.  1.
    10030    2    1    2    0    0  0.00000000000E+00  0.00000000000E+00  0.96055033766E+03  0.30542331202E+04  0.28992555944E+04 0.  0.
        5    1    3    3  502    0 -0.30258220590E+03 -0.13367113504E+04 -0.17246897826E+02  0.13706468440E+04  0.46999998093E+01 0.  1.
       -5    1    3    3    0  502  0.30258220590E+03  0.13367113504E+04  0.97779723549E+03  0.16835862762E+04  0.46999998093E+01 0. -1.
</event>
<event>
 5   0  0.9421924E-08  0.2898997E+04  0.7818609E-02  0.8273176E-01
        1   -1    0    0  501    0  0.00000000000E+00  0.00000000000E+00  0.13834004456E+04  0.13834004456E+04  0.50400001928E-02 0.  1.
       -1   -1    0    0    0  501  0.00000000000E+00  0.00000000000E+00 -0.15187551761E+04  0.15187551761E+04  0.50400001928E-02 0. -1.
    10030    2    1    2    0    0  0.00000000000E+00  0.00000000000E+00 -0.13535473050E+03  0.29021556218E+04  0.28989974732E+04 0.  0.
        1    1    3    3  502    0  0.92064347074E+03 -0.76837158902E+02 -0.11858356197E+04  0.15032280154E+04  0.50400001928E-02 0. -1.
       -1    1    3    3    0  502 -0.92064347074E+03  0.76837158902E+02  0.10504808892E+04  0.13989276064E+04  0.50400001928E-02 0.  1.
</event>
<event>
 5   0  0.2546841E-07  0.2899036E+04  0.7818609E-02  0.8273164E-01
       -2   -1    0    0    0  501  0.00000000000E+00  0.00000000000E+00  0.98012811864E+03  0.98012811864E+03  0.25500000920E-02 0. -1.
        2   -1    0    0  501    0  0.00000000000E+00  0.00000000000E+00 -0.21437025140E+04  0.21437025140E+04  0.25500000920E-02 0.  1.
    10030    2    1    2    0    0  0.00000000000E+00  0.00000000000E+00 -0.11635743954E+04  0.31238306326E+04  0.28990364689E+04 0.  0.
        1    1    3    3  502    0  0.13953917477E+04 -0.37413443011E+03 -0.45425253618E+03  0.15144107989E+04  0.50400001928E-02 0.  1.
       -1    1    3    3    0  502 -0.13953917477E+04  0.37413443011E+03 -0.70932185918E+03  0.16094198337E+04  0.50400001928E-02 0. -1.
</event>
<event>
 5   0  0.2546841E-07  0.2899398E+04  0.7818609E-02  0.8273057E-01
        2   -1    0    0  501    0  0.00000000000E+00  0.00000000000E+00  0.20134231567E+04  0.20134231567E+04  0.25500000920E-02 0.  1.
       -2   -1    0    0    0  501  0.00000000000E+00  0.00000000000E+00 -0.10438078704E+04  0.10438078704E+04  0.25500000920E-02 0. -1.
    10030    2    1    2    0    0  0.00000000000E+00  0.00000000000E+00  0.96961528634E+03  0.30572310272E+04  0.28993978254E+04 0.  0.
        1    1    3    3  502    0  0.32005607200E+03  0.86847830904E+03 -0.69169808317E+03  0.11554811555E+04  0.50400001928E-02 0. -1.
       -1    1    3    3    0  502 -0.32005607200E+03 -0.86847830904E+03  0.16613133695E+04  0.19017498716E+04  0.50400001928E-02 0.  1.
</event>
<event>
 5   0  0.9763851E-08  0.2901295E+04  0.7818609E-02  0.8272492E-01
       -1   -1    0    0    0  501  0.00000000000E+00  0.00000000000E+00  0.14832348197E+04  0.14832348197E+04  0.50400001928E-02 0. -1.
        1   -1    0    0  501    0  0.00000000000E+00  0.00000000000E+00 -0.14187762299E+04  0.14187762299E+04  0.50400001928E-02 0.  1.
    10030    2    1    2    0    0  0.00000000000E+00  0.00000000000E+00  0.64458589766E+02  0.29020110496E+04  0.29012950939E+04 0.  0.
        3    1    3    3  502    0  0.82111021453E+03  0.11286482869E+04  0.42768663774E+03  0.14597893034E+04  0.10100000352E+00 0. -1.
       -3    1    3    3    0  502 -0.82111021453E+03 -0.11286482869E+04 -0.36322804797E+03  0.14422217461E+04  0.10100000352E+00 0.  1.
</event>
<event>
 5   0  0.2492232E-07  0.2908867E+04  0.7818609E-02  0.8270244E-01
       -2   -1    0    0    0  501  0.00000000000E+00  0.00000000000E+00  0.84566722200E+03  0.84566722200E+03  0.25500000920E-02 0. -1.
        2   -1    0    0  501    0  0.00000000000E+00  0.00000000000E+00 -0.25014297454E+04  0.25014297454E+04  0.25500000920E-02 0.  1.
    10030    2    1    2    0    0  0.00000000000E+00  0.00000000000E+00 -0.16557625234E+04  0.33470969674E+04  0.29088672323E+04 0.  0.
        4    1    3    3  502    0 -0.14118625639E+04 -0.34163286263E+03 -0.91170235858E+03  0.17150136197E+04  0.12699999809E+01 0. -1.
       -4    1    3    3    0  502  0.14118625639E+04  0.34163286263E+03 -0.74406016481E+03  0.16320833477E+04  0.12699999809E+01 0.  1.
</event>
<event>
 5   0  0.9395744E-08  0.2902990E+04  0.7818609E-02  0.8271988E-01
       -1   -1    0    0    0  501  0.00000000000E+00  0.00000000000E+00  0.14428079541E+04  0.14428079541E+04  0.50400001928E-02 0. -1.
        1   -1    0    0  501    0  0.00000000000E+00  0.00000000000E+00 -0.14602345712E+04  0.14602345712E+04  0.50400001928E-02 0.  1.
    10030    2    1    2    0    0  0.00000000000E+00  0.00000000000E+00 -0.17426617136E+02  0.29030425253E+04  0.29029902199E+04 0.  0.
        2    1    3    3  502    0  0.41486231219E+03 -0.54833599772E+03  0.12696113115E+04  0.14438476328E+04  0.25500000920E-02 0. -1.
       -2    1    3    3    0  502 -0.41486231219E+03  0.54833599772E+03 -0.12870379286E+04  0.14591948925E+04  0.25500000920E-02 0.  1.
</event>
<event>
 5   0  0.2608591E-07  0.2897972E+04  0.7818609E-02  0.8273481E-01
        2   -1    0    0  501    0  0.00000000000E+00  0.00000000000E+00  0.17977337093E+04  0.17977337093E+04  0.25500000920E-02 0. -1.
       -2   -1    0    0    0  501  0.00000000000E+00  0.00000000000E+00 -0.11678931358E+04  0.11678931358E+04  0.25500000920E-02 0.  1.
    10030    2    1    2    0    0  0.00000000000E+00  0.00000000000E+00  0.62984057349E+03  0.29656268451E+04  0.28979722974E+04 0.  0.
        2    1    3    3  502    0  0.99230695783E+03 -0.52760627444E+03 -0.62104615571E+03  0.12840326347E+04  0.25500000920E-02 0.  1.
       -2    1    3    3    0  502 -0.99230695783E+03  0.52760627444E+03  0.12508867292E+04  0.16815942105E+04  0.25500000920E-02 0. -1.
</event>
<event>
 5   0  0.9421924E-08  0.2900615E+04  0.7818609E-02  0.8272695E-01
        1   -1    0    0  501    0  0.00000000000E+00  0.00000000000E+00  0.17004311428E+04  0.17004311428E+04  0.50400001928E-02 0.  1.
       -1   -1    0    0    0  501  0.00000000000E+00  0.00000000000E+00 -0.12369755605E+04  0.12369755605E+04  0.50400001928E-02 0. -1.
    10030    2    1    2    0    0  0.00000000000E+00  0.00000000000E+00  0.46345558231E+03  0.29374067033E+04  0.29006149458E+04 0.  0.
        1    1    3    3  502    0 -0.11852702389E+04  0.42403172654E+03 -0.49763211893E+03  0.13536270425E+04  0.50400001928E-02 0. -1.
       -1    1    3    3    0  502  0.11852702389E+04 -0.42403172654E+03  0.96108770125E+03  0.15837796608E+04  0.50400001928E-02 0.  1.
</event>
<event>
 5   0  0.2608591E-07  0.2900564E+04  0.7818609E-02  0.8272710E-01
        2   -1    0    0  501    0  0.00000000000E+00  0.00000000000E+00  0.10455285251E+04  0.10455285251E+04  0.25500000920E-02 0.  1.
       -2   -1    0    0    0  501  0.00000000000E+00  0.00000000000E+00 -0.20117271062E+04  0.20117271062E+04  0.25500000920E-02 0. -1.
    10030    2    1    2    0    0  0.00000000000E+00  0.00000000000E+00 -0.96619858107E+03  0.30572556313E+04  0.29005641343E+04 0.  0.
        2    1    3    3  502    0 -0.31601771718E+03 -0.78207190358E+03 -0.17265825589E+04  0.19216115613E+04  0.25500000920E-02 0. -1.
       -2    1    3    3    0  502  0.31601771718E+03  0.78207190358E+03  0.76038397782E+03  0.11356440700E+04  0.25500000920E-02 0.  1.
</event>
<event>
 5   0  0.2678723E-07  0.2893954E+04  0.7818609E-02  0.8274679E-01
        2   -1    0    0  501    0  0.00000000000E+00  0.00000000000E+00  0.62345645829E+03  0.62345645830E+03  0.25500000920E-02 0.  1.
       -2   -1    0    0    0  501  0.00000000000E+00  0.00000000000E+00 -0.33582824683E+04  0.33582824683E+04  0.25500000920E-02 0. -1.
    10030    2    1    2    0    0  0.00000000000E+00  0.00000000000E+00 -0.27348260100E+04  0.39817389266E+04  0.28939543145E+04 0.  0.
        5    1    3    3  502    0 -0.77572402954E+03 -0.56721808266E+03  0.12098117600E+03  0.96857764699E+03  0.46999998093E+01 0.  1.
       -5    1    3    3    0  502  0.77572402954E+03  0.56721808266E+03 -0.28558071860E+04  0.30131612796E+04  0.46999998093E+01 0. -1.
</event>
<event>
 5   0  0.2678723E-07  0.2900209E+04  0.7818609E-02  0.8272815E-01
        2   -1    0    0  501    0  0.00000000000E+00  0.00000000000E+00  0.23757163707E+04  0.23757163707E+04  0.25500000920E-02 0.  1.
       -2   -1    0    0    0  501  0.00000000000E+00  0.00000000000E+00 -0.88512370816E+03  0.88512370816E+03  0.25500000920E-02 0. -1.
    10030    2    1    2    0    0  0.00000000000E+00  0.00000000000E+00  0.14905926625E+04  0.32608400788E+04  0.29002088777E+04 0.  0.
        5    1    3    3  502    0 -0.65065207690E+03  0.91605139065E+02  0.21987252504E+04  0.22948103284E+04  0.46999998093E+01 0.  1.
       -5    1    3    3    0  502  0.65065207690E+03 -0.91605139065E+02 -0.70813258788E+03  0.96602975042E+03  0.46999998093E+01 0. -1.
</event>
<event>
 5   0  0.8407500E-08  0.2899954E+04  0.7818609E-02  0.8272891E-01
        4   -1    0    0  501    0  0.00000000000E+00  0.00000000000E+00  0.11740411019E+04  0.11740417888E+04  0.12699999809E+01 0.  1.
       -4   -1    0    0    0  501  0.00000000000E+00  0.00000000000E+00 -0.17907651096E+04  0.17907655599E+04  0.12699999809E+01 0. -1.
    10030    2    1    2    0    0  0.00000000000E+00  0.00000000000E+00 -0.61672400766E+03  0.29648073487E+04  0.28999541571E+04 0.  0.
        1    1    3    3  502    0  0.10294600988E+03 -0.13683298492E+04  0.17063365995E+03  0.13827654548E+04  0.50400001928E-02 0.  1.
       -1    1    3    3    0  502 -0.10294600988E+03  0.13683298492E+04 -0.78735766761E+03  0.15820418939E+04  0.50400001928E-02 0. -1.
</event>
<event>
 5   0  0.9763851E-08  0.2900221E+04  0.7818609E-02  0.8272812E-01
        1   -1    0    0  501    0  0.00000000000E+00  0.00000000000E+00  0.17114109584E+04  0.17114109584E+04  0.50400001928E-02 0. -1.
       -1   -1    0    0    0  501  0.00000000000E+00  0.00000000000E+00 -0.12287055108E+04  0.12287055108E+04  0.50400001928E-02 0.  1.
    10030    2    1    2    0    0  0.00000000000E+00  0.00000000000E+00  0.48270544765E+03  0.29401164692E+04  0.29002207336E+04 0.  0.
        3    1    3    3  502    0 -0.13236795029E+04  0.43514516703E+03 -0.16584588794E+03  0.14032047646E+04  0.10100000352E+00 0.  1.
       -3    1    3    3    0  502  0.13236795029E+04 -0.43514516703E+03  0.64855133559E+03  0.15369117046E+04  0.10100000352E+00 0. -1.
</event>
<event>
 5   0  0.9763851E-08  0.2901404E+04  0.7818609E-02  0.8272460E-01
        1   -1    0    0  501    0  0.00000000000E+00  0.00000000000E+00  0.89303311110E+03  0.89303311111E+03  0.50400001928E-02 0. -1.
       -1   -1    0    0    0  501  0.00000000000E+00  0.00000000000E+00 -0.23566169723E+04  0.23566169723E+04  0.50400001928E-02 0.  1.
    10030    2    1    2    0    0  0.00000000000E+00  0.00000000000E+00 -0.14635838612E+04  0.32496500834E+04  0.29014044782E+04 0.  0.
        3    1    3    3  502    0  0.14043704795E+04  0.33562894127E+03 -0.57485328078E+03  0.15541427008E+04  0.10100000352E+00 0. -1.
       -3    1    3    3    0  502 -0.14043704795E+04 -0.33562894127E+03 -0.88873058042E+03  0.16955073826E+04  0.10100000352E+00 0.  1.
</event>
<event>
 5   0  0.9388076E-08  0.2881991E+04  0.7818609E-02  0.8278256E-01
        1   -1    0    0  501    0  0.00000000000E+00  0.00000000000E+00  0.14298158380E+04  0.14298158380E+04  0.50400001928E-02 0.  1.
       -1   -1    0    0    0  501  0.00000000000E+00  0.00000000000E+00 -0.14522625667E+04  0.14522625667E+04  0.50400001928E-02 0. -1.
    10030    2    1    2    0    0  0.00000000000E+00  0.00000000000E+00 -0.22446728702E+02  0.28820784046E+04  0.28819909915E+04 0.  0.
        5    1    3    3  502    0 -0.80319478793E+03  0.11376787776E+04  0.35893791362E+03  0.14381562447E+04  0.46999998093E+01 0.  1.
       -5    1    3    3    0  502  0.80319478793E+03 -0.11376787776E+04 -0.38138464232E+03  0.14439221599E+04  0.46999998093E+01 0. -1.
</event>
<event>
 5   0  0.2546841E-07  0.2900287E+04  0.7818609E-02  0.8272792E-01
       -2   -1    0    0    0  501  0.00000000000E+00  0.00000000000E+00  0.13727897039E+04  0.13727897039E+04  0.25500000920E-02 0.  1.
        2   -1    0    0  501    0  0.00000000000E+00  0.00000000000E+00 -0.15318556949E+04  0.15318556949E+04  0.25500000920E-02 0. -1.
    10030    2    1    2    0    0  0.00000000000E+00  0.00000000000E+00 -0.15906599099E+03  0.29046453987E+04  0.29002866932E+04 0.  0.
        1    1    3    3  502    0 -0.11714574153E+04 -0.27512777186E+03 -0.89001303807E+03  0.14967067096E+04  0.50400001928E-02 0. -1.
       -1    1    3    3    0  502  0.11714574153E+04  0.27512777186E+03  0.73094704708E+03  0.14079386891E+04  0.50400001928E-02 0.  1.
</event>
<event>
 5   0  0.9388076E-08  0.2899321E+04  0.7818609E-02  0.8273079E-01
        1   -1    0    0  501    0  0.00000000000E+00  0.00000000000E+00  0.22140900089E+04  0.22140900089E+04  0.50400001928E-02 0. -1.
       -1   -1    0    0    0  501  0.00000000000E+00  0.00000000000E+00 -0.94915556000E+03  0.94915556002E+03  0.50400001928E-02 0.  1.
    10030    2    1    2    0    0  0.00000000000E+00  0.00000000000E+00  0.12649344489E+04  0.31632455689E+04  0.28993211911E+04 0.  0.
        5    1    3    3  502    0  0.56649483577E+03 -0.79609358968E+03  0.18008435788E+04  0.20488389609E+04  0.46999998093E+01 0. -1.
       -5    1    3    3    0  502 -0.56649483577E+03  0.79609358968E+03 -0.53590912989E+03  0.11144066080E+04  0.46999998093E+01 0.  1.
</event>
<event>
 5   0  0.2546841E-07  0.2900858E+04  0.7818609E-02  0.8272622E-01
       -2   -1    0    0    0  501  0.00000000000E+00  0.00000000000E+00  0.13921434953E+04  0.13921434953E+04  0.25500000920E-02 0. -1.
        2   -1    0    0  501    0  0.00000000000E+00  0.00000000000E+00 -0.15111552816E+04  0.15111552816E+04  0.25500000920E-02 0.  1.
    10030    2    1    2    0    0  0.00000000000E+00  0.00000000000E+00 -0.11901178637E+03  0.29032987769E+04  0.29008584907E+04 0.  0.
        1    1    3    3  502    0  0.13983596054E+04  0.38265605560E+03 -0.15768411804E+02  0.14498565052E+04  0.50400001928E-02 0. -1.
       -1    1    3    3    0  502 -0.13983596054E+04 -0.38265605560E+03 -0.10324337457E+03  0.14534422717E+04  0.50400001928E-02 0.  1.
</event>
<event>
 5   0  0.2534588E-07  0.2900213E+04  0.7818609E-02  0.8272814E-01
        2   -1    0    0  501    0  0.00000000000E+00  0.00000000000E+00  0.12928539937E+04  0.12928539937E+04  0.25500000920E-02 0.  1.
       -2   -1    0    0    0  501  0.00000000000E+00  0.00000000000E+00 -0.16264861321E+04  0.16264861321E+04  0.25500000920E-02 0. -1.
    10030    2    1    2    0    0  0.00000000000E+00  0.00000000000E+00 -0.33363213843E+03  0.29193401258E+04  0.29002131588E+04 0.  0.
        3    1    3    3  502    0  0.38564746807E+03 -0.22612660883E+03  0.12217568139E+04  0.13009792217E+04  0.10100000352E+00 0.  1.
       -3    1    3    3    0  502 -0.38564746807E+03  0.22612660883E+03 -0.15553889523E+04  0.16183609041E+04  0.10100000352E+00 0. -1.
</event>
<event>
 5   0  0.2608591E-07  0.2902272E+04  0.7818609E-02  0.8272202E-01
       -2   -1    0    0    0  501  0.00000000000E+00  0.00000000000E+00  0.76433288486E+03  0.76433288487E+03  0.25500000920E-02 0.  1.
        2   -1    0    0  501    0  0.00000000000E+00  0.00000000000E+00 -0.27550762543E+04  0.27550762543E+04  0.25500000920E-02 0. -1.
    10030    2    1    2    0    0  0.00000000000E+00  0.00000000000E+00 -0.19907433695E+04  0.35194091392E+04  0.29022717871E+04 0.  0.
        2    1    3    3  502    0  0.71100388793E+03 -0.12338487983E+04 -0.13337958494E+04  0.19511331973E+04  0.25500000920E-02 0. -1.
       -2    1    3    3    0  502 -0.71100388793E+03  0.12338487983E+04 -0.65694752006E+03  0.15682759419E+04  0.25500000920E-02 0.  1.
</event>
<event>
 5   0  0.9395744E-08  0.2900478E+04  0.7818609E-02  0.8272735E-01
        1   -1    0    0  501    0  0.00000000000E+00  0.00000000000E+00  0.13201876596E+04  0.13201876596E+04  0.50400001928E-02 0. -1.
       -1   -1    0    0    0  501  0.00000000000E+00  0.00000000000E+00 -0.15931016950E+04  0.15931016950E+04  0.50400001928E-02 0.  1.
    10030    2    1    2    0    0  0.00000000000E+00  0.00000000000E+00 -0.27291403544E+03  0.29132893546E+04  0.29004780284E+04 0.  0.
        2    1    3    3  502    0  0.99899098916E+03 -0.35838138598E+03  0.85622661549E+03  0.13636510666E+04  0.25500000920E-02 0. -1.
       -2    1    3    3    0  502 -0.99899098916E+03  0.35838138598E+03 -0.11291406509E+04  0.15496382881E+04  0.25500000920E-02 0.  1.
</event>
<event>
 5   0  0.2678723E-07  0.2900458E+04  0.7818609E-02  0.8272741E-01
       -2   -1    0    0    0  501  0.00000000000E+00  0.00000000000E+00  0.10794439076E+04  0.10794439076E+04  0.25500000920E-02 0. -1.
        2   -1    0    0  501    0  0.00000000000E+00  0.00000000000E+00 -0.19483770169E+04  0.19483770169E+04  0.25500000920E-02 0.  1.
    10030    2    1    2    0    0  0.00000000000E+00  0.00000000000E+00 -0.86893310929E+03  0.30278209244E+04  0.29004576884E+04 0.  0.
        5    1    3    3  502    0 -0.13416182561E+04  0.20719290044E+03  0.98105470612E+02  0.13610713488E+04  0.46999998093E+01 0. -1.
       -5    1    3    3    0  502  0.13416182561E+04 -0.20719290044E+03 -0.96703857990E+03  0.16667495757E+04  0.46999998093E+01 0.  1.
</event>
<event>
 5   0  0.2678723E-07  0.2907446E+04  0.7818609E-02  0.8270666E-01
        2   -1    0    0  501    0  0.00000000000E+00  0.00000000000E+00  0.15198727312E+04  0.15198727312E+04  0.25500000920E-02 0.  1.
       -2   -1    0    0    0  501  0.00000000000E+00  0.00000000000E+00 -0.13904519493E+04  0.13904519493E+04  0.25500000920E-02 0. -1.
    10030    2    1    2    0    0  0.00000000000E+00  0.00000000000E+00  0.12942078195E+03  0.29103246805E+04  0.29074456155E+04 0.  0.
        5    1    3    3  502    0  0.47952356575E+02 -0.14395102946E+04 -0.13245824961E+03  0.14463943427E+04  0.46999998093E+01 0. -1.
       -5    1    3    3    0  502 -0.47952356575E+02  0.14395102946E+04  0.26187903155E+03  0.14639303378E+04  0.46999998093E+01 0.  1.
</event>
<event>
 5   0  0.2546841E-07  0.2900414E+04  0.7818609E-02  0.8272754E-01
       -2   -1    0    0    0  501  0.00000000000E+00  0.00000000000E+00  0.16564602716E+04  0.16564602716E+04  0.25500000920E-02 0. -1.
        2   -1    0    0  501    0  0.00000000000E+00  0.00000000000E+00 -0.12696356169E+04  0.12696356169E+04  0.25500000920E-02 0.  1.
    10030    2    1    2    0    0  0.00000000000E+00  0.00000000000E+00  0.38682465468E+03  0.29260958885E+04  0.29004144247E+04 0.  0.
        1    1    3    3  502    0  0.39087092458E+03 -0.44232098830E+03 -0.11429573015E+04  0.12863822641E+04  0.50400001928E-02 0.  1.
       -1    1    3    3    0  502 -0.39087092458E+03  0.44232098830E+03  0.15297819562E+04  0.16397136243E+04  0.50400001928E-02 0. -1.
</event>
<event>
 5   0  0.2492232E-07  0.2900713E+04  0.7818609E-02  0.8272665E-01
       -2   -1    0    0    0  501  0.00000000000E+00  0.00000000000E+00  0.12911751349E+04  0.12911751349E+04  0.25500000920E-02 0.  1.
        2   -1    0    0  501    0  0.00000000000E+00  0.00000000000E+00 -0.16291623382E+04  0.16291623382E+04  0.25500000920E-02 0. -1.
    10030    2    1    2    0    0  0.00000000000E+00  0.00000000000E+00 -0.33798720332E+03  0.29203374731E+04  0.29007129481E+04 0.  0.
        4    1    3    3  502    0  0.47255720661E+03 -0.97970411139E+03  0.79687272269E+03  0.13483835539E+04  0.12699999809E+01 0.  1.
       -4    1    3    3    0  502 -0.47255720661E+03  0.97970411139E+03 -0.11348599260E+04  0.15719539192E+04  0.12699999809E+01 0. -1.
</event>
<event>
 5   0  0.9395744E-08  0.2899123E+04  0.7818609E-02  0.8273138E-01
       -1   -1    0    0    0  501  0.00000000000E+00  0.00000000000E+00  0.13306677916E+04  0.13306677916E+04  0.50400001928E-02 0.  1.
        1   -1    0    0  501    0  0.00000000000E+00  0.00000000000E+00 -0.15790786874E+04  0.15790786874E+04  0.50400001928E-02 0. -1.
    10030    2    1    2    0    0  0.00000000000E+00  0.00000000000E+00 -0.24841089584E+03  0.29097464790E+04  0.28991234190E+04 0.  0.
        2    1    3    3  502    0  0.62152283480E+03  0.33945281385E+03 -0.13936365015E+04  0.15632471159E+04  0.25500000920E-02 0. -1.
       -2    1    3    3    0  502 -0.62152283480E+03 -0.33945281385E+03  0.11452256057E+04  0.13464993631E+04  0.25500000920E-02 0.  1.
</event>
<event>
 5   0  0.9395744E-08  0.2900445E+04  0.7818609E-02  0.8272745E-01
       -1   -1    0    0    0  501  0.00000000000E+00  0.00000000000E+00  0.10623552896E+04  0.10623552897E+04  0.50400001928E-02 0.  1.
        1   -1    0    0  501    0  0.00000000000E+00  0.00000000000E+00 -0.19797002208E+04  0.19797002208E+04  0.50400001928E-02 0. -1.
    10030    2    1    2    0    0  0.00000000000E+00  0.00000000000E+00 -0.91734493113E+03  0.30420555104E+04  0.29004447945E+04 0.  0.
        2    1    3    3  502    0  0.22233532006E+03  0.74500060618E+03  0.82530638773E+03  0.11338384062E+04  0.25500000920E-02 0.  1.
       -2    1    3    3    0  502 -0.22233532006E+03 -0.74500060618E+03 -0.17426513189E+04  0.19082171042E+04  0.25500000920E-02 0. -1.
</event>
<event>
 5   0  0.2678723E-07  0.2900571E+04  0.7818609E-02  0.8272708E-01
        2   -1    0    0  501    0  0.00000000000E+00  0.00000000000E+00  0.16658602739E+04  0.16658602739E+04  0.25500000920E-02 0.  1.
       -2   -1    0    0    0  501  0.00000000000E+00  0.00000000000E+00 -0.12626077394E+04  0.12626077394E+04  0.25500000920E-02 0. -1.
    10030    2    1    2    0    0  0.00000000000E+00  0.00000000000E+00  0.40325253457E+03  0.29284680133E+04  0.29005710297E+04 0.  0.
        5    1    3    3  502    0 -0.77427729029E+03  0.56118483521E+03  0.13024672099E+04  0.16158207401E+04  0.46999998093E+01 0.  1.
       -5    1    3    3    0  502  0.77427729029E+03 -0.56118483521E+03 -0.89921467529E+03  0.13126472732E+04  0.46999998093E+01 0. -1.
</event>
<event>
 5   0  0.2534588E-07  0.2894189E+04  0.7818609E-02  0.8274609E-01
       -2   -1    0    0    0  501  0.00000000000E+00  0.00000000000E+00  0.97215855256E+03  0.97215855256E+03  0.25500000920E-02 0.  1.
        2   -1    0    0  501    0  0.00000000000E+00  0.00000000000E+00 -0.21540544278E+04  0.21540544278E+04  0.25500000920E-02 0. -1.
    10030    2    1    2    0    0  0.00000000000E+00  0.00000000000E+00 -0.11818958752E+04  0.31262129804E+04  0.28941889604E+04 0.  0.
        3    1    3    3  502    0  0.20068301081E+02 -0.96713399673E+02 -0.21504089581E+04  0.21526762218E+04  0.10100000352E+00 0. -1.
       -3    1    3    3    0  502 -0.20068301081E+02  0.96713399673E+02  0.96851308289E+03  0.97353675859E+03  0.10100000352E+00 0.  1.
</event>
<event>
 5   0  0.9395744E-08  0.2900270E+04  0.7818609E-02  0.8272797E-01
        1   -1    0    0  501    0  0.00000000000E+00  0.00000000000E+00  0.21004538768E+04  0.21004538768E+04  0.50400001928E-02 0. -1.
       -1   -1    0    0    0  501  0.00000000000E+00  0.00000000000E+00 -0.10011602283E+04  0.10011602283E+04  0.50400001928E-02 0.  1.
    10030    2    1    2    0    0  0.00000000000E+00  0.00000000000E+00  0.10992936484E+04  0.31016141051E+04  0.29002695619E+04 0.  0.
        2    1    3    3  502    0 -0.77386109300E+03 -0.35876019702E+03  0.18038024698E+04  0.19953128127E+04  0.25500000920E-02 0. -1.
       -2    1    3    3    0  502  0.77386109300E+03  0.35876019702E+03 -0.70450882139E+03  0.11063012924E+04  0.25500000920E-02 0.  1.
</event>
<event>
 5   0  0.2492232E-07  0.2892966E+04  0.7818609E-02  0.8274973E-01
        2   -1    0    0  501    0  0.00000000000E+00  0.00000000000E+00  0.15256704594E+04  0.15256704594E+04  0.25500000920E-02 0.  1.
       -2   -1    0    0    0  501  0.00000000000E+00  0.00000000000E+00 -0.13714057351E+04  0.13714057351E+04  0.25500000920E-02 0. -1.
    10030    2    1    2    0    0  0.00000000000E+00  0.00000000000E+00  0.15426472428E+03  0.28970761944E+04  0.28929661027E+04 0.  0.
        4    1    3    3  502    0  0.12528584972E+04 -0.10344505651E+03 -0.63939540190E+03  0.14103841273E+04  0.12699999809E+01 0. -1.
       -4    1    3    3    0  502 -0.12528584972E+04  0.10344505651E+03  0.79366012618E+03  0.14866920671E+04  0.12699999809E+01 0.  1.
</event>
<event>
 5   0  0.9443352E-08  0.2897673E+04  0.7818609E-02  0.8273570E-01
       -1   -1    0    0    0  501  0.00000000000E+00  0.00000000000E+00  0.10481027536E+04  0.10481027536E+04  0.50400001928E-02 0.  1.
        1   -1    0    0  501    0  0.00000000000E+00  0.00000000000E+00 -0.20027871559E+04  0.20027871559E+04  0.50400001928E-02 0. -1.
    10030    2    1    2    0    0  0.00000000000E+00  0.00000000000E+00 -0.95468440227E+03  0.30508899095E+04  0.28976726751E+04 0.  0.
        4    1    3    3  502    0  0.55873248509E+03  0.96445326561E+03 -0.14519056168E+04  0.18304053170E+04  0.12699999809E+01 0. -1.
       -4    1    3    3    0  502 -0.55873248509E+03 -0.96445326561E+03  0.49722121457E+03  0.12204845925E+04  0.12699999809E+01 0.  1.
</event>
<event>
 5   0  0.9763851E-08  0.2900715E+04  0.7818609E-02  0.8272665E-01
       -1   -1    0    0    0  501  0.00000000000E+00  0.00000000000E+00  0.15311827762E+04  0.15311827762E+04  0.50400001928E-02 0.  1.
        1   -1    0    0  501    0  0.00000000000E+00  0.00000000000E+00 -0.13737990629E+04  0.13737990629E+04  0.50400001928E-02 0. -1.
    10030    2    1    2    0    0  0.00000000000E+00  0.00000000000E+00  0.15738371330E+03  0.29049818391E+04  0.29007154036E+04 0.  0.
        3    1    3    3  502    0 -0.88058385906E+03 -0.11163195605E+04 -0.20798108426E+03  0.14369597891E+04  0.10100000352E+00 0. -1.
       -3    1    3    3    0  502  0.88058385906E+03  0.11163195605E+04  0.36536479757E+03  0.14680220500E+04  0.10100000352E+00 0.  1.
</event>
<event>
 5   0  0.2546841E-07  0.2900160E+04  0.7818609E-02  0.8272830E-01
       -2   -1    0    0    0  501  0.00000000000E+00  0.00000000000E+00  0.18135547796E+04  0.18135547796E+04  0.25500000920E-02 0.  1.
        2   -1    0    0  501    0  0.00000000000E+00  0.00000000000E+00 -0.11594533153E+04  0.11594533153E+04  0.25500000920E-02 0. -1.
    10030    2    1    2    0    0  0.00000000000E+00  0.00000000000E+00  0.65410146423E+03  0.29730080949E+04  0.29001600657E+04 0.  0.
        1    1    3    3  502    0  0.50575634049E+03  0.88408858809E+03  0.13851251177E+04  0.17192945353E+04  0.50400001928E-02 0.  1.
       -1    1    3    3    0  502 -0.50575634049E+03 -0.88408858809E+03 -0.73102365345E+03  0.12537135596E+04  0.50400001928E-02 0. -1.
</event>
<event>
 5   0  0.9395744E-08  0.2899972E+04  0.7818609E-02  0.8272886E-01
       -1   -1    0    0    0  501  0.00000000000E+00  0.00000000000E+00  0.10341644175E+04  0.10341644175E+04  0.50400001928E-02 0.  1.
        1   -1    0    0  501    0  0.00000000000E+00  0.00000000000E+00 -0.20330033265E+04  0.20330033265E+04  0.50400001928E-02 0. -1.
    10030    2    1    2    0    0  0.00000000000E+00  0.00000000000E+00 -0.99883890893E+03  0.30671677440E+04  0.28999722074E+04 0.  0.
        2    1    3    3  502    0 -0.15900499264E+03  0.14412240534E+04 -0.50692367747E+03  0.15360276607E+04  0.25500000920E-02 0. -1.
       -2    1    3    3    0  502  0.15900499264E+03 -0.14412240534E+04 -0.49191523146E+03  0.15311400833E+04  0.25500000920E-02 0.  1.
</event>
<event>
 5   0  0.2546841E-07  0.2916563E+04  0.7818609E-02  0.8267966E-01
        2   -1    0    0  501    0  0.00000000000E+00  0.00000000000E+00  0.15651007242E+04  0.15651007242E+04  0.25500000920E-02 0. -1.
       -2   -1    0    0    0  501  0.00000000000E+00  0.00000000000E+00 -0.13587529537E+04  0.13587529537E+04  0.25500000920E-02 0.  1.
    10030    2    1    2    0    0  0.00000000000E+00  0.00000000000E+00  0.20634777054E+03  0.29238536779E+04  0.29165632047E+04 0.  0.
        1    1    3    3  502    0 -0.41353811876E+03 -0.63630718463E+03  0.13515515289E+04  0.15500297237E+04  0.50400001928E-02 0. -1.
       -1    1    3    3    0  502  0.41353811876E+03  0.63630718463E+03 -0.11452037584E+04  0.13738239542E+04  0.50400001928E-02 0.  1.
</event>
<event>
 5   0  0.2534588E-07  0.2900268E+04  0.7818609E-02  0.8272798E-01
        2   -1    0    0  501    0  0.00000000000E+00  0.00000000000E+00  0.10111201328E+04  0.10111201329E+04  0.25500000920E-02 0. -1.
       -2   -1    0    0    0  501  0.00000000000E+00  0.00000000000E+00 -0.20797614348E+04  0.20797614348E+04  0.25500000920E-02 0.  1.
    10030    2    1    2    0    0  0.00000000000E+00  0.00000000000E+00 -0.10686413019E+04  0.30908815676E+04  0.29002680278E+04 0.  0.
        3    1    3    3  502    0  0.34015384422E+03 -0.10358228615E+04 -0.15533293796E+04  0.18977528316E+04  0.10100000352E+00 0.  1.
       -3    1    3    3    0  502 -0.34015384422E+03  0.10358228615E+04  0.48468807763E+03  0.11931287361E+04  0.10100000352E+00 0. -1.
</event>
<event>
 5   0  0.9421924E-08  0.2900076E+04  0.7818609E-02  0.8272855E-01
       -1   -1    0    0    0  501  0.00000000000E+00  0.00000000000E+00  0.11269394800E+04  0.11269394800E+04  0.50400001928E-02 0. -1.
        1   -1    0    0  501    0  0.00000000000E+00  0.00000000000E+00 -0.18657698594E+04  0.18657698594E+04  0.50400001928E-02 0.  1.
    10030    2    1    2    0    0  0.00000000000E+00  0.00000000000E+00 -0.73883037933E+03  0.29927093394E+04  0.29000756646E+04 0.  0.
        1    1    3    3  502    0 -0.14396086792E+04 -0.20308495410E+02 -0.19150132555E+03  0.14524318717E+04  0.50400001928E-02 0. -1.
       -1    1    3    3    0  502  0.14396086792E+04  0.20308495410E+02 -0.54732905379E+03  0.15402774677E+04  0.50400001928E-02 0.  1.
</event>
<event>
 5   0  0.9421924E-08  0.2899045E+04  0.7818609E-02  0.8273162E-01
       -1   -1    0    0    0  501  0.00000000000E+00  0.00000000000E+00  0.89889731406E+03  0.89889731407E+03  0.50400001928E-02 0. -1.
        1   -1    0    0  501    0  0.00000000000E+00  0.00000000000E+00 -0.23374359602E+04  0.23374359602E+04  0.50400001928E-02 0.  1.
    10030    2    1    2    0    0  0.00000000000E+00  0.00000000000E+00 -0.14385386462E+04  0.32363332743E+04  0.28990446057E+04 0.  0.
        1    1    3    3  502    0 -0.70597636932E+03 -0.40339536108E+03 -0.20588758126E+04  0.22136169639E+04  0.50400001928E-02 0.  1.
       -1    1    3    3    0  502  0.70597636932E+03  0.40339536108E+03  0.62033716643E+03  0.10227163104E+04  0.50400001928E-02 0. -1.
</event>
<event>
 5   0  0.2546841E-07  0.2899244E+04  0.7818609E-02  0.8273103E-01
       -2   -1    0    0    0  501  0.00000000000E+00  0.00000000000E+00  0.13911128524E+04  0.13911128525E+04  0.25500000920E-02 0. -1.
        2   -1    0    0  501    0  0.00000000000E+00  0.00000000000E+00 -0.15105916533E+04  0.15105916533E+04  0.25500000920E-02 0.  1.
    10030    2    1    2    0    0  0.00000000000E+00  0.00000000000E+00 -0.11947880086E+03  0.29017045058E+04  0.28992436695E+04 0.  0.
        1    1    3    3  502    0  0.83453821750E+03 -0.13227933365E+03  0.11191617416E+04  0.14023105442E+04  0.50400001928E-02 0. -1.
       -1    1    3    3    0  502 -0.83453821750E+03  0.13227933365E+03 -0.12386405424E+04  0.14993939616E+04  0.50400001928E-02 0.  1.
</event>
<event>
 5   0  0.9395744E-08  0.2899814E+04  0.7818609E-02  0.8272933E-01
       -1   -1    0    0    0  501  0.00000000000E+00  0.00000000000E+00  0.11587659204E+04  0.11587659205E+04  0.50400001928E-02 0.  1.
        1   -1    0    0  501    0  0.00000000000E+00  0.00000000000E+00 -0.18141969849E+04  0.18141969849E+04  0.50400001928E-02 0. -1.
    10030    2    1    2    0    0  0.00000000000E+00  0.00000000000E+00 -0.65543106449E+03  0.29729629054E+04  0.28998135382E+04 0.  0.
        2    1    3    3  502    0 -0.39677085498E+03  0.74000780337E+03  0.88413010513E+03  0.12193132096E+04  0.25500000920E-02 0.  1.
       -2    1    3    3    0  502  0.39677085498E+03 -0.74000780337E+03 -0.15395611696E+04  0.17536496957E+04  0.25500000920E-02 0. -1.
</event>
<event>
 5   0  0.9421924E-08  0.2901009E+04  0.7818609E-02  0.8272577E-01
       -1   -1    0    0    0  501  0.00000000000E+00  0.00000000000E+00  0.12812210349E+04  0.12812210349E+04  0.50400001928E-02 0. -1.
        1   -1    0    0  501    0  0.00000000000E+00  0.00000000000E+00 -0.16421544231E+04  0.16421544231E+04  0.50400001928E-02 0.  1.
    10030    2    1    2    0    0  0.00000000000E+00  0.00000000000E+00 -0.36093338820E+03  0.29233754581E+04  0.29010086449E+04 0.  0.
        1    1    3    3  502    0  0.13923818027E+04  0.38530204456E+03 -0.31099544420E+03  0.14778034092E+04  0.50400001928E-02 0.  1.
       -1    1    3    3    0  502 -0.13923818027E+04 -0.38530204456E+03 -0.49937944003E+02  0.14455720488E+04  0.50400001928E-02 0. -1.
</event>
<event>
 5   0  0.2534588E-07  0.2901795E+04  0.7818609E-02  0.8272344E-01
        2   -1    0    0  501    0  0.00000000000E+00  0.00000000000E+00  0.16010170959E+04  0.16010170959E+04  0.25500000920E-02 0.  1.
       -2   -1    0    0    0  501  0.00000000000E+00  0.00000000000E+00 -0.13148540080E+04  0.13148540080E+04  0.25500000920E-02 0. -1.
    10030    2    1    2    0    0  0.00000000000E+00  0.00000000000E+00  0.28616308788E+03  0.29158711040E+04  0.29017951310E+04 0.  0.
        3    1    3    3  502    0  0.14248375128E+04  0.27375031627E+03  0.14468984405E+03  0.14580933903E+04  0.10100000352E+00 0. -1.
       -3    1    3    3    0  502 -0.14248375128E+04 -0.27375031627E+03  0.14147324383E+03  0.14577777137E+04  0.10100000352E+00 0.  1.
</event>
<event>
 5   0  0.9443352E-08  0.2898525E+04  0.7818609E-02  0.8273317E-01
        1   -1    0    0  501    0  0.00000000000E+00  0.00000000000E+00  0.14035639666E+04  0.14035639666E+04  0.50400001928E-02 0.  1.
       -1   -1    0    0    0  501  0.00000000000E+00  0.00000000000E+00 -0.14964486036E+04  0.14964486036E+04  0.50400001928E-02 0. -1.
    10030    2    1    2    0    0  0.00000000000E+00  0.00000000000E+00 -0.92884636996E+02  0.29000125702E+04  0.28985246853E+04 0.  0.
        4    1    3    3  502    0  0.55922118370E+03 -0.82235223838E+03 -0.11011979620E+04  0.14837891025E+04  0.12699999809E+01 0.  1.
       -4    1    3    3    0  502 -0.55922118370E+03  0.82235223838E+03  0.10083133250E+04  0.14162234677E+04  0.12699999809E+01 0. -1.
</event>
<event>
 5   0  0.9421924E-08  0.2907546E+04  0.7818609E-02  0.8270636E-01
       -1   -1    0    0    0  501  0.00000000000E+00  0.00000000000E+00  0.72112309553E+03  0.72112309554E+03  0.50400001928E-02 0. -1.
        1   -1    0    0  501    0  0.00000000000E+00  0.00000000000E+00 -0.29307832267E+04  0.29307832267E+04  0.50400001928E-02 0.  1.
    10030    2    1    2    0    0  0.00000000000E+00  0.00000000000E+00 -0.22096601312E+04  0.36519063222E+04  0.29075456817E+04 0.  0.
        1    1    3    3  502    0  0.13014147315E+04  0.64573528575E+03 -0.10383550927E+04  0.17857311280E+04  0.50400001928E-02 0. -1.
       -1    1    3    3    0  502 -0.13014147315E+04 -0.64573528575E+03 -0.11713050384E+04  0.18661751943E+04  0.50400001928E-02 0.  1.
</event>
<event>
 5   0  0.9421924E-08  0.2899286E+04  0.7818609E-02  0.8273090E-01
        1   -1    0    0  501    0  0.00000000000E+00  0.00000000000E+00  0.18346706141E+04  0.18346706141E+04  0.50400001928E-02 0. -1.
       -1   -1    0    0    0  501  0.00000000000E+00  0.00000000000E+00 -0.11454181483E+04  0.11454181483E+04  0.50400001928E-02 0.  1.
    10030    2    1    2    0    0  0.00000000000E+00  0.00000000000E+00  0.68925246578E+03  0.29800887624E+04  0.28992861311E+04 0.  0.
        1    1    3    3  502    0 -0.12507751704E+04 -0.73161690540E+03  0.30146556027E+03  0.14800619268E+04  0.50400001928E-02 0.  1.
       -1    1    3    3    0  502  0.12507751704E+04  0.73161690540E+03  0.38778690551E+03  0.15000268355E+04  0.50400001928E-02 0. -1.
</event>
<event>
 5   0  0.2608591E-07  0.2897689E+04  0.7818609E-02  0.8273565E-01
        2   -1    0    0  501    0  0.00000000000E+00  0.00000000000E+00  0.16891067679E+04  0.16891067679E+04  0.25500000920E-02 0. -1.
       -2   -1    0    0    0  501  0.00000000000E+00  0.00000000000E+00 -0.12427575563E+04  0.12427575563E+04  0.25500000920E-02 0.  1.
    10030    2    1    2    0    0  0.00000000000E+00  0.00000000000E+00  0.44634921166E+03  0.29318643242E+04  0.28976888716E+04 0.  0.
        2    1    3    3  502    0  0.13095366153E+04 -0.36864716535E+03  0.72741292224E+03  0.15426977795E+04  0.25500000920E-02 0. -1.
       -2    1    3    3    0  502 -0.13095366153E+04  0.36864716535E+03 -0.28106371058E+03  0.13891665447E+04  0.25500000920E-02 0.  1.
</event>
<event>
 5   0  0.2492232E-07  0.2902245E+04  0.7818609E-02  0.8272210E-01
       -2   -1    0    0    0  501  0.00000000000E+00  0.00000000000E+00  0.98852537522E+03  0.98852537523E+03  0.25500000920E-02 0. -1.
        2   -1    0    0  501    0  0.00000000000E+00  0.00000000000E+00 -0.21301996515E+04  0.21301996515E+04  0.25500000920E-02 0.  1.
    10030    2    1    2    0    0  0.00000000000E+00  0.00000000000E+00 -0.11416742763E+04  0.31187250267E+04  0.29022449310E+04 0.  0.
        4    1    3    3  502    0  0.59224650521E+03  0.45096326035E+03  0.76772103311E+03  0.10693554052E+04  0.12699999809E+01 0. -1.
       -4    1    3    3    0  502 -0.59224650521E+03 -0.45096326035E+03 -0.19093953094E+04  0.20493696215E+04  0.12699999809E+01 0.  1.
</event>
<event>
 5   0  0.2534588E-07  0.2900013E+04  0.7818609E-02  0.8272874E-01
       -2   -1    0    0    0  501  0.00000000000E+00  0.00000000000E+00  0.11156901106E+04  0.11156901106E+04  0.25500000920E-02 0.  1.
        2   -1    0    0  501    0  0.00000000000E+00  0.00000000000E+00 -0.18845010601E+04  0.18845010601E+04  0.25500000920E-02 0. -1.
    10030    2    1    2    0    0  0.00000000000E+00  0.00000000000E+00 -0.76881094947E+03  0.30001911707E+04  0.29000132387E+04 0.  0.
        3    1    3    3  502    0 -0.10214841912E+03 -0.16876648600E+03 -0.18705532584E+04  0.18809268803E+04  0.10100000352E+00 0. -1.
       -3    1    3    3    0  502  0.10214841912E+03  0.16876648600E+03  0.11017423089E+04  0.11192642904E+04  0.10100000352E+00 0.  1.
</event>
<event>
 5   0  0.9763851E-08  0.2898709E+04  0.7818609E-02  0.8273262E-01
        1   -1    0    0  501    0  0.00000000000E+00  0.00000000000E+00  0.15989229435E+04  0.15989229435E+04  0.50400001928E-02 0. -1.
       -1   -1    0    0    0  501  0.00000000000E+00  0.00000000000E+00 -0.13137772390E+04  0.13137772390E+04  0.50400001928E-02 0.  1.
    10030    2    1    2    0    0  0.00000000000E+00  0.00000000000E+00  0.28514570447E+03  0.29127001825E+04  0.28987090713E+04 0.  0.
        3    1    3    3  502    0  0.13472127639E+04 -0.36083102072E+03 -0.25359820946E+03  0.14175659839E+04  0.10100000352E+00 0. -1.
       -3    1    3    3    0  502 -0.13472127639E+04  0.36083102072E+03  0.53874391394E+03  0.14951341985E+04  0.10100000352E+00 0.  1.
</event>
<event>
 5   0  0.2678723E-07  0.2901260E+04  0.7818609E-02  0.8272503E-01
       -2   -1    0    0    0  501  0.00000000000E+00  0.00000000000E+00  0.12315430042E+04  0.12315430042E+04  0.25500000920E-02 0. -1.
        2   -1    0    0  501    0  0.00000000000E+00  0.00000000000E+00 -0.17086917270E+04  0.17086917270E+04  0.25500000920E-02 0.  1.
    10030    2    1    2    0    0  0.00000000000E+00  0.00000000000E+00 -0.47714872281E+03  0.29402347312E+04  0.29012599626E+04 0.  0.
        5    1    3    3  502    0 -0.24854585431E+03 -0.12665201349E+04  0.43248175978E+03  0.13612166823E+04  0.46999998093E+01 0. -1.
       -5    1    3    3    0  502  0.24854585431E+03  0.12665201349E+04 -0.90963048259E+03  0.15790180488E+04  0.46999998093E+01 0.  1.
</event>
<event>
 5   0  0.2608591E-07  0.2899002E+04  0.7818609E-02  0.8273174E-01
       -2   -1    0    0    0  501  0.00000000000E+00  0.00000000000E+00  0.20674216531E+04  0.20674216531E+04  0.25500000920E-02 0. -1.
        2   -1    0    0  501    0  0.00000000000E+00  0.00000000000E+00 -0.10162674930E+04  0.10162674930E+04  0.25500000920E-02 0.  1.
    10030    2    1    2    0    0  0.00000000000E+00  0.00000000000E+00  0.10511541601E+04  0.30836891461E+04  0.28990021872E+04 0.  0.
        2    1    3    3  502    0  0.12916981357E+03 -0.97791159346E+03  0.16553409111E+04  0.19269534134E+04  0.25500000920E-02 0. -1.
       -2    1    3    3    0  502 -0.12916981357E+03  0.97791159346E+03 -0.60418675097E+03  0.11567357327E+04  0.25500000920E-02 0.  1.
</event>
<event>
 5   0  0.9763851E-08  0.2899092E+04  0.7818609E-02  0.8273148E-01
        1   -1    0    0  501    0  0.00000000000E+00  0.00000000000E+00  0.13987638290E+04  0.13987638290E+04  0.50400001928E-02 0.  1.
       -1   -1    0    0    0  501  0.00000000000E+00  0.00000000000E+00 -0.15021716457E+04  0.15021716458E+04  0.50400001928E-02 0. -1.
    10030    2    1    2    0    0  0.00000000000E+00  0.00000000000E+00 -0.10340781675E+03  0.29009354748E+04  0.28990918323E+04 0.  0.
        3    1    3    3  502    0  0.61919360403E+03 -0.87063488075E+03  0.92860147466E+03  0.14155234098E+04  0.10100000352E+00 0.  1.
       -3    1    3    3    0  502 -0.61919360403E+03  0.87063488075E+03 -0.10320092914E+04  0.14854120649E+04  0.10100000352E+00 0. -1.
</event>
<event>
 5   0  0.2678723E-07  0.2897816E+04  0.7818609E-02  0.8273527E-01
       -2   -1    0    0    0  501  0.00000000000E+00  0.00000000000E+00  0.17926429960E+04  0.17926429960E+04  0.25500000920E-02 0. -1.
        2   -1    0    0  501    0  0.00000000000E+00  0.00000000000E+00 -0.11710836210E+04  0.11710836210E+04  0.25500000920E-02 0.  1.
    10030    2    1    2    0    0  0.00000000000E+00  0.00000000000E+00  0.62155937500E+03  0.29637266170E+04  0.28978163164E+04 0.  0.
        5    1    3    3  502    0 -0.43773992676E+03 -0.10106017057E+04  0.12736713697E+04  0.16838031058E+04  0.46999998093E+01 0. -1.
       -5    1    3    3    0  502  0.43773992676E+03  0.10106017057E+04 -0.65211199466E+03  0.12799235113E+04  0.46999998093E+01 0.  1.
</event>
<event>
 5   0  0.8407500E-08  0.2899935E+04  0.7818609E-02  0.8272897E-01
        3   -1    0    0  501    0  0.00000000000E+00  0.00000000000E+00  0.14568123978E+04  0.14568124013E+04  0.10100000352E+00 0. -1.
       -3   -1    0    0    0  501  0.00000000000E+00  0.00000000000E+00 -0.14431546048E+04  0.14431546084E+04  0.10100000352E+00 0.  1.
    10030    2    1    2    0    0  0.00000000000E+00  0.00000000000E+00  0.13657792964E+02  0.28999670096E+04  0.28999348478E+04 0.  0.
        3    1    3    3  502    0 -0.55369177989E+03  0.11096635203E+04  0.75815460858E+03  0.14535219765E+04  0.10100000352E+00 0. -1.
       -3    1    3    3    0  502  0.55369177989E+03 -0.11096635203E+04 -0.74449681561E+03  0.14464450332E+04  0.10100000352E+00 0.  1.
</event>
<event>
 5   0  0.2678723E-07  0.2898617E+04  0.7818609E-02  0.8273289E-01
        2   -1    0    0  501    0  0.00000000000E+00  0.00000000000E+00  0.17378148468E+04  0.17378148468E+04  0.25500000920E-02 0.  1.
       -2   -1    0    0    0  501  0.00000000000E+00  0.00000000000E+00 -0.12086993233E+04  0.12086993233E+04  0.25500000920E-02 0. -1.
    10030    2    1    2    0    0  0.00000000000E+00  0.00000000000E+00  0.52911552347E+03  0.29465141701E+04  0.28986173458E+04 0.  0.
        5    1    3    3  502    0  0.68636630336E+03 -0.12722344435E+04  0.15894508527E+03  0.14542918592E+04  0.46999998093E+01 0.  1.
       -5    1    3    3    0  502 -0.68636630336E+03  0.12722344435E+04  0.37017043820E+03  0.14922223108E+04  0.46999998093E+01 0. -1.
</event>
<event>
 5   0  0.2546841E-07  0.2899855E+04  0.7818609E-02  0.8272921E-01
        2   -1    0    0  501    0  0.00000000000E+00  0.00000000000E+00  0.15207663263E+04  0.15207663263E+04  0.25500000920E-02 0. -1.
       -2   -1    0    0    0  501  0.00000000000E+00  0.00000000000E+00 -0.13823883237E+04  0.13823883237E+04  0.25500000920E-02 0.  1.
    10030    2    1    2    0    0  0.00000000000E+00  0.00000000000E+00  0.13837800267E+03  0.29031546500E+04  0.28998549016E+04 0.  0.
        1    1    3    3  502    0 -0.43699953052E+02  0.39248020444E+03  0.14658891193E+04  0.15181506206E+04  0.50400001928E-02 0. -1.
       -1    1    3    3    0  502  0.43699953052E+02 -0.39248020444E+03 -0.13275111166E+04  0.13850040294E+04  0.50400001928E-02 0.  1.
</event>
<event>
 5   0  0.2492232E-07  0.2901979E+04  0.7818609E-02  0.8272289E-01
       -2   -1    0    0    0  501  0.00000000000E+00  0.00000000000E+00  0.11939730153E+04  0.11939730153E+04  0.25500000920E-02 0. -1.
        2   -1    0    0  501    0  0.00000000000E+00  0.00000000000E+00 -0.17633321295E+04  0.17633321295E+04  0.25500000920E-02 0.  1.
    10030    2    1    2    0    0  0.00000000000E+00  0.00000000000E+00 -0.56935911423E+03  0.29573051448E+04  0.29019793105E+04 0.  0.
        4    1    3    3  502    0  0.92783661400E+03 -0.49683111927E+03 -0.13025449989E+04  0.16746184731E+04  0.12699999809E+01 0.  1.
       -4    1    3    3    0  502 -0.92783661400E+03  0.49683111927E+03  0.73318588468E+03  0.12826866717E+04  0.12699999809E+01 0. -1.
</event>
<event>
 5   0  0.9763851E-08  0.2901021E+04  0.7818609E-02  0.8272574E-01
       -1   -1    0    0    0  501  0.00000000000E+00  0.00000000000E+00  0.96495413638E+03  0.96495413639E+03  0.50400001928E-02 0.  1.
        1   -1    0    0  501    0  0.00000000000E+00  0.00000000000E+00 -0.21803947289E+04  0.21803947289E+04  0.50400001928E-02 0. -1.
    10030    2    1    2    0    0  0.00000000000E+00  0.00000000000E+00 -0.12154405925E+04  0.31453488653E+04  0.29010211393E+04 0.  0.
        3    1    3    3  502    0 -0.93736954094E+02 -0.13806527846E+04 -0.13637428177E+03  0.13905346753E+04  0.10100000352E+00 0.  1.
       -3    1    3    3    0  502  0.93736954094E+02  0.13806527846E+04 -0.10790663108E+04  0.17548141900E+04  0.10100000352E+00 0. -1.
</event>
<event>
 5   0  0.9443352E-08  0.2899516E+04  0.7818609E-02  0.8273021E-01
       -1   -1    0    0    0  501  0.00000000000E+00  0.00000000000E+00  0.13049362723E+04  0.13049362723E+04  0.50400001928E-02 0. -1.
        1   -1    0    0  501    0  0.00000000000E+00  0.00000000000E+00 -0.16106523629E+04  0.16106523629E+04  0.50400001928E-02 0.  1.
    10030    2    1    2    0    0  0.00000000000E+00  0.00000000000E+00 -0.30571609062E+03  0.29155886351E+04  0.28995162978E+04 0.  0.
        4    1    3    3  502    0 -0.11242194196E+04  0.21941756300E+03 -0.10464819537E+04  0.15514958791E+04  0.12699999809E+01 0.  1.
       -4    1    3    3    0  502  0.11242194196E+04 -0.21941756300E+03  0.74076586307E+03  0.13640927561E+04  0.12699999809E+01 0. -1.
</event>
<event>
 5   0  0.2546841E-07  0.2900003E+04  0.7818609E-02  0.8272877E-01
        2   -1    0    0  501    0  0.00000000000E+00  0.00000000000E+00  0.20240287033E+04  0.20240287033E+04  0.25500000920E-02 0.  1.
       -2   -1    0    0    0  501  0.00000000000E+00  0.00000000000E+00 -0.10387718586E+04  0.10387718586E+04  0.25500000920E-02 0. -1.
    10030    2    1    2    0    0  0.00000000000E+00  0.00000000000E+00  0.98525684478E+03  0.30628005619E+04  0.29000027986E+04 0.  0.
        1    1    3    3  502    0 -0.56087238109E+03  0.10158350620E+04 -0.42566767261E+03  0.12359982478E+04  0.50400001928E-02 0. -1.
       -1    1    3    3    0  502  0.56087238109E+03 -0.10158350620E+04  0.14109245174E+04  0.18268023141E+04  0.50400001928E-02 0.  1.
</event>
<event>
 5   0  0.9421924E-08  0.2900678E+04  0.7818609E-02  0.8272676E-01
       -1   -1    0    0    0  501  0.00000000000E+00  0.00000000000E+00  0.11693704741E+04  0.11693704741E+04  0.50400001928E-02 0.  1.
        1   -1    0    0  501    0  0.00000000000E+00  0.00000000000E+00 -0.17988166035E+04  0.17988166035E+04  0.50400001928E-02 0. -1.
    10030    2    1    2    0    0  0.00000000000E+00  0.00000000000E+00 -0.62944612939E+03  0.29681870776E+04  0.29006778687E+04 0.  0.
        1    1    3    3  502    0 -0.62916725654E+03  0.14370181986E+03 -0.16437901797E+04  0.17659410536E+04  0.50400001928E-02 0. -1.
       -1    1    3    3    0  502  0.62916725654E+03 -0.14370181986E+03  0.10143440503E+04  0.12022460240E+04  0.50400001928E-02 0.  1.
</event>
<event>
 5   0  0.2492232E-07  0.2900285E+04  0.7818609E-02  0.8272793E-01
        2   -1    0    0  501    0  0.00000000000E+00  0.00000000000E+00  0.14410903243E+04  0.14410903243E+04  0.25500000920E-02 0.  1.
       -2   -1    0    0    0  501  0.00000000000E+00  0.00000000000E+00 -0.14592511845E+04  0.14592511845E+04  0.25500000920E-02 0. -1.
    10030    2    1    2    0    0  0.00000000000E+00  0.00000000000E+00 -0.18160860193E+02  0.29003415088E+04  0.29002846499E+04 0.  0.
        4    1    3    3  502    0  0.10608484391E+04 -0.17352557718E+03 -0.98244457580E+03  0.14562655988E+04  0.12699999809E+01 0. -1.
       -4    1    3    3    0  502 -0.10608484391E+04  0.17352557718E+03  0.96428371561E+03  0.14440759100E+04  0.12699999809E+01 0.  1.
</event>
<event>
 5   0  0.2678723E-07  0.2900123E+04  0.7818609E-02  0.8272841E-01
        2   -1    0    0  501    0  0.00000000000E+00  0.00000000000E+00  0.92666867485E+03  0.92666867486E+03  0.25500000920E-02 0.  1.
       -2   -1    0    0    0  501  0.00000000000E+00  0.00000000000E+00 -0.22690730255E+04  0.22690730255E+04  0.25500000920E-02 0. -1.
    10030    2    1    2    0    0  0.00000000000E+00  0.00000000000E+00 -0.13424043506E+04  0.31957417004E+04  0.29001233723E+04 0.  0.
        5    1    3    3  502    0 -0.61134124546E+02 -0.85429729307E+03  0.61815154280E+03  0.10562644868E+04  0.46999998093E+01 0.  1.
       -5    1    3    3    0  502  0.61134124546E+02  0.85429729307E+03 -0.19605558935E+04  0.21394772136E+04  0.46999998093E+01 0. -1.
</event>
<event>
 5   0  0.2678723E-07  0.2899687E+04  0.7818609E-02  0.8272971E-01
       -2   -1    0    0    0  501  0.00000000000E+00  0.00000000000E+00  0.10398457774E+04  0.10398457774E+04  0.25500000920E-02 0. -1.
        2   -1    0    0  501    0  0.00000000000E+00  0.00000000000E+00 -0.20214977705E+04  0.20214977705E+04  0.25500000920E-02 0.  1.
    10030    2    1    2    0    0  0.00000000000E+00  0.00000000000E+00 -0.98165199308E+03  0.30613435479E+04  0.28996868249E+04 0.  0.
        5    1    3    3  502    0 -0.27588916362E+03 -0.86147158111E+03 -0.16870308277E+04  0.19142474290E+04  0.46999998093E+01 0.  1.
       -5    1    3    3    0  502  0.27588916362E+03  0.86147158111E+03  0.70537883466E+03  0.11470961189E+04  0.46999998093E+01 0. -1.
</event>
<event>
 5   0  0.9443352E-08  0.2900312E+04  0.7818609E-02  0.8272785E-01
        1   -1    0    0  501    0  0.00000000000E+00  0.00000000000E+00  0.73925367776E+03  0.73925367777E+03  0.50400001928E-02 0.  1.
       -1   -1    0    0    0  501  0.00000000000E+00  0.00000000000E+00 -0.28446965912E+04  0.28446965912E+04  0.50400001928E-02 0. -1.
    10030    2    1    2    0    0  0.00000000000E+00  0.00000000000E+00 -0.21054429135E+04  0.35839502690E+04  0.29003119951E+04 0.  0.
        4    1    3    3  502    0  0.16758892900E+03  0.12365279408E+04 -0.13974569722E+03  0.12556344493E+04  0.12699999809E+01 0.  1.
       -4    1    3    3    0  502 -0.16758892900E+03 -0.12365279408E+04 -0.19656972162E+04  0.23283158197E+04  0.12699999809E+01 0. -1.
</event>
<event>
 5   0  0.9443352E-08  0.2898772E+04  0.7818609E-02  0.8273243E-01
        1   -1    0    0  501    0  0.00000000000E+00  0.00000000000E+00  0.26485527422E+04  0.26485527422E+04  0.50400001928E-02 0. -1.
       -1   -1    0    0    0  501  0.00000000000E+00  0.00000000000E+00 -0.79315745517E+03  0.79315745518E+03  0.50400001928E-02 0.  1.
    10030    2    1    2    0    0  0.00000000000E+00  0.00000000000E+00  0.18553952871E+04  0.34417101974E+04  0.28987717074E+04 0.  0.
        4    1    3    3  502    0  0.66790958721E+03 -0.38681629881E+03  0.23842522006E+04  0.25060706763E+04  0.12699999809E+01 0. -1.
       -4    1    3    3    0  502 -0.66790958721E+03  0.38681629881E+03 -0.52885691348E+03  0.93563952116E+03  0.12699999809E+01 0.  1.
</event>
<event>
 5   0  0.9421924E-08  0.2900384E+04  0.7818609E-02  0.8272763E-01
       -1   -1    0    0    0  501  0.00000000000E+00  0.00000000000E+00  0.18622800325E+04  0.18622800325E+04  0.50400001928E-02 0.  1.
        1   -1    0    0  501    0  0.00000000000E+00  0.00000000000E+00 -0.11292914674E+04  0.11292914674E+04  0.50400001928E-02 0. -1.
    10030    2    1    2    0    0  0.00000000000E+00  0.00000000000E+00  0.73298856514E+03  0.29915714999E+04  0.29003840784E+04 0.  0.
        1    1    3    3  502    0 -0.88079203302E+03 -0.47790881837E+03  0.14477194478E+04  0.17607052688E+04  0.50400001928E-02 0.  1.
       -1    1    3    3    0  502  0.88079203302E+03  0.47790881837E+03 -0.71473088266E+03  0.12308662311E+04  0.50400001928E-02 0. -1.
</event>
<event>
 5   0  0.2678723E-07  0.2898781E+04  0.7818609E-02  0.8273240E-01
       -2   -1    0    0    0  501  0.00000000000E+00  0.00000000000E+00  0.83404745992E+03  0.83404745992E+03  0.25500000920E-02 0. -1.
        2   -1    0    0  501    0  0.00000000000E+00  0.00000000000E+00 -0.25187207526E+04  0.25187207526E+04  0.25500000920E-02 0.  1.
    10030    2    1    2    0    0  0.00000000000E+00  0.00000000000E+00 -0.16846732927E+04  0.33527682125E+04  0.28987808789E+04 0.  0.
        5    1    3    3  502    0 -0.10892352754E+03  0.14263788254E+03 -0.25058104799E+04  0.25122336977E+04  0.46999998093E+01 0.  1.
       -5    1    3    3    0  502  0.10892352754E+03 -0.14263788254E+03  0.82113718725E+03  0.84053451486E+03  0.46999998093E+01 0. -1.
</event>
<event>
 5   0  0.2492232E-07  0.2899368E+04  0.7818609E-02  0.8273065E-01
        2   -1    0    0  501    0  0.00000000000E+00  0.00000000000E+00  0.18262637476E+04  0.18262637476E+04  0.25500000920E-02 0.  1.
       -2   -1    0    0    0  501  0.00000000000E+00  0.00000000000E+00 -0.11507562125E+04  0.11507562126E+04  0.25500000920E-02 0. -1.
    10030    2    1    2    0    0  0.00000000000E+00  0.00000000000E+00  0.67550753502E+03  0.29770199601E+04  0.28993684507E+04 0.  0.
        4    1    3    3  502    0 -0.23753598065E+03  0.12465422471E+04  0.10574481390E+04  0.16518138804E+04  0.12699999809E+01 0.  1.
       -4    1    3    3    0  502  0.23753598065E+03 -0.12465422471E+04 -0.38194060397E+03  0.13252060797E+04  0.12699999809E+01 0. -1.
</event>
<event>
 5   0  0.2546841E-07  0.2900521E+04  0.7818609E-02  0.8272722E-01
        2   -1    0    0  501    0  0.00000000000E+00  0.00000000000E+00  0.20914189448E+04  0.20914189448E+04  0.25500000920E-02 0.  1.
       -2   -1    0    0    0  501  0.00000000000E+00  0.00000000000E+00 -0.10056598896E+04  0.10056598896E+04  0.25500000920E-02 0. -1.
    10030    2    1    2    0    0  0.00000000000E+00  0.00000000000E+00  0.10857590552E+04  0.30970788344E+04  0.29005214326E+04 0.  0.
        1    1    3    3  502    0 -0.59410793770E+03  0.95785894775E+03 -0.43154017002E+03  0.12069320295E+04  0.50400001928E-02 0. -1.
       -1    1    3    3    0  502  0.59410793770E+03 -0.95785894775E+03  0.15172992252E+04  0.18901468050E+04  0.50400001928E-02 0.  1.
</event>
<event>
 5   0  0.2546841E-07  0.2886010E+04  0.7818609E-02  0.8277052E-01
       -2   -1    0    0    0  501  0.00000000000E+00  0.00000000000E+00  0.14334409205E+04  0.14334409205E+04  0.25500000920E-02 0.  1.
        2   -1    0    0  501    0  0.00000000000E+00  0.00000000000E+00 -0.14526325143E+04  0.14526325143E+04  0.25500000920E-02 0. -1.
    10030    2    1    2    0    0  0.00000000000E+00  0.00000000000E+00 -0.19191593780E+02  0.28860734348E+04  0.28860096247E+04 0.  0.
        1    1    3    3  502    0  0.24025881488E+03 -0.10279149695E+04  0.97425998950E+03  0.14364943473E+04  0.50400001928E-02 0.  1.
       -1    1    3    3    0  502 -0.24025881488E+03  0.10279149695E+04 -0.99345158328E+03  0.14495790875E+04  0.50400001928E-02 0. -1.
</event>
<event>
 5   0  0.9395744E-08  0.2899407E+04  0.7818609E-02  0.8273054E-01
        1   -1    0    0  501    0  0.00000000000E+00  0.00000000000E+00  0.88122220129E+03  0.88122220130E+03  0.50400001928E-02 0. -1.
       -1   -1    0    0    0  501  0.00000000000E+00  0.00000000000E+00 -0.23849144621E+04  0.23849144621E+04  0.50400001928E-02 0.  1.
    10030    2    1    2    0    0  0.00000000000E+00  0.00000000000E+00 -0.15036922608E+04  0.32661366634E+04  0.28994065408E+04 0.  0.
        2    1    3    3  502    0 -0.13537513616E+04  0.25479327325E+03 -0.24295779789E+03  0.13987819175E+04  0.25500000920E-02 0. -1.
       -2    1    3    3    0  502  0.13537513616E+04 -0.25479327325E+03 -0.12607344629E+04  0.18673547459E+04  0.25500000920E-02 0.  1.
</event>
<event>
 5   0  0.9388076E-08  0.2902441E+04  0.7818609E-02  0.8272152E-01
        1   -1    0    0  501    0  0.00000000000E+00  0.00000000000E+00  0.25425336119E+04  0.25425336119E+04  0.50400001928E-02 0. -1.
       -1   -1    0    0    0  501  0.00000000000E+00  0.00000000000E+00 -0.82832349593E+03  0.82832349595E+03  0.50400001928E-02 0.  1.
    10030    2    1    2    0    0  0.00000000000E+00  0.00000000000E+00  0.17142101160E+04  0.33708571079E+04  0.29024405799E+04 0.  0.
        5    1    3    3  502    0 -0.32431387412E+03 -0.78394148836E+03 -0.51031397936E+03  0.99004353119E+03  0.46999998093E+01 0.  1.
       -5    1    3    3    0  502  0.32431387412E+03  0.78394148836E+03  0.22245240954E+04  0.23808135767E+04  0.46999998093E+01 0. -1.
</event>
<event>
 5   0  0.2678723E-07  0.2897314E+04  0.7818609E-02  0.8273677E-01
        2   -1    0    0  501    0  0.00000000000E+00  0.00000000000E+00  0.12521644319E+04  0.12521644319E+04  0.25500000920E-02 0. -1.
       -2   -1    0    0    0  501  0.00000000000E+00  0.00000000000E+00 -0.16759837529E+04  0.16759837529E+04  0.25500000920E-02 0.  1.
    10030    2    1    2    0    0  0.00000000000E+00  0.00000000000E+00 -0.42381932107E+03  0.29281481848E+04  0.28973140968E+04 0.  0.
        5    1    3    3  502    0  0.57603757344E+03  0.10653611307E+04 -0.10152091612E+04  0.15803434297E+04  0.46999998093E+01 0.  1.
       -5    1    3    3    0  502 -0.57603757344E+03 -0.10653611307E+04  0.59138984011E+03  0.13478047551E+04  0.46999998093E+01 0. -1.
</event>
<event>
 5   0  0.9443352E-08  0.2902007E+04  0.7818609E-02  0.8272281E-01
        1   -1    0    0  501    0  0.00000000000E+00  0.00000000000E+00  0.18263244538E+04  0.18263244538E+04  0.50400001928E-02 0. -1.
       -1   -1    0    0    0  501  0.00000000000E+00  0.00000000000E+00 -0.11528133904E+04  0.11528133904E+04  0.50400001928E-02 0.  1.
    10030    2    1    2    0    0  0.00000000000E+00  0.00000000000E+00  0.67351106338E+03  0.29791378442E+04  0.29020070886E+04 0.  0.
        4    1    3    3  502    0  0.24757715589E+03  0.67580160459E+03  0.16301658817E+04  0.17819777416E+04  0.12699999809E+01 0. -1.
       -4    1    3    3    0  502 -0.24757715589E+03 -0.67580160459E+03 -0.95665481834E+03  0.11971601026E+04  0.12699999809E+01 0.  1.
</event>
<event>
 5   0  0.2608591E-07  0.2899778E+04  0.7818609E-02  0.8272944E-01
       -2   -1    0    0    0  501  0.00000000000E+00  0.00000000000E+00  0.15601051071E+04  0.15601051071E+04  0.25500000920E-02 0.  1.
        2   -1    0    0  501    0  0.00000000000E+00  0.00000000000E+00 -0.13474590936E+04  0.13474590936E+04  0.25500000920E-02 0. -1.
    10030    2    1    2    0    0  0.00000000000E+00  0.00000000000E+00  0.21264601355E+03  0.29075642007E+04  0.28997777939E+04 0.  0.
        2    1    3    3  502    0  0.42408210474E+03  0.46536924272E+03  0.14158788443E+04  0.15495570546E+04  0.25500000920E-02 0.  1.
       -2    1    3    3    0  502 -0.42408210474E+03 -0.46536924272E+03 -0.12032328308E+04  0.13580071461E+04  0.25500000920E-02 0. -1.
</event>
<event>
 5   0  0.9421924E-08  0.2900088E+04  0.7818609E-02  0.8272851E-01
        1   -1    0    0  501    0  0.00000000000E+00  0.00000000000E+00  0.62531924567E+03  0.62531924569E+03  0.50400001928E-02 0.  1.
       -1   -1    0    0    0  501  0.00000000000E+00  0.00000000000E+00 -0.33624868722E+04  0.33624868722E+04  0.50400001928E-02 0. -1.
    10030    2    1    2    0    0  0.00000000000E+00  0.00000000000E+00 -0.27371676266E+04  0.39878061179E+04  0.29000881053E+04 0.  0.
        1    1    3    3  502    0 -0.12569467632E+04  0.25480937794E+03 -0.43821849360E+03  0.13553148833E+04  0.50400001928E-02 0. -1.
       -1    1    3    3    0  502  0.12569467632E+04 -0.25480937794E+03 -0.22989491330E+04  0.26324912347E+04  0.50400001928E-02 0.  1.
</event>
<event>
 5   0  0.2534588E-07  0.2898207E+04  0.7818609E-02  0.8273411E-01
        2   -1    0    0  501    0  0.00000000000E+00  0.00000000000E+00  0.16034985333E+04  0.16034985333E+04  0.25500000920E-02 0.  1.
       -2   -1    0    0    0  501  0.00000000000E+00  0.00000000000E+00 -0.13095747972E+04  0.13095747972E+04  0.25500000920E-02 0. -1.
    10030    2    1    2    0    0  0.00000000000E+00  0.00000000000E+00  0.29392373610E+03  0.29130733305E+04  0.28982072159E+04 0.  0.
        3    1    3    3  502    0 -0.16764658119E+02  0.92576389495E+02  0.16004255129E+04  0.16031884712E+04  0.10100000352E+00 0.  1.
       -3    1    3    3    0  502  0.16764658119E+02 -0.92576389495E+02 -0.13065017768E+04  0.13098848593E+04  0.10100000352E+00 0. -1.
</event>
<event>
 5   0  0.2678723E-07  0.2903172E+04  0.7818609E-02  0.8271934E-01
       -2   -1    0    0    0  501  0.00000000000E+00  0.00000000000E+00  0.14120303245E+04  0.14120303245E+04  0.25500000920E-02 0. -1.
        2   -1    0    0  501    0  0.00000000000E+00  0.00000000000E+00 -0.14922494174E+04  0.14922494174E+04  0.25500000920E-02 0.  1.
    10030    2    1    2    0    0  0.00000000000E+00  0.00000000000E+00 -0.80219092964E+02  0.29042797419E+04  0.29031716650E+04 0.  0.
        5    1    3    3  502    0 -0.12074045834E+04 -0.15793813174E+03 -0.83054342655E+03  0.14739724403E+04  0.46999998093E+01 0.  1.
       -5    1    3    3    0  502  0.12074045834E+04  0.15793813174E+03  0.75032433358E+03  0.14303073016E+04  0.46999998093E+01 0. -1.
</event>
<event>
 5   0  0.9421924E-08  0.2897925E+04  0.7818609E-02  0.8273495E-01
        1   -1    0    0  501    0  0.00000000000E+00  0.00000000000E+00  0.23583194995E+04  0.23583194995E+04  0.50400001928E-02 0.  1.
       -1   -1    0    0    0  501  0.00000000000E+00  0.00000000000E+00 -0.89024926586E+03  0.89024926587E+03  0.50400001928E-02 0. -1.
    10030    2    1    2    0    0  0.00000000000E+00  0.00000000000E+00  0.14680702336E+04  0.32485687654E+04  0.28979249149E+04 0.  0.
        1    1    3    3  502    0  0.80817336793E+03  0.10428976468E+04  0.14054302615E+04  0.19276965307E+04  0.50400001928E-02 0.  1.
       -1    1    3    3    0  502 -0.80817336793E+03 -0.10428976468E+04  0.62639972119E+02  0.13208722347E+04  0.50400001928E-02 0. -1.
</event>
<event>
 5   0  0.9443352E-08  0.2899660E+04  0.7818609E-02  0.8272979E-01
        1   -1    0    0  501    0  0.00000000000E+00  0.00000000000E+00  0.14249004079E+04  0.14249004079E+04  0.50400001928E-02 0.  1.
       -1   -1    0    0    0  501  0.00000000000E+00  0.00000000000E+00 -0.14751952688E+04  0.14751952688E+04  0.50400001928E-02 0. -1.
    10030    2    1    2    0    0  0.00000000000E+00  0.00000000000E+00 -0.50294860866E+02  0.29000956767E+04  0.28996595250E+04 0.  0.
        4    1    3    3  502    0 -0.23848459867E+03  0.14297094100E+04  0.74278020112E+01  0.14494829029E+04  0.12699999809E+01 0.  1.
       -4    1    3    3    0  502  0.23848459867E+03 -0.14297094100E+04 -0.57722662877E+02  0.14506127738E+04  0.12699999809E+01 0. -1.
</event>
<event>
 5   0  0.8407500E-08  0.2898010E+04  0.7818609E-02  0.8273470E-01
        3   -1    0    0  501    0  0.00000000000E+00  0.00000000000E+00  0.18465397444E+04  0.18465397472E+04  0.10100000352E+00 0.  1.
       -3   -1    0    0    0  501  0.00000000000E+00  0.00000000000E+00 -0.11370540754E+04  0.11370540799E+04  0.10100000352E+00 0. -1.
    10030    2    1    2    0    0  0.00000000000E+00  0.00000000000E+00  0.70948566895E+03  0.29835938271E+04  0.28980100432E+04 0.  0.
        3    1    3    3  502    0 -0.55877308055E+03  0.45395330707E+02 -0.10208780325E+04  0.11646802390E+04  0.10100000352E+00 0. -1.
       -3    1    3    3    0  502  0.55877308055E+03 -0.45395330707E+02  0.17303637014E+04  0.18189135881E+04  0.10100000352E+00 0.  1.
</event>
<event>
 5   0  0.9388076E-08  0.2917204E+04  0.7818609E-02  0.8267777E-01
        1   -1    0    0  501    0  0.00000000000E+00  0.00000000000E+00  0.10314317854E+04  0.10314317855E+04  0.50400001928E-02 0. -1.
       -1   -1    0    0    0  501  0.00000000000E+00  0.00000000000E+00 -0.20626865245E+04  0.20626865245E+04  0.50400001928E-02 0.  1.
    10030    2    1    2    0    0  0.00000000000E+00  0.00000000000E+00 -0.10312547390E+04  0.30941183099E+04  0.29172044459E+04 0.  0.
        5    1    3    3  502    0  0.13860032398E+04 -0.29632096092E+03 -0.88103036631E+03  0.16688462149E+04  0.46999998093E+01 0.  1.
       -5    1    3    3    0  502 -0.13860032398E+04  0.29632096092E+03 -0.15022437273E+03  0.14252720950E+04  0.46999998093E+01 0. -1.
</event>
<event>
 5   0  0.2678723E-07  0.2900427E+04  0.7818609E-02  0.8272750E-01
       -2   -1    0    0    0  501  0.00000000000E+00  0.00000000000E+00  0.20594400196E+04  0.20594400196E+04  0.25500000920E-02 0. -1.
        2   -1    0    0  501    0  0.00000000000E+00  0.00000000000E+00 -0.10212093386E+04  0.10212093386E+04  0.25500000920E-02 0.  1.
    10030    2    1    2    0    0  0.00000000000E+00  0.00000000000E+00  0.10382306810E+04  0.30806493581E+04  0.29004271273E+04 0.  0.
        5    1    3    3  502    0  0.11992854755E+04 -0.81365675083E+03  0.57506009819E+03  0.15591790040E+04  0.46999998093E+01 0. -1.
       -5    1    3    3    0  502 -0.11992854755E+04  0.81365675083E+03  0.46317058278E+03  0.15214703542E+04  0.46999998093E+01 0.  1.
</event>
<event>
 5   0  0.2678723E-07  0.2898158E+04  0.7818609E-02  0.8273426E-01
       -2   -1    0    0    0  501  0.00000000000E+00  0.00000000000E+00  0.10308412930E+04  0.10308412930E+04  0.25500000920E-02 0.  1.
        2   -1    0    0  501    0  0.00000000000E+00  0.00000000000E+00 -0.20370064123E+04  0.20370064123E+04  0.25500000920E-02 0. -1.
    10030    2    1    2    0    0  0.00000000000E+00  0.00000000000E+00 -0.10061651192E+04  0.30678477053E+04  0.28981582593E+04 0.  0.
        5    1    3    3  502    0 -0.69662801002E+03  0.84776903298E+03 -0.15049690419E+04  0.18625135770E+04  0.46999998093E+01 0. -1.
       -5    1    3    3    0  502  0.69662801002E+03 -0.84776903298E+03  0.49880392262E+03  0.12053341283E+04  0.46999998093E+01 0.  1.
</event>
<event>
 5   0  0.2534588E-07  0.2898480E+04  0.7818609E-02  0.8273330E-01
       -2   -1    0    0    0  501  0.00000000000E+00  0.00000000000E+00  0.12384608875E+04  0.12384608875E+04  0.25500000920E-02 0.  1.
        2   -1    0    0  501    0  0.00000000000E+00  0.00000000000E+00 -0.16958927827E+04  0.16958927827E+04  0.25500000920E-02 0. -1.
    10030    2    1    2    0    0  0.00000000000E+00  0.00000000000E+00 -0.45743189513E+03  0.29343536702E+04  0.28984802092E+04 0.  0.
        3    1    3    3  502    0  0.74505218746E+03 -0.12425728455E+04 -0.26388539562E+03  0.14726593464E+04  0.10100000352E+00 0.  1.
       -3    1    3    3    0  502 -0.74505218746E+03  0.12425728455E+04 -0.19354649951E+03  0.14616943238E+04  0.10100000352E+00 0. -1.
</event>
<event>
 5   0  0.2678723E-07  0.2900089E+04  0.7818609E-02  0.8272851E-01
       -2   -1    0    0    0  501  0.00000000000E+00  0.00000000000E+00  0.78588940161E+03  0.78588940161E+03  0.25500000920E-02 0.  1.
        2   -1    0    0  501    0  0.00000000000E+00  0.00000000000E+00 -0.26754771197E+04  0.26754771197E+04  0.25500000920E-02 0. -1.
    10030    2    1    2    0    0  0.00000000000E+00  0.00000000000E+00 -0.18895877181E+04  0.34613665213E+04  0.29000890418E+04 0.  0.
        5    1    3    3  502    0 -0.12495672950E+04  0.60026725600E+03 -0.14523883591E+04  0.20077831653E+04  0.46999998093E+01 0. -1.
       -5    1    3    3    0  502  0.12495672950E+04 -0.60026725600E+03 -0.43719935894E+03  0.14535833560E+04  0.46999998093E+01 0.  1.
</event>
<event>
 5   0  0.9395744E-08  0.2897921E+04  0.7818609E-02  0.8273496E-01
        1   -1    0    0  501    0  0.00000000000E+00  0.00000000000E+00  0.15516825045E+04  0.15516825045E+04  0.50400001928E-02 0.  1.
       -1   -1    0    0    0  501  0.00000000000E+00  0.00000000000E+00 -0.13530383154E+04  0.13530383154E+04  0.50400001928E-02 0. -1.
    10030    2    1    2    0    0  0.00000000000E+00  0.00000000000E+00  0.19864418902E+03  0.29047208199E+04  0.28979205524E+04 0.  0.
        2    1    3    3  502    0  0.38468543649E+03  0.30794353032E+03 -0.12664735540E+04  0.13589581914E+04  0.25500000920E-02 0. -1.
       -2    1    3    3    0  502 -0.38468543649E+03 -0.30794353032E+03  0.14651177430E+04  0.15457626285E+04  0.25500000920E-02 0.  1.
</event>
<event>
 5   0  0.2534588E-07  0.2899190E+04  0.7818609E-02  0.8273118E-01
        2   -1    0    0  501    0  0.00000000000E+00  0.00000000000E+00  0.15795815070E+04  0.15795815070E+04  0.25500000920E-02 0. -1.
       -2   -1    0    0    0  501  0.00000000000E+00  0.00000000000E+00 -0.13303056924E+04  0.13303056924E+04  0.25500000920E-02 0.  1.
    10030    2    1    2    0    0  0.00000000000E+00  0.00000000000E+00  0.24927581462E+03  0.29098871993E+04  0.28991904182E+04 0.  0.
        3    1    3    3  502    0 -0.12536554884E+04  0.72707098166E+03  0.15703647421E+03  0.14577190265E+04  0.10100000352E+00 0.  1.
       -3    1    3    3    0  502  0.12536554884E+04 -0.72707098166E+03  0.92239340404E+02  0.14521681728E+04  0.10100000352E+00 0. -1.
</event>
<event>
 5   0  0.2492232E-07  0.2898993E+04  0.7818609E-02  0.8273177E-01
        2   -1    0    0  501    0  0.00000000000E+00  0.00000000000E+00  0.16956859687E+04  0.16956859687E+04  0.25500000920E-02 0. -1.
       -2   -1    0    0    0  501  0.00000000000E+00  0.00000000000E+00 -0.12390500630E+04  0.12390500630E+04  0.25500000920E-02 0.  1.
    10030    2    1    2    0    0  0.00000000000E+00  0.00000000000E+00  0.45663590574E+03  0.29347360317E+04  0.28989927950E+04 0.  0.
        4    1    3    3  502    0  0.90550714691E+03  0.26439059173E+03  0.13424290893E+04  0.16407202841E+04  0.12699999809E+01 0. -1.
       -4    1    3    3    0  502 -0.90550714691E+03 -0.26439059173E+03 -0.88579318356E+03  0.12940157476E+04  0.12699999809E+01 0.  1.
</event>
<event>
 5   0  0.2534588E-07  0.2899104E+04  0.7818609E-02  0.8273144E-01
       -2   -1    0    0    0  501  0.00000000000E+00  0.00000000000E+00  0.87110840017E+03  0.87110840017E+03  0.25500000920E-02 0. -1.
        2   -1    0    0  501    0  0.00000000000E+00  0.00000000000E+00 -0.24121002326E+04  0.24121002326E+04  0.25500000920E-02 0.  1.
    10030    2    1    2    0    0  0.00000000000E+00  0.00000000000E+00 -0.15409918325E+04  0.32832086328E+04  0.28991038441E+04 0.  0.
        3    1    3    3  502    0  0.43584777590E+03  0.19606973737E+03  0.77931862005E+03  0.91419043281E+03  0.10100000352E+00 0. -1.
       -3    1    3    3    0  502 -0.43584777590E+03 -0.19606973737E+03 -0.23203104525E+04  0.23690182000E+04  0.10100000352E+00 0.  1.
</event>
<event>
 5   0  0.9395744E-08  0.2898497E+04  0.7818609E-02  0.8273325E-01
       -1   -1    0    0    0  501  0.00000000000E+00  0.00000000000E+00  0.16406907548E+04  0.16406907548E+04  0.50400001928E-02 0.  1.
        1   -1    0    0  501    0  0.00000000000E+00  0.00000000000E+00 -0.12801447892E+04  0.12801447892E+04  0.50400001928E-02 0. -1.
    10030    2    1    2    0    0  0.00000000000E+00  0.00000000000E+00  0.36054596555E+03  0.29208355440E+04  0.28984973490E+04 0.  0.
        2    1    3    3  502    0 -0.11615801978E+04  0.76342982317E+03  0.59359013482E+03  0.15114373619E+04  0.25500000920E-02 0. -1.
       -2    1    3    3    0  502  0.11615801978E+04 -0.76342982317E+03 -0.23304416927E+03  0.14093981821E+04  0.25500000920E-02 0.  1.
</event>
<event>
 5   0  0.2608591E-07  0.2900125E+04  0.7818609E-02  0.8272840E-01
        2   -1    0    0  501    0  0.00000000000E+00  0.00000000000E+00  0.16942343518E+04  0.16942343518E+04  0.25500000920E-02 0.  1.
       -2   -1    0    0    0  501  0.00000000000E+00  0.00000000000E+00 -0.12410808051E+04  0.12410808051E+04  0.25500000920E-02 0. -1.
    10030    2    1    2    0    0  0.00000000000E+00  0.00000000000E+00  0.45315354671E+03  0.29353151570E+04  0.29001253307E+04 0.  0.
        2    1    3    3  502    0  0.44914364066E+03 -0.11767672934E+04  0.95374441377E+03  0.15799176179E+04  0.25500000920E-02 0.  1.
       -2    1    3    3    0  502 -0.44914364066E+03  0.11767672934E+04 -0.50059086706E+03  0.13553975390E+04  0.25500000920E-02 0. -1.
</event>
<event>
 5   0  0.9443352E-08  0.2899727E+04  0.7818609E-02  0.8272959E-01
       -1   -1    0    0    0  501  0.00000000000E+00  0.00000000000E+00  0.20552075213E+04  0.20552075213E+04  0.50400001928E-02 0.  1.
        1   -1    0    0  501    0  0.00000000000E+00  0.00000000000E+00 -0.10228185489E+04  0.10228185489E+04  0.50400001928E-02 0. -1.
    10030    2    1    2    0    0  0.00000000000E+00  0.00000000000E+00  0.10323889724E+04  0.30780260701E+04  0.28997271420E+04 0.  0.
        4    1    3    3  502    0  0.71759984855E+03 -0.12590032481E+04  0.46796926275E+03  0.15228379970E+04  0.12699999809E+01 0.  1.
       -4    1    3    3    0  502 -0.71759984855E+03  0.12590032481E+04  0.56441970965E+03  0.15551880731E+04  0.12699999809E+01 0. -1.
</event>
<event>
 5   0  0.9443352E-08  0.2899269E+04  0.7818609E-02  0.8273095E-01
       -1   -1    0    0    0  501  0.00000000000E+00  0.00000000000E+00  0.15463776616E+04  0.15463776616E+04  0.50400001928E-02 0.  1.
        1   -1    0    0  501    0  0.00000000000E+00  0.00000000000E+00 -0.13589434101E+04  0.13589434101E+04  0.50400001928E-02 0. -1.
    10030    2    1    2    0    0  0.00000000000E+00  0.00000000000E+00  0.18743425156E+03  0.29053210717E+04  0.28992686890E+04 0.  0.
        4    1    3    3  502    0  0.84673695613E+03  0.70355677019E+03  0.10388097570E+04  0.15136323616E+04  0.12699999809E+01 0.  1.
       -4    1    3    3    0  502 -0.84673695613E+03 -0.70355677019E+03 -0.85137550548E+03  0.13916887102E+04  0.12699999809E+01 0. -1.
</event>
<event>
 5   0  0.2492232E-07  0.2905865E+04  0.7818609E-02  0.8271135E-01
       -2   -1    0    0    0  501  0.00000000000E+00  0.00000000000E+00  0.13352813957E+04  0.13352813957E+04  0.25500000920E-02 0. -1.
        2   -1    0    0  501    0  0.00000000000E+00  0.00000000000E+00 -0.15809500356E+04  0.15809500356E+04  0.25500000920E-02 0.  1.
    10030    2    1    2    0    0  0.00000000000E+00  0.00000000000E+00 -0.24566863990E+03  0.29162314314E+04  0.29058652207E+04 0.  0.
        4    1    3    3  502    0  0.90304515300E+03  0.10425721740E+04 -0.58115185682E+03  0.14967252186E+04  0.12699999809E+01 0. -1.
       -4    1    3    3    0  502 -0.90304515300E+03 -0.10425721740E+04  0.33548321691E+03  0.14195062128E+04  0.12699999809E+01 0.  1.
</event>
<event>
 5   0  0.9388076E-08  0.2899018E+04  0.7818609E-02  0.8273170E-01
       -1   -1    0    0    0  501  0.00000000000E+00  0.00000000000E+00  0.12620560225E+04  0.12620560225E+04  0.50400001928E-02 0.  1.
        1   -1    0    0  501    0  0.00000000000E+00  0.00000000000E+00 -0.16648046280E+04  0.16648046280E+04  0.50400001928E-02 0. -1.
    10030    2    1    2    0    0  0.00000000000E+00  0.00000000000E+00 -0.40274860551E+03  0.29268606505E+04  0.28990182525E+04 0.  0.
        5    1    3    3  502    0  0.10288242447E+03 -0.11954093657E+04 -0.10224911229E+04  0.15764195290E+04  0.46999998093E+01 0. -1.
       -5    1    3    3    0  502 -0.10288242447E+03  0.11954093657E+04  0.61974251738E+03  0.13504411216E+04  0.46999998093E+01 0.  1.
</event>
<event>
 5   0  0.9395744E-08  0.2899261E+04  0.7818609E-02  0.8273097E-01
        1   -1    0    0  501    0  0.00000000000E+00  0.00000000000E+00  0.18257969507E+04  0.18257969507E+04  0.50400001928E-02 0.  1.
       -1   -1    0    0    0  501  0.00000000000E+00  0.00000000000E+00 -0.11509648255E+04  0.11509648255E+04  0.50400001928E-02 0. -1.
    10030    2    1    2    0    0  0.00000000000E+00  0.00000000000E+00  0.67483212520E+03  0.29767617761E+04  0.28992606428E+04 0.  0.
        2    1    3    3  502    0  0.30662746523E+02  0.13680593882E+04 -0.15380957046E+03  0.13770199990E+04  0.25500000920E-02 0. -1.
       -2    1    3    3    0  502 -0.30662746523E+02 -0.13680593882E+04  0.82864169567E+03  0.15997417771E+04  0.25500000920E-02 0.  1.
</event>
<event>
 5   0  0.2534588E-07  0.2910264E+04  0.7818609E-02  0.8269830E-01
       -2   -1    0    0    0  501  0.00000000000E+00  0.00000000000E+00  0.10405528702E+04  0.10405528702E+04  0.25500000920E-02 0.  1.
        2   -1    0    0  501    0  0.00000000000E+00  0.00000000000E+00 -0.20348883367E+04  0.20348883367E+04  0.25500000920E-02 0. -1.
    10030    2    1    2    0    0  0.00000000000E+00  0.00000000000E+00 -0.99433546657E+03  0.30754412069E+04  0.29102638363E+04 0.  0.
        3    1    3    3  502    0 -0.46340862148E+02 -0.14505788495E+04 -0.60841574816E+03  0.15736887262E+04  0.10100000352E+00 0. -1.
       -3    1    3    3    0  502  0.46340862148E+02  0.14505788495E+04 -0.38591971841E+03  0.15017524807E+04  0.10100000352E+00 0.  1.
</event>
<event>
 5   0  0.2534588E-07  0.2899916E+04  0.7818609E-02  0.8272902E-01
        2   -1    0    0  501    0  0.00000000000E+00  0.00000000000E+00  0.12971556658E+04  0.12971556658E+04  0.25500000920E-02 0. -1.
       -2   -1    0    0    0  501  0.00000000000E+00  0.00000000000E+00 -0.16207604253E+04  0.16207604253E+04  0.25500000920E-02 0.  1.
    10030    2    1    2    0    0  0.00000000000E+00  0.00000000000E+00 -0.32360475943E+03  0.29179160911E+04  0.28999162530E+04 0.  0.
        3    1    3    3  502    0  0.16082673105E+03 -0.52310809115E+03 -0.15128470204E+04  0.16087925378E+04  0.10100000352E+00 0.  1.
       -3    1    3    3    0  502 -0.16082673105E+03  0.52310809115E+03  0.11892422609E+04  0.13091235533E+04  0.10100000352E+00 0. -1.
</event>
<event>
 5   0  0.2492232E-07  0.2899316E+04  0.7818609E-02  0.8273081E-01
        2   -1    0    0  501    0  0.00000000000E+00  0.00000000000E+00  0.99583357827E+03  0.99583357827E+03  0.25500000920E-02 0. -1.
       -2   -1    0    0    0  501  0.00000000000E+00  0.00000000000E+00 -0.21103013423E+04  0.21103013423E+04  0.25500000920E-02 0.  1.
    10030    2    1    2    0    0  0.00000000000E+00  0.00000000000E+00 -0.11144677641E+04  0.31061349206E+04  0.28993164277E+04 0.  0.
        4    1    3    3  502    0  0.12408250328E+04  0.23368499798E+03  0.20578719413E+03  0.12792988010E+04  0.12699999809E+01 0. -1.
       -4    1    3    3    0  502 -0.12408250328E+04 -0.23368499798E+03 -0.13202549582E+04  0.18268361196E+04  0.12699999809E+01 0.  1.
</event>
<event>
 5   0  0.9421924E-08  0.2898339E+04  0.7818609E-02  0.8273372E-01
       -1   -1    0    0    0  501  0.00000000000E+00  0.00000000000E+00  0.29949531886E+04  0.29949531886E+04  0.50400001928E-02 0.  1.
        1   -1    0    0  501    0  0.00000000000E+00  0.00000000000E+00 -0.70121022661E+03  0.70121022663E+03  0.50400001928E-02 0. -1.
    10030    2    1    2    0    0  0.00000000000E+00  0.00000000000E+00  0.22937429620E+04  0.36961634153E+04  0.28983386994E+04 0.  0.
        1    1    3    3  502    0  0.10807734103E+04  0.38319737782E+03  0.16849852352E+02  0.11468196512E+04  0.50400001928E-02 0. -1.
       -1    1    3    3    0  502 -0.10807734103E+04 -0.38319737782E+03  0.22768931097E+04  0.25493437641E+04  0.50400001928E-02 0.  1.
</event>
<event>
 5   0  0.2492232E-07  0.2898031E+04  0.7818609E-02  0.8273464E-01
        2   -1    0    0  501    0  0.00000000000E+00  0.00000000000E+00  0.11522822666E+04  0.11522822666E+04  0.25500000920E-02 0. -1.
       -2   -1    0    0    0  501  0.00000000000E+00  0.00000000000E+00 -0.18221628256E+04  0.18221628256E+04  0.25500000920E-02 0.  1.
    10030    2    1    2    0    0  0.00000000000E+00  0.00000000000E+00 -0.66988055898E+03  0.29744450922E+04  0.28980309942E+04 0.  0.
        4    1    3    3  502    0 -0.32890876445E+03  0.13667121588E+04 -0.69572155109E+03  0.15684747973E+04  0.12699999809E+01 0.  1.
       -4    1    3    3    0  502  0.32890876445E+03 -0.13667121588E+04  0.25840992110E+02  0.14059702949E+04  0.12699999809E+01 0. -1.
</event>
<event>
 5   0  0.9763851E-08  0.2897756E+04  0.7818609E-02  0.8273545E-01
        1   -1    0    0  501    0  0.00000000000E+00  0.00000000000E+00  0.21234360554E+04  0.21234360554E+04  0.50400001928E-02 0. -1.
       -1   -1    0    0    0  501  0.00000000000E+00  0.00000000000E+00 -0.98860884036E+03  0.98860884037E+03  0.50400001928E-02 0.  1.
    10030    2    1    2    0    0  0.00000000000E+00  0.00000000000E+00  0.11348272151E+04  0.31120448958E+04  0.28977561363E+04 0.  0.
        3    1    3    3  502    0 -0.11137156046E+04  0.47675785110E+03 -0.28608076540E+03  0.12447902277E+04  0.10100000352E+00 0.  1.
       -3    1    3    3    0  502  0.11137156046E+04 -0.47675785110E+03  0.14209079805E+04  0.18672546681E+04  0.10100000352E+00 0. -1.
</event>
<event>
 5   0  0.2534588E-07  0.2900286E+04  0.7818609E-02  0.8272792E-01
       -2   -1    0    0    0  501  0.00000000000E+00  0.00000000000E+00  0.87929352037E+03  0.87929352037E+03  0.25500000920E-02 0. -1.
        2   -1    0    0  501    0  0.00000000000E+00  0.00000000000E+00 -0.23915964099E+04  0.23915964099E+04  0.25500000920E-02 0.  1.
    10030    2    1    2    0    0  0.00000000000E+00  0.00000000000E+00 -0.15123028895E+04  0.32708899303E+04  0.29002863490E+04 0.  0.
        3    1    3    3  502    0 -0.65889815350E+03  0.65151393149E+03 -0.20141706154E+04  0.22170927942E+04  0.10100000352E+00 0.  1.
       -3    1    3    3    0  502  0.65889815350E+03 -0.65151393149E+03  0.50186772589E+03  0.10537971361E+04  0.10100000352E+00 0. -1.
</event>
<event>
 5   0  0.2534588E-07  0.2908313E+04  0.7818609E-02  0.8270408E-01
       -2   -1    0    0    0  501  0.00000000000E+00  0.00000000000E+00  0.13017258587E+04  0.13017258587E+04  0.25500000920E-02 0. -1.
        2   -1    0    0  501    0  0.00000000000E+00  0.00000000000E+00 -0.16244366185E+04  0.16244366185E+04  0.25500000920E-02 0.  1.
    10030    2    1    2    0    0  0.00000000000E+00  0.00000000000E+00 -0.32271075988E+03  0.29261624772E+04  0.29083130176E+04 0.  0.
        3    1    3    3  502    0  0.12083416880E+04 -0.76434517335E+03  0.10533359783E+03  0.14336695421E+04  0.10100000352E+00 0. -1.
       -3    1    3    3    0  502 -0.12083416880E+04  0.76434517335E+03 -0.42804435771E+03  0.14924929351E+04  0.10100000352E+00 0.  1.
</event>
<event>
 5   0  0.9421924E-08  0.2900066E+04  0.7818609E-02  0.8272858E-01
       -1   -1    0    0    0  501  0.00000000000E+00  0.00000000000E+00  0.14720336099E+04  0.14720336099E+04  0.50400001928E-02 0.  1.
        1   -1    0    0  501    0  0.00000000000E+00  0.00000000000E+00 -0.14283615799E+04  0.14283615800E+04  0.50400001928E-02 0. -1.
    10030    2    1    2    0    0  0.00000000000E+00  0.00000000000E+00  0.43672029981E+02  0.29003951899E+04  0.29000663805E+04 0.  0.
        1    1    3    3  502    0 -0.55526870995E+03 -0.75140938440E+03 -0.10871886476E+04  0.14334987125E+04  0.50400001928E-02 0. -1.
       -1    1    3    3    0  502  0.55526870995E+03  0.75140938440E+03  0.11308606776E+04  0.14668964774E+04  0.50400001928E-02 0.  1.
</event>
<event>
 5   0  0.9421924E-08  0.2900307E+04  0.7818609E-02  0.8272786E-01
        1   -1    0    0  501    0  0.00000000000E+00  0.00000000000E+00  0.28049106172E+04  0.28049106172E+04  0.50400001928E-02 0.  1.
       -1   -1    0    0    0  501  0.00000000000E+00  0.00000000000E+00 -0.74973678412E+03  0.74973678414E+03  0.50400001928E-02 0. -1.
    10030    2    1    2    0    0  0.00000000000E+00  0.00000000000E+00  0.20551738331E+04  0.35546474013E+04  0.29003066499E+04 0.  0.
        1    1    3    3  502    0  0.27477444743E+03 -0.13154962811E+04  0.16954191315E+04  0.21634411233E+04  0.50400001928E-02 0.  1.
       -1    1    3    3    0  502 -0.27477444743E+03  0.13154962811E+04  0.35975470153E+03  0.13912062780E+04  0.50400001928E-02 0. -1.
</event>
<event>
 5   0  0.2546841E-07  0.2900163E+04  0.7818609E-02  0.8272829E-01
        2   -1    0    0  501    0  0.00000000000E+00  0.00000000000E+00  0.19822808150E+04  0.19822808150E+04  0.25500000920E-02 0.  1.
       -2   -1    0    0    0  501  0.00000000000E+00  0.00000000000E+00 -0.10607664221E+04  0.10607664221E+04  0.25500000920E-02 0. -1.
    10030    2    1    2    0    0  0.00000000000E+00  0.00000000000E+00  0.92151439292E+03  0.30430472371E+04  0.29001633938E+04 0.  0.
        1    1    3    3  502    0 -0.10841317492E+04  0.60306662030E+03  0.12485509429E+04  0.17600881953E+04  0.50400001928E-02 0.  1.
       -1    1    3    3    0  502  0.10841317492E+04 -0.60306662030E+03 -0.32703654999E+03  0.12829590419E+04  0.50400001928E-02 0. -1.
</event>
<event>
 5   0  0.9443352E-08  0.2903318E+04  0.7818609E-02  0.8271891E-01
        1   -1    0    0  501    0  0.00000000000E+00  0.00000000000E+00  0.31090927349E+04  0.31090927349E+04  0.50400001928E-02 0.  1.
       -1   -1    0    0    0  501  0.00000000000E+00  0.00000000000E+00 -0.67779039104E+03  0.67779039106E+03  0.50400001928E-02 0. -1.
    10030    2    1    2    0    0  0.00000000000E+00  0.00000000000E+00  0.24313023439E+04  0.37868831260E+04  0.29033175373E+04 0.  0.
        4    1    3    3  502    0  0.64252882715E+03  0.56083079829E+03  0.27478566409E+04  0.28771673935E+04  0.12699999809E+01 0.  1.
       -4    1    3    3    0  502 -0.64252882715E+03 -0.56083079829E+03 -0.31655429708E+03  0.90971573248E+03  0.12699999809E+01 0. -1.
</event>
<event>
 5   0  0.2678723E-07  0.2899924E+04  0.7818609E-02  0.8272900E-01
        2   -1    0    0  501    0  0.00000000000E+00  0.00000000000E+00  0.16849942671E+04  0.16849942671E+04  0.25500000920E-02 0.  1.
       -2   -1    0    0    0  501  0.00000000000E+00  0.00000000000E+00 -0.12477132521E+04  0.12477132521E+04  0.25500000920E-02 0. -1.
    10030    2    1    2    0    0  0.00000000000E+00  0.00000000000E+00  0.43728101499E+03  0.29327075192E+04  0.28999239140E+04 0.  0.
        5    1    3    3  502    0 -0.33303681300E+03 -0.24115208415E+03 -0.11875097982E+04  0.12566898811E+04  0.46999998093E+01 0. -1.
       -5    1    3    3    0  502  0.33303681300E+03  0.24115208415E+03  0.16247908132E+04  0.16760176381E+04  0.46999998093E+01 0.  1.
</event>
<event>
 5   0  0.9395744E-08  0.2900309E+04  0.7818609E-02  0.8272786E-01
        1   -1    0    0  501    0  0.00000000000E+00  0.00000000000E+00  0.18341523980E+04  0.18341523980E+04  0.50400001928E-02 0. -1.
       -1   -1    0    0    0  501  0.00000000000E+00  0.00000000000E+00 -0.11465503216E+04  0.11465503216E+04  0.50400001928E-02 0.  1.
    10030    2    1    2    0    0  0.00000000000E+00  0.00000000000E+00  0.68760207640E+03  0.29807027196E+04  0.29003089641E+04 0.  0.
        2    1    3    3  502    0 -0.51307244543E+03  0.42715125861E+03  0.16668257400E+04  0.17955527226E+04  0.25500000920E-02 0. -1.
       -2    1    3    3    0  502  0.51307244543E+03 -0.42715125861E+03 -0.97922366364E+03  0.11851499970E+04  0.25500000920E-02 0.  1.
</event>
<event>
 5   0  0.9388076E-08  0.2900455E+04  0.7818609E-02  0.8272742E-01
       -1   -1    0    0    0  501  0.00000000000E+00  0.00000000000E+00  0.13213745656E+04  0.13213745657E+04  0.50400001928E-02 0. -1.
        1   -1    0    0  501    0  0.00000000000E+00  0.00000000000E+00 -0.15916456170E+04  0.15916456170E+04  0.50400001928E-02 0.  1.
    10030    2    1    2    0    0  0.00000000000E+00  0.00000000000E+00 -0.27027105134E+03  0.29130201826E+04  0.29004551614E+04 0.  0.
        5    1    3    3  502    0 -0.61077046347E+03  0.89855671708E+03 -0.10998660071E+04  0.15460181294E+04  0.46999998093E+01 0.  1.
       -5    1    3    3    0  502  0.61077046347E+03 -0.89855671708E+03  0.82959495579E+03  0.13670020532E+04  0.46999998093E+01 0. -1.
</event>
<event>
 5   0  0.9421924E-08  0.2902444E+04  0.7818609E-02  0.8272151E-01
       -1   -1    0    0    0  501  0.00000000000E+00  0.00000000000E+00  0.15788657642E+04  0.15788657642E+04  0.50400001928E-02 0.  1.
        1   -1    0    0  501    0  0.00000000000E+00  0.00000000000E+00 -0.13338978686E+04  0.13338978686E+04  0.50400001928E-02 0. -1.
    10030    2    1    2    0    0  0.00000000000E+00  0.00000000000E+00  0.24496789559E+03  0.29127636328E+04  0.29024442649E+04 0.  0.
        1    1    3    3  502    0 -0.11737375268E+04 -0.80714845117E+03 -0.15580555556E+03  0.14329772417E+04  0.50400001928E-02 0. -1.
       -1    1    3    3    0  502  0.11737375268E+04  0.80714845117E+03  0.40077345115E+03  0.14797863911E+04  0.50400001928E-02 0.  1.
</event>
<event>
 5   0  0.2678723E-07  0.2901916E+04  0.7818609E-02  0.8272308E-01
        2   -1    0    0  501    0  0.00000000000E+00  0.00000000000E+00  0.15389975347E+04  0.15389975347E+04  0.25500000920E-02 0.  1.
       -2   -1    0    0    0  501  0.00000000000E+00  0.00000000000E+00 -0.13679549956E+04  0.13679549956E+04  0.25500000920E-02 0. -1.
    10030    2    1    2    0    0  0.00000000000E+00  0.00000000000E+00  0.17104253914E+03  0.29069525302E+04  0.29019161709E+04 0.  0.
        5    1    3    3  502    0  0.73224404703E+03 -0.12525457654E+04  0.99865227267E+02  0.14543202510E+04  0.46999998093E+01 0. -1.
       -5    1    3    3    0  502 -0.73224404703E+03  0.12525457654E+04  0.71177311874E+02  0.14526322792E+04  0.46999998093E+01 0.  1.
</event>
<event>
 5   0  0.9395744E-08  0.2900691E+04  0.7818609E-02  0.8272672E-01
        1   -1    0    0  501    0  0.00000000000E+00  0.00000000000E+00  0.12405567475E+04  0.12405567475E+04  0.50400001928E-02 0.  1.
       -1   -1    0    0    0  501  0.00000000000E+00  0.00000000000E+00 -0.16956117622E+04  0.16956117622E+04  0.50400001928E-02 0. -1.
    10030    2    1    2    0    0  0.00000000000E+00  0.00000000000E+00 -0.45505501472E+03  0.29361685096E+04  0.29006913746E+04 0.  0.
        2    1    3    3  502    0  0.63723845569E+03 -0.12988990023E+04 -0.33021352346E+03  0.14839988001E+04  0.25500000920E-02 0.  1.
       -2    1    3    3    0  502 -0.63723845569E+03  0.12988990023E+04 -0.12484149126E+03  0.14521697096E+04  0.25500000920E-02 0. -1.
</event>
<event>
 5   0  0.9763851E-08  0.2899793E+04  0.7818609E-02  0.8272939E-01
       -1   -1    0    0    0  501  0.00000000000E+00  0.00000000000E+00  0.91088967368E+03  0.91088967370E+03  0.50400001928E-02 0. -1.
        1   -1    0    0  501    0  0.00000000000E+00  0.00000000000E+00 -0.23078539946E+04  0.23078539946E+04  0.50400001928E-02 0.  1.
    10030    2    1    2    0    0  0.00000000000E+00  0.00000000000E+00 -0.13969643209E+04  0.32187436683E+04  0.28997933527E+04 0.  0.
        3    1    3    3  502    0 -0.10077650459E+04 -0.10358630418E+04 -0.56904690256E+03  0.15531957432E+04  0.10100000352E+00 0.  1.
       -3    1    3    3    0  502  0.10077650459E+04  0.10358630418E+04 -0.82791741834E+03  0.16655479251E+04  0.10100000352E+00 0. -1.
</event>
<event>
 5   0  0.2534588E-07  0.2899069E+04  0.7818609E-02  0.8273155E-01
       -2   -1    0    0    0  501  0.00000000000E+00  0.00000000000E+00  0.11038950034E+04  0.11038950034E+04  0.25500000920E-02 0.  1.
        2   -1    0    0  501    0  0.00000000000E+00  0.00000000000E+00 -0.19033968830E+04  0.19033968830E+04  0.25500000920E-02 0. -1.
    10030    2    1    2    0    0  0.00000000000E+00  0.00000000000E+00 -0.79950187967E+03  0.30072918864E+04  0.28990690289E+04 0.  0.
        3    1    3    3  502    0 -0.90608526144E+03 -0.46896590204E+03 -0.14678640123E+04  0.17876085386E+04  0.10100000352E+00 0. -1.
       -3    1    3    3    0  502  0.90608526144E+03  0.46896590204E+03  0.66836213268E+03  0.12196833478E+04  0.10100000352E+00 0.  1.
</event>
<event>
 5   0  0.2678723E-07  0.2898720E+04  0.7818609E-02  0.8273258E-01
        2   -1    0    0  501    0  0.00000000000E+00  0.00000000000E+00  0.12749407234E+04  0.12749407234E+04  0.25500000920E-02 0. -1.
       -2   -1    0    0    0  501  0.00000000000E+00  0.00000000000E+00 -0.16476410385E+04  0.16476410385E+04  0.25500000920E-02 0.  1.
    10030    2    1    2    0    0  0.00000000000E+00  0.00000000000E+00 -0.37270031514E+03  0.29225817619E+04  0.28987201710E+04 0.  0.
        5    1    3    3  502    0  0.68092160381E+02  0.23649811332E+03  0.12537121389E+04  0.12776478846E+04  0.46999998093E+01 0. -1.
       -5    1    3    3    0  502 -0.68092160381E+02 -0.23649811332E+03 -0.16264124540E+04  0.16449338772E+04  0.46999998093E+01 0.  1.
</event>
<event>
 5   0  0.2546841E-07  0.2900838E+04  0.7818609E-02  0.8272628E-01
       -2   -1    0    0    0  501  0.00000000000E+00  0.00000000000E+00  0.10102444815E+04  0.10102444815E+04  0.25500000920E-02 0.  1.
        2   -1    0    0  501    0  0.00000000000E+00  0.00000000000E+00 -0.20823828330E+04  0.20823828330E+04  0.25500000920E-02 0. -1.
    10030    2    1    2    0    0  0.00000000000E+00  0.00000000000E+00 -0.10721383515E+04  0.30926273145E+04  0.29008383377E+04 0.  0.
        1    1    3    3  502    0  0.49840181585E+03  0.46087100663E+03  0.83043466369E+03  0.10725801534E+04  0.50400001928E-02 0.  1.
       -1    1    3    3    0  502 -0.49840181585E+03 -0.46087100663E+03 -0.19025730152E+04  0.20200471611E+04  0.50400001928E-02 0. -1.
</event>
<event>
 5   0  0.9443352E-08  0.2900317E+04  0.7818609E-02  0.8272783E-01
        1   -1    0    0  501    0  0.00000000000E+00  0.00000000000E+00  0.18796044956E+04  0.18796044956E+04  0.50400001928E-02 0. -1.
       -1   -1    0    0    0  501  0.00000000000E+00  0.00000000000E+00 -0.11188312899E+04  0.11188312899E+04  0.50400001928E-02 0.  1.
    10030    2    1    2    0    0  0.00000000000E+00  0.00000000000E+00  0.76077320573E+03  0.29984357855E+04  0.29003174463E+04 0.  0.
        4    1    3    3  502    0 -0.44786838101E+02 -0.21364322544E+02 -0.11179527622E+04  0.11190541929E+04  0.12699999809E+01 0.  1.
       -4    1    3    3    0  502  0.44786838101E+02  0.21364322544E+02  0.18787259679E+04  0.18793815926E+04  0.12699999809E+01 0. -1.
</event>
<event>
 5   0  0.9388076E-08  0.2895000E+04  0.7818609E-02  0.8274367E-01
       -1   -1    0    0    0  501  0.00000000000E+00  0.00000000000E+00  0.12341235653E+04  0.12341235654E+04  0.50400001928E-02 0.  1.
        1   -1    0    0  501    0  0.00000000000E+00  0.00000000000E+00 -0.16977682133E+04  0.16977682133E+04  0.50400001928E-02 0. -1.
    10030    2    1    2    0    0  0.00000000000E+00  0.00000000000E+00 -0.46364464793E+03  0.29318917786E+04  0.28949996618E+04 0.  0.
        5    1    3    3  502    0 -0.59561266264E+03  0.71092003773E+02 -0.15659652638E+04  0.16769251069E+04  0.46999998093E+01 0. -1.
       -5    1    3    3    0  502  0.59561266264E+03 -0.71092003773E+02  0.11023206159E+04  0.12549666717E+04  0.46999998093E+01 0.  1.
</event>
<event>
 5   0  0.9763851E-08  0.2894353E+04  0.7818609E-02  0.8274559E-01
       -1   -1    0    0    0  501  0.00000000000E+00  0.00000000000E+00  0.15806104989E+04  0.15806104990E+04  0.50400001928E-02 0.  1.
        1   -1    0    0  501    0  0.00000000000E+00  0.00000000000E+00 -0.13250072443E+04  0.13250072443E+04  0.50400001928E-02 0. -1.
    10030    2    1    2    0    0  0.00000000000E+00  0.00000000000E+00  0.25560325465E+03  0.29056177433E+04  0.28943533727E+04 0.  0.
        3    1    3    3  502    0 -0.41609291638E+03  0.12994581723E+04  0.61196014310E+03  0.14953996400E+04  0.10100000352E+00 0. -1.
       -3    1    3    3    0  502  0.41609291638E+03 -0.12994581723E+04 -0.35635688844E+03  0.14102181032E+04  0.10100000352E+00 0.  1.
</event>
<event>
 5   0  0.2608591E-07  0.2899803E+04  0.7818609E-02  0.8272936E-01
        2   -1    0    0  501    0  0.00000000000E+00  0.00000000000E+00  0.18436441505E+04  0.18436441505E+04  0.25500000920E-02 0.  1.
       -2   -1    0    0    0  501  0.00000000000E+00  0.00000000000E+00 -0.11402496959E+04  0.11402496959E+04  0.25500000920E-02 0. -1.
    10030    2    1    2    0    0  0.00000000000E+00  0.00000000000E+00  0.70339445462E+03  0.29838938464E+04  0.28998032222E+04 0.  0.
        2    1    3    3  502    0  0.24447182274E+03 -0.26005733815E+03 -0.10943364988E+04  0.11510728317E+04  0.25500000920E-02 0. -1.
       -2    1    3    3    0  502 -0.24447182274E+03  0.26005733815E+03  0.17977309534E+04  0.18328210147E+04  0.25500000920E-02 0.  1.
</event>
<event>
 5   0  0.9763851E-08  0.2900181E+04  0.7818609E-02  0.8272824E-01
       -1   -1    0    0    0  501  0.00000000000E+00  0.00000000000E+00  0.14144944661E+04  0.14144944661E+04  0.50400001928E-02 0. -1.
        1   -1    0    0  501    0  0.00000000000E+00  0.00000000000E+00 -0.14865822529E+04  0.14865822529E+04  0.50400001928E-02 0.  1.
    10030    2    1    2    0    0  0.00000000000E+00  0.00000000000E+00 -0.72087786748E+02  0.29010767190E+04  0.29001809393E+04 0.  0.
        3    1    3    3  502    0 -0.61840740147E+03  0.15309462604E+03  0.12670083255E+04  0.14181592949E+04  0.10100000352E+00 0. -1.
       -3    1    3    3    0  502  0.61840740147E+03 -0.15309462604E+03 -0.13390961122E+04  0.14829174241E+04  0.10100000352E+00 0.  1.
</event>
<event>
 5   0  0.9395744E-08  0.2899110E+04  0.7818609E-02  0.8273142E-01
       -1   -1    0    0    0  501  0.00000000000E+00  0.00000000000E+00  0.14542339948E+04  0.14542339949E+04  0.50400001928E-02 0.  1.
        1   -1    0    0  501    0  0.00000000000E+00  0.00000000000E+00 -0.14448910294E+04  0.14448910294E+04  0.50400001928E-02 0. -1.
    10030    2    1    2    0    0  0.00000000000E+00  0.00000000000E+00  0.93429654236E+01  0.28991250243E+04  0.28991099695E+04 0.  0.
        2    1    3    3  502    0 -0.25081410908E+03 -0.12987891459E+04  0.59750564257E+03  0.14514730296E+04  0.25500000920E-02 0.  1.
       -2    1    3    3    0  502  0.25081410908E+03  0.12987891459E+04 -0.58816267715E+03  0.14476519947E+04  0.25500000920E-02 0. -1.
</event>
<event>
 5   0  0.9443352E-08  0.2893836E+04  0.7818609E-02  0.8274714E-01
       -1   -1    0    0    0  501  0.00000000000E+00  0.00000000000E+00  0.12502143708E+04  0.12502143708E+04  0.50400001928E-02 0. -1.
        1   -1    0    0  501    0  0.00000000000E+00  0.00000000000E+00 -0.16745698703E+04  0.16745698703E+04  0.50400001928E-02 0.  1.
    10030    2    1    2    0    0  0.00000000000E+00  0.00000000000E+00 -0.42435549956E+03  0.29247842411E+04  0.28938357360E+04 0.  0.
        4    1    3    3  502    0  0.13864604791E+04  0.24067705606E+03  0.12813019921E+03  0.14130170085E+04  0.12699999809E+01 0. -1.
       -4    1    3    3    0  502 -0.13864604791E+04 -0.24067705606E+03 -0.55248569877E+03  0.15117672326E+04  0.12699999809E+01 0.  1.
</event>
<event>
 5   0  0.2546841E-07  0.2899368E+04  0.7818609E-02  0.8273065E-01
       -2   -1    0    0    0  501  0.00000000000E+00  0.00000000000E+00  0.15877375528E+04  0.15877375528E+04  0.25500000920E-02 0.  1.
        2   -1    0    0  501    0  0.00000000000E+00  0.00000000000E+00 -0.13236344704E+04  0.13236344704E+04  0.25500000920E-02 0. -1.
    10030    2    1    2    0    0  0.00000000000E+00  0.00000000000E+00  0.26410308237E+03  0.29113720233E+04  0.28993683139E+04 0.  0.
        1    1    3    3  502    0  0.17992425839E+03 -0.83213296582E+03  0.13102661539E+04  0.15625669284E+04  0.50400001928E-02 0.  1.
       -1    1    3    3    0  502 -0.17992425839E+03  0.83213296582E+03 -0.10461630716E+04  0.13488050949E+04  0.50400001928E-02 0. -1.
</event>
<event>
 5   0  0.2534588E-07  0.2900409E+04  0.7818609E-02  0.8272756E-01
        2   -1    0    0  501    0  0.00000000000E+00  0.00000000000E+00  0.15325742334E+04  0.15325742334E+04  0.25500000920E-02 0. -1.
       -2   -1    0    0    0  501  0.00000000000E+00  0.00000000000E+00 -0.13722617021E+04  0.13722617021E+04  0.25500000920E-02 0.  1.
    10030    2    1    2    0    0  0.00000000000E+00  0.00000000000E+00  0.16031253133E+03  0.29048359355E+04  0.29004088857E+04 0.  0.
        3    1    3    3  502    0  0.31100042796E+03  0.11303625737E+04  0.93507039048E+03  0.14995990996E+04  0.10100000352E+00 0. -1.
       -3    1    3    3    0  502 -0.31100042796E+03 -0.11303625737E+04 -0.77475785916E+03  0.14052368358E+04  0.10100000352E+00 0.  1.
</event>
<event>
 5   0  0.9395744E-08  0.2899676E+04  0.7818609E-02  0.8272974E-01
        1   -1    0    0  501    0  0.00000000000E+00  0.00000000000E+00  0.20322286100E+04  0.20322286100E+04  0.50400001928E-02 0. -1.
       -1   -1    0    0    0  501  0.00000000000E+00  0.00000000000E+00 -0.10343471592E+04  0.10343471593E+04  0.50400001928E-02 0.  1.
    10030    2    1    2    0    0  0.00000000000E+00  0.00000000000E+00  0.99788145079E+03  0.30665757693E+04  0.28996757679E+04 0.  0.
        2    1    3    3  502    0 -0.42460472305E+03  0.88820672594E+03  0.16245470934E+04  0.18995666920E+04  0.25500000920E-02 0. -1.
       -2    1    3    3    0  502  0.42460472305E+03 -0.88820672594E+03 -0.62666564258E+03  0.11670090773E+04  0.25500000920E-02 0.  1.
</event>
<event>
 5   0  0.9388076E-08  0.2899197E+04  0.7818609E-02  0.8273117E-01
       -1   -1    0    0    0  501  0.00000000000E+00  0.00000000000E+00  0.99462913846E+03  0.99462913847E+03  0.50400001928E-02 0.  1.
        1   -1    0    0  501    0  0.00000000000E+00  0.00000000000E+00 -0.21126822627E+04  0.21126822627E+04  0.50400001928E-02 0. -1.
    10030    2    1    2    0    0  0.00000000000E+00  0.00000000000E+00 -0.11180531242E+04  0.31073114012E+04  0.28991966741E+04 0.  0.
        5    1    3    3  502    0 -0.79592832530E+03  0.58705698703E+03 -0.16949025026E+04  0.19623593933E+04  0.46999998093E+01 0. -1.
       -5    1    3    3    0  502  0.79592832530E+03 -0.58705698703E+03  0.57684937838E+03  0.11449520079E+04  0.46999998093E+01 0.  1.
</event>
<event>
 5   0  0.2678723E-07  0.2900341E+04  0.7818609E-02  0.8272776E-01
       -2   -1    0    0    0  501  0.00000000000E+00  0.00000000000E+00  0.10969168195E+04  0.10969168195E+04  0.25500000920E-02 0.  1.
        2   -1    0    0  501    0  0.00000000000E+00  0.00000000000E+00 -0.19171869435E+04  0.19171869435E+04  0.25500000920E-02 0. -1.
    10030    2    1    2    0    0  0.00000000000E+00  0.00000000000E+00 -0.82027012397E+03  0.30141037630E+04  0.29003410865E+04 0.  0.
        5    1    3    3  502    0  0.90989676279E+03  0.10654401652E+04 -0.79883487704E+03  0.16128341872E+04  0.46999998093E+01 0.  1.
       -5    1    3    3    0  502 -0.90989676279E+03 -0.10654401652E+04 -0.21435246929E+02  0.14012695759E+04  0.46999998093E+01 0. -1.
</event>
<event>
 5   0  0.2546841E-07  0.2900236E+04  0.7818609E-02  0.8272807E-01
       -2   -1    0    0    0  501  0.00000000000E+00  0.00000000000E+00  0.92608026861E+03  0.92608026862E+03  0.25500000920E-02 0. -1.
        2   -1    0    0  501    0  0.00000000000E+00  0.00000000000E+00 -0.22706912347E+04  0.22706912347E+04  0.25500000920E-02 0.  1.
    10030    2    1    2    0    0  0.00000000000E+00  0.00000000000E+00 -0.13446109661E+04  0.31967715033E+04  0.29002360929E+04 0.  0.
        1    1    3    3  502    0 -0.11741935736E+04  0.82797592769E+03 -0.88877158994E+03  0.16894347055E+04  0.50400001928E-02 0.  1.
       -1    1    3    3    0  502  0.11741935736E+04 -0.82797592769E+03 -0.45583937615E+03  0.15073367978E+04  0.50400001928E-02 0. -1.
</event>
<event>
 5   0  0.8407500E-08  0.2901784E+04  0.7818609E-02  0.8272347E-01
        3   -1    0    0  501    0  0.00000000000E+00  0.00000000000E+00  0.70419064751E+03  0.70419065475E+03  0.10100000352E+00 0.  1.
       -3   -1    0    0    0  501  0.00000000000E+00  0.00000000000E+00 -0.29893711681E+04  0.29893711698E+04  0.10100000352E+00 0. -1.
    10030    2    1    2    0    0  0.00000000000E+00  0.00000000000E+00 -0.22851805206E+04  0.36935618245E+04  0.29017837514E+04 0.  0.
        3    1    3    3  502    0 -0.14506509537E+04  0.16297200223E+02 -0.11160904297E+04  0.18303856549E+04  0.10100000352E+00 0.  1.
       -3    1    3    3    0  502  0.14506509537E+04 -0.16297200223E+02 -0.11690900909E+04  0.18631761696E+04  0.10100000352E+00 0. -1.
</event>
<event>
 5   0  0.9443352E-08  0.2902140E+04  0.7818609E-02  0.8272241E-01
        1   -1    0    0  501    0  0.00000000000E+00  0.00000000000E+00  0.25509648578E+04  0.25509648578E+04  0.50400001928E-02 0.  1.
       -1   -1    0    0    0  501  0.00000000000E+00  0.00000000000E+00 -0.82541485140E+03  0.82541485141E+03  0.50400001928E-02 0. -1.
    10030    2    1    2    0    0  0.00000000000E+00  0.00000000000E+00  0.17255500064E+04  0.33763797092E+04  0.29021400924E+04 0.  0.
        4    1    3    3  502    0  0.20917452430E+03  0.31319935741E+03  0.24931088457E+04  0.25213966662E+04  0.12699999809E+01 0.  1.
       -4    1    3    3    0  502 -0.20917452430E+03 -0.31319935741E+03 -0.76755883930E+03  0.85498304298E+03  0.12699999809E+01 0. -1.
</event>
<event>
 5   0  0.2492232E-07  0.2898163E+04  0.7818609E-02  0.8273424E-01
        2   -1    0    0  501    0  0.00000000000E+00  0.00000000000E+00  0.15166541541E+04  0.15166541541E+04  0.25500000920E-02 0. -1.
       -2   -1    0    0    0  501  0.00000000000E+00  0.00000000000E+00 -0.13845196973E+04  0.13845196973E+04  0.25500000920E-02 0.  1.
    10030    2    1    2    0    0  0.00000000000E+00  0.00000000000E+00  0.13213445674E+03  0.29011738514E+04  0.28981632462E+04 0.  0.
        4    1    3    3  502    0  0.55765396034E+03  0.12720436614E+04 -0.34759674391E+03  0.14317465297E+04  0.12699999809E+01 0.  1.
       -4    1    3    3    0  502 -0.55765396034E+03 -0.12720436614E+04  0.47973120065E+03  0.14694273217E+04  0.12699999809E+01 0. -1.
</event>
<event>
 5   0  0.2534588E-07  0.2899477E+04  0.7818609E-02  0.8273033E-01
       -2   -1    0    0    0  501  0.00000000000E+00  0.00000000000E+00  0.97379026826E+03  0.97379026827E+03  0.25500000920E-02 0. -1.
        2   -1    0    0  501    0  0.00000000000E+00  0.00000000000E+00 -0.21583107762E+04  0.21583107762E+04  0.25500000920E-02 0.  1.
    10030    2    1    2    0    0  0.00000000000E+00  0.00000000000E+00 -0.11845205080E+04  0.31321010445E+04  0.28994772148E+04 0.  0.
        3    1    3    3  502    0  0.89787493105E+03 -0.24838583742E+03  0.60765412285E+03  0.11122582700E+04  0.10100000352E+00 0. -1.
       -3    1    3    3    0  502 -0.89787493105E+03  0.24838583742E+03 -0.17921746308E+04  0.20198427745E+04  0.10100000352E+00 0.  1.
</event>
<event>
 5   0  0.2678723E-07  0.2899437E+04  0.7818609E-02  0.8273045E-01
        2   -1    0    0  501    0  0.00000000000E+00  0.00000000000E+00  0.16698444519E+04  0.16698444520E+04  0.25500000920E-02 0.  1.
       -2   -1    0    0    0  501  0.00000000000E+00  0.00000000000E+00 -0.12586108896E+04  0.12586108896E+04  0.25500000920E-02 0. -1.
    10030    2    1    2    0    0  0.00000000000E+00  0.00000000000E+00  0.41123356237E+03  0.29284553415E+04  0.28994374704E+04 0.  0.
        5    1    3    3  502    0 -0.99597548771E+03 -0.61104396064E+03  0.10722957997E+04  0.15859326171E+04  0.46999998093E+01 0.  1.
       -5    1    3    3    0  502  0.99597548771E+03  0.61104396064E+03 -0.66106223734E+03  0.13425227244E+04  0.46999998093E+01 0. -1.
</event>
<event>
 5   0  0.2678723E-07  0.2899776E+04  0.7818609E-02  0.8272944E-01
        2   -1    0    0  501    0  0.00000000000E+00  0.00000000000E+00  0.16996863946E+04  0.16996863946E+04  0.25500000920E-02 0.  1.
       -2   -1    0    0    0  501  0.00000000000E+00  0.00000000000E+00 -0.12368020582E+04  0.12368020582E+04  0.25500000920E-02 0. -1.
    10030    2    1    2    0    0  0.00000000000E+00  0.00000000000E+00  0.46288433646E+03  0.29364884528E+04  0.28997762887E+04 0.  0.
        5    1    3    3  502    0 -0.12948579342E+04 -0.20846917009E+03 -0.39447456140E+03  0.13695797655E+04  0.46999998093E+01 0. -1.
       -5    1    3    3    0  502  0.12948579342E+04  0.20846917009E+03  0.85735889786E+03  0.15669086873E+04  0.46999998093E+01 0.  1.
</event>
<event>
 5   0  0.2678723E-07  0.2900135E+04  0.7818609E-02  0.8272837E-01
       -2   -1    0    0    0  501  0.00000000000E+00  0.00000000000E+00  0.62908450963E+03  0.62908450964E+03  0.25500000920E-02 0.  1.
        2   -1    0    0  501    0  0.00000000000E+00  0.00000000000E+00 -0.33424702154E+04  0.33424702154E+04  0.25500000920E-02 0. -1.
    10030    2    1    2    0    0  0.00000000000E+00  0.00000000000E+00 -0.27133857057E+04  0.39715547250E+04  0.29001353323E+04 0.  0.
        5    1    3    3  502    0  0.40737591265E+03  0.55713490715E+03  0.38971328553E+03  0.79262410630E+03  0.46999998093E+01 0.  1.
       -5    1    3    3    0  502 -0.40737591265E+03 -0.55713490715E+03 -0.31030989913E+04  0.31789306187E+04  0.46999998093E+01 0. -1.
</event>
<event>
 5   0  0.9388076E-08  0.2899106E+04  0.7818609E-02  0.8273143E-01
       -1   -1    0    0    0  501  0.00000000000E+00  0.00000000000E+00  0.98500407378E+03  0.98500407379E+03  0.50400001928E-02 0.  1.
        1   -1    0    0  501    0  0.00000000000E+00  0.00000000000E+00 -0.21331936790E+04  0.21331936790E+04  0.50400001928E-02 0. -1.
    10030    2    1    2    0    0  0.00000000000E+00  0.00000000000E+00 -0.11481896053E+04  0.31181977528E+04  0.28991063892E+04 0.  0.
        5    1    3    3  502    0  0.35588655078E+03 -0.10767318748E+04  0.39700773473E+03  0.12015173734E+04  0.46999998093E+01 0.  1.
       -5    1    3    3    0  502 -0.35588655078E+03  0.10767318748E+04 -0.15451973400E+04  0.19166803794E+04  0.46999998093E+01 0. -1.
</event>
<event>
 5   0  0.2546841E-07  0.2901625E+04  0.7818609E-02  0.8272394E-01
       -2   -1    0    0    0  501  0.00000000000E+00  0.00000000000E+00  0.92494141934E+03  0.92494141934E+03  0.25500000920E-02 0.  1.
        2   -1    0    0  501    0  0.00000000000E+00  0.00000000000E+00 -0.22756653510E+04  0.22756653510E+04  0.25500000920E-02 0. -1.
    10030    2    1    2    0    0  0.00000000000E+00  0.00000000000E+00 -0.13507239316E+04  0.32006067703E+04  0.29016251582E+04 0.  0.
        1    1    3    3  502    0  0.44594912676E+03  0.10257263647E+04 -0.16946276023E+04  0.20304550991E+04  0.50400001928E-02 0. -1.
       -1    1    3    3    0  502 -0.44594912676E+03 -0.10257263647E+04  0.34390367066E+03  0.11701516712E+04  0.50400001928E-02 0.  1.
</event>
<event>
 5   0  0.9395744E-08  0.2899437E+04  0.7818609E-02  0.8273045E-01
       -1   -1    0    0    0  501  0.00000000000E+00  0.00000000000E+00  0.98040449405E+03  0.98040449406E+03  0.50400001928E-02 0. -1.
        1   -1    0    0  501    0  0.00000000000E+00  0.00000000000E+00 -0.21436903539E+04  0.21436903539E+04  0.50400001928E-02 0.  1.
    10030    2    1    2    0    0  0.00000000000E+00  0.00000000000E+00 -0.11632858599E+04  0.31240948480E+04  0.28994369501E+04 0.  0.
        2    1    3    3  502    0  0.76134217368E+03  0.79298523403E+03 -0.15999736134E+04  0.19412323535E+04  0.25500000920E-02 0. -1.
       -2    1    3    3    0  502 -0.76134217368E+03 -0.79298523403E+03  0.43668775350E+03  0.11828624945E+04  0.25500000920E-02 0.  1.
</event>
<event>
 5   0  0.9443352E-08  0.2894761E+04  0.7818609E-02  0.8274438E-01
       -1   -1    0    0    0  501  0.00000000000E+00  0.00000000000E+00  0.11322856351E+04  0.11322856351E+04  0.50400001928E-02 0.  1.
        1   -1    0    0  501    0  0.00000000000E+00  0.00000000000E+00 -0.18501602056E+04  0.18501602057E+04  0.50400001928E-02 0. -1.
    10030    2    1    2    0    0  0.00000000000E+00  0.00000000000E+00 -0.71787457059E+03  0.29824458407E+04  0.28947606626E+04 0.  0.
        4    1    3    3  502    0 -0.89689989967E+03 -0.68877048949E+03  0.57179477194E+03  0.12671957589E+04  0.12699999809E+01 0.  1.
       -4    1    3    3    0  502  0.89689989967E+03  0.68877048949E+03 -0.12896693425E+04  0.17152500818E+04  0.12699999809E+01 0. -1.
</event>
<event>
 5   0  0.9763851E-08  0.2899829E+04  0.7818609E-02  0.8272928E-01
       -1   -1    0    0    0  501  0.00000000000E+00  0.00000000000E+00  0.76807878023E+03  0.76807878024E+03  0.50400001928E-02 0. -1.
        1   -1    0    0  501    0  0.00000000000E+00  0.00000000000E+00 -0.27370259678E+04  0.27370259678E+04  0.50400001928E-02 0.  1.
    10030    2    1    2    0    0  0.00000000000E+00  0.00000000000E+00 -0.19689471876E+04  0.35051047481E+04  0.28998286617E+04 0.  0.
        3    1    3    3  502    0 -0.13852430934E+04  0.15951220756E+03 -0.14647951565E+04  0.20223667899E+04  0.10100000352E+00 0.  1.
       -3    1    3    3    0  502  0.13852430934E+04 -0.15951220756E+03 -0.50415203111E+03  0.14827379582E+04  0.10100000352E+00 0. -1.
</event>
<event>
 5   0  0.2546841E-07  0.2900348E+04  0.7818609E-02  0.8272774E-01
        2   -1    0    0  501    0  0.00000000000E+00  0.00000000000E+00  0.10600552577E+04  0.10600552577E+04  0.25500000920E-02 0.  1.
       -2   -1    0    0    0  501  0.00000000000E+00  0.00000000000E+00 -0.19838630991E+04  0.19838630991E+04  0.25500000920E-02 0. -1.
    10030    2    1    2    0    0  0.00000000000E+00  0.00000000000E+00 -0.92380784139E+03  0.30439183568E+04  0.29003479162E+04 0.  0.
        1    1    3    3  502    0 -0.33151376196E+03 -0.13956163972E+04 -0.23838727020E+03  0.14541234449E+04  0.50400001928E-02 0. -1.
       -1    1    3    3    0  502  0.33151376196E+03  0.13956163972E+04 -0.68542057119E+03  0.15897949119E+04  0.50400001928E-02 0.  1.
</event>
<event>
 5   0  0.9443352E-08  0.2899524E+04  0.7818609E-02  0.8273019E-01
       -1   -1    0    0    0  501  0.00000000000E+00  0.00000000000E+00  0.75372777645E+03  0.75372777647E+03  0.50400001928E-02 0. -1.
        1   -1    0    0  501    0  0.00000000000E+00  0.00000000000E+00 -0.27885533191E+04  0.27885533191E+04  0.50400001928E-02 0.  1.
    10030    2    1    2    0    0  0.00000000000E+00  0.00000000000E+00 -0.20348255426E+04  0.35422810955E+04  0.28995241628E+04 0.  0.
        4    1    3    3  502    0 -0.49638845246E+03  0.68534724866E+03 -0.24555219517E+04  0.25972470070E+04  0.12699999809E+01 0.  1.
       -4    1    3    3    0  502  0.49638845246E+03 -0.68534724866E+03  0.42069640912E+03  0.94503408855E+03  0.12699999809E+01 0. -1.
</event>
<event>
 5   0  0.9443352E-08  0.2901147E+04  0.7818609E-02  0.8272536E-01
        1   -1    0    0  501    0  0.00000000000E+00  0.00000000000E+00  0.17421411857E+04  0.17421411857E+04  0.50400001928E-02 0.  1.
       -1   -1    0    0    0  501  0.00000000000E+00  0.00000000000E+00 -0.12078026804E+04  0.12078026804E+04  0.50400001928E-02 0. -1.
    10030    2    1    2    0    0  0.00000000000E+00  0.00000000000E+00  0.53433850533E+03  0.29499438662E+04  0.29011465277E+04 0.  0.
        4    1    3    3  502    0  0.12028164335E+04  0.87748411078E+02 -0.55242428227E+03  0.13265147406E+04  0.12699999809E+01 0. -1.
       -4    1    3    3    0  502 -0.12028164335E+04 -0.87748411078E+02  0.10867627876E+04  0.16234291256E+04  0.12699999809E+01 0.  1.
</event>
<event>
 5   0  0.9388076E-08  0.2900177E+04  0.7818609E-02  0.8272825E-01
       -1   -1    0    0    0  501  0.00000000000E+00  0.00000000000E+00  0.11184789010E+04  0.11184789010E+04  0.50400001928E-02 0.  1.
        1   -1    0    0  501    0  0.00000000000E+00  0.00000000000E+00 -0.18800146230E+04  0.18800146230E+04  0.50400001928E-02 0. -1.
    10030    2    1    2    0    0  0.00000000000E+00  0.00000000000E+00 -0.76153572199E+03  0.29984935240E+04  0.29001770217E+04 0.  0.
        5    1    3    3  502    0  0.38678086806E+03  0.86147635869E+03  0.75698920033E+03  0.12102874435E+04  0.46999998093E+01 0.  1.
       -5    1    3    3    0  502 -0.38678086806E+03 -0.86147635869E+03 -0.15185249223E+04  0.17882060805E+04  0.46999998093E+01 0. -1.
</event>
<event>
 5   0  0.2608591E-07  0.2900617E+04  0.7818609E-02  0.8272694E-01
       -2   -1    0    0    0  501  0.00000000000E+00  0.00000000000E+00  0.10464005183E+04  0.10464005184E+04  0.25500000920E-02 0.  1.
        2   -1    0    0  501    0  0.00000000000E+00  0.00000000000E+00 -0.20101243811E+04  0.20101243811E+04  0.25500000920E-02 0. -1.
    10030    2    1    2    0    0  0.00000000000E+00  0.00000000000E+00 -0.96372386272E+03  0.30565248994E+04  0.29006173097E+04 0.  0.
        2    1    3    3  502    0 -0.14834206082E+03  0.13570341423E+04 -0.99792847242E+03  0.16909784938E+04  0.25500000920E-02 0. -1.
       -2    1    3    3    0  502  0.14834206082E+03 -0.13570341423E+04  0.34204609694E+02  0.13655464056E+04  0.25500000920E-02 0.  1.
</event>
<event>
 5   0  0.2492232E-07  0.2901332E+04  0.7818609E-02  0.8272481E-01
        2   -1    0    0  501    0  0.00000000000E+00  0.00000000000E+00  0.13204707120E+04  0.13204707120E+04  0.25500000920E-02 0.  1.
       -2   -1    0    0    0  501  0.00000000000E+00  0.00000000000E+00 -0.15936981889E+04  0.15936981889E+04  0.25500000920E-02 0. -1.
    10030    2    1    2    0    0  0.00000000000E+00  0.00000000000E+00 -0.27322747690E+03  0.29141689010E+04  0.29013319578E+04 0.  0.
        4    1    3    3  502    0 -0.12813895412E+04 -0.58463933445E+02 -0.81714597715E+03  0.15208899857E+04  0.12699999809E+01 0. -1.
       -4    1    3    3    0  502  0.12813895412E+04  0.58463933445E+02  0.54391850025E+03  0.13932789152E+04  0.12699999809E+01 0.  1.
</event>
<event>
 5   0  0.2678723E-07  0.2899293E+04  0.7818609E-02  0.8273088E-01
        2   -1    0    0  501    0  0.00000000000E+00  0.00000000000E+00  0.16212483668E+04  0.16212483668E+04  0.25500000920E-02 0. -1.
       -2   -1    0    0    0  501  0.00000000000E+00  0.00000000000E+00 -0.12962081464E+04  0.12962081464E+04  0.25500000920E-02 0.  1.
    10030    2    1    2    0    0  0.00000000000E+00  0.00000000000E+00  0.32504022039E+03  0.29174565132E+04  0.28992932520E+04 0.  0.
        5    1    3    3  502    0  0.85893352659E+03  0.99096523421E+03 -0.45914820762E+03  0.13894668276E+04  0.46999998093E+01 0.  1.
       -5    1    3    3    0  502 -0.85893352659E+03 -0.99096523421E+03  0.78418842801E+03  0.15279896855E+04  0.46999998093E+01 0. -1.
</event>
<event>
 5   0  0.2534588E-07  0.2898731E+04  0.7818609E-02  0.8273255E-01
        2   -1    0    0  501    0  0.00000000000E+00  0.00000000000E+00  0.15295382954E+04  0.15295382954E+04  0.25500000920E-02 0.  1.
       -2   -1    0    0    0  501  0.00000000000E+00  0.00000000000E+00 -0.13733947485E+04  0.13733947485E+04  0.25500000920E-02 0. -1.
    10030    2    1    2    0    0  0.00000000000E+00  0.00000000000E+00  0.15614354693E+03  0.29029330439E+04  0.28987306619E+04 0.  0.
        3    1    3    3  502    0  0.11659399010E+04  0.16744477193E+03  0.92381148674E+03  0.14969573399E+04  0.10100000352E+00 0.  1.
       -3    1    3    3    0  502 -0.11659399010E+04 -0.16744477193E+03 -0.76766793980E+03  0.14059757040E+04  0.10100000352E+00 0. -1.
</event>
<event>
 5   0  0.2678723E-07  0.2901089E+04  0.7818609E-02  0.8272554E-01
        2   -1    0    0  501    0  0.00000000000E+00  0.00000000000E+00  0.16406978745E+04  0.16406978745E+04  0.25500000920E-02 0. -1.
       -2   -1    0    0    0  501  0.00000000000E+00  0.00000000000E+00 -0.12824295979E+04  0.12824295979E+04  0.25500000920E-02 0.  1.
    10030    2    1    2    0    0  0.00000000000E+00  0.00000000000E+00  0.35826827661E+03  0.29231274723E+04  0.29010891164E+04 0.  0.
        5    1    3    3  502    0 -0.23262748790E+03  0.21654273221E+03  0.16051774024E+04  0.16363443667E+04  0.46999998093E+01 0. -1.
       -5    1    3    3    0  502  0.23262748790E+03 -0.21654273221E+03 -0.12469091258E+04  0.12867831057E+04  0.46999998093E+01 0.  1.
</event>
<event>
 5   0  0.2608591E-07  0.2900086E+04  0.7818609E-02  0.8272852E-01
       -2   -1    0    0    0  501  0.00000000000E+00  0.00000000000E+00  0.11502044734E+04  0.11502044734E+04  0.25500000920E-02 0. -1.
        2   -1    0    0  501    0  0.00000000000E+00  0.00000000000E+00 -0.18280443757E+04  0.18280443757E+04  0.25500000920E-02 0.  1.
    10030    2    1    2    0    0  0.00000000000E+00  0.00000000000E+00 -0.67783990231E+03  0.29782488492E+04  0.29000860805E+04 0.  0.
        2    1    3    3  502    0 -0.85222558528E+03 -0.86522441339E+03 -0.11525634224E+04  0.16743070735E+04  0.25500000920E-02 0. -1.
       -2    1    3    3    0  502  0.85222558528E+03  0.86522441339E+03  0.47472352012E+03  0.13039417757E+04  0.25500000920E-02 0.  1.
</event>
<event>
 5   0  0.9421924E-08  0.2902036E+04  0.7818609E-02  0.8272272E-01
       -1   -1    0    0    0  501  0.00000000000E+00  0.00000000000E+00  0.85923660129E+03  0.85923660131E+03  0.50400001928E-02 0. -1.
        1   -1    0    0  501    0  0.00000000000E+00  0.00000000000E+00 -0.24503761424E+04  0.24503761424E+04  0.50400001928E-02 0.  1.
    10030    2    1    2    0    0  0.00000000000E+00  0.00000000000E+00 -0.15911395411E+04  0.33096127437E+04  0.29020357465E+04 0.  0.
        1    1    3    3  502    0 -0.13108118258E+03 -0.12583561618E+04  0.14716635569E+02  0.12652506020E+04  0.50400001928E-02 0. -1.
       -1    1    3    3    0  502  0.13108118258E+03  0.12583561618E+04 -0.16058561766E+04  0.20443621417E+04  0.50400001928E-02 0.  1.
</event>
<event>
 5   0  0.9443352E-08  0.2900465E+04  0.7818609E-02  0.8272739E-01
        1   -1    0    0  501    0  0.00000000000E+00  0.00000000000E+00  0.13215034338E+04  0.13215034338E+04  0.50400001928E-02 0. -1.
       -1   -1    0    0    0  501  0.00000000000E+00  0.00000000000E+00 -0.15915008519E+04  0.15915008519E+04  0.50400001928E-02 0.  1.
    10030    2    1    2    0    0  0.00000000000E+00  0.00000000000E+00 -0.26999741813E+03  0.29130042857E+04  0.29004646805E+04 0.  0.
        4    1    3    3  502    0  0.65028162428E+03 -0.89649917893E+03 -0.10753131395E+04  0.15436569987E+04  0.12699999809E+01 0.  1.
       -4    1    3    3    0  502 -0.65028162428E+03  0.89649917893E+03  0.80531572134E+03  0.13693472871E+04  0.12699999809E+01 0. -1.
</event>
<event>
 5   0  0.2492232E-07  0.2899681E+04  0.7818609E-02  0.8272972E-01
       -2   -1    0    0    0  501  0.00000000000E+00  0.00000000000E+00  0.14852508633E+04  0.14852508633E+04  0.25500000920E-02 0.  1.
        2   -1    0    0  501    0  0.00000000000E+00  0.00000000000E+00 -0.14152742887E+04  0.14152742887E+04  0.25500000920E-02 0. -1.
    10030    2    1    2    0    0  0.00000000000E+00  0.00000000000E+00  0.69976574633E+02  0.29005251519E+04  0.28996809197E+04 0.  0.
        4    1    3    3  502    0  0.51354155612E+03 -0.93438130701E+03 -0.94776525517E+03  0.14265531706E+04  0.12699999809E+01 0. -1.
       -4    1    3    3    0  502 -0.51354155612E+03  0.93438130701E+03  0.10177418298E+04  0.14739719813E+04  0.12699999809E+01 0.  1.
</event>
<event>
 5   0  0.2492232E-07  0.2898761E+04  0.7818609E-02  0.8273246E-01
       -2   -1    0    0    0  501  0.00000000000E+00  0.00000000000E+00  0.17815523690E+04  0.17815523690E+04  0.25500000920E-02 0. -1.
        2   -1    0    0  501    0  0.00000000000E+00  0.00000000000E+00 -0.11791422847E+04  0.11791422847E+04  0.25500000920E-02 0.  1.
    10030    2    1    2    0    0  0.00000000000E+00  0.00000000000E+00  0.60241008434E+03  0.29606946538E+04  0.28987609289E+04 0.  0.
        4    1    3    3  502    0  0.57543202633E+03  0.92289367508E+03 -0.67730762761E+03  0.12812501660E+04  0.12699999809E+01 0.  1.
       -4    1    3    3    0  502 -0.57543202633E+03 -0.92289367508E+03  0.12797177119E+04  0.16794444878E+04  0.12699999809E+01 0. -1.
</event>
<event>
 5   0  0.9395744E-08  0.2902003E+04  0.7818609E-02  0.8272282E-01
       -1   -1    0    0    0  501  0.00000000000E+00  0.00000000000E+00  0.13438910620E+04  0.13438910620E+04  0.50400001928E-02 0. -1.
        1   -1    0    0  501    0  0.00000000000E+00  0.00000000000E+00 -0.15666487083E+04  0.15666487083E+04  0.50400001928E-02 0.  1.
    10030    2    1    2    0    0  0.00000000000E+00  0.00000000000E+00 -0.22275764623E+03  0.29105397703E+04  0.29020028921E+04 0.  0.
        2    1    3    3  502    0 -0.18188954291E+03 -0.89290510212E+03 -0.12438780654E+04  0.15419455142E+04  0.25500000920E-02 0.  1.
       -2    1    3    3    0  502  0.18188954291E+03  0.89290510212E+03  0.10211204192E+04  0.13685942561E+04  0.25500000920E-02 0. -1.
</event>
<event>
 5   0  0.9395744E-08  0.2899727E+04  0.7818609E-02  0.8272959E-01
        1   -1    0    0  501    0  0.00000000000E+00  0.00000000000E+00  0.11228762981E+04  0.11228762981E+04  0.50400001928E-02 0. -1.
       -1   -1    0    0    0  501  0.00000000000E+00  0.00000000000E+00 -0.18720708273E+04  0.18720708273E+04  0.50400001928E-02 0.  1.
    10030    2    1    2    0    0  0.00000000000E+00  0.00000000000E+00 -0.74919452922E+03  0.29949471254E+04  0.28997268564E+04 0.  0.
        2    1    3    3  502    0  0.11993624017E+04  0.38003765879E+01 -0.12159761092E+04  0.17079468702E+04  0.25500000920E-02 0.  1.
       -2    1    3    3    0  502 -0.11993624017E+04 -0.38003765879E+01  0.46678157996E+03  0.12870002552E+04  0.25500000920E-02 0. -1.
</event>
<event>
 5   0  0.2608591E-07  0.2900502E+04  0.7818609E-02  0.8272728E-01
        2   -1    0    0  501    0  0.00000000000E+00  0.00000000000E+00  0.23918014795E+04  0.23918014795E+04  0.25500000920E-02 0. -1.
       -2   -1    0    0    0  501  0.00000000000E+00  0.00000000000E+00 -0.87934905012E+03  0.87934905012E+03  0.25500000920E-02 0.  1.
    10030    2    1    2    0    0  0.00000000000E+00  0.00000000000E+00  0.15124524294E+04  0.32711505297E+04  0.29005022731E+04 0.  0.
        2    1    3    3  502    0  0.82790738794E+03 -0.54943364442E+03 -0.43513628381E+03  0.10847357089E+04  0.25500000920E-02 0. -1.
       -2    1    3    3    0  502 -0.82790738794E+03  0.54943364442E+03  0.19475887132E+04  0.21864148208E+04  0.25500000920E-02 0.  1.
</event>
<event>
 5   0  0.2534588E-07  0.2901666E+04  0.7818609E-02  0.8272382E-01
        2   -1    0    0  501    0  0.00000000000E+00  0.00000000000E+00  0.17169643554E+04  0.17169643554E+04  0.25500000920E-02 0. -1.
       -2   -1    0    0    0  501  0.00000000000E+00  0.00000000000E+00 -0.12259521333E+04  0.12259521333E+04  0.25500000920E-02 0.  1.
    10030    2    1    2    0    0  0.00000000000E+00  0.00000000000E+00  0.49101222207E+03  0.29429164888E+04  0.29016658074E+04 0.  0.
        3    1    3    3  502    0  0.55691316928E+03  0.78513644161E+03  0.13464445047E+04  0.16551448047E+04  0.10100000352E+00 0. -1.
       -3    1    3    3    0  502 -0.55691316928E+03 -0.78513644161E+03 -0.85543228259E+03  0.12877716841E+04  0.10100000352E+00 0.  1.
</event>
<event>
 5   0  0.2608591E-07  0.2907433E+04  0.7818609E-02  0.8270669E-01
       -2   -1    0    0    0  501  0.00000000000E+00  0.00000000000E+00  0.12368791515E+04  0.12368791515E+04  0.25500000920E-02 0.  1.
        2   -1    0    0  501    0  0.00000000000E+00  0.00000000000E+00 -0.17085678153E+04  0.17085678153E+04  0.25500000920E-02 0. -1.
    10030    2    1    2    0    0  0.00000000000E+00  0.00000000000E+00 -0.47168866375E+03  0.29454469668E+04  0.29074331701E+04 0.  0.
        2    1    3    3  502    0 -0.44992778947E+03 -0.45906109031E+03  0.10850900081E+04  0.12611869116E+04  0.25500000920E-02 0.  1.
       -2    1    3    3    0  502  0.44992778947E+03  0.45906109031E+03 -0.15567786718E+04  0.16842600552E+04  0.25500000920E-02 0. -1.
</event>
<event>
 5   0  0.2546841E-07  0.2893919E+04  0.7818609E-02  0.8274689E-01
        2   -1    0    0  501    0  0.00000000000E+00  0.00000000000E+00  0.14663951977E+04  0.14663951977E+04  0.25500000920E-02 0.  1.
       -2   -1    0    0    0  501  0.00000000000E+00  0.00000000000E+00 -0.14277815315E+04  0.14277815315E+04  0.25500000920E-02 0. -1.
    10030    2    1    2    0    0  0.00000000000E+00  0.00000000000E+00  0.38613666150E+02  0.28941767292E+04  0.28939191289E+04 0.  0.
        1    1    3    3  502    0 -0.12794650206E+04 -0.49500549415E+03 -0.44076759683E+03  0.14409501214E+04  0.50400001928E-02 0.  1.
       -1    1    3    3    0  502  0.12794650206E+04  0.49500549415E+03  0.47938126298E+03  0.14532266077E+04  0.50400001928E-02 0. -1.
</event>
<event>
 5   0  0.9388076E-08  0.2899835E+04  0.7818609E-02  0.8272927E-01
        1   -1    0    0  501    0  0.00000000000E+00  0.00000000000E+00  0.19439371763E+04  0.19439371763E+04  0.50400001928E-02 0.  1.
       -1   -1    0    0    0  501  0.00000000000E+00  0.00000000000E+00 -0.10814444834E+04  0.10814444834E+04  0.50400001928E-02 0. -1.
    10030    2    1    2    0    0  0.00000000000E+00  0.00000000000E+00  0.86249269288E+03  0.30253816597E+04  0.28998345714E+04 0.  0.
        5    1    3    3  502    0  0.32474274278E+03 -0.31990745654E+03  0.18672227622E+04  0.19220670029E+04  0.46999998093E+01 0.  1.
       -5    1    3    3    0  502 -0.32474274278E+03  0.31990745654E+03 -0.10047300693E+04  0.11033146568E+04  0.46999998093E+01 0. -1.
</event>
<event>
 5   0  0.2678723E-07  0.2903045E+04  0.7818609E-02  0.8271972E-01
       -2   -1    0    0    0  501  0.00000000000E+00  0.00000000000E+00  0.15532532823E+04  0.15532532823E+04  0.25500000920E-02 0. -1.
        2   -1    0    0  501    0  0.00000000000E+00  0.00000000000E+00 -0.13564548625E+04  0.13564548625E+04  0.25500000920E-02 0.  1.
    10030    2    1    2    0    0  0.00000000000E+00  0.00000000000E+00  0.19679841977E+03  0.29097081448E+04  0.29030452752E+04 0.  0.
        5    1    3    3  502    0 -0.90104963558E+02  0.14107356652E+04  0.42870352273E+03  0.14771942397E+04  0.46999998093E+01 0. -1.
       -5    1    3    3    0  502  0.90104963558E+02 -0.14107356652E+04 -0.23190510296E+03  0.14325139051E+04  0.46999998093E+01 0.  1.
</event>
<event>
 5   0  0.2492232E-07  0.2898419E+04  0.7818609E-02  0.8273348E-01
       -2   -1    0    0    0  501  0.00000000000E+00  0.00000000000E+00  0.91843277870E+03  0.91843277870E+03  0.25500000920E-02 0. -1.
        2   -1    0    0  501    0  0.00000000000E+00  0.00000000000E+00 -0.22867302984E+04  0.22867302984E+04  0.25500000920E-02 0.  1.
    10030    2    1    2    0    0  0.00000000000E+00  0.00000000000E+00 -0.13682975197E+04  0.32051630771E+04  0.28984189222E+04 0.  0.
        4    1    3    3  502    0 -0.96301930048E+03  0.99646667084E+03 -0.11531236266E+04  0.18027888702E+04  0.12699999809E+01 0.  1.
       -4    1    3    3    0  502  0.96301930048E+03 -0.99646667084E+03 -0.21517389311E+03  0.14023742070E+04  0.12699999809E+01 0. -1.
</event>
<event>
 5   0  0.2608591E-07  0.2901127E+04  0.7818609E-02  0.8272542E-01
        2   -1    0    0  501    0  0.00000000000E+00  0.00000000000E+00  0.19381900773E+04  0.19381900773E+04  0.25500000920E-02 0. -1.
       -2   -1    0    0    0  501  0.00000000000E+00  0.00000000000E+00 -0.10856181473E+04  0.10856181473E+04  0.25500000920E-02 0.  1.
    10030    2    1    2    0    0  0.00000000000E+00  0.00000000000E+00  0.85257192999E+03  0.30238082246E+04  0.29011268988E+04 0.  0.
        2    1    3    3  502    0  0.10874463808E+03  0.12144492564E+04  0.12452758594E+04  0.17428208051E+04  0.25500000920E-02 0.  1.
       -2    1    3    3    0  502 -0.10874463808E+03 -0.12144492564E+04 -0.39270392941E+03  0.12809874195E+04  0.25500000920E-02 0. -1.
</event>
<event>
 5   0  0.9388076E-08  0.2901361E+04  0.7818609E-02  0.8272473E-01
        1   -1    0    0  501    0  0.00000000000E+00  0.00000000000E+00  0.14180296650E+04  0.14180296650E+04  0.50400001928E-02 0. -1.
       -1   -1    0    0    0  501  0.00000000000E+00  0.00000000000E+00 -0.14840827101E+04  0.14840827101E+04  0.50400001928E-02 0.  1.
    10030    2    1    2    0    0  0.00000000000E+00  0.00000000000E+00 -0.66053045062E+02  0.29021123751E+04  0.29013605831E+04 0.  0.
        5    1    3    3  502    0  0.68453335872E+03  0.82117090056E+02 -0.13097279201E+04  0.14801143370E+04  0.46999998093E+01 0.  1.
       -5    1    3    3    0  502 -0.68453335872E+03 -0.82117090056E+02  0.12436748751E+04  0.14219980382E+04  0.46999998093E+01 0. -1.
</event>
<event>
 5   0  0.9388076E-08  0.2903713E+04  0.7818609E-02  0.8271774E-01
       -1   -1    0    0    0  501  0.00000000000E+00  0.00000000000E+00  0.14652192757E+04  0.14652192757E+04  0.50400001928E-02 0. -1.
        1   -1    0    0  501    0  0.00000000000E+00  0.00000000000E+00 -0.14386151898E+04  0.14386151898E+04  0.50400001928E-02 0.  1.
    10030    2    1    2    0    0  0.00000000000E+00  0.00000000000E+00  0.26604085948E+02  0.29038344655E+04  0.29037125935E+04 0.  0.
        5    1    3    3  502    0 -0.12597046689E+04  0.20338328999E+03  0.70589446585E+03  0.14582625629E+04  0.46999998093E+01 0. -1.
       -5    1    3    3    0  502  0.12597046689E+04 -0.20338328999E+03 -0.67929037991E+03  0.14455719026E+04  0.46999998093E+01 0.  1.
</event>
<event>
 5   0  0.2546841E-07  0.2900096E+04  0.7818609E-02  0.8272849E-01
        2   -1    0    0  501    0  0.00000000000E+00  0.00000000000E+00  0.23017766757E+04  0.23017766757E+04  0.25500000920E-02 0.  1.
       -2   -1    0    0    0  501  0.00000000000E+00  0.00000000000E+00 -0.91348561920E+03  0.91348561921E+03  0.25500000920E-02 0. -1.
    10030    2    1    2    0    0  0.00000000000E+00  0.00000000000E+00  0.13882910565E+04  0.32152622949E+04  0.29000964755E+04 0.  0.
        1    1    3    3  502    0 -0.30513032465E+03 -0.45881648758E+03 -0.79289325937E+03  0.96555517972E+03  0.50400001928E-02 0. -1.
       -1    1    3    3    0  502  0.30513032465E+03  0.45881648758E+03  0.21811843159E+04  0.22497071152E+04  0.50400001928E-02 0.  1.
</event>
<event>
 5   0  0.2678723E-07  0.2900550E+04  0.7818609E-02  0.8272714E-01
        2   -1    0    0  501    0  0.00000000000E+00  0.00000000000E+00  0.12799873568E+04  0.12799873568E+04  0.25500000920E-02 0. -1.
       -2   -1    0    0    0  501  0.00000000000E+00  0.00000000000E+00 -0.16432174199E+04  0.16432174199E+04  0.25500000920E-02 0.  1.
    10030    2    1    2    0    0  0.00000000000E+00  0.00000000000E+00 -0.36323006310E+03  0.29232047767E+04  0.29005499630E+04 0.  0.
        5    1    3    3  502    0 -0.43922070522E+03  0.68068504027E+03 -0.13939354739E+04  0.16122422731E+04  0.46999998093E+01 0.  1.
       -5    1    3    3    0  502  0.43922070522E+03 -0.68068504027E+03  0.10307054108E+04  0.13109625036E+04  0.46999998093E+01 0. -1.
</event>
<event>
 5   0  0.2678723E-07  0.2899469E+04  0.7818609E-02  0.8273035E-01
       -2   -1    0    0    0  501  0.00000000000E+00  0.00000000000E+00  0.28408606482E+04  0.28408606482E+04  0.25500000920E-02 0. -1.
        2   -1    0    0  501    0  0.00000000000E+00  0.00000000000E+00 -0.73982171651E+03  0.73982171651E+03  0.25500000920E-02 0.  1.
    10030    2    1    2    0    0  0.00000000000E+00  0.00000000000E+00  0.21010389317E+04  0.35806823647E+04  0.28994691936E+04 0.  0.
        5    1    3    3  502    0  0.12631840207E+03 -0.47197947412E+03  0.27361106505E+04  0.27793964353E+04  0.46999998093E+01 0. -1.
       -5    1    3    3    0  502 -0.12631840207E+03  0.47197947412E+03 -0.63507171880E+03  0.80128592944E+03  0.46999998093E+01 0.  1.
</event>
<event>
 5   0  0.9443352E-08  0.2898640E+04  0.7818609E-02  0.8273282E-01
        1   -1    0    0  501    0  0.00000000000E+00  0.00000000000E+00  0.26352753778E+04  0.26352753778E+04  0.50400001928E-02 0.  1.
       -1   -1    0    0    0  501  0.00000000000E+00  0.00000000000E+00 -0.79708107870E+03  0.79708107872E+03  0.50400001928E-02 0. -1.
    10030    2    1    2    0    0  0.00000000000E+00  0.00000000000E+00  0.18381942991E+04  0.34323564565E+04  0.28986397781E+04 0.  0.
        4    1    3    3  502    0 -0.64174240218E+03  0.12710469595E+04  0.59887278888E+03  0.15446824639E+04  0.12699999809E+01 0. -1.
       -4    1    3    3    0  502  0.64174240218E+03 -0.12710469595E+04  0.12393215102E+04  0.18876739926E+04  0.12699999809E+01 0.  1.
</event>
<event>
 5   0  0.9443352E-08  0.2902576E+04  0.7818609E-02  0.8272111E-01
       -1   -1    0    0    0  501  0.00000000000E+00  0.00000000000E+00  0.20475768677E+04  0.20475768677E+04  0.50400001928E-02 0.  1.
        1   -1    0    0  501    0  0.00000000000E+00  0.00000000000E+00 -0.10286484162E+04  0.10286484162E+04  0.50400001928E-02 0. -1.
    10030    2    1    2    0    0  0.00000000000E+00  0.00000000000E+00  0.10189284515E+04  0.30762252839E+04  0.29025758919E+04 0.  0.
        4    1    3    3  502    0 -0.69220140753E+03 -0.10992775050E+04  0.11952308092E+04  0.17652569563E+04  0.12699999809E+01 0. -1.
       -4    1    3    3    0  502  0.69220140753E+03  0.10992775050E+04 -0.17630235777E+03  0.13109683276E+04  0.12699999809E+01 0.  1.
</event>
<event>
 5   0  0.9395744E-08  0.2899947E+04  0.7818609E-02  0.8272893E-01
        1   -1    0    0  501    0  0.00000000000E+00  0.00000000000E+00  0.11973539324E+04  0.11973539324E+04  0.50400001928E-02 0.  1.
       -1   -1    0    0    0  501  0.00000000000E+00  0.00000000000E+00 -0.17558913206E+04  0.17558913206E+04  0.50400001928E-02 0. -1.
    10030    2    1    2    0    0  0.00000000000E+00  0.00000000000E+00 -0.55853738822E+03  0.29532452530E+04  0.28999471564E+04 0.  0.
        2    1    3    3  502    0  0.93341349651E+03 -0.81471943132E+03 -0.10463689594E+04  0.16217017317E+04  0.25500000920E-02 0.  1.
       -2    1    3    3    0  502 -0.93341349651E+03  0.81471943132E+03  0.48783157120E+03  0.13315435213E+04  0.25500000920E-02 0. -1.
</event>
<event>
 5   0  0.2546841E-07  0.2900620E+04  0.7818609E-02  0.8272693E-01
        2   -1    0    0  501    0  0.00000000000E+00  0.00000000000E+00  0.21248962124E+04  0.21248962124E+04  0.25500000920E-02 0. -1.
       -2   -1    0    0    0  501  0.00000000000E+00  0.00000000000E+00 -0.98988316031E+03  0.98988316031E+03  0.25500000920E-02 0.  1.
    10030    2    1    2    0    0  0.00000000000E+00  0.00000000000E+00  0.11350130521E+04  0.31147793728E+04  0.29006199186E+04 0.  0.
        1    1    3    3  502    0 -0.12855161562E+04 -0.66277941695E+03  0.68301532214E+03  0.15994806262E+04  0.50400001928E-02 0. -1.
       -1    1    3    3    0  502  0.12855161562E+04  0.66277941695E+03  0.45199772999E+03  0.15152987465E+04  0.50400001928E-02 0.  1.
</event>
<event>
 5   0  0.2678723E-07  0.2904287E+04  0.7818609E-02  0.8271603E-01
       -2   -1    0    0    0  501  0.00000000000E+00  0.00000000000E+00  0.97982386665E+03  0.97982386665E+03  0.25500000920E-02 0.  1.
        2   -1    0    0  501    0  0.00000000000E+00  0.00000000000E+00 -0.21521423347E+04  0.21521423347E+04  0.25500000920E-02 0. -1.
    10030    2    1    2    0    0  0.00000000000E+00  0.00000000000E+00 -0.11723184681E+04  0.31319662014E+04  0.29042867792E+04 0.  0.
        5    1    3    3  502    0 -0.28867294725E+02  0.14295083480E+03 -0.21442169331E+04  0.21491757974E+04  0.46999998093E+01 0. -1.
       -5    1    3    3    0  502  0.28867294725E+02 -0.14295083480E+03  0.97189846502E+03  0.98279040399E+03  0.46999998093E+01 0.  1.
</event>
<event>
 5   0  0.2534588E-07  0.2901242E+04  0.7818609E-02  0.8272508E-01
        2   -1    0    0  501    0  0.00000000000E+00  0.00000000000E+00  0.15068897247E+04  0.15068897247E+04  0.25500000920E-02 0.  1.
       -2   -1    0    0    0  501  0.00000000000E+00  0.00000000000E+00 -0.13964530601E+04  0.13964530601E+04  0.25500000920E-02 0. -1.
    10030    2    1    2    0    0  0.00000000000E+00  0.00000000000E+00  0.11043666460E+03  0.29033427849E+04  0.29012416427E+04 0.  0.
        3    1    3    3  502    0 -0.10129984662E+03 -0.66601131058E+02 -0.13913746152E+04  0.13966462328E+04  0.10100000352E+00 0. -1.
       -3    1    3    3    0  502  0.10129984662E+03  0.66601131058E+02  0.15018112798E+04  0.15066965521E+04  0.10100000352E+00 0.  1.
</event>
<event>
 5   0  0.9421924E-08  0.2900019E+04  0.7818609E-02  0.8272872E-01
        1   -1    0    0  501    0  0.00000000000E+00  0.00000000000E+00  0.13828976185E+04  0.13828976185E+04  0.50400001928E-02 0.  1.
       -1   -1    0    0    0  501  0.00000000000E+00  0.00000000000E+00 -0.15203781839E+04  0.15203781839E+04  0.50400001928E-02 0. -1.
    10030    2    1    2    0    0  0.00000000000E+00  0.00000000000E+00 -0.13748056540E+03  0.29032758023E+04  0.29000188755E+04 0.  0.
        1    1    3    3  502    0 -0.52234550310E+03  0.59059319283E+03  0.11495414437E+04  0.13939478738E+04  0.50400001928E-02 0.  1.
       -1    1    3    3    0  502  0.52234550310E+03 -0.59059319283E+03 -0.12870220091E+04  0.15093279286E+04  0.50400001928E-02 0. -1.
</event>
<event>
 5   0  0.2546841E-07  0.2899743E+04  0.7818609E-02  0.8272954E-01
        2   -1    0    0  501    0  0.00000000000E+00  0.00000000000E+00  0.28917724958E+04  0.28917724958E+04  0.25500000920E-02 0.  1.
       -2   -1    0    0    0  501  0.00000000000E+00  0.00000000000E+00 -0.72693380242E+03  0.72693380242E+03  0.25500000920E-02 0. -1.
    10030    2    1    2    0    0  0.00000000000E+00  0.00000000000E+00  0.21648386934E+04  0.36187062982E+04  0.28997428687E+04 0.  0.
        1    1    3    3  502    0  0.66255843205E+03 -0.25962995049E+02 -0.52663487963E+03  0.84675973538E+03  0.50400001928E-02 0. -1.
       -1    1    3    3    0  502 -0.66255843205E+03  0.25962995049E+02  0.26914735730E+04  0.27719465628E+04  0.50400001928E-02 0.  1.
</event>
<event>
 5   0  0.9443352E-08  0.2901944E+04  0.7818609E-02  0.8272299E-01
        1   -1    0    0  501    0  0.00000000000E+00  0.00000000000E+00  0.18866840655E+04  0.18866840655E+04  0.50400001928E-02 0. -1.
       -1   -1    0    0    0  501  0.00000000000E+00  0.00000000000E+00 -0.11158832040E+04  0.11158832040E+04  0.50400001928E-02 0.  1.
    10030    2    1    2    0    0  0.00000000000E+00  0.00000000000E+00  0.77080086149E+03  0.30025672695E+04  0.29019435280E+04 0.  0.
        4    1    3    3  502    0 -0.15847959102E+02  0.28344960655E+03  0.18576673557E+04  0.18792350717E+04  0.12699999809E+01 0. -1.
       -4    1    3    3    0  502  0.15847959102E+02 -0.28344960655E+03 -0.10868664943E+04  0.11233321977E+04  0.12699999809E+01 0.  1.
</event>
<event>
 5   0  0.2534588E-07  0.2900161E+04  0.7818609E-02  0.8272830E-01
        2   -1    0    0  501    0  0.00000000000E+00  0.00000000000E+00  0.14705248128E+04  0.14705248128E+04  0.25500000920E-02 0. -1.
       -2   -1    0    0    0  501  0.00000000000E+00  0.00000000000E+00 -0.14299199609E+04  0.14299199609E+04  0.25500000920E-02 0.  1.
    10030    2    1    2    0    0  0.00000000000E+00  0.00000000000E+00  0.40604851944E+02  0.29004447737E+04  0.29001605354E+04 0.  0.
        3    1    3    3  502    0 -0.14409627646E+04  0.12746757746E+03  0.12086624885E+03  0.14516302327E+04  0.10100000352E+00 0.  1.
       -3    1    3    3    0  502  0.14409627646E+04 -0.12746757746E+03 -0.80261396907E+02  0.14488145410E+04  0.10100000352E+00 0. -1.
</event>
<event>
 5   0  0.2492232E-07  0.2899766E+04  0.7818609E-02  0.8272947E-01
       -2   -1    0    0    0  501  0.00000000000E+00  0.00000000000E+00  0.16231831094E+04  0.16231831094E+04  0.25500000920E-02 0.  1.
        2   -1    0    0  501    0  0.00000000000E+00  0.00000000000E+00 -0.12950855168E+04  0.12950855168E+04  0.25500000920E-02 0. -1.
    10030    2    1    2    0    0  0.00000000000E+00  0.00000000000E+00  0.32809759264E+03  0.29182686262E+04  0.28997661534E+04 0.  0.
        4    1    3    3  502    0 -0.33293591551E+03  0.10445273041E+04 -0.79083397210E+03  0.13517779393E+04  0.12699999809E+01 0. -1.
       -4    1    3    3    0  502  0.33293591551E+03 -0.10445273041E+04  0.11189315647E+04  0.15664906869E+04  0.12699999809E+01 0.  1.
</event>
<event>
 5   0  0.9421924E-08  0.2900911E+04  0.7818609E-02  0.8272607E-01
       -1   -1    0    0    0  501  0.00000000000E+00  0.00000000000E+00  0.99470868973E+03  0.99470868974E+03  0.50400001928E-02 0.  1.
        1   -1    0    0  501    0  0.00000000000E+00  0.00000000000E+00 -0.21150119672E+04  0.21150119673E+04  0.50400001928E-02 0. -1.
    10030    2    1    2    0    0  0.00000000000E+00  0.00000000000E+00 -0.11203032775E+04  0.31097206570E+04  0.29009107416E+04 0.  0.
        1    1    3    3  502    0 -0.11530390165E+04 -0.51886197289E+03  0.20171234454E+03  0.12803923580E+04  0.50400001928E-02 0.  1.
       -1    1    3    3    0  502  0.11530390165E+04  0.51886197289E+03 -0.13220156221E+04  0.18293282990E+04  0.50400001928E-02 0. -1.
</event>
<event>
 5   0  0.2546841E-07  0.2903565E+04  0.7818609E-02  0.8271818E-01
       -2   -1    0    0    0  501  0.00000000000E+00  0.00000000000E+00  0.10053661972E+04  0.10053661972E+04  0.25500000920E-02 0. -1.
        2   -1    0    0  501    0  0.00000000000E+00  0.00000000000E+00 -0.20964228170E+04  0.20964228170E+04  0.25500000920E-02 0.  1.
    10030    2    1    2    0    0  0.00000000000E+00  0.00000000000E+00 -0.10910566198E+04  0.31017890142E+04  0.29035651433E+04 0.  0.
        1    1    3    3  502    0 -0.17454056941E+03  0.36191601678E+03  0.94478371349E+03  0.10266761314E+04  0.50400001928E-02 0. -1.
       -1    1    3    3    0  502  0.17454056941E+03 -0.36191601678E+03 -0.20358403333E+04  0.20751128828E+04  0.50400001928E-02 0.  1.
</event>
<event>
 5   0  0.9388076E-08  0.2898538E+04  0.7818609E-02  0.8273313E-01
        1   -1    0    0  501    0  0.00000000000E+00  0.00000000000E+00  0.22833986530E+04  0.22833986530E+04  0.50400001928E-02 0. -1.
       -1   -1    0    0    0  501  0.00000000000E+00  0.00000000000E+00 -0.91984815878E+03  0.91984815880E+03  0.50400001928E-02 0.  1.
    10030    2    1    2    0    0  0.00000000000E+00  0.00000000000E+00  0.13635504942E+04  0.32032468118E+04  0.28985375946E+04 0.  0.
        5    1    3    3  502    0  0.77527804369E+03  0.82528989339E+03  0.16814087552E+04  0.20271450232E+04  0.46999998093E+01 0. -1.
       -5    1    3    3    0  502 -0.77527804369E+03 -0.82528989339E+03 -0.31785826093E+03  0.11761017886E+04  0.46999998093E+01 0.  1.
</event>
<event>
 5   0  0.9388076E-08  0.2900133E+04  0.7818609E-02  0.8272838E-01
        1   -1    0    0  501    0  0.00000000000E+00  0.00000000000E+00  0.17283311177E+04  0.17283311177E+04  0.50400001928E-02 0.  1.
       -1   -1    0    0    0  501  0.00000000000E+00  0.00000000000E+00 -0.12166026350E+04  0.12166026350E+04  0.50400001928E-02 0. -1.
    10030    2    1    2    0    0  0.00000000000E+00  0.00000000000E+00  0.51172848274E+03  0.29449337527E+04  0.29001325431E+04 0.  0.
        5    1    3    3  502    0  0.74637717092E+03 -0.12361105888E+04  0.39066217078E+03  0.14958901333E+04  0.46999998093E+01 0.  1.
       -5    1    3    3    0  502 -0.74637717092E+03  0.12361105888E+04  0.12106631196E+03  0.14490436194E+04  0.46999998093E+01 0. -1.
</event>
<event>
 5   0  0.9421924E-08  0.2896608E+04  0.7818609E-02  0.8273887E-01
       -1   -1    0    0    0  501  0.00000000000E+00  0.00000000000E+00  0.11198084561E+04  0.11198084561E+04  0.50400001928E-02 0. -1.
        1   -1    0    0  501    0  0.00000000000E+00  0.00000000000E+00 -0.18731637383E+04  0.18731637383E+04  0.50400001928E-02 0.  1.
    10030    2    1    2    0    0  0.00000000000E+00  0.00000000000E+00 -0.75335528221E+03  0.29929721944E+04  0.28966080811E+04 0.  0.
        1    1    3    3  502    0  0.13325663182E+04 -0.16086817951E+03 -0.93881055354E+03  0.16379794929E+04  0.50400001928E-02 0. -1.
       -1    1    3    3    0  502 -0.13325663182E+04  0.16086817951E+03  0.18545527132E+03  0.13549927015E+04  0.50400001928E-02 0.  1.
</event>
<event>
 5   0  0.9763851E-08  0.2900406E+04  0.7818609E-02  0.8272757E-01
       -1   -1    0    0    0  501  0.00000000000E+00  0.00000000000E+00  0.12683800244E+04  0.12683800244E+04  0.50400001928E-02 0.  1.
        1   -1    0    0  501    0  0.00000000000E+00  0.00000000000E+00 -0.16580899750E+04  0.16580899750E+04  0.50400001928E-02 0. -1.
    10030    2    1    2    0    0  0.00000000000E+00  0.00000000000E+00 -0.38970995057E+03  0.29264699994E+04  0.29004056288E+04 0.  0.
        3    1    3    3  502    0  0.12754931513E+03  0.57532555145E+03  0.11421262767E+04  0.12851928883E+04  0.10100000352E+00 0.  1.
       -3    1    3    3    0  502 -0.12754931513E+03 -0.57532555145E+03 -0.15318362273E+04  0.16412771111E+04  0.10100000352E+00 0. -1.
</event>
<event>
 5   0  0.9763851E-08  0.2899846E+04  0.7818609E-02  0.8272923E-01
        1   -1    0    0  501    0  0.00000000000E+00  0.00000000000E+00  0.15717241353E+04  0.15717241353E+04  0.50400001928E-02 0. -1.
       -1   -1    0    0    0  501  0.00000000000E+00  0.00000000000E+00 -0.13375605030E+04  0.13375605031E+04  0.50400001928E-02 0.  1.
    10030    2    1    2    0    0  0.00000000000E+00  0.00000000000E+00  0.23416363226E+03  0.29092846384E+04  0.28998455994E+04 0.  0.
        3    1    3    3  502    0  0.11958622446E+04  0.71730605249E+03 -0.28127692434E+03  0.14225790661E+04  0.10100000352E+00 0.  1.
       -3    1    3    3    0  502 -0.11958622446E+04 -0.71730605249E+03  0.51544055659E+03  0.14867055722E+04  0.10100000352E+00 0. -1.
</event>
<event>
 5   0  0.9443352E-08  0.2900170E+04  0.7818609E-02  0.8272827E-01
        1   -1    0    0  501    0  0.00000000000E+00  0.00000000000E+00  0.26455754820E+04  0.26455754820E+04  0.50400001928E-02 0.  1.
       -1   -1    0    0    0  501  0.00000000000E+00  0.00000000000E+00 -0.79481620368E+03  0.79481620369E+03  0.50400001928E-02 0. -1.
    10030    2    1    2    0    0  0.00000000000E+00  0.00000000000E+00  0.18507592783E+04  0.34403916857E+04  0.29001698303E+04 0.  0.
        4    1    3    3  502    0  0.11216762880E+04 -0.16533874516E+03  0.19977923125E+04  0.22971004185E+04  0.12699999809E+01 0.  1.
       -4    1    3    3    0  502 -0.11216762880E+04  0.16533874516E+03 -0.14703303423E+03  0.11432912672E+04  0.12699999809E+01 0. -1.
</event>
<event>
 5   0  0.9763851E-08  0.2895545E+04  0.7818609E-02  0.8274204E-01
        1   -1    0    0  501    0  0.00000000000E+00  0.00000000000E+00  0.19941941627E+04  0.19941941627E+04  0.50400001928E-02 0. -1.
       -1   -1    0    0    0  501  0.00000000000E+00  0.00000000000E+00 -0.10510738952E+04  0.10510738952E+04  0.50400001928E-02 0.  1.
    10030    2    1    2    0    0  0.00000000000E+00  0.00000000000E+00  0.94312026755E+03  0.30452680579E+04  0.28955451483E+04 0.  0.
        3    1    3    3  502    0  0.28868434119E+03 -0.49214717508E+03  0.18709634453E+04  0.19560295792E+04  0.10100000352E+00 0. -1.
       -3    1    3    3    0  502 -0.28868434119E+03  0.49214717508E+03 -0.92784317777E+03  0.10892384787E+04  0.10100000352E+00 0.  1.
</event>
<event>
 5   0  0.9421924E-08  0.2897279E+04  0.7818609E-02  0.8273688E-01
       -1   -1    0    0    0  501  0.00000000000E+00  0.00000000000E+00  0.11751184640E+04  0.11751184640E+04  0.50400001928E-02 0.  1.
        1   -1    0    0  501    0  0.00000000000E+00  0.00000000000E+00 -0.17858248722E+04  0.17858248722E+04  0.50400001928E-02 0. -1.
    10030    2    1    2    0    0  0.00000000000E+00  0.00000000000E+00 -0.61070640818E+03  0.29609433362E+04  0.28972785719E+04 0.  0.
        1    1    3    3  502    0  0.17825205450E+03  0.35783335437E+03  0.11176285198E+04  0.11869759950E+04  0.50400001928E-02 0.  1.
       -1    1    3    3    0  502 -0.17825205450E+03 -0.35783335437E+03 -0.17283349280E+04  0.17739673412E+04  0.50400001928E-02 0. -1.
</event>
<event>
 5   0  0.9388076E-08  0.2900714E+04  0.7818609E-02  0.8272665E-01
        1   -1    0    0  501    0  0.00000000000E+00  0.00000000000E+00  0.22472033570E+04  0.22472033570E+04  0.50400001928E-02 0. -1.
       -1   -1    0    0    0  501  0.00000000000E+00  0.00000000000E+00 -0.93606802828E+03  0.93606802829E+03  0.50400001928E-02 0.  1.
    10030    2    1    2    0    0  0.00000000000E+00  0.00000000000E+00  0.13111353288E+04  0.31832713853E+04  0.29007138539E+04 0.  0.
        5    1    3    3  502    0  0.84069391551E+03  0.98079031353E+03  0.13791903257E+04  0.18896835563E+04  0.46999998093E+01 0. -1.
       -5    1    3    3    0  502 -0.84069391551E+03 -0.98079031353E+03 -0.68054996919E+02  0.12935878290E+04  0.46999998093E+01 0.  1.
</event>
<event>
 5   0  0.2534588E-07  0.2899977E+04  0.7818609E-02  0.8272884E-01
        2   -1    0    0  501    0  0.00000000000E+00  0.00000000000E+00  0.13729540289E+04  0.13729540289E+04  0.25500000920E-02 0.  1.
       -2   -1    0    0    0  501  0.00000000000E+00  0.00000000000E+00 -0.15313455158E+04  0.15313455158E+04  0.25500000920E-02 0. -1.
    10030    2    1    2    0    0  0.00000000000E+00  0.00000000000E+00 -0.15839148697E+03  0.29042995447E+04  0.28999772382E+04 0.  0.
        3    1    3    3  502    0  0.50209002434E+02 -0.12580254040E+04  0.64112457396E+03  0.14128657369E+04  0.10100000352E+00 0.  1.
       -3    1    3    3    0  502 -0.50209002434E+02  0.12580254040E+04 -0.79951606093E+03  0.14914338078E+04  0.10100000352E+00 0. -1.
</event>
<event>
 5   0  0.2608591E-07  0.2904845E+04  0.7818609E-02  0.8271437E-01
       -2   -1    0    0    0  501  0.00000000000E+00  0.00000000000E+00  0.99460891578E+03  0.99460891578E+03  0.25500000920E-02 0. -1.
        2   -1    0    0  501    0  0.00000000000E+00  0.00000000000E+00 -0.21209658681E+04  0.21209658681E+04  0.25500000920E-02 0.  1.
    10030    2    1    2    0    0  0.00000000000E+00  0.00000000000E+00 -0.11263569524E+04  0.31155747839E+04  0.29048453057E+04 0.  0.
        2    1    3    3  502    0 -0.82723773183E+03 -0.30823908681E+03 -0.18001887594E+04  0.20049970497E+04  0.25500000920E-02 0.  1.
       -2    1    3    3    0  502  0.82723773183E+03  0.30823908681E+03  0.67383180707E+03  0.11105777343E+04  0.25500000920E-02 0. -1.
</event>
<event>
 5   0  0.9388076E-08  0.2899955E+04  0.7818609E-02  0.8272891E-01
       -1   -1    0    0    0  501  0.00000000000E+00  0.00000000000E+00  0.11176298661E+04  0.11176298661E+04  0.50400001928E-02 0.  1.
        1   -1    0    0  501    0  0.00000000000E+00  0.00000000000E+00 -0.18811542959E+04  0.18811542959E+04  0.50400001928E-02 0. -1.
    10030    2    1    2    0    0  0.00000000000E+00  0.00000000000E+00 -0.76352442986E+03  0.29987841620E+04  0.28999546368E+04 0.  0.
        5    1    3    3  502    0  0.71136943848E+02 -0.14257312022E+04 -0.64467523603E+03  0.15663327155E+04  0.46999998093E+01 0. -1.
       -5    1    3    3    0  502 -0.71136943848E+02  0.14257312022E+04 -0.11884919382E+03  0.14324514465E+04  0.46999998093E+01 0.  1.
</event>
<event>
 5   0  0.2534588E-07  0.2898913E+04  0.7818609E-02  0.8273201E-01
       -2   -1    0    0    0  501  0.00000000000E+00  0.00000000000E+00  0.16193732948E+04  0.16193732948E+04  0.25500000920E-02 0. -1.
        2   -1    0    0  501    0  0.00000000000E+00  0.00000000000E+00 -0.12973690266E+04  0.12973690266E+04  0.25500000920E-02 0.  1.
    10030    2    1    2    0    0  0.00000000000E+00  0.00000000000E+00  0.32200426822E+03  0.29167423213E+04  0.28989134206E+04 0.  0.
        3    1    3    3  502    0  0.78016268814E+03 -0.52533396414E+03 -0.94863838295E+03  0.13358684013E+04  0.10100000352E+00 0.  1.
       -3    1    3    3    0  502 -0.78016268814E+03  0.52533396414E+03  0.12706426512E+04  0.15808739200E+04  0.10100000352E+00 0. -1.
</event>
<event>
 5   0  0.2546841E-07  0.2901995E+04  0.7818609E-02  0.8272284E-01
       -2   -1    0    0    0  501  0.00000000000E+00  0.00000000000E+00  0.10861324476E+04  0.10861324476E+04  0.25500000920E-02 0. -1.
        2   -1    0    0  501    0  0.00000000000E+00  0.00000000000E+00 -0.19384321824E+04  0.19384321824E+04  0.25500000920E-02 0.  1.
    10030    2    1    2    0    0  0.00000000000E+00  0.00000000000E+00 -0.85229973481E+03  0.30245646300E+04  0.29019952383E+04 0.  0.
        1    1    3    3  502    0 -0.43435082894E+02 -0.14243441790E+04 -0.71110408892E+03  0.15925802875E+04  0.50400001928E-02 0.  1.
       -1    1    3    3    0  502  0.43435082894E+02  0.14243441790E+04 -0.14119564590E+03  0.14319843425E+04  0.50400001928E-02 0. -1.
</event>
<event>
 5   0  0.2492232E-07  0.2900258E+04  0.7818609E-02  0.8272801E-01
        2   -1    0    0  501    0  0.00000000000E+00  0.00000000000E+00  0.18572620824E+04  0.18572620824E+04  0.25500000920E-02 0.  1.
       -2   -1    0    0    0  501  0.00000000000E+00  0.00000000000E+00 -0.11322437988E+04  0.11322437988E+04  0.25500000920E-02 0. -1.
    10030    2    1    2    0    0  0.00000000000E+00  0.00000000000E+00  0.72501828358E+03  0.29895058812E+04  0.29002575579E+04 0.  0.
        4    1    3    3  502    0 -0.14296133903E+03 -0.10856695398E+04 -0.61740570562E+03  0.12571029044E+04  0.12699999809E+01 0. -1.
       -4    1    3    3    0  502  0.14296133903E+03  0.10856695398E+04  0.13424239892E+04  0.17324029767E+04  0.12699999809E+01 0.  1.
</event>
<event>
 5   0  0.2608591E-07  0.2900350E+04  0.7818609E-02  0.8272773E-01
       -2   -1    0    0    0  501  0.00000000000E+00  0.00000000000E+00  0.11220764201E+04  0.11220764201E+04  0.25500000920E-02 0. -1.
        2   -1    0    0  501    0  0.00000000000E+00  0.00000000000E+00 -0.18742100691E+04  0.18742100691E+04  0.25500000920E-02 0.  1.
    10030    2    1    2    0    0  0.00000000000E+00  0.00000000000E+00 -0.75213364905E+03  0.29962864893E+04  0.29003495823E+04 0.  0.
        2    1    3    3  502    0 -0.90149213016E+03  0.68657030722E+03  0.55882002643E+03  0.12634661331E+04  0.25500000920E-02 0. -1.
       -2    1    3    3    0  502  0.90149213016E+03 -0.68657030722E+03 -0.13109536755E+04  0.17328203562E+04  0.25500000920E-02 0.  1.
</event>
<event>
 5   0  0.9388076E-08  0.2903904E+04  0.7818609E-02  0.8271717E-01
       -1   -1    0    0    0  501  0.00000000000E+00  0.00000000000E+00  0.82781920405E+03  0.82781920407E+03  0.50400001928E-02 0. -1.
        1   -1    0    0  501    0  0.00000000000E+00  0.00000000000E+00 -0.25466489227E+04  0.25466489227E+04  0.50400001928E-02 0.  1.
    10030    2    1    2    0    0  0.00000000000E+00  0.00000000000E+00 -0.17188297186E+04  0.33744681268E+04  0.29039041887E+04 0.  0.
        5    1    3    3  502    0  0.15119683973E+03  0.11133019988E+04 -0.19281433956E+04  0.22316049984E+04  0.46999998093E+01 0.  1.
       -5    1    3    3    0  502 -0.15119683973E+03 -0.11133019988E+04  0.20931367699E+03  0.11428631284E+04  0.46999998093E+01 0. -1.
</event>
<event>
 5   0  0.2608591E-07  0.2901841E+04  0.7818609E-02  0.8272330E-01
        2   -1    0    0  501    0  0.00000000000E+00  0.00000000000E+00  0.13856306344E+04  0.13856306344E+04  0.25500000920E-02 0.  1.
       -2   -1    0    0    0  501  0.00000000000E+00  0.00000000000E+00 -0.15192872687E+04  0.15192872687E+04  0.25500000920E-02 0. -1.
    10030    2    1    2    0    0  0.00000000000E+00  0.00000000000E+00 -0.13365663424E+03  0.29049179031E+04  0.29018414719E+04 0.  0.
        2    1    3    3  502    0  0.13755125065E+04 -0.35227209405E+03 -0.36554154726E+03  0.14662028873E+04  0.25500000920E-02 0.  1.
       -2    1    3    3    0  502 -0.13755125065E+04  0.35227209405E+03  0.23188491301E+03  0.14387150158E+04  0.25500000920E-02 0. -1.
</event>
<event>
 5   0  0.9388076E-08  0.2911563E+04  0.7818609E-02  0.8269445E-01
        1   -1    0    0  501    0  0.00000000000E+00  0.00000000000E+00  0.19266242035E+04  0.19266242036E+04  0.50400001928E-02 0. -1.
       -1   -1    0    0    0  501  0.00000000000E+00  0.00000000000E+00 -0.11000067004E+04  0.11000067004E+04  0.50400001928E-02 0.  1.
    10030    2    1    2    0    0  0.00000000000E+00  0.00000000000E+00  0.82661750314E+03  0.30266309040E+04  0.29115628333E+04 0.  0.
        5    1    3    3  502    0 -0.74590837385E+03  0.67176892937E+03 -0.68269585349E+03  0.12139804426E+04  0.46999998093E+01 0.  1.
       -5    1    3    3    0  502  0.74590837385E+03 -0.67176892937E+03  0.15093133566E+04  0.18126504614E+04  0.46999998093E+01 0. -1.
</event>
<event>
 5   0  0.9443352E-08  0.2901116E+04  0.7818609E-02  0.8272546E-01
        1   -1    0    0  501    0  0.00000000000E+00  0.00000000000E+00  0.18234899127E+04  0.18234899127E+04  0.50400001928E-02 0.  1.
       -1   -1    0    0    0  501  0.00000000000E+00  0.00000000000E+00 -0.11538961620E+04  0.11538961620E+04  0.50400001928E-02 0. -1.
    10030    2    1    2    0    0  0.00000000000E+00  0.00000000000E+00  0.66959375070E+03  0.29773860747E+04  0.29011156555E+04 0.  0.
        4    1    3    3  502    0  0.52170384419E+03 -0.86548585833E+03 -0.73317402556E+03  0.12485136910E+04  0.12699999809E+01 0. -1.
       -4    1    3    3    0  502 -0.52170384419E+03  0.86548585833E+03  0.14027677763E+04  0.17288723837E+04  0.12699999809E+01 0.  1.
</event>
<event>
 5   0  0.9395744E-08  0.2898579E+04  0.7818609E-02  0.8273300E-01
       -1   -1    0    0    0  501  0.00000000000E+00  0.00000000000E+00  0.26571316723E+04  0.26571316723E+04  0.50400001928E-02 0. -1.
        1   -1    0    0  501    0  0.00000000000E+00  0.00000000000E+00 -0.79049137931E+03  0.79049137932E+03  0.50400001928E-02 0.  1.
    10030    2    1    2    0    0  0.00000000000E+00  0.00000000000E+00  0.18666402930E+04  0.34476230517E+04  0.28985787419E+04 0.  0.
        2    1    3    3  502    0  0.11961198048E+04  0.22923753850E+03  0.18677423380E+04  0.22297340374E+04  0.25500000920E-02 0.  1.
       -2    1    3    3    0  502 -0.11961198048E+04 -0.22923753850E+03 -0.11020449940E+01  0.12178890142E+04  0.25500000920E-02 0. -1.
</event>
<event>
 5   0  0.9443352E-08  0.2899359E+04  0.7818609E-02  0.8273068E-01
        1   -1    0    0  501    0  0.00000000000E+00  0.00000000000E+00  0.15679144321E+04  0.15679144321E+04  0.50400001928E-02 0.  1.
       -1   -1    0    0    0  501  0.00000000000E+00  0.00000000000E+00 -0.13403604560E+04  0.13403604560E+04  0.50400001928E-02 0. -1.
    10030    2    1    2    0    0  0.00000000000E+00  0.00000000000E+00  0.22755397605E+03  0.29082748881E+04  0.28993588969E+04 0.  0.
        4    1    3    3  502    0 -0.63350649082E+03  0.20807069843E+03  0.14049591636E+04  0.15551642208E+04  0.12699999809E+01 0.  1.
       -4    1    3    3    0  502  0.63350649082E+03 -0.20807069843E+03 -0.11774051875E+04  0.13531106673E+04  0.12699999809E+01 0. -1.
</event>
<event>
 5   0  0.2546841E-07  0.2901588E+04  0.7818609E-02  0.8272405E-01
        2   -1    0    0  501    0  0.00000000000E+00  0.00000000000E+00  0.13759542391E+04  0.13759542391E+04  0.25500000920E-02 0.  1.
       -2   -1    0    0    0  501  0.00000000000E+00  0.00000000000E+00 -0.15297042950E+04  0.15297042950E+04  0.25500000920E-02 0. -1.
    10030    2    1    2    0    0  0.00000000000E+00  0.00000000000E+00 -0.15375005592E+03  0.29056585342E+04  0.29015879166E+04 0.  0.
        1    1    3    3  502    0  0.23939160000E+03  0.13653101096E+04  0.35200500522E+03  0.14301355031E+04  0.50400001928E-02 0. -1.
       -1    1    3    3    0  502 -0.23939160000E+03 -0.13653101096E+04 -0.50575506114E+03  0.14755230311E+04  0.50400001928E-02 0.  1.
</event>
<event>
 5   0  0.2492232E-07  0.2900608E+04  0.7818609E-02  0.8272697E-01
        2   -1    0    0  501    0  0.00000000000E+00  0.00000000000E+00  0.17472872418E+04  0.17472872418E+04  0.25500000920E-02 0. -1.
       -2   -1    0    0    0  501  0.00000000000E+00  0.00000000000E+00 -0.12037982735E+04  0.12037982735E+04  0.25500000920E-02 0.  1.
    10030    2    1    2    0    0  0.00000000000E+00  0.00000000000E+00  0.54348896833E+03  0.29510855154E+04  0.29006077743E+04 0.  0.
        4    1    3    3  502    0  0.22048083684E+03  0.63246995672E+03 -0.10370122948E+04  0.12345145435E+04  0.12699999809E+01 0.  1.
       -4    1    3    3    0  502 -0.22048083684E+03 -0.63246995672E+03  0.15805012632E+04  0.17165709718E+04  0.12699999809E+01 0. -1.
</event>
<event>
 5   0  0.9763851E-08  0.2899042E+04  0.7818609E-02  0.8273163E-01
        1   -1    0    0  501    0  0.00000000000E+00  0.00000000000E+00  0.20070948676E+04  0.20070948677E+04  0.50400001928E-02 0.  1.
       -1   -1    0    0    0  501  0.00000000000E+00  0.00000000000E+00 -0.10468419140E+04  0.10468419140E+04  0.50400001928E-02 0. -1.
    10030    2    1    2    0    0  0.00000000000E+00  0.00000000000E+00  0.96025295364E+03  0.30539367817E+04  0.28990419334E+04 0.  0.
        3    1    3    3  502    0 -0.54483721363E+03 -0.13390204419E+04  0.36820638116E+03  0.14917772228E+04  0.10100000352E+00 0. -1.
       -3    1    3    3    0  502  0.54483721363E+03  0.13390204419E+04  0.59204657248E+03  0.15621595589E+04  0.10100000352E+00 0.  1.
</event>
<event>
 5   0  0.2534588E-07  0.2900218E+04  0.7818609E-02  0.8272813E-01
        2   -1    0    0  501    0  0.00000000000E+00  0.00000000000E+00  0.20183960907E+04  0.20183960907E+04  0.25500000920E-02 0. -1.
       -2   -1    0    0    0  501  0.00000000000E+00  0.00000000000E+00 -0.10418250960E+04  0.10418250960E+04  0.25500000920E-02 0.  1.
    10030    2    1    2    0    0  0.00000000000E+00  0.00000000000E+00  0.97657099473E+03  0.30602211867E+04  0.29002177166E+04 0.  0.
        3    1    3    3  502    0 -0.41658713063E+03 -0.37384413045E+03  0.18998133540E+04  0.19805542309E+04  0.10100000352E+00 0. -1.
       -3    1    3    3    0  502  0.41658713063E+03  0.37384413045E+03 -0.92324235928E+03  0.10796669558E+04  0.10100000352E+00 0.  1.
</event>
<event>
 5   0  0.9763851E-08  0.2898743E+04  0.7818609E-02  0.8273252E-01
       -1   -1    0    0    0  501  0.00000000000E+00  0.00000000000E+00  0.13124616433E+04  0.13124616434E+04  0.50400001928E-02 0. -1.
        1   -1    0    0  501    0  0.00000000000E+00  0.00000000000E+00 -0.16005626513E+04  0.16005626513E+04  0.50400001928E-02 0.  1.
    10030    2    1    2    0    0  0.00000000000E+00  0.00000000000E+00 -0.28810100794E+03  0.29130242947E+04  0.28987425464E+04 0.  0.
        3    1    3    3  502    0  0.11946108315E+04 -0.25387567057E+03  0.64026204718E+03  0.13789428538E+04  0.10100000352E+00 0. -1.
       -3    1    3    3    0  502 -0.11946108315E+04  0.25387567057E+03 -0.92836305511E+03  0.15340814408E+04  0.10100000352E+00 0.  1.
</event>
<event>
 5   0  0.9395744E-08  0.2898134E+04  0.7818609E-02  0.8273433E-01
        1   -1    0    0  501    0  0.00000000000E+00  0.00000000000E+00  0.22674703251E+04  0.22674703251E+04  0.50400001928E-02 0.  1.
       -1   -1    0    0    0  501  0.00000000000E+00  0.00000000000E+00 -0.92605186108E+03  0.92605186110E+03  0.50400001928E-02 0. -1.
    10030    2    1    2    0    0  0.00000000000E+00  0.00000000000E+00  0.13414184640E+04  0.31935221862E+04  0.28981339614E+04 0.  0.
        2    1    3    3  502    0  0.12010729076E+04 -0.80210807879E+03  0.80035097651E+03  0.16512162744E+04  0.25500000920E-02 0.  1.
       -2    1    3    3    0  502 -0.12010729076E+04  0.80210807879E+03  0.54106748746E+03  0.15423059117E+04  0.25500000920E-02 0. -1.
</event>
<event>
 5   0  0.2608591E-07  0.2900124E+04  0.7818609E-02  0.8272841E-01
        2   -1    0    0  501    0  0.00000000000E+00  0.00000000000E+00  0.18284354237E+04  0.18284354237E+04  0.25500000920E-02 0. -1.
       -2   -1    0    0    0  501  0.00000000000E+00  0.00000000000E+00 -0.11499887517E+04  0.11499887517E+04  0.25500000920E-02 0.  1.
    10030    2    1    2    0    0  0.00000000000E+00  0.00000000000E+00  0.67844667194E+03  0.29784241754E+04  0.29001242529E+04 0.  0.
        2    1    3    3  502    0  0.28755836585E+03 -0.35860058023E+03  0.17516346052E+04  0.18109411862E+04  0.25500000920E-02 0. -1.
       -2    1    3    3    0  502 -0.28755836585E+03  0.35860058023E+03 -0.10731879333E+04  0.11674829892E+04  0.25500000920E-02 0.  1.
</event>
<event>
 5   0  0.8407500E-08  0.2899886E+04  0.7818609E-02  0.8272911E-01
       -3   -1    0    0    0  501  0.00000000000E+00  0.00000000000E+00  0.13347898059E+04  0.13347898098E+04  0.10100000352E+00 0.  1.
        3   -1    0    0  501    0  0.00000000000E+00  0.00000000000E+00 -0.15750310494E+04  0.15750310526E+04  0.10100000352E+00 0. -1.
    10030    2    1    2    0    0  0.00000000000E+00  0.00000000000E+00 -0.24024124344E+03  0.29098208624E+04  0.28998864799E+04 0.  0.
        4    1    3    3  502    0  0.25078910447E+03 -0.37778651485E+03  0.12618105255E+04  0.13408151405E+04  0.12699999809E+01 0.  1.
       -4    1    3    3    0  502 -0.25078910447E+03  0.37778651485E+03 -0.15020517690E+04  0.15690057219E+04  0.12699999809E+01 0. -1.
</event>
<event>
 5   0  0.9421924E-08  0.2900031E+04  0.7818609E-02  0.8272868E-01
       -1   -1    0    0    0  501  0.00000000000E+00  0.00000000000E+00  0.12980199964E+04  0.12980199964E+04  0.50400001928E-02 0. -1.
        1   -1    0    0  501    0  0.00000000000E+00  0.00000000000E+00 -0.16198098854E+04  0.16198098854E+04  0.50400001928E-02 0.  1.
    10030    2    1    2    0    0  0.00000000000E+00  0.00000000000E+00 -0.32178988898E+03  0.29178298818E+04  0.29000314630E+04 0.  0.
        1    1    3    3  502    0 -0.77800433175E+03 -0.67651840435E+03  0.86495949361E+03  0.13457796318E+04  0.50400001928E-02 0. -1.
       -1    1    3    3    0  502  0.77800433175E+03  0.67651840435E+03 -0.11867493826E+04  0.15720502501E+04  0.50400001928E-02 0.  1.
</event>
<event>
 5   0  0.2492232E-07  0.2901539E+04  0.7818609E-02  0.8272420E-01
       -2   -1    0    0    0  501  0.00000000000E+00  0.00000000000E+00  0.74917300138E+03  0.74917300138E+03  0.25500000920E-02 0.  1.
        2   -1    0    0  501    0  0.00000000000E+00  0.00000000000E+00 -0.28094073069E+04  0.28094073069E+04  0.25500000920E-02 0. -1.
    10030    2    1    2    0    0  0.00000000000E+00  0.00000000000E+00 -0.20602343055E+04  0.35585803083E+04  0.29015389739E+04 0.  0.
        4    1    3    3  502    0  0.37028203166E+03 -0.17771969156E+03 -0.27366130022E+04  0.27672631621E+04  0.12699999809E+01 0. -1.
       -4    1    3    3    0  502 -0.37028203166E+03  0.17771969156E+03  0.67637869663E+03  0.79131714621E+03  0.12699999809E+01 0.  1.
</event>
<event>
 5   0  0.9421924E-08  0.2899155E+04  0.7818609E-02  0.8273129E-01
       -1   -1    0    0    0  501  0.00000000000E+00  0.00000000000E+00  0.74205197090E+03  0.74205197092E+03  0.50400001928E-02 0. -1.
        1   -1    0    0  501    0  0.00000000000E+00  0.00000000000E+00 -0.28317085003E+04  0.28317085003E+04  0.50400001928E-02 0.  1.
    10030    2    1    2    0    0  0.00000000000E+00  0.00000000000E+00 -0.20896565294E+04  0.35737604712E+04  0.28991549622E+04 0.  0.
        1    1    3    3  502    0  0.32722215658E+03  0.23534705325E+03 -0.27612416570E+04  0.27905049836E+04  0.50400001928E-02 0.  1.
       -1    1    3    3    0  502 -0.32722215658E+03 -0.23534705325E+03  0.67158512760E+03  0.78325548760E+03  0.50400001928E-02 0. -1.
</event>
<event>
 5   0  0.2492232E-07  0.2899013E+04  0.7818609E-02  0.8273171E-01
        2   -1    0    0  501    0  0.00000000000E+00  0.00000000000E+00  0.19519522235E+04  0.19519522235E+04  0.25500000920E-02 0.  1.
       -2   -1    0    0    0  501  0.00000000000E+00  0.00000000000E+00 -0.10763935284E+04  0.10763935284E+04  0.25500000920E-02 0. -1.
    10030    2    1    2    0    0  0.00000000000E+00  0.00000000000E+00  0.87555869512E+03  0.30283457520E+04  0.28990127569E+04 0.  0.
        4    1    3    3  502    0  0.12564820484E+04 -0.55037277736E+03  0.92708849909E+03  0.16556424826E+04  0.12699999809E+01 0. -1.
       -4    1    3    3    0  502 -0.12564820484E+04  0.55037277736E+03 -0.51529803971E+02  0.13727032694E+04  0.12699999809E+01 0.  1.
</event>
<event>
 5   0  0.2678723E-07  0.2898864E+04  0.7818609E-02  0.8273216E-01
        2   -1    0    0  501    0  0.00000000000E+00  0.00000000000E+00  0.22517873922E+04  0.22517873922E+04  0.25500000920E-02 0.  1.
       -2   -1    0    0    0  501  0.00000000000E+00  0.00000000000E+00 -0.93297109229E+03  0.93297109230E+03  0.25500000920E-02 0. -1.
    10030    2    1    2    0    0  0.00000000000E+00  0.00000000000E+00  0.13188162999E+04  0.31847584845E+04  0.28988636001E+04 0.  0.
        5    1    3    3  502    0 -0.13753937622E+04  0.11009516079E+03  0.11470303806E+04  0.17943048040E+04  0.46999998093E+01 0.  1.
       -5    1    3    3    0  502  0.13753937622E+04 -0.11009516079E+03  0.17178591933E+03  0.13904536805E+04  0.46999998093E+01 0. -1.
</event>
<event>
 5   0  0.9443352E-08  0.2885404E+04  0.7818609E-02  0.8277233E-01
        1   -1    0    0  501    0  0.00000000000E+00  0.00000000000E+00  0.19899214776E+04  0.19899214776E+04  0.50400001928E-02 0.  1.
       -1   -1    0    0    0  501  0.00000000000E+00  0.00000000000E+00 -0.10459655442E+04  0.10459655442E+04  0.50400001928E-02 0. -1.
    10030    2    1    2    0    0  0.00000000000E+00  0.00000000000E+00  0.94395593346E+03  0.30358870218E+04  0.28854041666E+04 0.  0.
        4    1    3    3  502    0 -0.16741801094E+03 -0.11640635530E+04 -0.40725632615E+03  0.12445609964E+04  0.12699999809E+01 0. -1.
       -4    1    3    3    0  502  0.16741801094E+03  0.11640635530E+04  0.13512122596E+04  0.17913260254E+04  0.12699999809E+01 0.  1.
</event>
<event>
 5   0  0.2678723E-07  0.2901540E+04  0.7818609E-02  0.8272419E-01
       -2   -1    0    0    0  501  0.00000000000E+00  0.00000000000E+00  0.11021898813E+04  0.11021898813E+04  0.25500000920E-02 0. -1.
        2   -1    0    0  501    0  0.00000000000E+00  0.00000000000E+00 -0.19095923103E+04  0.19095923103E+04  0.25500000920E-02 0.  1.
    10030    2    1    2    0    0  0.00000000000E+00  0.00000000000E+00 -0.80740242903E+03  0.30117821917E+04  0.29015398132E+04 0.  0.
        5    1    3    3  502    0 -0.48120832896E+01 -0.29982952877E+03 -0.18770648808E+04  0.19008723154E+04  0.46999998093E+01 0.  1.
       -5    1    3    3    0  502  0.48120832896E+01  0.29982952877E+03  0.10696624518E+04  0.11109098763E+04  0.46999998093E+01 0. -1.
</event>
<event>
 5   0  0.9395744E-08  0.2899988E+04  0.7818609E-02  0.8272881E-01
        1   -1    0    0  501    0  0.00000000000E+00  0.00000000000E+00  0.23204033604E+04  0.23204033604E+04  0.50400001928E-02 0. -1.
       -1   -1    0    0    0  501  0.00000000000E+00  0.00000000000E+00 -0.90608477057E+03  0.90608477059E+03  0.50400001928E-02 0.  1.
    10030    2    1    2    0    0  0.00000000000E+00  0.00000000000E+00  0.14143185898E+04  0.32264881310E+04  0.28999876872E+04 0.  0.
        2    1    3    3  502    0 -0.77430906626E+02  0.13986817626E+04  0.11237126511E+04  0.17958386177E+04  0.25500000920E-02 0. -1.
       -2    1    3    3    0  502  0.77430906626E+02 -0.13986817626E+04  0.29060593866E+03  0.14306495133E+04  0.25500000920E-02 0.  1.
</event>
<event>
 5   0  0.2608591E-07  0.2898989E+04  0.7818609E-02  0.8273178E-01
       -2   -1    0    0    0  501  0.00000000000E+00  0.00000000000E+00  0.16562315972E+04  0.16562315972E+04  0.25500000920E-02 0. -1.
        2   -1    0    0  501    0  0.00000000000E+00  0.00000000000E+00 -0.12685631492E+04  0.12685631492E+04  0.25500000920E-02 0.  1.
    10030    2    1    2    0    0  0.00000000000E+00  0.00000000000E+00  0.38766844798E+03  0.29247947464E+04  0.28989890450E+04 0.  0.
        2    1    3    3  502    0  0.31845225184E+02  0.12273392735E+04  0.97118526937E+03  0.15654317737E+04  0.25500000920E-02 0.  1.
       -2    1    3    3    0  502 -0.31845225184E+02 -0.12273392735E+04 -0.58351682139E+03  0.13593629727E+04  0.25500000920E-02 0. -1.
</event>
<event>
 5   0  0.9388076E-08  0.2899022E+04  0.7818609E-02  0.8273168E-01
        1   -1    0    0  501    0  0.00000000000E+00  0.00000000000E+00  0.19638500270E+04  0.19638500270E+04  0.50400001928E-02 0.  1.
       -1   -1    0    0    0  501  0.00000000000E+00  0.00000000000E+00 -0.10698794337E+04  0.10698794337E+04  0.50400001928E-02 0. -1.
    10030    2    1    2    0    0  0.00000000000E+00  0.00000000000E+00  0.89397059335E+03  0.30337294607E+04  0.28990224247E+04 0.  0.
        5    1    3    3  502    0 -0.96846851962E+03  0.55589471091E+03  0.14141095955E+04  0.18018541121E+04  0.46999998093E+01 0.  1.
       -5    1    3    3    0  502  0.96846851962E+03 -0.55589471091E+03 -0.52013900214E+03  0.12318753487E+04  0.46999998093E+01 0. -1.
</event>
</LesHouchesEvents>
