<LesHouchesEvents version="3.0">
<header>
<!--
#*********************************************************************
#                                                                    *
#                        MadGraph5_aMC@NLO                           *
#                                                                    *
#                           Going Beyond                             *
#                                                                    *
#                   http://madgraph.hep.uiuc.edu                     *
#                   http://madgraph.phys.ucl.ac.be                   *
#                   http://amcatnlo.cern.ch                          *
#                                                                    *
#                     The MadGraph5_aMC@NLO team                     *
#                                                                    *
#....................................................................*
#                                                                    *
# This file contains all the information necessary to reproduce      *
# the events generated:                                              *
#                                                                    *
# 1. software version                                                *
# 2. proc_card          : code generation info including model       *
# 3. param_card         : model primary parameters in the LH format  *
# 4. run_card           : running parameters (collider and cuts)     *
# 5. pythia_card        : present only if pythia has been run        *
# 6. pgs_card           : present only if pgs has been run           *
# 7. delphes_cards      : present only if delphes has been run       *
#                                                                    *
#                                                                    *
#*********************************************************************
-->
<MGVersion>
#5.2.2.3
</MGVersion>
<MG5ProcCard>
#************************************************************
#*                     MadGraph5_aMC@NLO                    *
#*                                                          *
#*                *                       *                 *
#*                  *        * *        *                   *
#*                    * * * * 5 * * * *                     *
#*                  *        * *        *                   *
#*                *                       *                 *
#*                                                          *
#*                                                          *
#*         VERSION 2.2.3                 2015-02-10         *
#*                                                          *
#*    The MadGraph5_aMC@NLO Development Team - Find us at   *
#*    https://server06.fynu.ucl.ac.be/projects/madgraph     *
#*                                                          *
#************************************************************
#*                                                          *
#*               Command File for MadGraph5_aMC@NLO         *
#*                                                          *
#*     run as ./bin/mg5_aMC  filename                       *
#*                                                          *
#************************************************************
set group_subprocesses Auto
set ignore_six_quark_processes False
set loop_optimized_output True
set gauge unitary
set complex_mass_scheme False
import model sm
define p = g u c d s u~ c~ d~ s~
define j = g u c d s u~ c~ d~ s~
define l+ = e+ mu+
define l- = e- mu-
define vl = ve vm vt
define vl~ = ve~ vm~ vt~
import model Zprime_UFO
generate p p > zph, zph > j j
add process p p > zph, zph > b b~
output Dijet_signal
</MG5ProcCard>
<MGProcCard>
#*********************************************************************
#                        MadGraph/MadEvent                           *
#                   http://madgraph.hep.uiuc.edu                     *
#                                                                    *
#                          proc_card.dat                             *
#*********************************************************************
#                                                                    *
#            This Files is generated by MADGRAPH 5                   *
#                                                                    *
# WARNING: This Files is generated for MADEVENT (compatibility issue)*
#          This files is NOT a valid MG4 proc_card.dat               *
#          Running this in MG4 will NEVER reproduce the result of MG5*
#                                                                    *
#*********************************************************************
#*********************************************************************
# Process(es) requested : mg2 input                                  *
#*********************************************************************
# Begin PROCESS # This is TAG. Do not modify this line
p p > zph , zph > j j           #Process
# Be carefull the coupling are here in MG5 convention
          
end_coup           # End the couplings input

done               # this tells MG there are no more procs
# End PROCESS  # This is TAG. Do not modify this line
#*********************************************************************
# Model information                                                  *
#*********************************************************************
# Begin MODEL  # This is TAG. Do not modify this line
Zprime_UFO
# End   MODEL  # This is TAG. Do not modify this line
#*********************************************************************
# Start multiparticle definitions                                    *
#*********************************************************************
# Begin MULTIPARTICLES # This is TAG. Do not modify this line

# End  MULTIPARTICLES # This is TAG. Do not modify this line
</MGProcCard>
<MGRunCard>
#*********************************************************************
#                       MadGraph5_aMC@NLO                            *
#                                                                    *
#                     run_card.dat MadEvent                          *
#                                                                    *
#  This file is used to set the parameters of the run.               *
#                                                                    *
#  Some notation/conventions:                                        *
#                                                                    *
#   Lines starting with a '# ' are info or comments                  *
#                                                                    *
#   mind the format:   value    = variable     ! comment             *
#*********************************************************************
#
#*******************                                                 
# Running parameters
#*******************                                                 
#                                                                    
#*********************************************************************
# Tag name for the run (one word)                                    *
#*********************************************************************
  tag_1     = run_tag ! name of the run 
#*********************************************************************
# Run to generate the grid pack                                      *
#*********************************************************************
  .false.     = gridpack  !True = setting up the grid pack
#*********************************************************************
# Number of events and rnd seed                                      *
# Warning: Do not generate more than 1M events in a single run       *
# If you want to run Pythia, avoid more than 50k events in a run.    *
#*********************************************************************
  2000 = nevents ! Number of unweighted events requested 
 1155 = iseed   ! rnd seed (0=assigned automatically=default))
#*********************************************************************
# Collider type and energy                                           *
# lpp: 0=No PDF, 1=proton, -1=antiproton, 2=photon from proton,      *
#                                         3=photon from electron     *
#*********************************************************************
        1     = lpp1    ! beam 1 type 
        1     = lpp2    ! beam 2 type
     4000     = ebeam1  ! beam 1 total energy in GeV
     4000     = ebeam2  ! beam 2 total energy in GeV
#*********************************************************************
# Beam polarization from -100 (left-handed) to 100 (right-handed)    *
#*********************************************************************
        0     = polbeam1 ! beam polarization for beam 1
        0     = polbeam2 ! beam polarization for beam 2
#*********************************************************************
# PDF CHOICE: this automatically fixes also alpha_s and its evol.    *
#*********************************************************************
 'nn23lo1'    = pdlabel     ! PDF set                                     
 230000    = lhaid     ! if pdlabel=lhapdf, this is the lhapdf number
#*********************************************************************
# Renormalization and factorization scales                           *
#*********************************************************************
 F        = fixed_ren_scale  ! if .true. use fixed ren scale
 F        = fixed_fac_scale  ! if .true. use fixed fac scale
 91.1880  = scale            ! fixed ren scale
 91.1880  = dsqrt_q2fact1    ! fixed fact scale for pdf1
 91.1880  = dsqrt_q2fact2    ! fixed fact scale for pdf2
 1        = scalefact        ! scale factor for event-by-event scales
#*********************************************************************
# Matching - Warning! ickkw > 1 is still beta
#*********************************************************************
 0        = ickkw            ! 0 no matching, 1 MLM, 2 CKKW matching
 1        = highestmult      ! for ickkw=2, highest mult group
 1        = ktscheme         ! for ickkw=1, 1 Durham kT, 2 Pythia pTE
 1        = alpsfact         ! scale factor for QCD emission vx
 F        = chcluster        ! cluster only according to channel diag
 T        = pdfwgt           ! for ickkw=1, perform pdf reweighting
 5        = asrwgtflavor     ! highest quark flavor for a_s reweight
 T        = clusinfo         ! include clustering tag in output
 3.0      = lhe_version       ! Change the way clustering information pass to shower.        
#*********************************************************************
#**********************************************************
#
#**********************************************************
# Automatic ptj and mjj cuts if xqcut > 0
# (turn off for VBF and single top processes)
#**********************************************************
   T  = auto_ptj_mjj  ! Automatic setting of ptj and mjj
#**********************************************************
#                                                                    
#**********************************
# BW cutoff (M+/-bwcutoff*Gamma)
#**********************************
  15  = bwcutoff      ! (M+/-bwcutoff*Gamma)
#**********************************************************
# Apply pt/E/eta/dr/mij cuts on decay products or not
# (note that etmiss/ptll/ptheavy/ht/sorted cuts always apply)
#**********************************************************
   T  = cut_decays    ! Cut decay products 
#*************************************************************
# Number of helicities to sum per event (0 = all helicities)
# 0 gives more stable result, but longer run time (needed for
# long decay chains e.g.).
# Use >=2 if most helicities contribute, e.g. pure QCD.
#*************************************************************
   0  = nhel          ! Number of helicities used per event
#*******************                                                 
# Standard Cuts
#*******************                                                 
#                                                                    
#*********************************************************************
# Minimum and maximum pt's (for max, -1 means no cut)                *
#*********************************************************************
 20  = ptj       ! minimum pt for the jets 
  0  = ptb       ! minimum pt for the b 
 10  = pta       ! minimum pt for the photons 
 10  = ptl       ! minimum pt for the charged leptons 
  0  = misset    ! minimum missing Et (sum of neutrino's momenta)
  0  = ptheavy   ! minimum pt for one heavy final state
 1.0 = ptonium   ! minimum pt for the quarkonium states
 -1  = ptjmax    ! maximum pt for the jets
 -1  = ptbmax    ! maximum pt for the b
 -1  = ptamax    ! maximum pt for the photons
 -1  = ptlmax    ! maximum pt for the charged leptons
 -1  = missetmax ! maximum missing Et (sum of neutrino's momenta)
#*********************************************************************
# Minimum and maximum E's (in the center of mass frame)              *
#*********************************************************************
  0  = ej     ! minimum E for the jets 
  0  = eb     ! minimum E for the b 
  0  = ea     ! minimum E for the photons 
  0  = el     ! minimum E for the charged leptons 
 -1   = ejmax ! maximum E for the jets
 -1   = ebmax ! maximum E for the b
 -1   = eamax ! maximum E for the photons
 -1   = elmax ! maximum E for the charged leptons
#*********************************************************************
# Maximum and minimum absolute rapidity (for max, -1 means no cut)   *
#*********************************************************************
   5  = etaj    ! max rap for the jets 
  -1  = etab    ! max rap for the b
 2.5  = etaa    ! max rap for the photons 
 2.5  = etal    ! max rap for the charged leptons 
 0.6  = etaonium ! max rap for the quarkonium states
   0  = etajmin ! min rap for the jets
   0  = etabmin ! min rap for the b
   0  = etaamin ! min rap for the photons
   0  = etalmin ! main rap for the charged leptons
#*********************************************************************
# Minimum and maximum DeltaR distance                                *
#*********************************************************************
 0.4 = drjj    ! min distance between jets 
 0   = drbb    ! min distance between b's 
 0.4 = drll    ! min distance between leptons 
 0.4 = draa    ! min distance between gammas 
 0   = drbj    ! min distance between b and jet 
 0.4 = draj    ! min distance between gamma and jet 
 0.4 = drjl    ! min distance between jet and lepton 
 0   = drab    ! min distance between gamma and b 
 0   = drbl    ! min distance between b and lepton 
 0.4 = dral    ! min distance between gamma and lepton 
 -1  = drjjmax ! max distance between jets
 -1  = drbbmax ! max distance between b's
 -1  = drllmax ! max distance between leptons
 -1  = draamax ! max distance between gammas
 -1  = drbjmax ! max distance between b and jet
 -1  = drajmax ! max distance between gamma and jet
 -1  = drjlmax ! max distance between jet and lepton
 -1  = drabmax ! max distance between gamma and b
 -1  = drblmax ! max distance between b and lepton
 -1  = dralmax ! maxdistance between gamma and lepton
#*********************************************************************
# Minimum and maximum invariant mass for pairs                       *
# WARNING: for four lepton final state mmll cut require to have      *
#          different lepton masses for each flavor!                  *           
#*********************************************************************
 0   = mmjj    ! min invariant mass of a jet pair 
 0   = mmbb    ! min invariant mass of a b pair 
 0   = mmaa    ! min invariant mass of gamma gamma pair
 0   = mmll    ! min invariant mass of l+l- (same flavour) lepton pair
 -1  = mmjjmax ! max invariant mass of a jet pair
 -1  = mmbbmax ! max invariant mass of a b pair
 -1  = mmaamax ! max invariant mass of gamma gamma pair
 -1  = mmllmax ! max invariant mass of l+l- (same flavour) lepton pair
#*********************************************************************
# Minimum and maximum invariant mass for all letpons                 *
#*********************************************************************
 0   = mmnl    ! min invariant mass for all letpons (l+- and vl) 
 -1  = mmnlmax ! max invariant mass for all letpons (l+- and vl) 
#*********************************************************************
# Minimum and maximum pt for 4-momenta sum of leptons                *
#*********************************************************************
 0   = ptllmin  ! Minimum pt for 4-momenta sum of leptons(l and vl)
 -1  = ptllmax  ! Maximum pt for 4-momenta sum of leptons(l and vl)
#*********************************************************************
# Inclusive cuts                                                     *
#*********************************************************************
 0  = xptj ! minimum pt for at least one jet  
 0  = xptb ! minimum pt for at least one b 
 0  = xpta ! minimum pt for at least one photon 
 0  = xptl ! minimum pt for at least one charged lepton 
#*********************************************************************
# Control the pt's of the jets sorted by pt                          *
#*********************************************************************
 0   = ptj1min ! minimum pt for the leading jet in pt
 0   = ptj2min ! minimum pt for the second jet in pt
 0   = ptj3min ! minimum pt for the third jet in pt
 0   = ptj4min ! minimum pt for the fourth jet in pt
 -1  = ptj1max ! maximum pt for the leading jet in pt 
 -1  = ptj2max ! maximum pt for the second jet in pt
 -1  = ptj3max ! maximum pt for the third jet in pt
 -1  = ptj4max ! maximum pt for the fourth jet in pt
 0   = cutuse  ! reject event if fails any (0) / all (1) jet pt cuts
#*********************************************************************
# Control the pt's of leptons sorted by pt                           *
#*********************************************************************
 0   = ptl1min ! minimum pt for the leading lepton in pt
 0   = ptl2min ! minimum pt for the second lepton in pt
 0   = ptl3min ! minimum pt for the third lepton in pt
 0   = ptl4min ! minimum pt for the fourth lepton in pt
 -1  = ptl1max ! maximum pt for the leading lepton in pt 
 -1  = ptl2max ! maximum pt for the second lepton in pt
 -1  = ptl3max ! maximum pt for the third lepton in pt
 -1  = ptl4max ! maximum pt for the fourth lepton in pt
#*********************************************************************
# Control the Ht(k)=Sum of k leading jets                            *
#*********************************************************************
 0   = htjmin ! minimum jet HT=Sum(jet pt)
 -1  = htjmax ! maximum jet HT=Sum(jet pt)
 0   = ihtmin  !inclusive Ht for all partons (including b)
 -1  = ihtmax  !inclusive Ht for all partons (including b)
 0   = ht2min ! minimum Ht for the two leading jets
 0   = ht3min ! minimum Ht for the three leading jets
 0   = ht4min ! minimum Ht for the four leading jets
 -1  = ht2max ! maximum Ht for the two leading jets
 -1  = ht3max ! maximum Ht for the three leading jets
 -1  = ht4max ! maximum Ht for the four leading jets
#***********************************************************************
# Photon-isolation cuts, according to hep-ph/9801442                   *
# When ptgmin=0, all the other parameters are ignored                  *
# When ptgmin>0, pta and draj are not going to be used                 *
#***********************************************************************
   0 = ptgmin ! Min photon transverse momentum
 0.4 = R0gamma ! Radius of isolation code
 1.0 = xn ! n parameter of eq.(3.4) in hep-ph/9801442
 1.0 = epsgamma ! epsilon_gamma parameter of eq.(3.4) in hep-ph/9801442
 .true. = isoEM ! isolate photons from EM energy (photons and leptons)
#*********************************************************************
# WBF cuts                                                           *
#*********************************************************************
 0   = xetamin ! minimum rapidity for two jets in the WBF case  
 0   = deltaeta ! minimum rapidity for two jets in the WBF case 
#*********************************************************************
# KT DURHAM CUT                                                      *
#*********************************************************************
 -1    =  ktdurham        
 0.4  =  dparameter 
#*********************************************************************
# maximal pdg code for quark to be considered as a light jet         *
# (otherwise b cuts are applied)                                     *
#*********************************************************************
 4 = maxjetflavor    ! Maximum jet pdg code
#*********************************************************************
# Jet measure cuts                                                   *
#*********************************************************************
 0   = xqcut   ! minimum kt jet measure between partons
#*********************************************************************
#
#*********************************************************************
# Store info for systematics studies                                 *
# WARNING: If use_syst is T, matched Pythia output is                *
#          meaningful ONLY if plotted taking matchscale              *
#          reweighting into account!                                 *
#*********************************************************************
   F  = use_syst      ! Enable systematics studies
#
#**************************************
# Parameter of the systematics study
#  will be used by SysCalc (if installed)
#**************************************                                  
#
0.5 1 2 = sys_scalefact  # factorization/renormalization scale factor
0.5 1 2 = sys_alpsfact  # \alpha_s emission scale factors
30 50 = sys_matchscale # variation of merging scale
# PDF sets and number of members (0 or none for all members).
CT10nlo.LHgrid = sys_pdf # matching scales
# MSTW2008nlo68cl.LHgrid 1  = sys_pdf
</MGRunCard>
<slha>
######################################################################
## PARAM_CARD AUTOMATICALY GENERATED BY MG5 FOLLOWING UFO MODEL   ####
######################################################################
##                                                                  ##
##  Width set on Auto will be computed following the information    ##
##        present in the decay.py files of the model.               ##
##        See  arXiv:1402.1178 for more details.                    ##
##                                                                  ##
######################################################################

###################################
## INFORMATION FOR CKMBLOCK
###################################
Block ckmblock 
    1 2.277360e-01 # cabi 

###################################
## INFORMATION FOR FRBLOCK
###################################
Block frblock 
    1 6.000000e-01 # gz 

###################################
## INFORMATION FOR MASS
###################################
Block mass 
    1 5.040000e-03 # MD 
    2 2.550000e-03 # MU 
    3 1.010000e-01 # MS 
    4 1.270000e+00 # MC 
    5 4.700000e+00 # MB 
    6 1.720000e+02 # MT 
   11 5.110000e-04 # Me 
   13 1.056600e-01 # MM 
   15 1.777000e+00 # MTA 
   23 9.118760e+01 # MZ 
   25 1.200000e+02 # MH 
  10030 6.000000e+02 # MZph 
  10031 3.000000e+02 # MZpl 
## Dependent parameters, given by model restrictions.
## Those values should be edited following the 
## analytical expression. MG5 ignores those values 
## but they are important for interfacing the output of MG5
## to external program such as Pythia.
  12 0.000000 # ve : 0.0 
  14 0.000000 # vm : 0.0 
  16 0.000000 # vt : 0.0 
  21 0.000000 # g : 0.0 
  22 0.000000 # a : 0.0 
  24 79.824360 # w+ : cmath.sqrt(MZ__exp__2/2. + cmath.sqrt(MZ__exp__4/4. - (aEW*cmath.pi*MZ__exp__2)/(Gf*sqrt__2))) 

###################################
## INFORMATION FOR SMINPUTS
###################################
Block sminputs 
    1 1.279000e+02 # aEWM1 
    2 1.166370e-05 # Gf 
    3 1.184000e-01 # aS 

###################################
## INFORMATION FOR YUKAWA
###################################
Block yukawa 
    1 5.040000e-03 # ymdo 
    2 2.550000e-03 # ymup 
    3 1.010000e-01 # yms 
    4 1.270000e+00 # ymc 
    5 4.700000e+00 # ymb 
    6 1.720000e+02 # ymt 
   11 5.110000e-04 # yme 
   13 1.056600e-01 # ymm 
   15 1.777000e+00 # ymtau 

###################################
## INFORMATION FOR DECAY
###################################
DECAY   6 1.508336e+00 # WT 
DECAY  23 2.495200e+00 # WZ 
DECAY  24 2.085000e+00 # WW 
DECAY  25 5.753088e-03 # WH 
## Dependent parameters, given by model restrictions.
## Those values should be edited following the 
## analytical expression. MG5 ignores those values 
## but they are important for interfacing the output of MG5
## to external program such as Pythia.
DECAY  1 0.000000 # d : 0.0 
DECAY  2 0.000000 # u : 0.0 
DECAY  3 0.000000 # s : 0.0 
DECAY  4 0.000000 # c : 0.0 
DECAY  5 0.000000 # b : 0.0 
DECAY  11 0.000000 # e- : 0.0 
DECAY  12 0.000000 # ve : 0.0 
DECAY  13 0.000000 # mu- : 0.0 
DECAY  14 0.000000 # vm : 0.0 
DECAY  15 0.000000 # ta- : 0.0 
DECAY  16 0.000000 # vt : 0.0 
DECAY  21 0.000000 # g : 0.0 
DECAY  22 0.000000 # a : 0.0 
DECAY  10030 0.308725 # zph : (gz__exp__2*MZph*(5 + cmath.sqrt(1 - (4*MT__exp__2)/MZph__exp__2)))/(144.*cmath.pi) 
DECAY  10031 0.132629 # zpl : (5*gz__exp__2*MZpl)/(144.*cmath.pi) 
#===========================================================
# QUANTUM NUMBERS OF NEW STATE(S) (NON SM PDG CODE)
#===========================================================

Block QNUMBERS 10030  # zph 
        1 0  # 3 times electric charge
        2 3  # number of spin states (2S+1)
        3 1  # colour rep (1: singlet, 3: triplet, 8: octet)
        4 0  # Particle/Antiparticle distinction (0=own anti)
Block QNUMBERS 10031  # zpl 
        1 0  # 3 times electric charge
        2 3  # number of spin states (2S+1)
        3 1  # colour rep (1: singlet, 3: triplet, 8: octet)
        4 0  # Particle/Antiparticle distinction (0=own anti)
</slha>
## END BANNER##
<MGGenerationInfo>
#  Number of Events        :         4143
#  Integrated weight (pb)  :  0.68408E+01
#  Max wgt                 :  0.21796E-02
#  Average wgt             :  0.16512E-02
</MGGenerationInfo>
</header>
<init>
     2212     2212  0.40000000000E+04  0.40000000000E+04 0 0  247000  247000 2   1
  0.68228941240E+01  0.13100618980E-01  0.21796250000E-02   0
</init>
<event>
 5   0  0.2179625E-02  0.5976075E+03  0.7818609E-02  0.9910382E-01
        2   -1    0    0  501    0  0.00000000000E+00  0.00000000000E+00  0.58575196427E+03  0.58575196427E+03  0.25500000920E-02 0.  1.
       -2   -1    0    0    0  501  0.00000000000E+00  0.00000000000E+00 -0.15242575807E+03  0.15242575810E+03  0.25500000920E-02 0. -1.
    10030    2    1    2    0    0  0.00000000000E+00  0.00000000000E+00  0.43332620619E+03  0.73817772237E+03  0.59760752073E+03 0.  0.
        1    1    3    3  502    0 -0.17688159758E+03  0.12467151282E+03 -0.37845313840E+02  0.21968694426E+03  0.50400001928E-02 0. -1.
       -1    1    3    3    0  502  0.17688159758E+03 -0.12467151282E+03  0.47117152003E+03  0.51849077811E+03  0.50400001928E-02 0.  1.
</event>
<event>
 5   0  0.8551000E-03  0.6004036E+03  0.7818609E-02  0.9904569E-01
        3   -1    0    0  501    0  0.00000000000E+00  0.00000000000E+00  0.38693540958E+03  0.38693542276E+03  0.10100000352E+00 0. -1.
       -3   -1    0    0    0  501  0.00000000000E+00  0.00000000000E+00 -0.23290995007E+03  0.23290997197E+03  0.10100000352E+00 0.  1.
    10030    2    1    2    0    0  0.00000000000E+00  0.00000000000E+00  0.15402545951E+03  0.61984539473E+03  0.60040359026E+03 0.  0.
        3    1    3    3  502    0  0.23041928657E+03  0.10798970753E+03 -0.87412521951E+02  0.26906464605E+03  0.10100000352E+00 0.  1.
       -3    1    3    3    0  502 -0.23041928657E+03 -0.10798970753E+03  0.24143798146E+03  0.35078074869E+03  0.10100000352E+00 0. -1.
</event>
<event>
 5   0  0.2179625E-02  0.5648342E+03  0.7818609E-02  0.9981175E-01
        2   -1    0    0  501    0  0.00000000000E+00  0.00000000000E+00  0.34073255363E+03  0.34073255364E+03  0.25500000920E-02 0.  1.
       -2   -1    0    0    0  501  0.00000000000E+00  0.00000000000E+00 -0.23408218767E+03  0.23408218768E+03  0.25500000920E-02 0. -1.
    10030    2    1    2    0    0  0.00000000000E+00  0.00000000000E+00  0.10665036596E+03  0.57481474132E+03  0.56483421132E+03 0.  0.
        1    1    3    3  502    0 -0.11246321014E+03 -0.21395467955E+03 -0.95320270213E+02  0.25982789010E+03  0.50400001928E-02 0. -1.
       -1    1    3    3    0  502  0.11246321014E+03  0.21395467955E+03  0.20197063617E+03  0.31498685121E+03  0.50400001928E-02 0.  1.
</event>
<event>
 5   0  0.2092587E-02  0.5974883E+03  0.7818609E-02  0.9910631E-01
        2   -1    0    0  501    0  0.00000000000E+00  0.00000000000E+00  0.48952552215E+03  0.48952552216E+03  0.25500000920E-02 0. -1.
       -2   -1    0    0    0  501  0.00000000000E+00  0.00000000000E+00 -0.18231543526E+03  0.18231543528E+03  0.25500000920E-02 0.  1.
    10030    2    1    2    0    0  0.00000000000E+00  0.00000000000E+00  0.30721008689E+03  0.67184095743E+03  0.59748827151E+03 0.  0.
        3    1    3    3  502    0  0.16278426819E+03 -0.70084751755E+02 -0.11681675099E+03  0.21226576245E+03  0.10100000352E+00 0.  1.
       -3    1    3    3    0  502 -0.16278426819E+03  0.70084751755E+02  0.42402683788E+03  0.45957519498E+03  0.10100000352E+00 0. -1.
</event>
<event>
 5   0  0.2179625E-02  0.5981123E+03  0.7818609E-02  0.9909330E-01
        2   -1    0    0  501    0  0.00000000000E+00  0.00000000000E+00  0.65155238934E+03  0.65155238935E+03  0.25500000920E-02 0.  1.
       -2   -1    0    0    0  501  0.00000000000E+00  0.00000000000E+00 -0.13726385033E+03  0.13726385036E+03  0.25500000920E-02 0. -1.
    10030    2    1    2    0    0  0.00000000000E+00  0.00000000000E+00  0.51428853901E+03  0.78881623970E+03  0.59811232947E+03 0.  0.
        1    1    3    3  502    0 -0.69552988997E+02  0.27959095385E+03  0.36286473137E+03  0.46333522751E+03  0.50400001928E-02 0.  1.
       -1    1    3    3    0  502  0.69552988997E+02 -0.27959095385E+03  0.15142380764E+03  0.32548101220E+03  0.50400001928E-02 0. -1.
</event>
<event>
 5   0  0.2092587E-02  0.6028027E+03  0.7818609E-02  0.9899608E-01
        2   -1    0    0  501    0  0.00000000000E+00  0.00000000000E+00  0.23845583538E+03  0.23845583539E+03  0.25500000920E-02 0.  1.
       -2   -1    0    0    0  501  0.00000000000E+00  0.00000000000E+00 -0.38096266225E+03  0.38096266226E+03  0.25500000920E-02 0. -1.
    10030    2    1    2    0    0  0.00000000000E+00  0.00000000000E+00 -0.14250682687E+03  0.61941849765E+03  0.60280268706E+03 0.  0.
        3    1    3    3  502    0 -0.10582180453E+03  0.41183396479E+02 -0.35814161371E+03  0.37571232630E+03  0.10100000352E+00 0. -1.
       -3    1    3    3    0  502  0.10582180453E+03 -0.41183396479E+02  0.21563478684E+03  0.24370617135E+03  0.10100000352E+00 0.  1.
</event>
<event>
 5   0  0.1276705E-02  0.6236032E+03  0.7818609E-02  0.9857612E-01
       -1   -1    0    0    0  501  0.00000000000E+00  0.00000000000E+00  0.13918407256E+03  0.13918407265E+03  0.50400001928E-02 0. -1.
        1   -1    0    0  501    0  0.00000000000E+00  0.00000000000E+00 -0.69850122332E+03  0.69850122333E+03  0.50400001928E-02 0.  1.
    10030    2    1    2    0    0  0.00000000000E+00  0.00000000000E+00 -0.55931715076E+03  0.83768529598E+03  0.62360322319E+03 0.  0.
        1    1    3    3  502    0  0.18514799555E+03  0.17201462983E+03 -0.52497678297E+03  0.58264005683E+03  0.50400001928E-02 0.  1.
       -1    1    3    3    0  502 -0.18514799555E+03 -0.17201462983E+03 -0.34340367785E+02  0.25504523916E+03  0.50400001928E-02 0. -1.
</event>
<event>
 5   0  0.1250390E-02  0.6018125E+03  0.7818609E-02  0.9901653E-01
       -1   -1    0    0    0  501  0.00000000000E+00  0.00000000000E+00  0.17656206816E+04  0.17656206816E+04  0.50400001928E-02 0.  1.
        1   -1    0    0  501    0  0.00000000000E+00  0.00000000000E+00 -0.51282007919E+02  0.51282008167E+02  0.50400001928E-02 0. -1.
    10030    2    1    2    0    0  0.00000000000E+00  0.00000000000E+00  0.17143386736E+04  0.18169026897E+04  0.60181250902E+03 0.  0.
        3    1    3    3  502    0  0.32822472820E+02  0.77944769787E+02 -0.14661633723E+02  0.85835165076E+02  0.10100000352E+00 0. -1.
       -3    1    3    3    0  502 -0.32822472820E+02 -0.77944769787E+02  0.17290003074E+04  0.17310675246E+04  0.10100000352E+00 0.  1.
</event>
<event>
 5   0  0.2179625E-02  0.6012862E+03  0.7818609E-02  0.9902741E-01
       -2   -1    0    0    0  501  0.00000000000E+00  0.00000000000E+00  0.87585182596E+02  0.87585182633E+02  0.25500000920E-02 0.  1.
        2   -1    0    0  501    0  0.00000000000E+00  0.00000000000E+00 -0.10319813966E+04  0.10319813966E+04  0.25500000920E-02 0. -1.
    10030    2    1    2    0    0  0.00000000000E+00  0.00000000000E+00 -0.94439621405E+03  0.11195665793E+04  0.60128621831E+03 0.  0.
        1    1    3    3  502    0  0.26937702854E+03  0.41053934045E+02 -0.70872380174E+03  0.75930154496E+03  0.50400001928E-02 0. -1.
       -1    1    3    3    0  502 -0.26937702854E+03 -0.41053934045E+02 -0.23567241230E+03  0.36026503431E+03  0.50400001928E-02 0.  1.
</event>
<event>
 5   0  0.8551000E-03  0.5975460E+03  0.7818609E-02  0.9910510E-01
       -4   -1    0    0    0  501  0.00000000000E+00  0.00000000000E+00  0.25696781965E+03  0.25697095796E+03  0.12699999809E+01 0. -1.
        4   -1    0    0  501    0  0.00000000000E+00  0.00000000000E+00 -0.34737294241E+03  0.34737526397E+03  0.12699999809E+01 0.  1.
    10030    2    1    2    0    0  0.00000000000E+00  0.00000000000E+00 -0.90405122755E+02  0.60434622193E+03  0.59754603985E+03 0.  0.
        3    1    3    3  502    0  0.80465192609E+02  0.27585120140E+03 -0.12796766880E+03  0.31455407642E+03  0.10100000352E+00 0. -1.
       -3    1    3    3    0  502 -0.80465192609E+02 -0.27585120140E+03  0.37562546046E+02  0.28979214551E+03  0.10100000352E+00 0.  1.
</event>
<event>
 5   0  0.2179625E-02  0.6016995E+03  0.7818609E-02  0.9901886E-01
       -2   -1    0    0    0  501  0.00000000000E+00  0.00000000000E+00  0.23992843519E+03  0.23992843520E+03  0.25500000920E-02 0.  1.
        2   -1    0    0  501    0  0.00000000000E+00  0.00000000000E+00 -0.37723990603E+03  0.37723990604E+03  0.25500000920E-02 0. -1.
    10030    2    1    2    0    0  0.00000000000E+00  0.00000000000E+00 -0.13731147084E+03  0.61716834124E+03  0.60169952751E+03 0.  0.
        1    1    3    3  502    0 -0.14559738252E+03 -0.89375501720E+02 -0.32265895117E+03  0.36509639398E+03  0.50400001928E-02 0. -1.
       -1    1    3    3    0  502  0.14559738252E+03  0.89375501720E+02  0.18534748033E+03  0.25207194725E+03  0.50400001928E-02 0.  1.
</event>
<event>
 5   0  0.8551000E-03  0.5972174E+03  0.7818609E-02  0.9911196E-01
       -4   -1    0    0    0  501  0.00000000000E+00  0.00000000000E+00  0.64181423736E+03  0.64181549388E+03  0.12699999809E+01 0.  1.
        4   -1    0    0  501    0  0.00000000000E+00  0.00000000000E+00 -0.13892556007E+03  0.13893136485E+03  0.12699999809E+01 0. -1.
    10030    2    1    2    0    0  0.00000000000E+00  0.00000000000E+00  0.50288867730E+03  0.78074685873E+03  0.59721741072E+03 0.  0.
        4    1    3    3  502    0 -0.17591217892E+03  0.22874384010E+03  0.35183251326E+03  0.45503469029E+03  0.12699999809E+01 0. -1.
       -4    1    3    3    0  502  0.17591217892E+03 -0.22874384010E+03  0.15105616404E+03  0.32571216844E+03  0.12699999809E+01 0.  1.
</event>
<event>
 5   0  0.2126207E-02  0.6000250E+03  0.7818609E-02  0.9905354E-01
       -2   -1    0    0    0  501  0.00000000000E+00  0.00000000000E+00  0.54107503096E+02  0.54107503156E+02  0.25500000920E-02 0. -1.
        2   -1    0    0  501    0  0.00000000000E+00  0.00000000000E+00 -0.16634940649E+04  0.16634940649E+04  0.25500000920E-02 0.  1.
    10030    2    1    2    0    0  0.00000000000E+00  0.00000000000E+00 -0.16093865618E+04  0.17176015680E+04  0.60002503387E+03 0.  0.
        5    1    3    3  502    0  0.21187021866E+03  0.21151906294E+03 -0.75067394078E+03  0.80818485441E+03  0.46999998093E+01 0. -1.
       -5    1    3    3    0  502 -0.21187021866E+03 -0.21151906294E+03 -0.85871262098E+03  0.90941671360E+03  0.46999998093E+01 0.  1.
</event>
<event>
 5   0  0.1337051E-02  0.6007239E+03  0.7818609E-02  0.9903905E-01
       -1   -1    0    0    0  501  0.00000000000E+00  0.00000000000E+00  0.56490427513E+03  0.56490427515E+03  0.50400001928E-02 0.  1.
        1   -1    0    0  501    0  0.00000000000E+00  0.00000000000E+00 -0.15970369654E+03  0.15970369662E+03  0.50400001928E-02 0. -1.
    10030    2    1    2    0    0  0.00000000000E+00  0.00000000000E+00  0.40520057859E+03  0.72460797177E+03  0.60072389986E+03 0.  0.
        5    1    3    3  502    0 -0.16296338385E+03 -0.15563620838E+03  0.44207618777E+03  0.49621884247E+03  0.46999998093E+01 0.  1.
       -5    1    3    3    0  502  0.16296338385E+03  0.15563620838E+03 -0.36875609173E+02  0.22838912930E+03  0.46999998093E+01 0. -1.
</event>
<event>
 5   0  0.8551000E-03  0.5930497E+03  0.7818609E-02  0.9919932E-01
       -3   -1    0    0    0  501  0.00000000000E+00  0.00000000000E+00  0.93047620897E+03  0.93047621445E+03  0.10100000352E+00 0.  1.
        3   -1    0    0  501    0  0.00000000000E+00  0.00000000000E+00 -0.94496731705E+02  0.94496785680E+02  0.10100000352E+00 0. -1.
    10030    2    1    2    0    0  0.00000000000E+00  0.00000000000E+00  0.83597947727E+03  0.10249730001E+04  0.59304971511E+03 0.  0.
        4    1    3    3  502    0 -0.97892657297E+01  0.27465727216E+03  0.22558828624E+03  0.35556171709E+03  0.12699999809E+01 0. -1.
       -4    1    3    3    0  502  0.97892657297E+01 -0.27465727216E+03  0.61039119103E+03  0.66941128304E+03  0.12699999809E+01 0.  1.
</event>
<event>
 5   0  0.1276705E-02  0.5986331E+03  0.7818609E-02  0.9908246E-01
        1   -1    0    0  501    0  0.00000000000E+00  0.00000000000E+00  0.26125429191E+03  0.26125429196E+03  0.50400001928E-02 0. -1.
       -1   -1    0    0    0  501  0.00000000000E+00  0.00000000000E+00 -0.34292413457E+03  0.34292413461E+03  0.50400001928E-02 0.  1.
    10030    2    1    2    0    0  0.00000000000E+00  0.00000000000E+00 -0.81669842656E+02  0.60417842657E+03  0.59863311630E+03 0.  0.
        1    1    3    3  502    0 -0.67737453861E+02 -0.12500299090E+03  0.22499876657E+03  0.26615513403E+03  0.50400001928E-02 0. -1.
       -1    1    3    3    0  502  0.67737453861E+02  0.12500299090E+03 -0.30666860922E+03  0.33802329254E+03  0.50400001928E-02 0.  1.
</event>
<event>
 5   0  0.1250390E-02  0.6004426E+03  0.7818609E-02  0.9904488E-01
        1   -1    0    0  501    0  0.00000000000E+00  0.00000000000E+00  0.23416346236E+03  0.23416346242E+03  0.50400001928E-02 0.  1.
       -1   -1    0    0    0  501  0.00000000000E+00  0.00000000000E+00 -0.38491408187E+03  0.38491408190E+03  0.50400001928E-02 0. -1.
    10030    2    1    2    0    0  0.00000000000E+00  0.00000000000E+00 -0.15075061951E+03  0.61907754432E+03  0.60044255062E+03 0.  0.
        3    1    3    3  502    0 -0.13290614840E+03 -0.16656494611E+03 -0.29342133497E+03  0.36263482399E+03  0.10100000352E+00 0. -1.
       -3    1    3    3    0  502  0.13290614840E+03  0.16656494611E+03  0.14267071547E+03  0.25644272033E+03  0.10100000352E+00 0.  1.
</event>
<event>
 5   0  0.1250390E-02  0.6017793E+03  0.7818609E-02  0.9901721E-01
       -1   -1    0    0    0  501  0.00000000000E+00  0.00000000000E+00  0.90755301347E+02  0.90755301487E+02  0.50400001928E-02 0.  1.
        1   -1    0    0  501    0  0.00000000000E+00  0.00000000000E+00 -0.99756796023E+03  0.99756796025E+03  0.50400001928E-02 0. -1.
    10030    2    1    2    0    0  0.00000000000E+00  0.00000000000E+00 -0.90681265889E+03  0.10883232617E+04  0.60177929818E+03 0.  0.
        3    1    3    3  502    0 -0.86815195968E+02  0.21840524634E+03 -0.79317911191E+03  0.82726709329E+03  0.10100000352E+00 0. -1.
       -3    1    3    3    0  502  0.86815195968E+02 -0.21840524634E+03 -0.11363354698E+03  0.26105616844E+03  0.10100000352E+00 0.  1.
</event>
<event>
 5   0  0.2179625E-02  0.6370514E+03  0.7818609E-02  0.9831384E-01
        2   -1    0    0  501    0  0.00000000000E+00  0.00000000000E+00  0.45709994302E+03  0.45709994303E+03  0.25500000920E-02 0. -1.
       -2   -1    0    0    0  501  0.00000000000E+00  0.00000000000E+00 -0.22196159689E+03  0.22196159691E+03  0.25500000920E-02 0.  1.
    10030    2    1    2    0    0  0.00000000000E+00  0.00000000000E+00  0.23513834613E+03  0.67906153994E+03  0.63705143686E+03 0.  0.
        1    1    3    3  502    0 -0.12982621037E+03  0.20145660701E+03  0.34121193048E+03  0.41697145098E+03  0.50400001928E-02 0. -1.
       -1    1    3    3    0  502  0.12982621037E+03 -0.20145660701E+03 -0.10607358434E+03  0.26209008896E+03  0.50400001928E-02 0.  1.
</event>
<event>
 5   0  0.1303808E-02  0.6005683E+03  0.7818609E-02  0.9904228E-01
       -1   -1    0    0    0  501  0.00000000000E+00  0.00000000000E+00  0.85138602585E+02  0.85138602734E+02  0.50400001928E-02 0. -1.
        1   -1    0    0  501    0  0.00000000000E+00  0.00000000000E+00 -0.10591030908E+04  0.10591030908E+04  0.50400001928E-02 0.  1.
    10030    2    1    2    0    0  0.00000000000E+00  0.00000000000E+00 -0.97396448824E+03  0.11442416936E+04  0.60056825503E+03 0.  0.
        4    1    3    3  502    0  0.10160478338E+02  0.28721357938E+03 -0.32116869314E+03  0.43098238694E+03  0.12699999809E+01 0. -1.
       -4    1    3    3    0  502 -0.10160478338E+02 -0.28721357938E+03 -0.65279579510E+03  0.71325930663E+03  0.12699999809E+01 0.  1.
</event>
<event>
 5   0  0.1276705E-02  0.5991099E+03  0.7818609E-02  0.9907255E-01
        1   -1    0    0  501    0  0.00000000000E+00  0.00000000000E+00  0.63196179631E+03  0.63196179633E+03  0.50400001928E-02 0.  1.
       -1   -1    0    0    0  501  0.00000000000E+00  0.00000000000E+00 -0.14199142770E+03  0.14199142779E+03  0.50400001928E-02 0. -1.
    10030    2    1    2    0    0  0.00000000000E+00  0.00000000000E+00  0.48997036861E+03  0.77395322412E+03  0.59910986555E+03 0.  0.
        1    1    3    3  502    0  0.17746434336E+03 -0.18880754512E+03  0.50816754695E+02  0.26405345073E+03  0.50400001928E-02 0. -1.
       -1    1    3    3    0  502 -0.17746434336E+03  0.18880754512E+03  0.43915361392E+03  0.50989977339E+03  0.50400001928E-02 0.  1.
</event>
<event>
 5   0  0.2141800E-02  0.5933228E+03  0.7818609E-02  0.9919357E-01
        2   -1    0    0  501    0  0.00000000000E+00  0.00000000000E+00  0.66190380115E+03  0.66190380116E+03  0.25500000920E-02 0. -1.
       -2   -1    0    0    0  501  0.00000000000E+00  0.00000000000E+00 -0.13296190207E+03  0.13296190209E+03  0.25500000920E-02 0.  1.
    10030    2    1    2    0    0  0.00000000000E+00  0.00000000000E+00  0.52894189909E+03  0.79486570325E+03  0.59332280724E+03 0.  0.
        2    1    3    3  502    0  0.21655093595E+03 -0.15622360132E+03  0.91304712624E+02  0.28219970238E+03  0.25500000920E-02 0.  1.
       -2    1    3    3    0  502 -0.21655093595E+03  0.15622360132E+03  0.43763718646E+03  0.51266600087E+03  0.25500000920E-02 0. -1.
</event>
<event>
 5   0  0.1250390E-02  0.6017493E+03  0.7818609E-02  0.9901784E-01
       -1   -1    0    0    0  501  0.00000000000E+00  0.00000000000E+00  0.37887289906E+03  0.37887289909E+03  0.50400001928E-02 0.  1.
        1   -1    0    0  501    0  0.00000000000E+00  0.00000000000E+00 -0.23893381509E+03  0.23893381514E+03  0.50400001928E-02 0. -1.
    10030    2    1    2    0    0  0.00000000000E+00  0.00000000000E+00  0.13993908397E+03  0.61780671423E+03  0.60174927414E+03 0.  0.
        3    1    3    3  502    0 -0.18139339564E+03  0.56673856085E+02 -0.16951451110E+03  0.25465794631E+03  0.10100000352E+00 0. -1.
       -3    1    3    3    0  502  0.18139339564E+03 -0.56673856085E+02  0.30945359506E+03  0.36314876792E+03  0.10100000352E+00 0.  1.
</event>
<event>
 5   0  0.8551000E-03  0.5995675E+03  0.7818609E-02  0.9906304E-01
        3   -1    0    0  501    0  0.00000000000E+00  0.00000000000E+00  0.53601049198E+03  0.53601050150E+03  0.10100000352E+00 0.  1.
       -3   -1    0    0    0  501  0.00000000000E+00  0.00000000000E+00 -0.16766518173E+03  0.16766521215E+03  0.10100000352E+00 0. -1.
    10030    2    1    2    0    0  0.00000000000E+00  0.00000000000E+00  0.36834531025E+03  0.70367571365E+03  0.59956754615E+03 0.  0.
        4    1    3    3  502    0 -0.81755897281E+01  0.68363592043E+02 -0.15825699822E+03  0.17259000948E+03  0.12699999809E+01 0. -1.
       -4    1    3    3    0  502  0.81755897281E+01 -0.68363592043E+02  0.52660230848E+03  0.53108570417E+03  0.12699999809E+01 0.  1.
</event>
<event>
 5   0  0.2092587E-02  0.5991829E+03  0.7818609E-02  0.9907103E-01
        2   -1    0    0  501    0  0.00000000000E+00  0.00000000000E+00  0.73542558972E+03  0.73542558972E+03  0.25500000920E-02 0.  1.
       -2   -1    0    0    0  501  0.00000000000E+00  0.00000000000E+00 -0.12204501180E+03  0.12204501182E+03  0.25500000920E-02 0. -1.
    10030    2    1    2    0    0  0.00000000000E+00  0.00000000000E+00  0.61338057792E+03  0.85747060155E+03  0.59918285952E+03 0.  0.
        3    1    3    3  502    0  0.24283706521E+03 -0.12528673629E+03  0.13090538816E+03  0.30298983049E+03  0.10100000352E+00 0. -1.
       -3    1    3    3    0  502 -0.24283706521E+03  0.12528673629E+03  0.48247518976E+03  0.55448077105E+03  0.10100000352E+00 0.  1.
</event>
<event>
 5   0  0.1276705E-02  0.6005909E+03  0.7818609E-02  0.9904181E-01
       -1   -1    0    0    0  501  0.00000000000E+00  0.00000000000E+00  0.23242451728E+03  0.23242451733E+03  0.50400001928E-02 0.  1.
        1   -1    0    0  501    0  0.00000000000E+00  0.00000000000E+00 -0.38798556222E+03  0.38798556225E+03  0.50400001928E-02 0. -1.
    10030    2    1    2    0    0  0.00000000000E+00  0.00000000000E+00 -0.15556104494E+03  0.62041007958E+03  0.60059089915E+03 0.  0.
        1    1    3    3  502    0 -0.94630232487E+02 -0.11584009380E+03  0.19120339267E+03  0.24276026369E+03  0.50400001928E-02 0.  1.
       -1    1    3    3    0  502  0.94630232487E+02  0.11584009380E+03 -0.34676443761E+03  0.37764981590E+03  0.50400001928E-02 0. -1.
</event>
<event>
 5   0  0.2141800E-02  0.5937129E+03  0.7818609E-02  0.9918536E-01
       -2   -1    0    0    0  501  0.00000000000E+00  0.00000000000E+00  0.13143316617E+04  0.13143316618E+04  0.25500000920E-02 0.  1.
        2   -1    0    0  501    0  0.00000000000E+00  0.00000000000E+00 -0.67048332873E+02  0.67048332922E+02  0.25500000920E-02 0. -1.
    10030    2    1    2    0    0  0.00000000000E+00  0.00000000000E+00  0.12472833289E+04  0.13813799947E+04  0.59371288279E+03 0.  0.
        2    1    3    3  502    0 -0.15382188922E+03 -0.13659262044E+03  0.11216003041E+04  0.11403095894E+04  0.25500000920E-02 0.  1.
       -2    1    3    3    0  502  0.15382188922E+03  0.13659262044E+03  0.12568302477E+03  0.24107040524E+03  0.25500000920E-02 0. -1.
</event>
<event>
 5   0  0.1332555E-02  0.5948106E+03  0.7818609E-02  0.9916231E-01
        1   -1    0    0  501    0  0.00000000000E+00  0.00000000000E+00  0.42758945723E+03  0.42758945726E+03  0.50400001928E-02 0. -1.
       -1   -1    0    0    0  501  0.00000000000E+00  0.00000000000E+00 -0.20685709489E+03  0.20685709495E+03  0.50400001928E-02 0.  1.
    10030    2    1    2    0    0  0.00000000000E+00  0.00000000000E+00  0.22073236234E+03  0.63444655221E+03  0.59481060164E+03 0.  0.
        2    1    3    3  502    0 -0.28656230489E+03  0.63196800681E+02  0.58789903559E+02  0.29927920570E+03  0.25500000920E-02 0.  1.
       -2    1    3    3    0  502  0.28656230489E+03 -0.63196800681E+02  0.16194245878E+03  0.33516734650E+03  0.25500000920E-02 0. -1.
</event>
<event>
 5   0  0.2092587E-02  0.5984985E+03  0.7818609E-02  0.9908526E-01
        2   -1    0    0  501    0  0.00000000000E+00  0.00000000000E+00  0.17518381739E+04  0.17518381739E+04  0.25500000920E-02 0. -1.
       -2   -1    0    0    0  501  0.00000000000E+00  0.00000000000E+00 -0.51117792365E+02  0.51117792429E+02  0.25500000920E-02 0.  1.
    10030    2    1    2    0    0  0.00000000000E+00  0.00000000000E+00  0.17007203815E+04  0.18029559663E+04  0.59849845476E+03 0.  0.
        3    1    3    3  502    0  0.38537269769E+02  0.26409924557E+03  0.44265709414E+03  0.51689345698E+03  0.10100000352E+00 0.  1.
       -3    1    3    3    0  502 -0.38537269769E+02 -0.26409924557E+03  0.12580632874E+04  0.12860625093E+04  0.10100000352E+00 0. -1.
</event>
<event>
 5   0  0.2126207E-02  0.5987226E+03  0.7818609E-02  0.9908060E-01
       -2   -1    0    0    0  501  0.00000000000E+00  0.00000000000E+00  0.16482901134E+03  0.16482901136E+03  0.25500000920E-02 0. -1.
        2   -1    0    0  501    0  0.00000000000E+00  0.00000000000E+00 -0.54369793149E+03  0.54369793150E+03  0.25500000920E-02 0.  1.
    10030    2    1    2    0    0  0.00000000000E+00  0.00000000000E+00 -0.37886892015E+03  0.70852694286E+03  0.59872261532E+03 0.  0.
        5    1    3    3  502    0 -0.21552295428E+03 -0.13210604187E+02  0.55875736350E+02  0.22308933591E+03  0.46999998093E+01 0. -1.
       -5    1    3    3    0  502  0.21552295428E+03  0.13210604187E+02 -0.43474465650E+03  0.48543760695E+03  0.46999998093E+01 0.  1.
</event>
<event>
 5   0  0.1332555E-02  0.6005720E+03  0.7818609E-02  0.9904220E-01
       -1   -1    0    0    0  501  0.00000000000E+00  0.00000000000E+00  0.99927584876E+02  0.99927585003E+02  0.50400001928E-02 0.  1.
        1   -1    0    0  501    0  0.00000000000E+00  0.00000000000E+00 -0.90237018327E+03  0.90237018328E+03  0.50400001928E-02 0. -1.
    10030    2    1    2    0    0  0.00000000000E+00  0.00000000000E+00 -0.80244259839E+03  0.10022977683E+04  0.60057197120E+03 0.  0.
        2    1    3    3  502    0 -0.43017803729E+02 -0.22801759293E+03 -0.83124618877E+02  0.24647972816E+03  0.25500000920E-02 0.  1.
       -2    1    3    3    0  502  0.43017803729E+02  0.22801759293E+03 -0.71931797952E+03  0.75581804013E+03  0.25500000920E-02 0. -1.
</event>
<event>
 5   0  0.2092587E-02  0.6020175E+03  0.7818609E-02  0.9901229E-01
       -2   -1    0    0    0  501  0.00000000000E+00  0.00000000000E+00  0.73610188102E+02  0.73610188146E+02  0.25500000920E-02 0. -1.
        2   -1    0    0  501    0  0.00000000000E+00  0.00000000000E+00 -0.12308930507E+04  0.12308930507E+04  0.25500000920E-02 0.  1.
    10030    2    1    2    0    0  0.00000000000E+00  0.00000000000E+00 -0.11572828626E+04  0.13045032388E+04  0.60201750481E+03 0.  0.
        3    1    3    3  502    0 -0.72170367870E+02  0.24209851928E+03 -0.93328329883E+03  0.96687019869E+03  0.10100000352E+00 0.  1.
       -3    1    3    3    0  502  0.72170367870E+02 -0.24209851928E+03 -0.22399956376E+03  0.33763304015E+03  0.10100000352E+00 0. -1.
</event>
<event>
 5   0  0.2179625E-02  0.5994081E+03  0.7818609E-02  0.9906635E-01
       -2   -1    0    0    0  501  0.00000000000E+00  0.00000000000E+00  0.26662398395E+03  0.26662398396E+03  0.25500000920E-02 0. -1.
        2   -1    0    0  501    0  0.00000000000E+00  0.00000000000E+00 -0.33688832679E+03  0.33688832680E+03  0.25500000920E-02 0.  1.
    10030    2    1    2    0    0  0.00000000000E+00  0.00000000000E+00 -0.70264342842E+02  0.60351231075E+03  0.59940806748E+03 0.  0.
        1    1    3    3  502    0  0.14921171131E+03  0.25606372212E+03  0.97797947263E+01  0.29652724831E+03  0.50400001928E-02 0. -1.
       -1    1    3    3    0  502 -0.14921171131E+03 -0.25606372212E+03 -0.80044137568E+02  0.30698506244E+03  0.50400001928E-02 0.  1.
</event>
<event>
 5   0  0.1250390E-02  0.6010936E+03  0.7818609E-02  0.9903140E-01
        1   -1    0    0  501    0  0.00000000000E+00  0.00000000000E+00  0.40445285120E+03  0.40445285124E+03  0.50400001928E-02 0. -1.
       -1   -1    0    0    0  501  0.00000000000E+00  0.00000000000E+00 -0.22333472797E+03  0.22333472803E+03  0.50400001928E-02 0.  1.
    10030    2    1    2    0    0  0.00000000000E+00  0.00000000000E+00  0.18111812323E+03  0.62778757927E+03  0.60109356187E+03 0.  0.
        3    1    3    3  502    0  0.18582941169E+03 -0.14674615088E+03 -0.10275921082E+03  0.25812103489E+03  0.10100000352E+00 0.  1.
       -3    1    3    3    0  502 -0.18582941169E+03  0.14674615088E+03  0.28387733405E+03  0.36966654438E+03  0.10100000352E+00 0. -1.
</event>
<event>
 5   0  0.2092587E-02  0.5996752E+03  0.7818609E-02  0.9906080E-01
        2   -1    0    0  501    0  0.00000000000E+00  0.00000000000E+00  0.16655801214E+04  0.16655801214E+04  0.25500000920E-02 0.  1.
       -2   -1    0    0    0  501  0.00000000000E+00  0.00000000000E+00 -0.53976737197E+02  0.53976737257E+02  0.25500000920E-02 0. -1.
    10030    2    1    2    0    0  0.00000000000E+00  0.00000000000E+00  0.16116033842E+04  0.17195568587E+04  0.59967518057E+03 0.  0.
        3    1    3    3  502    0 -0.80346328922E+02  0.35561162605E+02 -0.16232696048E+02  0.89351214200E+02  0.10100000352E+00 0. -1.
       -3    1    3    3    0  502  0.80346328922E+02 -0.35561162605E+02  0.16278360803E+04  0.16302056445E+04  0.10100000352E+00 0.  1.
</event>
<event>
 5   0  0.1303808E-02  0.6004821E+03  0.7818609E-02  0.9904406E-01
       -1   -1    0    0    0  501  0.00000000000E+00  0.00000000000E+00  0.60757206675E+03  0.60757206677E+03  0.50400001928E-02 0.  1.
        1   -1    0    0  501    0  0.00000000000E+00  0.00000000000E+00 -0.14836872384E+03  0.14836872392E+03  0.50400001928E-02 0. -1.
    10030    2    1    2    0    0  0.00000000000E+00  0.00000000000E+00  0.45920334291E+03  0.75594079069E+03  0.60048211371E+03 0.  0.
        4    1    3    3  502    0 -0.14135510463E+03 -0.15514784736E+03 -0.40666919742E+02  0.21379319775E+03  0.12699999809E+01 0. -1.
       -4    1    3    3    0  502  0.14135510463E+03  0.15514784736E+03  0.49987026266E+03  0.54214759294E+03  0.12699999809E+01 0.  1.
</event>
<event>
 5   0  0.1276705E-02  0.5988328E+03  0.7818609E-02  0.9907830E-01
       -1   -1    0    0    0  501  0.00000000000E+00  0.00000000000E+00  0.14204469211E+03  0.14204469220E+03  0.50400001928E-02 0.  1.
        1   -1    0    0  501    0  0.00000000000E+00  0.00000000000E+00 -0.63114075314E+03  0.63114075316E+03  0.50400001928E-02 0. -1.
    10030    2    1    2    0    0  0.00000000000E+00  0.00000000000E+00 -0.48909606102E+03  0.77318544536E+03  0.59883284480E+03 0.  0.
        1    1    3    3  502    0  0.17514380711E+03 -0.24194458370E+03 -0.21753669215E+03  0.36950608548E+03  0.50400001928E-02 0.  1.
       -1    1    3    3    0  502 -0.17514380711E+03  0.24194458370E+03 -0.27155936887E+03  0.40367935988E+03  0.50400001928E-02 0. -1.
</event>
<event>
 5   0  0.1250390E-02  0.6002748E+03  0.7818609E-02  0.9904836E-01
        1   -1    0    0  501    0  0.00000000000E+00  0.00000000000E+00  0.20355263895E+04  0.20355263895E+04  0.50400001928E-02 0. -1.
       -1   -1    0    0    0  501  0.00000000000E+00  0.00000000000E+00 -0.44255121115E+02  0.44255121402E+02  0.50400001928E-02 0.  1.
    10030    2    1    2    0    0  0.00000000000E+00  0.00000000000E+00  0.19912712684E+04  0.20797815109E+04  0.60027482774E+03 0.  0.
        3    1    3    3  502    0 -0.18567644150E+03  0.96195130368E+02  0.24968943994E+03  0.32569014516E+03  0.10100000352E+00 0.  1.
       -3    1    3    3    0  502  0.18567644150E+03 -0.96195130368E+02  0.17415818285E+04  0.17540913658E+04  0.10100000352E+00 0. -1.
</event>
<event>
 5   0  0.2142838E-02  0.6003135E+03  0.7818609E-02  0.9904756E-01
        2   -1    0    0  501    0  0.00000000000E+00  0.00000000000E+00  0.95342350494E+03  0.95342350494E+03  0.25500000920E-02 0.  1.
       -2   -1    0    0    0  501  0.00000000000E+00  0.00000000000E+00 -0.94495330873E+02  0.94495330907E+02  0.25500000920E-02 0. -1.
    10030    2    1    2    0    0  0.00000000000E+00  0.00000000000E+00  0.85892817406E+03  0.10479188358E+04  0.60031348338E+03 0.  0.
        4    1    3    3  502    0 -0.22816704220E+03 -0.16823767112E+03  0.25728952055E+03  0.38283628801E+03  0.12699999809E+01 0. -1.
       -4    1    3    3    0  502  0.22816704220E+03  0.16823767112E+03  0.60163865352E+03  0.66508254784E+03  0.12699999809E+01 0.  1.
</event>
<event>
 5   0  0.2142838E-02  0.6005249E+03  0.7818609E-02  0.9904318E-01
        2   -1    0    0  501    0  0.00000000000E+00  0.00000000000E+00  0.10022253942E+03  0.10022253945E+03  0.25500000920E-02 0. -1.
       -2   -1    0    0    0  501  0.00000000000E+00  0.00000000000E+00 -0.89957345782E+03  0.89957345783E+03  0.25500000920E-02 0.  1.
    10030    2    1    2    0    0  0.00000000000E+00  0.00000000000E+00 -0.79935091841E+03  0.99979599728E+03  0.60052489158E+03 0.  0.
        4    1    3    3  502    0  0.10272438487E+01  0.10364623978E+03 -0.86883908767E+03  0.87500089795E+03  0.12699999809E+01 0.  1.
       -4    1    3    3    0  502 -0.10272438487E+01 -0.10364623978E+03  0.69488169260E+02  0.12479509933E+03  0.12699999809E+01 0. -1.
</event>
<event>
 5   0  0.8551000E-03  0.5999075E+03  0.7818609E-02  0.9905598E-01
       -4   -1    0    0    0  501  0.00000000000E+00  0.00000000000E+00  0.42414317871E+03  0.42414508007E+03  0.12699999809E+01 0. -1.
        4   -1    0    0  501    0  0.00000000000E+00  0.00000000000E+00 -0.21212278170E+03  0.21212658347E+03  0.12699999809E+01 0.  1.
    10030    2    1    2    0    0  0.00000000000E+00  0.00000000000E+00  0.21202039701E+03  0.63627166354E+03  0.59990747710E+03 0.  0.
        4    1    3    3  502    0  0.11090556218E+03 -0.13557405516E+03  0.36426594878E+03  0.40419260569E+03  0.12699999809E+01 0. -1.
       -4    1    3    3    0  502 -0.11090556218E+03  0.13557405516E+03 -0.15224555177E+03  0.23207905784E+03  0.12699999809E+01 0.  1.
</event>
<event>
 5   0  0.1250390E-02  0.5994773E+03  0.7818609E-02  0.9906491E-01
        1   -1    0    0  501    0  0.00000000000E+00  0.00000000000E+00  0.84822386696E+02  0.84822386845E+02  0.50400001928E-02 0.  1.
       -1   -1    0    0    0  501  0.00000000000E+00  0.00000000000E+00 -0.10591927271E+04  0.10591927271E+04  0.50400001928E-02 0. -1.
    10030    2    1    2    0    0  0.00000000000E+00  0.00000000000E+00 -0.97437034041E+03  0.11440151140E+04  0.59947728956E+03 0.  0.
        3    1    3    3  502    0  0.65390074454E+02 -0.20982643316E+03 -0.87613499992E+03  0.90328043385E+03  0.10100000352E+00 0. -1.
       -3    1    3    3    0  502 -0.65390074454E+02  0.20982643316E+03 -0.98235340491E+02  0.24073468012E+03  0.10100000352E+00 0.  1.
</event>
<event>
 5   0  0.1337051E-02  0.6001038E+03  0.7818609E-02  0.9905191E-01
        1   -1    0    0  501    0  0.00000000000E+00  0.00000000000E+00  0.55919926772E+03  0.55919926774E+03  0.50400001928E-02 0.  1.
       -1   -1    0    0    0  501  0.00000000000E+00  0.00000000000E+00 -0.16100013264E+03  0.16100013272E+03  0.50400001928E-02 0. -1.
    10030    2    1    2    0    0  0.00000000000E+00  0.00000000000E+00  0.39819913508E+03  0.72019940046E+03  0.60010384539E+03 0.  0.
        5    1    3    3  502    0 -0.36853073994E+02  0.16099745961E+03  0.49968403488E+03  0.52629322224E+03  0.46999998093E+01 0.  1.
       -5    1    3    3    0  502  0.36853073994E+02 -0.16099745961E+03 -0.10148489980E+03  0.19390617822E+03  0.46999998093E+01 0. -1.
</event>
<event>
 5   0  0.2141800E-02  0.5997933E+03  0.7818609E-02  0.9905835E-01
       -2   -1    0    0    0  501  0.00000000000E+00  0.00000000000E+00  0.40186788169E+03  0.40186788170E+03  0.25500000920E-02 0. -1.
        2   -1    0    0  501    0  0.00000000000E+00  0.00000000000E+00 -0.22379991446E+03  0.22379991448E+03  0.25500000920E-02 0.  1.
    10030    2    1    2    0    0  0.00000000000E+00  0.00000000000E+00  0.17806796723E+03  0.62566779618E+03  0.59979328958E+03 0.  0.
        2    1    3    3  502    0 -0.15141696477E+03 -0.20497864504E+03  0.25395111659E+03  0.35977008181E+03  0.25500000920E-02 0. -1.
       -2    1    3    3    0  502  0.15141696477E+03  0.20497864504E+03 -0.75883149362E+02  0.26589771437E+03  0.25500000920E-02 0.  1.
</event>
<event>
 5   0  0.2092587E-02  0.6019422E+03  0.7818609E-02  0.9901385E-01
       -2   -1    0    0    0  501  0.00000000000E+00  0.00000000000E+00  0.24389140245E+03  0.24389140246E+03  0.25500000920E-02 0. -1.
        2   -1    0    0  501    0  0.00000000000E+00  0.00000000000E+00 -0.37140957214E+03  0.37140957215E+03  0.25500000920E-02 0.  1.
    10030    2    1    2    0    0  0.00000000000E+00  0.00000000000E+00 -0.12751816969E+03  0.61530097461E+03  0.60194219470E+03 0.  0.
        3    1    3    3  502    0  0.63030468375E+02  0.24613645898E+03 -0.22867016434E+03  0.34182751593E+03  0.10100000352E+00 0.  1.
       -3    1    3    3    0  502 -0.63030468375E+02 -0.24613645898E+03  0.10115199465E+03  0.27347345869E+03  0.10100000352E+00 0. -1.
</event>
<event>
 5   0  0.2179625E-02  0.5993496E+03  0.7818609E-02  0.9906756E-01
       -2   -1    0    0    0  501  0.00000000000E+00  0.00000000000E+00  0.14822244782E+03  0.14822244784E+03  0.25500000920E-02 0.  1.
        2   -1    0    0  501    0  0.00000000000E+00  0.00000000000E+00 -0.60587982934E+03  0.60587982934E+03  0.25500000920E-02 0. -1.
    10030    2    1    2    0    0  0.00000000000E+00  0.00000000000E+00 -0.45765738152E+03  0.75410227718E+03  0.59934961883E+03 0.  0.
        1    1    3    3  502    0  0.27933814405E+03  0.78834750106E+02 -0.13500810336E+03  0.32011233114E+03  0.50400001928E-02 0.  1.
       -1    1    3    3    0  502 -0.27933814405E+03 -0.78834750106E+02 -0.32264927816E+03  0.43398994605E+03  0.50400001928E-02 0. -1.
</event>
<event>
 5   0  0.2141800E-02  0.5995086E+03  0.7818609E-02  0.9906426E-01
       -2   -1    0    0    0  501  0.00000000000E+00  0.00000000000E+00  0.76243037217E+02  0.76243037260E+02  0.25500000920E-02 0.  1.
        2   -1    0    0  501    0  0.00000000000E+00  0.00000000000E+00 -0.11785027999E+04  0.11785027999E+04  0.25500000920E-02 0. -1.
    10030    2    1    2    0    0  0.00000000000E+00  0.00000000000E+00 -0.11022597627E+04  0.12547458372E+04  0.59950857497E+03 0.  0.
        2    1    3    3  502    0  0.13266318102E+03 -0.17485296145E+03 -0.97841906732E+03  0.10027347351E+04  0.25500000920E-02 0. -1.
       -2    1    3    3    0  502 -0.13266318102E+03  0.17485296145E+03 -0.12384069541E+03  0.25201110208E+03  0.25500000920E-02 0.  1.
</event>
<event>
 5   0  0.2092587E-02  0.6064441E+03  0.7818609E-02  0.9892126E-01
        2   -1    0    0  501    0  0.00000000000E+00  0.00000000000E+00  0.12244579348E+04  0.12244579348E+04  0.25500000920E-02 0.  1.
       -2   -1    0    0    0  501  0.00000000000E+00  0.00000000000E+00 -0.75089234142E+02  0.75089234185E+02  0.25500000920E-02 0. -1.
    10030    2    1    2    0    0  0.00000000000E+00  0.00000000000E+00  0.11493687007E+04  0.12995471690E+04  0.60644409006E+03 0.  0.
        3    1    3    3  502    0  0.26627528779E+03  0.11316541544E+03  0.76914156888E+03  0.82175890827E+03  0.10100000352E+00 0. -1.
       -3    1    3    3    0  502 -0.26627528779E+03 -0.11316541544E+03  0.38022713177E+03  0.47778826071E+03  0.10100000352E+00 0.  1.
</event>
<event>
 5   0  0.1250390E-02  0.5993143E+03  0.7818609E-02  0.9906830E-01
        1   -1    0    0  501    0  0.00000000000E+00  0.00000000000E+00  0.11874030659E+03  0.11874030669E+03  0.50400001928E-02 0. -1.
       -1   -1    0    0    0  501  0.00000000000E+00  0.00000000000E+00 -0.75622508069E+03  0.75622508071E+03  0.50400001928E-02 0.  1.
    10030    2    1    2    0    0  0.00000000000E+00  0.00000000000E+00 -0.63748477411E+03  0.87496538740E+03  0.59931426809E+03 0.  0.
        3    1    3    3  502    0 -0.13834238677E+03  0.12195748757E+03 -0.66355556361E+03  0.68870766000E+03  0.10100000352E+00 0.  1.
       -3    1    3    3    0  502  0.13834238677E+03 -0.12195748757E+03  0.26070789497E+02  0.18625772740E+03  0.10100000352E+00 0. -1.
</event>
<event>
 5   0  0.2126207E-02  0.5997455E+03  0.7818609E-02  0.9905934E-01
        2   -1    0    0  501    0  0.00000000000E+00  0.00000000000E+00  0.49209991639E+03  0.49209991640E+03  0.25500000920E-02 0.  1.
       -2   -1    0    0    0  501  0.00000000000E+00  0.00000000000E+00 -0.18273457215E+03  0.18273457216E+03  0.25500000920E-02 0. -1.
    10030    2    1    2    0    0  0.00000000000E+00  0.00000000000E+00  0.30936534424E+03  0.67483448856E+03  0.59974550497E+03 0.  0.
        5    1    3    3  502    0 -0.25715470932E+03  0.14633719289E+02 -0.18023419699E+02  0.25824334245E+03  0.46999998093E+01 0. -1.
       -5    1    3    3    0  502  0.25715470932E+03 -0.14633719289E+02  0.32738876394E+03  0.41659114611E+03  0.46999998093E+01 0.  1.
</event>
<event>
 5   0  0.1337051E-02  0.5994863E+03  0.7818609E-02  0.9906472E-01
        1   -1    0    0  501    0  0.00000000000E+00  0.00000000000E+00  0.10695089931E+04  0.10695089931E+04  0.50400001928E-02 0.  1.
       -1   -1    0    0    0  501  0.00000000000E+00  0.00000000000E+00 -0.84006726995E+02  0.84006727146E+02  0.50400001928E-02 0. -1.
    10030    2    1    2    0    0  0.00000000000E+00  0.00000000000E+00  0.98550226614E+03  0.11535157203E+04  0.59948628041E+03 0.  0.
        5    1    3    3  502    0  0.32283813706E+02 -0.20704504736E+03  0.90505429271E+03  0.92900767435E+03  0.46999998093E+01 0.  1.
       -5    1    3    3    0  502 -0.32283813706E+02  0.20704504736E+03  0.80447973429E+02  0.22450804594E+03  0.46999998093E+01 0. -1.
</event>
<event>
 5   0  0.1250390E-02  0.5994706E+03  0.7818609E-02  0.9906505E-01
        1   -1    0    0  501    0  0.00000000000E+00  0.00000000000E+00  0.15925923459E+04  0.15925923459E+04  0.50400001928E-02 0.  1.
       -1   -1    0    0    0  501  0.00000000000E+00  0.00000000000E+00 -0.56411965150E+02  0.56411965375E+02  0.50400001928E-02 0. -1.
    10030    2    1    2    0    0  0.00000000000E+00  0.00000000000E+00  0.15361803807E+04  0.16490043112E+04  0.59947064683E+03 0.  0.
        3    1    3    3  502    0  0.24450022295E+03  0.11618913334E+03  0.11220849940E+04  0.11542768376E+04  0.10100000352E+00 0.  1.
       -3    1    3    3    0  502 -0.24450022295E+03 -0.11618913334E+03  0.41409538666E+03  0.49472747365E+03  0.10100000352E+00 0. -1.
</event>
<event>
 5   0  0.8551000E-03  0.6045509E+03  0.7818609E-02  0.9896009E-01
       -3   -1    0    0    0  501  0.00000000000E+00  0.00000000000E+00  0.10644748976E+04  0.10644749024E+04  0.10100000352E+00 0. -1.
        3   -1    0    0  501    0  0.00000000000E+00  0.00000000000E+00 -0.85836135295E+02  0.85836194716E+02  0.10100000352E+00 0.  1.
    10030    2    1    2    0    0  0.00000000000E+00  0.00000000000E+00  0.97863876233E+03  0.11503110971E+04  0.60455090195E+03 0.  0.
        5    1    3    3  502    0  0.14833134830E+03 -0.14160812037E+03  0.66868300741E+02  0.21575103311E+03  0.46999998093E+01 0.  1.
       -5    1    3    3    0  502 -0.14833134830E+03  0.14160812037E+03  0.91177046159E+03  0.93456006403E+03  0.46999998093E+01 0. -1.
</event>
<event>
 5   0  0.2092587E-02  0.6005300E+03  0.7818609E-02  0.9904307E-01
        2   -1    0    0  501    0  0.00000000000E+00  0.00000000000E+00  0.81831464179E+03  0.81831464180E+03  0.25500000920E-02 0.  1.
       -2   -1    0    0    0  501  0.00000000000E+00  0.00000000000E+00 -0.11017655131E+03  0.11017655134E+03  0.25500000920E-02 0. -1.
    10030    2    1    2    0    0  0.00000000000E+00  0.00000000000E+00  0.70813809048E+03  0.92849119314E+03  0.60053004966E+03 0.  0.
        3    1    3    3  502    0  0.19645599664E+03 -0.93142414591E+01  0.70486225906E+03  0.73178721508E+03  0.10100000352E+00 0.  1.
       -3    1    3    3    0  502 -0.19645599664E+03  0.93142414591E+01  0.32758314181E+01  0.19670397805E+03  0.10100000352E+00 0. -1.
</event>
<event>
 5   0  0.1276705E-02  0.5997612E+03  0.7818609E-02  0.9905902E-01
        1   -1    0    0  501    0  0.00000000000E+00  0.00000000000E+00  0.22555194980E+03  0.22555194986E+03  0.50400001928E-02 0.  1.
       -1   -1    0    0    0  501  0.00000000000E+00  0.00000000000E+00 -0.39870359818E+03  0.39870359821E+03  0.50400001928E-02 0. -1.
    10030    2    1    2    0    0  0.00000000000E+00  0.00000000000E+00 -0.17315164838E+03  0.62425554807E+03  0.59976119911E+03 0.  0.
        1    1    3    3  502    0  0.27151136473E+03 -0.20328675314E+02 -0.21739373194E+03  0.34841313255E+03  0.50400001928E-02 0. -1.
       -1    1    3    3    0  502 -0.27151136473E+03  0.20328675314E+02  0.44242083565E+02  0.27584241552E+03  0.50400001928E-02 0.  1.
</event>
<event>
 5   0  0.1250390E-02  0.5995276E+03  0.7818609E-02  0.9906387E-01
        1   -1    0    0  501    0  0.00000000000E+00  0.00000000000E+00  0.47176713231E+03  0.47176713234E+03  0.50400001928E-02 0. -1.
       -1   -1    0    0    0  501  0.00000000000E+00  0.00000000000E+00 -0.19047182871E+03  0.19047182877E+03  0.50400001928E-02 0.  1.
    10030    2    1    2    0    0  0.00000000000E+00  0.00000000000E+00  0.28129530361E+03  0.66223896111E+03  0.59952764222E+03 0.  0.
        3    1    3    3  502    0  0.31596666948E+02 -0.25412699768E+03 -0.31469840213E+02  0.25801015746E+03  0.10100000352E+00 0.  1.
       -3    1    3    3    0  502 -0.31596666948E+02  0.25412699768E+03  0.31276514382E+03  0.40422880365E+03  0.10100000352E+00 0. -1.
</event>
<event>
 5   0  0.1332555E-02  0.5995046E+03  0.7818609E-02  0.9906434E-01
        1   -1    0    0  501    0  0.00000000000E+00  0.00000000000E+00  0.21832548166E+03  0.21832548172E+03  0.50400001928E-02 0. -1.
       -1   -1    0    0    0  501  0.00000000000E+00  0.00000000000E+00 -0.41154810556E+03  0.41154810559E+03  0.50400001928E-02 0.  1.
    10030    2    1    2    0    0  0.00000000000E+00  0.00000000000E+00 -0.19322262390E+03  0.62987358731E+03  0.59950459014E+03 0.  0.
        2    1    3    3  502    0 -0.17417525854E+03  0.22925523037E+03 -0.18424174116E+03  0.34181866616E+03  0.25500000920E-02 0. -1.
       -2    1    3    3    0  502  0.17417525854E+03 -0.22925523037E+03 -0.89808827469E+01  0.28805492116E+03  0.25500000920E-02 0.  1.
</event>
<event>
 5   0  0.1337051E-02  0.6031314E+03  0.7818609E-02  0.9898931E-01
       -1   -1    0    0    0  501  0.00000000000E+00  0.00000000000E+00  0.39722376121E+03  0.39722376124E+03  0.50400001928E-02 0. -1.
        1   -1    0    0  501    0  0.00000000000E+00  0.00000000000E+00 -0.22894370766E+03  0.22894370771E+03  0.50400001928E-02 0.  1.
    10030    2    1    2    0    0  0.00000000000E+00  0.00000000000E+00  0.16828005355E+03  0.62616746896E+03  0.60313143075E+03 0.  0.
        5    1    3    3  502    0  0.27438479517E+03 -0.69821166933E+02  0.19182122001E+03  0.34202263320E+03  0.46999998093E+01 0. -1.
       -5    1    3    3    0  502 -0.27438479517E+03  0.69821166933E+02 -0.23541166452E+02  0.28414483576E+03  0.46999998093E+01 0.  1.
</event>
<event>
 5   0  0.2142838E-02  0.5991188E+03  0.7818609E-02  0.9907236E-01
        2   -1    0    0  501    0  0.00000000000E+00  0.00000000000E+00  0.56006442005E+03  0.56006442005E+03  0.25500000920E-02 0.  1.
       -2   -1    0    0    0  501  0.00000000000E+00  0.00000000000E+00 -0.16022412052E+03  0.16022412054E+03  0.25500000920E-02 0. -1.
    10030    2    1    2    0    0  0.00000000000E+00  0.00000000000E+00  0.39984029953E+03  0.72028854059E+03  0.59911878337E+03 0.  0.
        4    1    3    3  502    0  0.14360481842E+02 -0.20611959762E+03 -0.60839092010E+02  0.21539387173E+03  0.12699999809E+01 0. -1.
       -4    1    3    3    0  502 -0.14360481842E+02  0.20611959762E+03  0.46067939154E+03  0.50489466886E+03  0.12699999809E+01 0.  1.
</event>
<event>
 5   0  0.2179625E-02  0.6020085E+03  0.7818609E-02  0.9901248E-01
        2   -1    0    0  501    0  0.00000000000E+00  0.00000000000E+00  0.40538195741E+03  0.40538195742E+03  0.25500000920E-02 0. -1.
       -2   -1    0    0    0  501  0.00000000000E+00  0.00000000000E+00 -0.22350169991E+03  0.22350169992E+03  0.25500000920E-02 0.  1.
    10030    2    1    2    0    0  0.00000000000E+00  0.00000000000E+00  0.18188025751E+03  0.62888365734E+03  0.60200849363E+03 0.  0.
        1    1    3    3  502    0  0.38837730599E+00  0.28609879171E+03 -0.67821827693E+01  0.28617943232E+03  0.50400001928E-02 0.  1.
       -1    1    3    3    0  502 -0.38837730599E+00 -0.28609879171E+03  0.18866244028E+03  0.34270422503E+03  0.50400001928E-02 0. -1.
</event>
<event>
 5   0  0.1303808E-02  0.6026083E+03  0.7818609E-02  0.9900009E-01
       -1   -1    0    0    0  501  0.00000000000E+00  0.00000000000E+00  0.15997683439E+03  0.15997683447E+03  0.50400001928E-02 0. -1.
        1   -1    0    0  501    0  0.00000000000E+00  0.00000000000E+00 -0.56748338155E+03  0.56748338157E+03  0.50400001928E-02 0.  1.
    10030    2    1    2    0    0  0.00000000000E+00  0.00000000000E+00 -0.40750654716E+03  0.72746021604E+03  0.60260831386E+03 0.  0.
        4    1    3    3  502    0 -0.22390811874E+02 -0.24888596264E+03 -0.40696611541E+03  0.47756528647E+03  0.12699999809E+01 0.  1.
       -4    1    3    3    0  502  0.22390811874E+02  0.24888596264E+03 -0.54043174987E+00  0.24989492956E+03  0.12699999809E+01 0. -1.
</event>
<event>
 5   0  0.2141800E-02  0.5995550E+03  0.7818609E-02  0.9906330E-01
        2   -1    0    0  501    0  0.00000000000E+00  0.00000000000E+00  0.30689372773E+03  0.30689372774E+03  0.25500000920E-02 0.  1.
       -2   -1    0    0    0  501  0.00000000000E+00  0.00000000000E+00 -0.29282626893E+03  0.29282626894E+03  0.25500000920E-02 0. -1.
    10030    2    1    2    0    0  0.00000000000E+00  0.00000000000E+00  0.14067458806E+02  0.59971999668E+03  0.59955498582E+03 0.  0.
        2    1    3    3  502    0 -0.70124539050E+02 -0.93245452236E+02  0.28325168589E+03  0.30633916319E+03  0.25500000920E-02 0.  1.
       -2    1    3    3    0  502  0.70124539050E+02  0.93245452236E+02 -0.26918422708E+03  0.29338083349E+03  0.25500000920E-02 0. -1.
</event>
<event>
 5   0  0.1250390E-02  0.5998382E+03  0.7818609E-02  0.9905742E-01
       -1   -1    0    0    0  501  0.00000000000E+00  0.00000000000E+00  0.90988382499E+02  0.90988382638E+02  0.50400001928E-02 0. -1.
        1   -1    0    0  501    0  0.00000000000E+00  0.00000000000E+00 -0.98860395738E+03  0.98860395740E+03  0.50400001928E-02 0.  1.
    10030    2    1    2    0    0  0.00000000000E+00  0.00000000000E+00 -0.89761557488E+03  0.10795923400E+04  0.59983822851E+03 0.  0.
        3    1    3    3  502    0  0.19239177017E+03 -0.14598801245E+03 -0.76887162507E+03  0.80590984549E+03  0.10100000352E+00 0.  1.
       -3    1    3    3    0  502 -0.19239177017E+03  0.14598801245E+03 -0.12874394981E+03  0.27368249455E+03  0.10100000352E+00 0. -1.
</event>
<event>
 5   0  0.2141800E-02  0.5936467E+03  0.7818609E-02  0.9918676E-01
        2   -1    0    0  501    0  0.00000000000E+00  0.00000000000E+00  0.24651172528E+03  0.24651172530E+03  0.25500000920E-02 0.  1.
       -2   -1    0    0    0  501  0.00000000000E+00  0.00000000000E+00 -0.35740326439E+03  0.35740326440E+03  0.25500000920E-02 0. -1.
    10030    2    1    2    0    0  0.00000000000E+00  0.00000000000E+00 -0.11089153910E+03  0.60391498969E+03  0.59364668055E+03 0.  0.
        2    1    3    3  502    0 -0.16914051095E+03 -0.10133230884E+03  0.17026432203E+03  0.26051235791E+03  0.25500000920E-02 0.  1.
       -2    1    3    3    0  502  0.16914051095E+03  0.10133230884E+03 -0.28115586113E+03  0.34340263178E+03  0.25500000920E-02 0. -1.
</event>
<event>
 5   0  0.1332555E-02  0.6011737E+03  0.7818609E-02  0.9902974E-01
        1   -1    0    0  501    0  0.00000000000E+00  0.00000000000E+00  0.44967742418E+03  0.44967742421E+03  0.50400001928E-02 0. -1.
       -1   -1    0    0    0  501  0.00000000000E+00  0.00000000000E+00 -0.20092723577E+03  0.20092723583E+03  0.50400001928E-02 0.  1.
    10030    2    1    2    0    0  0.00000000000E+00  0.00000000000E+00  0.24875018841E+03  0.65060466004E+03  0.60117365830E+03 0.  0.
        2    1    3    3  502    0 -0.17922386517E+02  0.13328286836E+03 -0.16655386972E+03  0.21406944308E+03  0.25500000920E-02 0.  1.
       -2    1    3    3    0  502  0.17922386517E+02 -0.13328286836E+03  0.41530405814E+03  0.43653521696E+03  0.25500000920E-02 0. -1.
</event>
<event>
 5   0  0.1332555E-02  0.6027852E+03  0.7818609E-02  0.9899644E-01
        1   -1    0    0  501    0  0.00000000000E+00  0.00000000000E+00  0.62744184340E+03  0.62744184342E+03  0.50400001928E-02 0.  1.
       -1   -1    0    0    0  501  0.00000000000E+00  0.00000000000E+00 -0.14477436845E+03  0.14477436853E+03  0.50400001928E-02 0. -1.
    10030    2    1    2    0    0  0.00000000000E+00  0.00000000000E+00  0.48266747495E+03  0.77221621195E+03  0.60278519111E+03 0.  0.
        2    1    3    3  502    0 -0.84741977488E+02  0.19804472141E+03  0.51137920432E+03  0.55489783298E+03  0.25500000920E-02 0.  1.
       -2    1    3    3    0  502  0.84741977488E+02 -0.19804472141E+03 -0.28711729369E+02  0.21731837897E+03  0.25500000920E-02 0. -1.
</event>
<event>
 5   0  0.1332555E-02  0.5990684E+03  0.7818609E-02  0.9907341E-01
        1   -1    0    0  501    0  0.00000000000E+00  0.00000000000E+00  0.83797890947E+03  0.83797890949E+03  0.50400001928E-02 0. -1.
       -1   -1    0    0    0  501  0.00000000000E+00  0.00000000000E+00 -0.10706800623E+03  0.10706800635E+03  0.50400001928E-02 0.  1.
    10030    2    1    2    0    0  0.00000000000E+00  0.00000000000E+00  0.73091090325E+03  0.94504691584E+03  0.59906838061E+03 0.  0.
        2    1    3    3  502    0 -0.20598813300E+03  0.11421625241E+03  0.73530703334E+02  0.24674526863E+03  0.25500000920E-02 0.  1.
       -2    1    3    3    0  502  0.20598813300E+03 -0.11421625241E+03  0.65738019991E+03  0.69830164721E+03  0.25500000920E-02 0. -1.
</event>
<event>
 5   0  0.2141800E-02  0.5966975E+03  0.7818609E-02  0.9912282E-01
        2   -1    0    0  501    0  0.00000000000E+00  0.00000000000E+00  0.14076802437E+03  0.14076802439E+03  0.25500000920E-02 0. -1.
       -2   -1    0    0    0  501  0.00000000000E+00  0.00000000000E+00 -0.63233084004E+03  0.63233084005E+03  0.25500000920E-02 0.  1.
    10030    2    1    2    0    0  0.00000000000E+00  0.00000000000E+00 -0.49156281568E+03  0.77309886443E+03  0.59669745469E+03 0.  0.
        2    1    3    3  502    0  0.55916299512E+02 -0.16120335082E+01 -0.62547544372E+03  0.62797194357E+03  0.25500000920E-02 0.  1.
       -2    1    3    3    0  502 -0.55916299512E+02  0.16120335082E+01  0.13391262805E+03  0.14512692087E+03  0.25500000920E-02 0. -1.
</event>
<event>
 5   0  0.1337051E-02  0.6019464E+03  0.7818609E-02  0.9901376E-01
       -1   -1    0    0    0  501  0.00000000000E+00  0.00000000000E+00  0.38739278705E+03  0.38739278709E+03  0.50400001928E-02 0. -1.
        1   -1    0    0  501    0  0.00000000000E+00  0.00000000000E+00 -0.23383208579E+03  0.23383208584E+03  0.50400001928E-02 0.  1.
    10030    2    1    2    0    0  0.00000000000E+00  0.00000000000E+00  0.15356070127E+03  0.62122487293E+03  0.60194638779E+03 0.  0.
        5    1    3    3  502    0 -0.31581588151E+02  0.21503397967E+02  0.38484164743E+03  0.38676217037E+03  0.46999998093E+01 0. -1.
       -5    1    3    3    0  502  0.31581588151E+02 -0.21503397967E+02 -0.23128094616E+03  0.23446270256E+03  0.46999998093E+01 0.  1.
</event>
<event>
 5   0  0.2126207E-02  0.6352066E+03  0.7818609E-02  0.9834941E-01
        2   -1    0    0  501    0  0.00000000000E+00  0.00000000000E+00  0.12925284804E+04  0.12925284805E+04  0.25500000920E-02 0. -1.
       -2   -1    0    0    0  501  0.00000000000E+00  0.00000000000E+00 -0.78042276474E+02  0.78042276516E+02  0.25500000920E-02 0.  1.
    10030    2    1    2    0    0  0.00000000000E+00  0.00000000000E+00  0.12144862040E+04  0.13705707570E+04  0.63520662796E+03 0.  0.
        5    1    3    3  502    0  0.10173552637E+03 -0.83493642013E+02 -0.16353445598E+02  0.13270580531E+03  0.46999998093E+01 0.  1.
       -5    1    3    3    0  502 -0.10173552637E+03  0.83493642013E+02  0.12308396496E+04  0.12378649517E+04  0.46999998093E+01 0. -1.
</event>
<event>
 5   0  0.2126207E-02  0.6000603E+03  0.7818609E-02  0.9905281E-01
       -2   -1    0    0    0  501  0.00000000000E+00  0.00000000000E+00  0.90581660969E+02  0.90581661005E+02  0.25500000920E-02 0.  1.
        2   -1    0    0  501    0  0.00000000000E+00  0.00000000000E+00 -0.99377845396E+03  0.99377845397E+03  0.25500000920E-02 0. -1.
    10030    2    1    2    0    0  0.00000000000E+00  0.00000000000E+00 -0.90319679299E+03  0.10843601150E+04  0.60006034035E+03 0.  0.
        5    1    3    3  502    0 -0.17061758217E+03 -0.19661398162E+03 -0.18217542212E+03  0.31776939994E+03  0.46999998093E+01 0.  1.
       -5    1    3    3    0  502  0.17061758217E+03  0.19661398162E+03 -0.72102137088E+03  0.76659071503E+03  0.46999998093E+01 0. -1.
</event>
<event>
 5   0  0.2142838E-02  0.5996868E+03  0.7818609E-02  0.9906056E-01
       -2   -1    0    0    0  501  0.00000000000E+00  0.00000000000E+00  0.17318895702E+03  0.17318895704E+03  0.25500000920E-02 0.  1.
        2   -1    0    0  501    0  0.00000000000E+00  0.00000000000E+00 -0.51912118520E+03  0.51912118520E+03  0.25500000920E-02 0. -1.
    10030    2    1    2    0    0  0.00000000000E+00  0.00000000000E+00 -0.34593222818E+03  0.69231014224E+03  0.59968677371E+03 0.  0.
        4    1    3    3  502    0 -0.12612103227E+03 -0.12417372538E+03 -0.45237905353E+03  0.48577160254E+03  0.12699999809E+01 0. -1.
       -4    1    3    3    0  502  0.12612103227E+03  0.12417372538E+03  0.10644682535E+03  0.20653853971E+03  0.12699999809E+01 0.  1.
</event>
<event>
 5   0  0.1303808E-02  0.6093268E+03  0.7818609E-02  0.9886243E-01
        1   -1    0    0  501    0  0.00000000000E+00  0.00000000000E+00  0.55963236799E+03  0.55963236801E+03  0.50400001928E-02 0. -1.
       -1   -1    0    0    0  501  0.00000000000E+00  0.00000000000E+00 -0.16585849045E+03  0.16585849052E+03  0.50400001928E-02 0.  1.
    10030    2    1    2    0    0  0.00000000000E+00  0.00000000000E+00  0.39377387754E+03  0.72549085853E+03  0.60932677537E+03 0.  0.
        4    1    3    3  502    0 -0.40266633448E+02  0.27301543158E+03  0.35056453827E+03  0.44615685139E+03  0.12699999809E+01 0.  1.
       -4    1    3    3    0  502  0.40266633448E+02 -0.27301543158E+03  0.43209339270E+02  0.27933400715E+03  0.12699999809E+01 0. -1.
</event>
<event>
 5   0  0.8551000E-03  0.6000754E+03  0.7818609E-02  0.9905250E-01
        4   -1    0    0  501    0  0.00000000000E+00  0.00000000000E+00  0.23674174919E+03  0.23674515562E+03  0.12699999809E+01 0.  1.
       -4   -1    0    0    0  501  0.00000000000E+00  0.00000000000E+00 -0.38024942645E+03  0.38025154729E+03  0.12699999809E+01 0. -1.
    10030    2    1    2    0    0  0.00000000000E+00  0.00000000000E+00 -0.14350767727E+03  0.61699670291E+03  0.60007539357E+03 0.  0.
        5    1    3    3  502    0 -0.15704575104E+01 -0.25497886640E+03 -0.23427376876E+03  0.34629897109E+03  0.46999998093E+01 0. -1.
       -5    1    3    3    0  502  0.15704575104E+01  0.25497886640E+03  0.90766091498E+02  0.27069773182E+03  0.46999998093E+01 0.  1.
</event>
<event>
 5   0  0.8551000E-03  0.6011330E+03  0.7818609E-02  0.9903058E-01
        3   -1    0    0  501    0  0.00000000000E+00  0.00000000000E+00  0.29518411644E+03  0.29518413372E+03  0.10100000352E+00 0.  1.
       -3   -1    0    0    0  501  0.00000000000E+00  0.00000000000E+00 -0.30604697699E+03  0.30604699366E+03  0.10100000352E+00 0. -1.
    10030    2    1    2    0    0  0.00000000000E+00  0.00000000000E+00 -0.10862860553E+02  0.60123112737E+03  0.60113298594E+03 0.  0.
        1    1    3    3  502    0  0.17686546439E+03 -0.16048720976E+03  0.17708858125E+03  0.29731784781E+03  0.50400001928E-02 0.  1.
       -1    1    3    3    0  502 -0.17686546439E+03  0.16048720976E+03 -0.18795144181E+03  0.30391327956E+03  0.50400001928E-02 0. -1.
</event>
<event>
 5   0  0.2141800E-02  0.6010194E+03  0.7818609E-02  0.9903293E-01
        2   -1    0    0  501    0  0.00000000000E+00  0.00000000000E+00  0.11208481936E+04  0.11208481936E+04  0.25500000920E-02 0. -1.
       -2   -1    0    0    0  501  0.00000000000E+00  0.00000000000E+00 -0.80569416664E+02  0.80569416704E+02  0.25500000920E-02 0.  1.
    10030    2    1    2    0    0  0.00000000000E+00  0.00000000000E+00  0.10402787769E+04  0.12014176103E+04  0.60101941782E+03 0.  0.
        2    1    3    3  502    0 -0.38532903499E+02 -0.25066585119E+03  0.84238821682E+03  0.87973635906E+03  0.25500000920E-02 0. -1.
       -2    1    3    3    0  502  0.38532903499E+02  0.25066585119E+03  0.19789056007E+03  0.32168125121E+03  0.25500000920E-02 0.  1.
</event>
<event>
 5   0  0.1332555E-02  0.5988778E+03  0.7818609E-02  0.9907737E-01
       -1   -1    0    0    0  501  0.00000000000E+00  0.00000000000E+00  0.83335545488E+02  0.83335545641E+02  0.50400001928E-02 0.  1.
        1   -1    0    0  501    0  0.00000000000E+00  0.00000000000E+00 -0.10759352318E+04  0.10759352318E+04  0.50400001928E-02 0. -1.
    10030    2    1    2    0    0  0.00000000000E+00  0.00000000000E+00 -0.99259968631E+03  0.11592707774E+04  0.59887778235E+03 0.  0.
        2    1    3    3  502    0 -0.24221170952E+03 -0.66233742969E+02 -0.18052975407E+03  0.30926430936E+03  0.25500000920E-02 0.  1.
       -2    1    3    3    0  502  0.24221170952E+03  0.66233742969E+02 -0.81206993224E+03  0.85000646809E+03  0.25500000920E-02 0. -1.
</event>
<event>
 5   0  0.2092587E-02  0.6000608E+03  0.7818609E-02  0.9905280E-01
        2   -1    0    0  501    0  0.00000000000E+00  0.00000000000E+00  0.46541444968E+03  0.46541444969E+03  0.25500000920E-02 0.  1.
       -2   -1    0    0    0  501  0.00000000000E+00  0.00000000000E+00 -0.19341522496E+03  0.19341522497E+03  0.25500000920E-02 0. -1.
    10030    2    1    2    0    0  0.00000000000E+00  0.00000000000E+00  0.27199922473E+03  0.65882967466E+03  0.60006079856E+03 0.  0.
        3    1    3    3  502    0 -0.65510499473E+01 -0.14815267511E+03 -0.15036258063E+03  0.21118960025E+03  0.10100000352E+00 0. -1.
       -3    1    3    3    0  502  0.65510499473E+01  0.14815267511E+03  0.42236180536E+03  0.44764007442E+03  0.10100000352E+00 0.  1.
</event>
<event>
 5   0  0.2126207E-02  0.5998885E+03  0.7818609E-02  0.9905637E-01
       -2   -1    0    0    0  501  0.00000000000E+00  0.00000000000E+00  0.74261093393E+02  0.74261093437E+02  0.25500000920E-02 0.  1.
        2   -1    0    0  501    0  0.00000000000E+00  0.00000000000E+00 -0.12114896295E+04  0.12114896295E+04  0.25500000920E-02 0. -1.
    10030    2    1    2    0    0  0.00000000000E+00  0.00000000000E+00 -0.11372285362E+04  0.12857507230E+04  0.59988847148E+03 0.  0.
        5    1    3    3  502    0  0.27557075401E+03 -0.50191519552E+02 -0.79831963828E+03  0.84604654953E+03  0.46999998093E+01 0. -1.
       -5    1    3    3    0  502 -0.27557075401E+03  0.50191519552E+02 -0.33890889787E+03  0.43970417346E+03  0.46999998093E+01 0.  1.
</event>
<event>
 5   0  0.1337051E-02  0.5991180E+03  0.7818609E-02  0.9907238E-01
        1   -1    0    0  501    0  0.00000000000E+00  0.00000000000E+00  0.10237466909E+04  0.10237466909E+04  0.50400001928E-02 0.  1.
       -1   -1    0    0    0  501  0.00000000000E+00  0.00000000000E+00 -0.87654087698E+02  0.87654087843E+02  0.50400001928E-02 0. -1.
    10030    2    1    2    0    0  0.00000000000E+00  0.00000000000E+00  0.93609260321E+03  0.11114007788E+04  0.59911795938E+03 0.  0.
        5    1    3    3  502    0 -0.29064140337E+03  0.71926098667E+02  0.45278248117E+03  0.54284422653E+03  0.46999998093E+01 0. -1.
       -5    1    3    3    0  502  0.29064140337E+03 -0.71926098667E+02  0.48331012205E+03  0.56855655224E+03  0.46999998093E+01 0.  1.
</event>
<event>
 5   0  0.1250390E-02  0.5986421E+03  0.7818609E-02  0.9908227E-01
        1   -1    0    0  501    0  0.00000000000E+00  0.00000000000E+00  0.62605046206E+03  0.62605046208E+03  0.50400001928E-02 0. -1.
       -1   -1    0    0    0  501  0.00000000000E+00  0.00000000000E+00 -0.14310839398E+03  0.14310839407E+03  0.50400001928E-02 0.  1.
    10030    2    1    2    0    0  0.00000000000E+00  0.00000000000E+00  0.48294206808E+03  0.76915885615E+03  0.59864205071E+03 0.  0.
        3    1    3    3  502    0 -0.93880481504E+02 -0.99350696250E+02 -0.10066544678E+03  0.16975761553E+03  0.10100000352E+00 0.  1.
       -3    1    3    3    0  502  0.93880481504E+02  0.99350696250E+02  0.58360751486E+03  0.59940124062E+03  0.10100000352E+00 0. -1.
</event>
<event>
 5   0  0.2092587E-02  0.6012724E+03  0.7818609E-02  0.9902770E-01
       -2   -1    0    0    0  501  0.00000000000E+00  0.00000000000E+00  0.41995545873E+03  0.41995545874E+03  0.25500000920E-02 0.  1.
        2   -1    0    0  501    0  0.00000000000E+00  0.00000000000E+00 -0.21521834459E+03  0.21521834461E+03  0.25500000920E-02 0. -1.
    10030    2    1    2    0    0  0.00000000000E+00  0.00000000000E+00  0.20473711414E+03  0.63517380335E+03  0.60127237967E+03 0.  0.
        3    1    3    3  502    0 -0.65332118354E+02 -0.84995242312E+02 -0.19434083075E+03  0.22194784433E+03  0.10100000352E+00 0. -1.
       -3    1    3    3    0  502  0.65332118354E+02  0.84995242312E+02  0.39907794489E+03  0.41322595902E+03  0.10100000352E+00 0.  1.
</event>
<event>
 5   0  0.2179625E-02  0.5808167E+03  0.7818609E-02  0.9946024E-01
       -2   -1    0    0    0  501  0.00000000000E+00  0.00000000000E+00  0.11929331040E+03  0.11929331043E+03  0.25500000920E-02 0. -1.
        2   -1    0    0  501    0  0.00000000000E+00  0.00000000000E+00 -0.70697192064E+03  0.70697192065E+03  0.25500000920E-02 0.  1.
    10030    2    1    2    0    0  0.00000000000E+00  0.00000000000E+00 -0.58767861024E+03  0.82626523107E+03  0.58081673800E+03 0.  0.
        1    1    3    3  502    0  0.16078299720E+03  0.85005837433E+02  0.28244617243E+02  0.18405141405E+03  0.50400001928E-02 0. -1.
       -1    1    3    3    0  502 -0.16078299720E+03 -0.85005837433E+02 -0.61592322749E+03  0.64221381702E+03  0.50400001928E-02 0.  1.
</event>
<event>
 5   0  0.2179625E-02  0.5963606E+03  0.7818609E-02  0.9912985E-01
        2   -1    0    0  501    0  0.00000000000E+00  0.00000000000E+00  0.10050497393E+04  0.10050497393E+04  0.25500000920E-02 0. -1.
       -2   -1    0    0    0  501  0.00000000000E+00  0.00000000000E+00 -0.88464782105E+02  0.88464782142E+02  0.25500000920E-02 0.  1.
    10030    2    1    2    0    0  0.00000000000E+00  0.00000000000E+00  0.91658495717E+03  0.10935145214E+04  0.59636064998E+03 0.  0.
        1    1    3    3  502    0  0.23073923586E+03 -0.12281364881E+03  0.72139177704E+03  0.76728735380E+03  0.50400001928E-02 0. -1.
       -1    1    3    3    0  502 -0.23073923586E+03  0.12281364881E+03  0.19519318013E+03  0.32622716762E+03  0.50400001928E-02 0.  1.
</event>
<event>
 5   0  0.2141800E-02  0.6021702E+03  0.7818609E-02  0.9900914E-01
        2   -1    0    0  501    0  0.00000000000E+00  0.00000000000E+00  0.15624336402E+04  0.15624336402E+04  0.25500000920E-02 0. -1.
       -2   -1    0    0    0  501  0.00000000000E+00  0.00000000000E+00 -0.58019894002E+02  0.58019894058E+02  0.25500000920E-02 0.  1.
    10030    2    1    2    0    0  0.00000000000E+00  0.00000000000E+00  0.15044137462E+04  0.16204535343E+04  0.60217018936E+03 0.  0.
        2    1    3    3  502    0 -0.10945931007E+03  0.45264262312E+02  0.14971003763E+04  0.15017788555E+04  0.25500000920E-02 0. -1.
       -2    1    3    3    0  502  0.10945931007E+03 -0.45264262312E+02  0.73133699145E+01  0.11867467881E+03  0.25500000920E-02 0.  1.
</event>
<event>
 5   0  0.1276705E-02  0.5987813E+03  0.7818609E-02  0.9907938E-01
        1   -1    0    0  501    0  0.00000000000E+00  0.00000000000E+00  0.59239235115E+03  0.59239235117E+03  0.50400001928E-02 0.  1.
       -1   -1    0    0    0  501  0.00000000000E+00  0.00000000000E+00 -0.15130980034E+03  0.15130980042E+03  0.50400001928E-02 0. -1.
    10030    2    1    2    0    0  0.00000000000E+00  0.00000000000E+00  0.44108255081E+03  0.74370215159E+03  0.59878132374E+03 0.  0.
        1    1    3    3  502    0  0.27579507659E+03 -0.11411807366E+03  0.19144207077E+03  0.35459261906E+03  0.50400001928E-02 0.  1.
       -1    1    3    3    0  502 -0.27579507659E+03  0.11411807366E+03  0.24964048004E+03  0.38910953253E+03  0.50400001928E-02 0. -1.
</event>
<event>
 5   0  0.2179625E-02  0.5980825E+03  0.7818609E-02  0.9909392E-01
       -2   -1    0    0    0  501  0.00000000000E+00  0.00000000000E+00  0.21332019488E+03  0.21332019489E+03  0.25500000920E-02 0. -1.
        2   -1    0    0  501    0  0.00000000000E+00  0.00000000000E+00 -0.41920870036E+03  0.41920870037E+03  0.25500000920E-02 0.  1.
    10030    2    1    2    0    0  0.00000000000E+00  0.00000000000E+00 -0.20588850549E+03  0.63252889526E+03  0.59808254167E+03 0.  0.
        1    1    3    3  502    0 -0.17811581738E+02 -0.37140903118E+02  0.21030553880E+03  0.21430146711E+03  0.50400001928E-02 0. -1.
       -1    1    3    3    0  502  0.17811581738E+02  0.37140903118E+02 -0.41619404429E+03  0.41822742815E+03  0.50400001928E-02 0.  1.
</event>
<event>
 5   0  0.2142838E-02  0.5998129E+03  0.7818609E-02  0.9905794E-01
        2   -1    0    0  501    0  0.00000000000E+00  0.00000000000E+00  0.70655078558E+03  0.70655078559E+03  0.25500000920E-02 0.  1.
       -2   -1    0    0    0  501  0.00000000000E+00  0.00000000000E+00 -0.12729993157E+03  0.12729993160E+03  0.25500000920E-02 0. -1.
    10030    2    1    2    0    0  0.00000000000E+00  0.00000000000E+00  0.57925085401E+03  0.83385071719E+03  0.59981285972E+03 0.  0.
        4    1    3    3  502    0  0.27543339934E+03  0.11823845077E+03  0.30341316334E+03  0.42650328170E+03  0.12699999809E+01 0. -1.
       -4    1    3    3    0  502 -0.27543339934E+03 -0.11823845077E+03  0.27583769067E+03  0.40734743549E+03  0.12699999809E+01 0.  1.
</event>
<event>
 5   0  0.2092587E-02  0.5911551E+03  0.7818609E-02  0.9923928E-01
        2   -1    0    0  501    0  0.00000000000E+00  0.00000000000E+00  0.56057320095E+03  0.56057320096E+03  0.25500000920E-02 0.  1.
       -2   -1    0    0    0  501  0.00000000000E+00  0.00000000000E+00 -0.15585133742E+03  0.15585133744E+03  0.25500000920E-02 0. -1.
    10030    2    1    2    0    0  0.00000000000E+00  0.00000000000E+00  0.40472186353E+03  0.71642453839E+03  0.59115508320E+03 0.  0.
        3    1    3    3  502    0  0.30449556360E+02 -0.29260563630E+03  0.23708239519E+03  0.37782708503E+03  0.10100000352E+00 0. -1.
       -3    1    3    3    0  502 -0.30449556360E+02  0.29260563630E+03  0.16763946835E+03  0.33859745336E+03  0.10100000352E+00 0.  1.
</event>
<event>
 5   0  0.1250390E-02  0.6015994E+03  0.7818609E-02  0.9902093E-01
       -1   -1    0    0    0  501  0.00000000000E+00  0.00000000000E+00  0.15945275618E+03  0.15945275626E+03  0.50400001928E-02 0.  1.
        1   -1    0    0  501    0  0.00000000000E+00  0.00000000000E+00 -0.56744359108E+03  0.56744359110E+03  0.50400001928E-02 0. -1.
    10030    2    1    2    0    0  0.00000000000E+00  0.00000000000E+00 -0.40799083490E+03  0.72689634736E+03  0.60159935043E+03 0.  0.
        3    1    3    3  502    0 -0.19873472575E+03  0.64887618526E+02  0.57322922827E+02  0.21677597177E+03  0.10100000352E+00 0.  1.
       -3    1    3    3    0  502  0.19873472575E+03 -0.64887618526E+02 -0.46531375773E+03  0.51012037558E+03  0.10100000352E+00 0. -1.
</event>
<event>
 5   0  0.8551000E-03  0.5998206E+03  0.7818609E-02  0.9905778E-01
       -4   -1    0    0    0  501  0.00000000000E+00  0.00000000000E+00  0.75316442258E+03  0.75316549333E+03  0.12699999809E+01 0. -1.
        4   -1    0    0  501    0  0.00000000000E+00  0.00000000000E+00 -0.11941983947E+03  0.11942659235E+03  0.12699999809E+01 0.  1.
    10030    2    1    2    0    0  0.00000000000E+00  0.00000000000E+00  0.63374458311E+03  0.87259208568E+03  0.59982059932E+03 0.  0.
        1    1    3    3  502    0 -0.40425719941E+02 -0.73185709890E+02  0.73587156840E+03  0.74060607084E+03  0.50400001928E-02 0. -1.
       -1    1    3    3    0  502  0.40425719941E+02  0.73185709890E+02 -0.10212698528E+03  0.13198601484E+03  0.50400001928E-02 0.  1.
</event>
<event>
 5   0  0.2179625E-02  0.6008924E+03  0.7818609E-02  0.9903556E-01
       -2   -1    0    0    0  501  0.00000000000E+00  0.00000000000E+00  0.28275402318E+03  0.28275402320E+03  0.25500000920E-02 0.  1.
        2   -1    0    0  501    0  0.00000000000E+00  0.00000000000E+00 -0.31924537346E+03  0.31924537347E+03  0.25500000920E-02 0. -1.
    10030    2    1    2    0    0  0.00000000000E+00  0.00000000000E+00 -0.36491350279E+02  0.60199939667E+03  0.60089238217E+03 0.  0.
        1    1    3    3  502    0  0.13614490395E+03  0.17638566169E+03  0.18367110066E+03  0.28876012495E+03  0.50400001928E-02 0.  1.
       -1    1    3    3    0  502 -0.13614490395E+03 -0.17638566169E+03 -0.22016245094E+03  0.31323927172E+03  0.50400001928E-02 0. -1.
</event>
<event>
 5   0  0.2142838E-02  0.5998415E+03  0.7818609E-02  0.9905735E-01
       -2   -1    0    0    0  501  0.00000000000E+00  0.00000000000E+00  0.76784757938E+02  0.76784757980E+02  0.25500000920E-02 0.  1.
        2   -1    0    0  501    0  0.00000000000E+00  0.00000000000E+00 -0.11714883525E+04  0.11714883525E+04  0.25500000920E-02 0. -1.
    10030    2    1    2    0    0  0.00000000000E+00  0.00000000000E+00 -0.10947035945E+04  0.12482731105E+04  0.59984147773E+03 0.  0.
        4    1    3    3  502    0 -0.24725730405E+03 -0.16781061309E+03 -0.60058081466E+03  0.67081704220E+03  0.12699999809E+01 0.  1.
       -4    1    3    3    0  502  0.24725730405E+03  0.16781061309E+03 -0.49412277988E+03  0.57745606825E+03  0.12699999809E+01 0. -1.
</event>
<event>
 5   0  0.2092587E-02  0.5913852E+03  0.7818609E-02  0.9923442E-01
       -2   -1    0    0    0  501  0.00000000000E+00  0.00000000000E+00  0.50216753183E+02  0.50216753248E+02  0.25500000920E-02 0. -1.
        2   -1    0    0  501    0  0.00000000000E+00  0.00000000000E+00 -0.17411340767E+04  0.17411340767E+04  0.25500000920E-02 0.  1.
    10030    2    1    2    0    0  0.00000000000E+00  0.00000000000E+00 -0.16909173235E+04  0.17913508300E+04  0.59138515453E+03 0.  0.
        3    1    3    3  502    0  0.28675912261E+03  0.45174762092E+01 -0.62738855041E+03  0.68983157754E+03  0.10100000352E+00 0. -1.
       -3    1    3    3    0  502 -0.28675912261E+03 -0.45174762092E+01 -0.10635287731E+04  0.11015192524E+04  0.10100000352E+00 0.  1.
</event>
<event>
 5   0  0.1276705E-02  0.6006461E+03  0.7818609E-02  0.9904066E-01
        1   -1    0    0  501    0  0.00000000000E+00  0.00000000000E+00  0.70252236635E+03  0.70252236637E+03  0.50400001928E-02 0.  1.
       -1   -1    0    0    0  501  0.00000000000E+00  0.00000000000E+00 -0.12838586157E+03  0.12838586166E+03  0.50400001928E-02 0. -1.
    10030    2    1    2    0    0  0.00000000000E+00  0.00000000000E+00  0.57413650479E+03  0.83090822803E+03  0.60064611652E+03 0.  0.
        1    1    3    3  502    0 -0.95140882679E+02 -0.24923002678E+03  0.47788406360E+03  0.54730299841E+03  0.50400001928E-02 0.  1.
       -1    1    3    3    0  502  0.95140882679E+02  0.24923002678E+03  0.96252441188E+02  0.28360522962E+03  0.50400001928E-02 0. -1.
</event>
<event>
 5   0  0.2141800E-02  0.6010806E+03  0.7818609E-02  0.9903167E-01
        2   -1    0    0  501    0  0.00000000000E+00  0.00000000000E+00  0.10516283600E+04  0.10516283600E+04  0.25500000920E-02 0.  1.
       -2   -1    0    0    0  501  0.00000000000E+00  0.00000000000E+00 -0.85890105024E+02  0.85890105062E+02  0.25500000920E-02 0. -1.
    10030    2    1    2    0    0  0.00000000000E+00  0.00000000000E+00  0.96573825496E+03  0.11375184650E+04  0.60108059462E+03 0.  0.
        2    1    3    3  502    0  0.92142353179E+01  0.58055672259E+02 -0.74905078400E+02  0.95216248564E+02  0.25500000920E-02 0. -1.
       -2    1    3    3    0  502 -0.92142353179E+01 -0.58055672259E+02  0.10406433334E+04  0.10423022165E+04  0.25500000920E-02 0.  1.
</event>
<event>
 5   0  0.1303808E-02  0.5993296E+03  0.7818609E-02  0.9906798E-01
        1   -1    0    0  501    0  0.00000000000E+00  0.00000000000E+00  0.34647760335E+03  0.34647760339E+03  0.50400001928E-02 0. -1.
       -1   -1    0    0    0  501  0.00000000000E+00  0.00000000000E+00 -0.25917691521E+03  0.25917691526E+03  0.50400001928E-02 0.  1.
    10030    2    1    2    0    0  0.00000000000E+00  0.00000000000E+00  0.87300688136E+02  0.60565451865E+03  0.59932961366E+03 0.  0.
        4    1    3    3  502    0  0.25762862259E+03 -0.13534665767E+03  0.11586184565E+03  0.31323602139E+03  0.12699999809E+01 0. -1.
       -4    1    3    3    0  502 -0.25762862259E+03  0.13534665767E+03 -0.28561157519E+02  0.29241849726E+03  0.12699999809E+01 0.  1.
</event>
<event>
 5   0  0.1332555E-02  0.6020387E+03  0.7818609E-02  0.9901185E-01
       -1   -1    0    0    0  501  0.00000000000E+00  0.00000000000E+00  0.67538041401E+02  0.67538041589E+02  0.50400001928E-02 0.  1.
        1   -1    0    0  501    0  0.00000000000E+00  0.00000000000E+00 -0.13416534356E+04  0.13416534356E+04  0.50400001928E-02 0. -1.
    10030    2    1    2    0    0  0.00000000000E+00  0.00000000000E+00 -0.12741153942E+04  0.14091914772E+04  0.60203868786E+03 0.  0.
        2    1    3    3  502    0 -0.96640343205E+02  0.19207027259E+03 -0.11301753036E+04  0.11504462449E+04  0.25500000920E-02 0. -1.
       -2    1    3    3    0  502  0.96640343205E+02 -0.19207027259E+03 -0.14394009061E+03  0.25874523230E+03  0.25500000920E-02 0.  1.
</event>
<event>
 5   0  0.2126207E-02  0.5853260E+03  0.7818609E-02  0.9936327E-01
        2   -1    0    0  501    0  0.00000000000E+00  0.00000000000E+00  0.43488347131E+03  0.43488347131E+03  0.25500000920E-02 0. -1.
       -2   -1    0    0    0  501  0.00000000000E+00  0.00000000000E+00 -0.19695302944E+03  0.19695302946E+03  0.25500000920E-02 0.  1.
    10030    2    1    2    0    0  0.00000000000E+00  0.00000000000E+00  0.23793044186E+03  0.63183650077E+03  0.58532595069E+03 0.  0.
        5    1    3    3  502    0 -0.23072281429E+03  0.13128838291E+03 -0.13943867517E+02  0.26586872317E+03  0.46999998093E+01 0.  1.
       -5    1    3    3    0  502  0.23072281429E+03 -0.13128838291E+03  0.25187430938E+03  0.36596777760E+03  0.46999998093E+01 0. -1.
</event>
<event>
 5   0  0.1276705E-02  0.5993751E+03  0.7818609E-02  0.9906703E-01
        1   -1    0    0  501    0  0.00000000000E+00  0.00000000000E+00  0.23541732031E+03  0.23541732036E+03  0.50400001928E-02 0. -1.
       -1   -1    0    0    0  501  0.00000000000E+00  0.00000000000E+00 -0.38150384704E+03  0.38150384708E+03  0.50400001928E-02 0.  1.
    10030    2    1    2    0    0  0.00000000000E+00  0.00000000000E+00 -0.14608652674E+03  0.61692116744E+03  0.59937505249E+03 0.  0.
        1    1    3    3  502    0 -0.15231176956E+03 -0.36119857093E+02 -0.33608086694E+03  0.37074771526E+03  0.50400001928E-02 0.  1.
       -1    1    3    3    0  502  0.15231176956E+03  0.36119857093E+02  0.18999434021E+03  0.24617345218E+03  0.50400001928E-02 0. -1.
</event>
<event>
 5   0  0.2142838E-02  0.6031785E+03  0.7818609E-02  0.9898833E-01
        2   -1    0    0  501    0  0.00000000000E+00  0.00000000000E+00  0.10542582300E+04  0.10542582300E+04  0.25500000920E-02 0. -1.
       -2   -1    0    0    0  501  0.00000000000E+00  0.00000000000E+00 -0.86274957002E+02  0.86274957040E+02  0.25500000920E-02 0.  1.
    10030    2    1    2    0    0  0.00000000000E+00  0.00000000000E+00  0.96798327303E+03  0.11405331871E+04  0.60317852577E+03 0.  0.
        4    1    3    3  502    0  0.27762574281E+03  0.23719552808E+01  0.70670382343E+03  0.75928491767E+03  0.12699999809E+01 0. -1.
       -4    1    3    3    0  502 -0.27762574281E+03 -0.23719552808E+01  0.26127944960E+03  0.38124826941E+03  0.12699999809E+01 0.  1.
</event>
<event>
 5   0  0.1337051E-02  0.5985480E+03  0.7818609E-02  0.9908423E-01
        1   -1    0    0  501    0  0.00000000000E+00  0.00000000000E+00  0.92106616150E+03  0.92106616152E+03  0.50400001928E-02 0. -1.
       -1   -1    0    0    0  501  0.00000000000E+00  0.00000000000E+00 -0.97240483506E+02  0.97240483637E+02  0.50400001928E-02 0.  1.
    10030    2    1    2    0    0  0.00000000000E+00  0.00000000000E+00  0.82382567800E+03  0.10183066452E+04  0.59854797288E+03 0.  0.
        5    1    3    3  502    0 -0.69258466261E+01 -0.11544631162E+03 -0.57616861712E+02  0.12929660077E+03  0.46999998093E+01 0.  1.
       -5    1    3    3    0  502  0.69258466261E+01  0.11544631162E+03  0.88144253971E+03  0.88901004439E+03  0.46999998093E+01 0. -1.
</event>
<event>
 5   0  0.2092587E-02  0.5993442E+03  0.7818609E-02  0.9906768E-01
       -2   -1    0    0    0  501  0.00000000000E+00  0.00000000000E+00  0.52180436213E+02  0.52180436275E+02  0.25500000920E-02 0.  1.
        2   -1    0    0  501    0  0.00000000000E+00  0.00000000000E+00 -0.17210157613E+04  0.17210157613E+04  0.25500000920E-02 0. -1.
    10030    2    1    2    0    0  0.00000000000E+00  0.00000000000E+00 -0.16688353251E+04  0.17731961976E+04  0.59934415226E+03 0.  0.
        3    1    3    3  502    0 -0.25368606190E+03  0.15287429895E+03 -0.69961068724E+03  0.75972514318E+03  0.10100000352E+00 0. -1.
       -3    1    3    3    0  502  0.25368606190E+03 -0.15287429895E+03 -0.96922463788E+03  0.10134710544E+04  0.10100000352E+00 0.  1.
</event>
<event>
 5   0  0.2092587E-02  0.5991892E+03  0.7818609E-02  0.9907090E-01
       -2   -1    0    0    0  501  0.00000000000E+00  0.00000000000E+00  0.12376906309E+03  0.12376906312E+03  0.25500000920E-02 0.  1.
        2   -1    0    0  501    0  0.00000000000E+00  0.00000000000E+00 -0.72519674027E+03  0.72519674027E+03  0.25500000920E-02 0. -1.
    10030    2    1    2    0    0  0.00000000000E+00  0.00000000000E+00 -0.60142767717E+03  0.84896580339E+03  0.59918918920E+03 0.  0.
        3    1    3    3  502    0 -0.59945861098E+02 -0.27521543440E+03 -0.44534349824E+03  0.52694201125E+03  0.10100000352E+00 0. -1.
       -3    1    3    3    0  502  0.59945861098E+02  0.27521543440E+03 -0.15608417893E+03  0.32202379214E+03  0.10100000352E+00 0.  1.
</event>
<event>
 5   0  0.1250390E-02  0.6009310E+03  0.7818609E-02  0.9903476E-01
        1   -1    0    0  501    0  0.00000000000E+00  0.00000000000E+00  0.22829040569E+04  0.22829040569E+04  0.50400001928E-02 0. -1.
       -1   -1    0    0    0  501  0.00000000000E+00  0.00000000000E+00 -0.39545904350E+02  0.39545904671E+02  0.50400001928E-02 0.  1.
    10030    2    1    2    0    0  0.00000000000E+00  0.00000000000E+00  0.22433581525E+04  0.23224499615E+04  0.60093096393E+03 0.  0.
        3    1    3    3  502    0  0.11763419643E+03 -0.27423697590E+03  0.12575389018E+04  0.12924580546E+04  0.10100000352E+00 0. -1.
       -3    1    3    3    0  502 -0.11763419643E+03  0.27423697590E+03  0.98581925071E+03  0.10299919070E+04  0.10100000352E+00 0.  1.
</event>
<event>
 5   0  0.2141800E-02  0.5972724E+03  0.7818609E-02  0.9911081E-01
       -2   -1    0    0    0  501  0.00000000000E+00  0.00000000000E+00  0.99643399226E+02  0.99643399259E+02  0.25500000920E-02 0.  1.
        2   -1    0    0  501    0  0.00000000000E+00  0.00000000000E+00 -0.89502734072E+03  0.89502734072E+03  0.25500000920E-02 0. -1.
    10030    2    1    2    0    0  0.00000000000E+00  0.00000000000E+00 -0.79538394149E+03  0.99467073998E+03  0.59727235545E+03 0.  0.
        2    1    3    3  502    0 -0.25640574728E+03 -0.67714389404E+02 -0.62636425346E+03  0.68019212271E+03  0.25500000920E-02 0. -1.
       -2    1    3    3    0  502  0.25640574728E+03  0.67714389404E+02 -0.16901968803E+03  0.31447861727E+03  0.25500000920E-02 0.  1.
</event>
<event>
 5   0  0.2142838E-02  0.5993204E+03  0.7818609E-02  0.9906817E-01
       -2   -1    0    0    0  501  0.00000000000E+00  0.00000000000E+00  0.29522501804E+03  0.29522501805E+03  0.25500000920E-02 0.  1.
        2   -1    0    0  501    0  0.00000000000E+00  0.00000000000E+00 -0.30416203885E+03  0.30416203886E+03  0.25500000920E-02 0. -1.
    10030    2    1    2    0    0  0.00000000000E+00  0.00000000000E+00 -0.89370208063E+01  0.59938705691E+03  0.59932042653E+03 0.  0.
        4    1    3    3  502    0 -0.24725559316E+03 -0.24079092254E+02  0.16311950645E+03  0.29719474645E+03  0.12699999809E+01 0.  1.
       -4    1    3    3    0  502  0.24725559316E+03  0.24079092254E+02 -0.17205652726E+03  0.30219231046E+03  0.12699999809E+01 0. -1.
</event>
<event>
 5   0  0.2142838E-02  0.5998092E+03  0.7818609E-02  0.9905802E-01
        2   -1    0    0  501    0  0.00000000000E+00  0.00000000000E+00  0.65738710585E+03  0.65738710586E+03  0.25500000920E-02 0.  1.
       -2   -1    0    0    0  501  0.00000000000E+00  0.00000000000E+00 -0.13681859447E+03  0.13681859449E+03  0.25500000920E-02 0. -1.
    10030    2    1    2    0    0  0.00000000000E+00  0.00000000000E+00  0.52056851138E+03  0.79420570035E+03  0.59980923586E+03 0.  0.
        4    1    3    3  502    0 -0.29126835149E+03 -0.69435801892E+02  0.23802587975E+03  0.38251341872E+03  0.12699999809E+01 0. -1.
       -4    1    3    3    0  502  0.29126835149E+03  0.69435801892E+02  0.28254263163E+03  0.41169228163E+03  0.12699999809E+01 0.  1.
</event>
<event>
 5   0  0.1332555E-02  0.6004861E+03  0.7818609E-02  0.9904398E-01
        1   -1    0    0  501    0  0.00000000000E+00  0.00000000000E+00  0.99831339585E+03  0.99831339587E+03  0.50400001928E-02 0. -1.
       -1   -1    0    0    0  501  0.00000000000E+00  0.00000000000E+00 -0.90298193716E+02  0.90298193857E+02  0.50400001928E-02 0.  1.
    10030    2    1    2    0    0  0.00000000000E+00  0.00000000000E+00  0.90801520214E+03  0.10886115897E+04  0.60048612471E+03 0.  0.
        2    1    3    3  502    0 -0.25700609591E+02  0.25031392710E+03  0.15706899902E+03  0.29662814077E+03  0.25500000920E-02 0.  1.
       -2    1    3    3    0  502  0.25700609591E+02 -0.25031392710E+03  0.75094620312E+03  0.79198344895E+03  0.25500000920E-02 0. -1.
</event>
<event>
 5   0  0.1250390E-02  0.5939825E+03  0.7818609E-02  0.9917970E-01
       -1   -1    0    0    0  501  0.00000000000E+00  0.00000000000E+00  0.41144147558E+02  0.41144147866E+02  0.50400001928E-02 0.  1.
        1   -1    0    0  501    0  0.00000000000E+00  0.00000000000E+00 -0.21437749240E+04  0.21437749240E+04  0.50400001928E-02 0. -1.
    10030    2    1    2    0    0  0.00000000000E+00  0.00000000000E+00 -0.21026307764E+04  0.21849190718E+04  0.59398246488E+03 0.  0.
        3    1    3    3  502    0  0.13399942921E+03  0.70990298776E+02 -0.19906346145E+04  0.19964021759E+04  0.10100000352E+00 0. -1.
       -3    1    3    3    0  502 -0.13399942921E+03 -0.70990298776E+02 -0.11199616193E+03  0.18851689590E+03  0.10100000352E+00 0.  1.
</event>
<event>
 5   0  0.1276705E-02  0.5993356E+03  0.7818609E-02  0.9906785E-01
        1   -1    0    0  501    0  0.00000000000E+00  0.00000000000E+00  0.58089811532E+03  0.58089811535E+03  0.50400001928E-02 0. -1.
       -1   -1    0    0    0  501  0.00000000000E+00  0.00000000000E+00 -0.15458957536E+03  0.15458957544E+03  0.50400001928E-02 0.  1.
    10030    2    1    2    0    0  0.00000000000E+00  0.00000000000E+00  0.42630853996E+03  0.73548769079E+03  0.59933560887E+03 0.  0.
        1    1    3    3  502    0 -0.77576102028E+02  0.20141609248E+03 -0.41950784632E+02  0.21987806228E+03  0.50400001928E-02 0.  1.
       -1    1    3    3    0  502  0.77576102028E+02 -0.20141609248E+03  0.46825932459E+03  0.51560962851E+03  0.50400001928E-02 0. -1.
</event>
<event>
 5   0  0.1332555E-02  0.6001915E+03  0.7818609E-02  0.9905009E-01
        1   -1    0    0  501    0  0.00000000000E+00  0.00000000000E+00  0.40553811803E+03  0.40553811806E+03  0.50400001928E-02 0.  1.
       -1   -1    0    0    0  501  0.00000000000E+00  0.00000000000E+00 -0.22206902929E+03  0.22206902935E+03  0.50400001928E-02 0. -1.
    10030    2    1    2    0    0  0.00000000000E+00  0.00000000000E+00  0.18346908874E+03  0.62760714741E+03  0.60019149024E+03 0.  0.
        2    1    3    3  502    0  0.89009016452E+02  0.15337047473E+03  0.34489310027E+03  0.38780969321E+03  0.25500000920E-02 0.  1.
       -2    1    3    3    0  502 -0.89009016452E+02 -0.15337047473E+03 -0.16142401154E+03  0.23979745419E+03  0.25500000920E-02 0. -1.
</event>
<event>
 5   0  0.1276705E-02  0.6017094E+03  0.7818609E-02  0.9901866E-01
        1   -1    0    0  501    0  0.00000000000E+00  0.00000000000E+00  0.13875386492E+04  0.13875386492E+04  0.50400001928E-02 0.  1.
       -1   -1    0    0    0  501  0.00000000000E+00  0.00000000000E+00 -0.65233181172E+02  0.65233181367E+02  0.50400001928E-02 0. -1.
    10030    2    1    2    0    0  0.00000000000E+00  0.00000000000E+00  0.13223054680E+04  0.14527718306E+04  0.60170943231E+03 0.  0.
        1    1    3    3  502    0 -0.21474518027E+03 -0.61460582702E+02  0.17453929066E+03  0.28347285528E+03  0.50400001928E-02 0. -1.
       -1    1    3    3    0  502  0.21474518027E+03  0.61460582702E+02  0.11477661773E+04  0.11692989753E+04  0.50400001928E-02 0.  1.
</event>
<event>
 5   0  0.2141800E-02  0.5995004E+03  0.7818609E-02  0.9906443E-01
        2   -1    0    0  501    0  0.00000000000E+00  0.00000000000E+00  0.99542843333E+03  0.99542843333E+03  0.25500000920E-02 0.  1.
       -2   -1    0    0    0  501  0.00000000000E+00  0.00000000000E+00 -0.90262810731E+02  0.90262810767E+02  0.25500000920E-02 0. -1.
    10030    2    1    2    0    0  0.00000000000E+00  0.00000000000E+00  0.90516562260E+03  0.10856912441E+04  0.59950035295E+03 0.  0.
        2    1    3    3  502    0  0.18591622522E+03  0.11011730984E+03  0.82881427532E+03  0.85651839893E+03  0.25500000920E-02 0.  1.
       -2    1    3    3    0  502 -0.18591622522E+03 -0.11011730984E+03  0.76351347280E+02  0.22917284517E+03  0.25500000920E-02 0. -1.
</event>
<event>
 5   0  0.1303808E-02  0.6030959E+03  0.7818609E-02  0.9899004E-01
        1   -1    0    0  501    0  0.00000000000E+00  0.00000000000E+00  0.97104271409E+02  0.97104271540E+02  0.50400001928E-02 0.  1.
       -1   -1    0    0    0  501  0.00000000000E+00  0.00000000000E+00 -0.93642803809E+03  0.93642803810E+03  0.50400001928E-02 0. -1.
    10030    2    1    2    0    0  0.00000000000E+00  0.00000000000E+00 -0.83932376668E+03  0.10335323096E+04  0.60309588770E+03 0.  0.
        4    1    3    3  502    0  0.11108541104E+03 -0.22160658842E+03 -0.71390219636E+03  0.75571648616E+03  0.12699999809E+01 0. -1.
       -4    1    3    3    0  502 -0.11108541104E+03  0.22160658842E+03 -0.12542157032E+03  0.27781582349E+03  0.12699999809E+01 0.  1.
</event>
<event>
 5   0  0.2142838E-02  0.5889061E+03  0.7818609E-02  0.9928693E-01
        2   -1    0    0  501    0  0.00000000000E+00  0.00000000000E+00  0.92744950328E+03  0.92744950329E+03  0.25500000920E-02 0.  1.
       -2   -1    0    0    0  501  0.00000000000E+00  0.00000000000E+00 -0.93484988335E+02  0.93484988370E+02  0.25500000920E-02 0. -1.
    10030    2    1    2    0    0  0.00000000000E+00  0.00000000000E+00  0.83396451495E+03  0.10209344917E+04  0.58890612500E+03 0.  0.
        4    1    3    3  502    0  0.14855950911E+03  0.23722998345E+03  0.57542525651E+03  0.63989360953E+03  0.12699999809E+01 0.  1.
       -4    1    3    3    0  502 -0.14855950911E+03 -0.23722998345E+03  0.25853925844E+03  0.38104088212E+03  0.12699999809E+01 0. -1.
</event>
<event>
 5   0  0.1303808E-02  0.5983120E+03  0.7818609E-02  0.9908914E-01
        1   -1    0    0  501    0  0.00000000000E+00  0.00000000000E+00  0.19519204181E+03  0.19519204188E+03  0.50400001928E-02 0.  1.
       -1   -1    0    0    0  501  0.00000000000E+00  0.00000000000E+00 -0.45849357893E+03  0.45849357896E+03  0.50400001928E-02 0. -1.
    10030    2    1    2    0    0  0.00000000000E+00  0.00000000000E+00 -0.26330153712E+03  0.65368562084E+03  0.59831195161E+03 0.  0.
        4    1    3    3  502    0 -0.11805817530E+03 -0.21657756635E+03 -0.31657627673E+03  0.40132994766E+03  0.12699999809E+01 0. -1.
       -4    1    3    3    0  502  0.11805817530E+03  0.21657756635E+03  0.53274739614E+02  0.25235567318E+03  0.12699999809E+01 0.  1.
</event>
<event>
 5   0  0.1250390E-02  0.5976397E+03  0.7818609E-02  0.9910315E-01
        1   -1    0    0  501    0  0.00000000000E+00  0.00000000000E+00  0.13917148494E+04  0.13917148494E+04  0.50400001928E-02 0. -1.
       -1   -1    0    0    0  501  0.00000000000E+00  0.00000000000E+00 -0.64160638834E+02  0.64160639032E+02  0.50400001928E-02 0.  1.
    10030    2    1    2    0    0  0.00000000000E+00  0.00000000000E+00  0.13275542106E+04  0.14558754885E+04  0.59763973751E+03 0.  0.
        3    1    3    3  502    0  0.23240404489E+03  0.65048765362E+02  0.10930345348E+04  0.11193603024E+04  0.10100000352E+00 0. -1.
       -3    1    3    3    0  502 -0.23240404489E+03 -0.65048765362E+02  0.23451967574E+03  0.33651518609E+03  0.10100000352E+00 0.  1.
</event>
<event>
 5   0  0.2141800E-02  0.5991091E+03  0.7818609E-02  0.9907256E-01
       -2   -1    0    0    0  501  0.00000000000E+00  0.00000000000E+00  0.99862322913E+02  0.99862322946E+02  0.25500000920E-02 0.  1.
        2   -1    0    0  501    0  0.00000000000E+00  0.00000000000E+00 -0.89856644744E+03  0.89856644745E+03  0.25500000920E-02 0. -1.
    10030    2    1    2    0    0  0.00000000000E+00  0.00000000000E+00 -0.79870412453E+03  0.99842877039E+03  0.59910911444E+03 0.  0.
        2    1    3    3  502    0 -0.15311604695E+03  0.14403662193E+03 -0.75499692884E+03  0.78371642502E+03  0.25500000920E-02 0. -1.
       -2    1    3    3    0  502  0.15311604695E+03 -0.14403662193E+03 -0.43707195694E+02  0.21471234537E+03  0.25500000920E-02 0.  1.
</event>
<event>
 5   0  0.2092587E-02  0.5995112E+03  0.7818609E-02  0.9906421E-01
       -2   -1    0    0    0  501  0.00000000000E+00  0.00000000000E+00  0.23984695892E+03  0.23984695893E+03  0.25500000920E-02 0. -1.
        2   -1    0    0  501    0  0.00000000000E+00  0.00000000000E+00 -0.37462814651E+03  0.37462814652E+03  0.25500000920E-02 0.  1.
    10030    2    1    2    0    0  0.00000000000E+00  0.00000000000E+00 -0.13478118759E+03  0.61447510545E+03  0.59951120647E+03 0.  0.
        3    1    3    3  502    0  0.24793504137E+03  0.13206471182E+03 -0.17459838268E+03  0.33075289611E+03  0.10100000352E+00 0.  1.
       -3    1    3    3    0  502 -0.24793504137E+03 -0.13206471182E+03  0.39817195086E+02  0.28372220934E+03  0.10100000352E+00 0. -1.
</event>
<event>
 5   0  0.2126207E-02  0.5988278E+03  0.7818609E-02  0.9907841E-01
       -2   -1    0    0    0  501  0.00000000000E+00  0.00000000000E+00  0.87116428038E+02  0.87116428075E+02  0.25500000920E-02 0. -1.
        2   -1    0    0  501    0  0.00000000000E+00  0.00000000000E+00 -0.10290675739E+04  0.10290675739E+04  0.25500000920E-02 0.  1.
    10030    2    1    2    0    0  0.00000000000E+00  0.00000000000E+00 -0.94195114582E+03  0.11161840019E+04  0.59882782589E+03 0.  0.
        5    1    3    3  502    0  0.29776254370E+03  0.15278877862E+02 -0.42059292305E+03  0.51557392628E+03  0.46999998093E+01 0.  1.
       -5    1    3    3    0  502 -0.29776254370E+03 -0.15278877862E+02 -0.52135822277E+03  0.60061007566E+03  0.46999998093E+01 0. -1.
</event>
<event>
 5   0  0.1303808E-02  0.5995517E+03  0.7818609E-02  0.9906336E-01
        1   -1    0    0  501    0  0.00000000000E+00  0.00000000000E+00  0.36061852661E+03  0.36061852664E+03  0.50400001928E-02 0. -1.
       -1   -1    0    0    0  501  0.00000000000E+00  0.00000000000E+00 -0.24919843960E+03  0.24919843965E+03  0.50400001928E-02 0.  1.
    10030    2    1    2    0    0  0.00000000000E+00  0.00000000000E+00  0.11142008701E+03  0.60981696629E+03  0.59955174638E+03 0.  0.
        4    1    3    3  502    0  0.22076253770E+03 -0.14624542572E+03  0.19861520997E+03  0.33101878666E+03  0.12699999809E+01 0.  1.
       -4    1    3    3    0  502 -0.22076253770E+03  0.14624542572E+03 -0.87195122956E+02  0.27879817962E+03  0.12699999809E+01 0. -1.
</event>
<event>
 5   0  0.1276705E-02  0.5912722E+03  0.7818609E-02  0.9923681E-01
        1   -1    0    0  501    0  0.00000000000E+00  0.00000000000E+00  0.12432253676E+04  0.12432253676E+04  0.50400001928E-02 0. -1.
       -1   -1    0    0    0  501  0.00000000000E+00  0.00000000000E+00 -0.70301567934E+02  0.70301568115E+02  0.50400001928E-02 0.  1.
    10030    2    1    2    0    0  0.00000000000E+00  0.00000000000E+00  0.11729237997E+04  0.13135269357E+04  0.59127216326E+03 0.  0.
        1    1    3    3  502    0 -0.22437285369E+03  0.36671145055E+02  0.10062819250E+04  0.10316449307E+04  0.50400001928E-02 0. -1.
       -1    1    3    3    0  502  0.22437285369E+03 -0.36671145055E+02  0.16664187464E+03  0.28188200504E+03  0.50400001928E-02 0.  1.
</event>
<event>
 5   0  0.1250390E-02  0.6022541E+03  0.7818609E-02  0.9900740E-01
        1   -1    0    0  501    0  0.00000000000E+00  0.00000000000E+00  0.62609598549E+03  0.62609598551E+03  0.50400001928E-02 0.  1.
       -1   -1    0    0    0  501  0.00000000000E+00  0.00000000000E+00 -0.14483004196E+03  0.14483004205E+03  0.50400001928E-02 0. -1.
    10030    2    1    2    0    0  0.00000000000E+00  0.00000000000E+00  0.48126594353E+03  0.77092602756E+03  0.60225412540E+03 0.  0.
        3    1    3    3  502    0  0.13481086427E+03 -0.25296271123E+03  0.35874233394E+03  0.45919513800E+03  0.10100000352E+00 0. -1.
       -3    1    3    3    0  502 -0.13481086427E+03  0.25296271123E+03  0.12252360959E+03  0.31173088956E+03  0.10100000352E+00 0.  1.
</event>
<event>
 5   0  0.2092587E-02  0.5978285E+03  0.7818609E-02  0.9909922E-01
       -2   -1    0    0    0  501  0.00000000000E+00  0.00000000000E+00  0.14635261102E+03  0.14635261104E+03  0.25500000920E-02 0.  1.
        2   -1    0    0  501    0  0.00000000000E+00  0.00000000000E+00 -0.61050991684E+03  0.61050991685E+03  0.25500000920E-02 0. -1.
    10030    2    1    2    0    0  0.00000000000E+00  0.00000000000E+00 -0.46415730583E+03  0.75686252789E+03  0.59782847169E+03 0.  0.
        3    1    3    3  502    0  0.15790375314E+02  0.24810890657E+03 -0.21971487246E+02  0.24957989086E+03  0.10100000352E+00 0.  1.
       -3    1    3    3    0  502 -0.15790375314E+02 -0.24810890657E+03 -0.44218581858E+03  0.50728263702E+03  0.10100000352E+00 0. -1.
</event>
<event>
 5   0  0.2141800E-02  0.6033425E+03  0.7818609E-02  0.9898496E-01
       -2   -1    0    0    0  501  0.00000000000E+00  0.00000000000E+00  0.70047847542E+02  0.70047847588E+02  0.25500000920E-02 0. -1.
        2   -1    0    0  501    0  0.00000000000E+00  0.00000000000E+00 -0.12991912647E+04  0.12991912647E+04  0.25500000920E-02 0.  1.
    10030    2    1    2    0    0  0.00000000000E+00  0.00000000000E+00 -0.12291434171E+04  0.13692391122E+04  0.60334252848E+03 0.  0.
        2    1    3    3  502    0 -0.17812630762E+03  0.23466587000E+03 -0.76179584144E+03  0.81678023730E+03  0.25500000920E-02 0.  1.
       -2    1    3    3    0  502  0.17812630762E+03 -0.23466587000E+03 -0.46734757568E+03  0.55245887495E+03  0.25500000920E-02 0. -1.
</event>
<event>
 5   0  0.8551000E-03  0.5998239E+03  0.7818609E-02  0.9905771E-01
       -4   -1    0    0    0  501  0.00000000000E+00  0.00000000000E+00  0.16313774017E+03  0.16314268346E+03  0.12699999809E+01 0.  1.
        4   -1    0    0  501    0  0.00000000000E+00  0.00000000000E+00 -0.55134331967E+03  0.55134478237E+03  0.12699999809E+01 0. -1.
    10030    2    1    2    0    0  0.00000000000E+00  0.00000000000E+00 -0.38820557950E+03  0.71448746583E+03  0.59982394656E+03 0.  0.
        1    1    3    3  502    0  0.63483614538E+02 -0.32662766239E+00 -0.54325126795E+03  0.54694809275E+03  0.50400001928E-02 0. -1.
       -1    1    3    3    0  502 -0.63483614538E+02  0.32662766239E+00  0.15504568845E+03  0.16753937308E+03  0.50400001928E-02 0.  1.
</event>
<event>
 5   0  0.1332555E-02  0.5989121E+03  0.7818609E-02  0.9907666E-01
        1   -1    0    0  501    0  0.00000000000E+00  0.00000000000E+00  0.15756906653E+04  0.15756906653E+04  0.50400001928E-02 0. -1.
       -1   -1    0    0    0  501  0.00000000000E+00  0.00000000000E+00 -0.56910871500E+02  0.56910871723E+02  0.50400001928E-02 0.  1.
    10030    2    1    2    0    0  0.00000000000E+00  0.00000000000E+00  0.15187797938E+04  0.16326015370E+04  0.59891211097E+03 0.  0.
        2    1    3    3  502    0 -0.98376858419E+01 -0.28630922727E+03  0.99709755364E+03  0.10374359186E+04  0.25500000920E-02 0. -1.
       -2    1    3    3    0  502  0.98376858419E+01  0.28630922727E+03  0.52168224017E+03  0.59516561846E+03  0.25500000920E-02 0.  1.
</event>
<event>
 5   0  0.2179625E-02  0.6010740E+03  0.7818609E-02  0.9903180E-01
       -2   -1    0    0    0  501  0.00000000000E+00  0.00000000000E+00  0.83870024880E+02  0.83870024919E+02  0.25500000920E-02 0.  1.
        2   -1    0    0  501    0  0.00000000000E+00  0.00000000000E+00 -0.10769341539E+04  0.10769341539E+04  0.25500000920E-02 0. -1.
    10030    2    1    2    0    0  0.00000000000E+00  0.00000000000E+00 -0.99306412900E+03  0.11608041788E+04  0.60107401975E+03 0.  0.
        1    1    3    3  502    0 -0.15380623426E+03 -0.20842340602E+03 -0.79084987076E+03  0.83218999752E+03  0.50400001928E-02 0. -1.
       -1    1    3    3    0  502  0.15380623426E+03  0.20842340602E+03 -0.20221425825E+03  0.32861418128E+03  0.50400001928E-02 0.  1.
</event>
<event>
 5   0  0.1250390E-02  0.6028480E+03  0.7818609E-02  0.9899515E-01
        1   -1    0    0  501    0  0.00000000000E+00  0.00000000000E+00  0.14937503086E+04  0.14937503086E+04  0.50400001928E-02 0.  1.
       -1   -1    0    0    0  501  0.00000000000E+00  0.00000000000E+00 -0.60824369927E+02  0.60824370136E+02  0.50400001928E-02 0. -1.
    10030    2    1    2    0    0  0.00000000000E+00  0.00000000000E+00  0.14329259387E+04  0.15545746787E+04  0.60284797923E+03 0.  0.
        3    1    3    3  502    0  0.25473689604E+03 -0.79329362069E+02  0.10781493903E+04  0.11106710367E+04  0.10100000352E+00 0.  1.
       -3    1    3    3    0  502 -0.25473689604E+03  0.79329362069E+02  0.35477654839E+03  0.44390364200E+03  0.10100000352E+00 0. -1.
</event>
<event>
 5   0  0.2179625E-02  0.6000142E+03  0.7818609E-02  0.9905377E-01
        2   -1    0    0  501    0  0.00000000000E+00  0.00000000000E+00  0.84106930086E+03  0.84106930086E+03  0.25500000920E-02 0.  1.
       -2   -1    0    0    0  501  0.00000000000E+00  0.00000000000E+00 -0.10701170388E+03  0.10701170391E+03  0.25500000920E-02 0. -1.
    10030    2    1    2    0    0  0.00000000000E+00  0.00000000000E+00  0.73405759698E+03  0.94808100478E+03  0.60001419645E+03 0.  0.
        1    1    3    3  502    0 -0.16396762770E+03 -0.19947839376E+03  0.60836121311E+03  0.66089362091E+03  0.50400001928E-02 0. -1.
       -1    1    3    3    0  502  0.16396762770E+03  0.19947839376E+03  0.12569638386E+03  0.28718738387E+03  0.50400001928E-02 0.  1.
</event>
<event>
 5   0  0.8551000E-03  0.5990845E+03  0.7818609E-02  0.9907307E-01
       -4   -1    0    0    0  501  0.00000000000E+00  0.00000000000E+00  0.37027424428E+03  0.37027642225E+03  0.12699999809E+01 0.  1.
        4   -1    0    0  501    0  0.00000000000E+00  0.00000000000E+00 -0.24231733543E+03  0.24232066348E+03  0.12699999809E+01 0. -1.
    10030    2    1    2    0    0  0.00000000000E+00  0.00000000000E+00  0.12795690884E+03  0.61259708573E+03  0.59908448397E+03 0.  0.
        1    1    3    3  502    0  0.62225554440E+02 -0.28575107674E+03 -0.22895843903E+01  0.29245673134E+03  0.50400001928E-02 0.  1.
       -1    1    3    3    0  502 -0.62225554440E+02  0.28575107674E+03  0.13024649323E+03  0.32014035439E+03  0.50400001928E-02 0. -1.
</event>
<event>
 5   0  0.1303808E-02  0.5977340E+03  0.7818609E-02  0.9910118E-01
       -1   -1    0    0    0  501  0.00000000000E+00  0.00000000000E+00  0.19413231903E+03  0.19413231910E+03  0.50400001928E-02 0.  1.
        1   -1    0    0  501    0  0.00000000000E+00  0.00000000000E+00 -0.46010627273E+03  0.46010627276E+03  0.50400001928E-02 0. -1.
    10030    2    1    2    0    0  0.00000000000E+00  0.00000000000E+00 -0.26597395370E+03  0.65423859186E+03  0.59773404707E+03 0.  0.
        4    1    3    3  502    0  0.85334858881E+02 -0.18302088496E+03  0.10816089262E+03  0.22908311606E+03  0.12699999809E+01 0.  1.
       -4    1    3    3    0  502 -0.85334858881E+02  0.18302088496E+03 -0.37413484632E+03  0.42515547580E+03  0.12699999809E+01 0. -1.
</event>
<event>
 5   0  0.2142838E-02  0.6003612E+03  0.7818609E-02  0.9904657E-01
        2   -1    0    0  501    0  0.00000000000E+00  0.00000000000E+00  0.65032810281E+03  0.65032810281E+03  0.25500000920E-02 0.  1.
       -2   -1    0    0    0  501  0.00000000000E+00  0.00000000000E+00 -0.13855834792E+03  0.13855834795E+03  0.25500000920E-02 0. -1.
    10030    2    1    2    0    0  0.00000000000E+00  0.00000000000E+00  0.51176975489E+03  0.78888645076E+03  0.60036118310E+03 0.  0.
        4    1    3    3  502    0 -0.56285357306E+02  0.12635732256E+02  0.64297259546E+03  0.64555640698E+03  0.12699999809E+01 0.  1.
       -4    1    3    3    0  502  0.56285357306E+02 -0.12635732256E+02 -0.13120284057E+03  0.14333004378E+03  0.12699999809E+01 0. -1.
</event>
<event>
 5   0  0.2141800E-02  0.5796740E+03  0.7818609E-02  0.9948497E-01
        2   -1    0    0  501    0  0.00000000000E+00  0.00000000000E+00  0.18249532784E+04  0.18249532784E+04  0.25500000920E-02 0. -1.
       -2   -1    0    0    0  501  0.00000000000E+00  0.00000000000E+00 -0.46031576369E+02  0.46031576440E+02  0.25500000920E-02 0.  1.
    10030    2    1    2    0    0  0.00000000000E+00  0.00000000000E+00  0.17789217020E+04  0.18709848549E+04  0.57967396448E+03 0.  0.
        2    1    3    3  502    0  0.36693866082E+02  0.18151193679E+03  0.16091071148E+04  0.16197279802E+04  0.25500000920E-02 0. -1.
       -2    1    3    3    0  502 -0.36693866082E+02 -0.18151193679E+03  0.16981458727E+03  0.25125687466E+03  0.25500000920E-02 0.  1.
</event>
<event>
 5   0  0.1337051E-02  0.6034111E+03  0.7818609E-02  0.9898354E-01
        1   -1    0    0  501    0  0.00000000000E+00  0.00000000000E+00  0.63656456244E+03  0.63656456246E+03  0.50400001928E-02 0.  1.
       -1   -1    0    0    0  501  0.00000000000E+00  0.00000000000E+00 -0.14299607471E+03  0.14299607480E+03  0.50400001928E-02 0. -1.
    10030    2    1    2    0    0  0.00000000000E+00  0.00000000000E+00  0.49356848773E+03  0.77956063726E+03  0.60341108299E+03 0.  0.
        5    1    3    3  502    0  0.16385002329E+03  0.13409745886E+03 -0.30829486635E+02  0.21401286375E+03  0.46999998093E+01 0. -1.
       -5    1    3    3    0  502 -0.16385002329E+03 -0.13409745886E+03  0.52439797437E+03  0.56554777351E+03  0.46999998093E+01 0.  1.
</event>
<event>
 5   0  0.2126207E-02  0.6002754E+03  0.7818609E-02  0.9904835E-01
        2   -1    0    0  501    0  0.00000000000E+00  0.00000000000E+00  0.15539126001E+03  0.15539126003E+03  0.25500000920E-02 0. -1.
       -2   -1    0    0    0  501  0.00000000000E+00  0.00000000000E+00 -0.57971493075E+03  0.57971493075E+03  0.25500000920E-02 0.  1.
    10030    2    1    2    0    0  0.00000000000E+00  0.00000000000E+00 -0.42432367074E+03  0.73510619078E+03  0.60027538194E+03 0.  0.
        5    1    3    3  502    0 -0.27645676691E+03 -0.11465905767E+03 -0.23914508151E+03  0.38312857305E+03  0.46999998093E+01 0.  1.
       -5    1    3    3    0  502  0.27645676691E+03  0.11465905767E+03 -0.18517858923E+03  0.35197761773E+03  0.46999998093E+01 0. -1.
</event>
<event>
 5   0  0.2141800E-02  0.6000587E+03  0.7818609E-02  0.9905284E-01
       -2   -1    0    0    0  501  0.00000000000E+00  0.00000000000E+00  0.62071824517E+02  0.62071824570E+02  0.25500000920E-02 0. -1.
        2   -1    0    0  501    0  0.00000000000E+00  0.00000000000E+00 -0.14502169485E+04  0.14502169485E+04  0.25500000920E-02 0.  1.
    10030    2    1    2    0    0  0.00000000000E+00  0.00000000000E+00 -0.13881451240E+04  0.15122887730E+04  0.60005870373E+03 0.  0.
        2    1    3    3  502    0 -0.86861408440E+02 -0.26316371168E+03 -0.40432701223E+03  0.49018402284E+03  0.25500000920E-02 0. -1.
       -2    1    3    3    0  502  0.86861408440E+02  0.26316371168E+03 -0.98381811173E+03  0.10221047502E+04  0.25500000920E-02 0.  1.
</event>
<event>
 5   0  0.8551000E-03  0.6054877E+03  0.7818609E-02  0.9894086E-01
        4   -1    0    0  501    0  0.00000000000E+00  0.00000000000E+00  0.34387964953E+03  0.34388199468E+03  0.12699999809E+01 0. -1.
       -4   -1    0    0    0  501  0.00000000000E+00  0.00000000000E+00 -0.26652408385E+03  0.26652710963E+03  0.12699999809E+01 0.  1.
    10030    2    1    2    0    0  0.00000000000E+00  0.00000000000E+00  0.77355565687E+02  0.61040910431E+03  0.60548772992E+03 0.  0.
        2    1    3    3  502    0  0.10268121686E+03  0.17498032478E+03  0.26520909410E+03  0.33391227883E+03  0.25500000920E-02 0. -1.
       -2    1    3    3    0  502 -0.10268121686E+03 -0.17498032478E+03 -0.18785352842E+03  0.27649682548E+03  0.25500000920E-02 0.  1.
</event>
<event>
 5   0  0.1250390E-02  0.6011798E+03  0.7818609E-02  0.9902961E-01
       -1   -1    0    0    0  501  0.00000000000E+00  0.00000000000E+00  0.10466797457E+03  0.10466797469E+03  0.50400001928E-02 0. -1.
        1   -1    0    0  501    0  0.00000000000E+00  0.00000000000E+00 -0.86324681308E+03  0.86324681309E+03  0.50400001928E-02 0.  1.
    10030    2    1    2    0    0  0.00000000000E+00  0.00000000000E+00 -0.75857883851E+03  0.96791478778E+03  0.60117982515E+03 0.  0.
        3    1    3    3  502    0  0.24146443570E+03 -0.13217883172E+03 -0.57368268898E+03  0.63630822335E+03  0.10100000352E+00 0.  1.
       -3    1    3    3    0  502 -0.24146443570E+03  0.13217883172E+03 -0.18489614953E+03  0.33160656443E+03  0.10100000352E+00 0. -1.
</event>
<event>
 5   0  0.2179625E-02  0.5977501E+03  0.7818609E-02  0.9910085E-01
        2   -1    0    0  501    0  0.00000000000E+00  0.00000000000E+00  0.23410722747E+03  0.23410722749E+03  0.25500000920E-02 0. -1.
       -2   -1    0    0    0  501  0.00000000000E+00  0.00000000000E+00 -0.38156149596E+03  0.38156149597E+03  0.25500000920E-02 0.  1.
    10030    2    1    2    0    0  0.00000000000E+00  0.00000000000E+00 -0.14745426849E+03  0.61566872346E+03  0.59775012819E+03 0.  0.
        1    1    3    3  502    0  0.52663030964E+02  0.16658350579E+03  0.17603499135E+03  0.24801567982E+03  0.50400001928E-02 0. -1.
       -1    1    3    3    0  502 -0.52663030964E+02 -0.16658350579E+03 -0.32348925985E+03  0.36765304363E+03  0.50400001928E-02 0.  1.
</event>
<event>
 5   0  0.1250390E-02  0.5989344E+03  0.7818609E-02  0.9907619E-01
        1   -1    0    0  501    0  0.00000000000E+00  0.00000000000E+00  0.95905517227E+03  0.95905517228E+03  0.50400001928E-02 0.  1.
       -1   -1    0    0    0  501  0.00000000000E+00  0.00000000000E+00 -0.93509317301E+02  0.93509317437E+02  0.50400001928E-02 0. -1.
    10030    2    1    2    0    0  0.00000000000E+00  0.00000000000E+00  0.86554585497E+03  0.10525644897E+04  0.59893436866E+03 0.  0.
        3    1    3    3  502    0 -0.64031314516E+02  0.12117120643E+03  0.90070931696E+03  0.91107615180E+03  0.10100000352E+00 0.  1.
       -3    1    3    3    0  502  0.64031314516E+02 -0.12117120643E+03 -0.35163461997E+02  0.14148833792E+03  0.10100000352E+00 0. -1.
</event>
<event>
 5   0  0.2141800E-02  0.6007330E+03  0.7818609E-02  0.9903887E-01
       -2   -1    0    0    0  501  0.00000000000E+00  0.00000000000E+00  0.17727048030E+03  0.17727048032E+03  0.25500000920E-02 0. -1.
        2   -1    0    0  501    0  0.00000000000E+00  0.00000000000E+00 -0.50893991834E+03  0.50893991834E+03  0.25500000920E-02 0.  1.
    10030    2    1    2    0    0  0.00000000000E+00  0.00000000000E+00 -0.33166943803E+03  0.68621039866E+03  0.60073296489E+03 0.  0.
        2    1    3    3  502    0  0.17862400694E+03  0.12820187105E+03 -0.39959331758E+03  0.45608888942E+03  0.25500000920E-02 0.  1.
       -2    1    3    3    0  502 -0.17862400694E+03 -0.12820187105E+03  0.67923879547E+02  0.23012150924E+03  0.25500000920E-02 0. -1.
</event>
<event>
 5   0  0.2092587E-02  0.6010978E+03  0.7818609E-02  0.9903131E-01
       -2   -1    0    0    0  501  0.00000000000E+00  0.00000000000E+00  0.16362266728E+03  0.16362266730E+03  0.25500000920E-02 0. -1.
        2   -1    0    0  501    0  0.00000000000E+00  0.00000000000E+00 -0.55206075836E+03  0.55206075837E+03  0.25500000920E-02 0.  1.
    10030    2    1    2    0    0  0.00000000000E+00  0.00000000000E+00 -0.38843809108E+03  0.71568342567E+03  0.60109784160E+03 0.  0.
        3    1    3    3  502    0  0.16587154709E+03  0.12536464518E+03 -0.45261526110E+03  0.49808658804E+03  0.10100000352E+00 0.  1.
       -3    1    3    3    0  502 -0.16587154709E+03 -0.12536464518E+03  0.64177170021E+02  0.21759683764E+03  0.10100000352E+00 0. -1.
</event>
<event>
 5   0  0.2179625E-02  0.6008473E+03  0.7818609E-02  0.9903650E-01
        2   -1    0    0  501    0  0.00000000000E+00  0.00000000000E+00  0.61924252402E+03  0.61924252402E+03  0.25500000920E-02 0. -1.
       -2   -1    0    0    0  501  0.00000000000E+00  0.00000000000E+00 -0.14574964045E+03  0.14574964048E+03  0.25500000920E-02 0.  1.
    10030    2    1    2    0    0  0.00000000000E+00  0.00000000000E+00  0.47349288356E+03  0.76499216450E+03  0.60084731917E+03 0.  0.
        1    1    3    3  502    0  0.29084591804E+03  0.21490735630E+02  0.14492510495E+03  0.32566314779E+03  0.50400001928E-02 0. -1.
       -1    1    3    3    0  502 -0.29084591804E+03 -0.21490735630E+02  0.32856777861E+03  0.43932901671E+03  0.50400001928E-02 0.  1.
</event>
<event>
 5   0  0.2126207E-02  0.6000671E+03  0.7818609E-02  0.9905267E-01
       -2   -1    0    0    0  501  0.00000000000E+00  0.00000000000E+00  0.68230121330E+02  0.68230121378E+02  0.25500000920E-02 0. -1.
        2   -1    0    0  501    0  0.00000000000E+00  0.00000000000E+00 -0.13193606770E+04  0.13193606770E+04  0.25500000920E-02 0.  1.
    10030    2    1    2    0    0  0.00000000000E+00  0.00000000000E+00 -0.12511305556E+04  0.13875907983E+04  0.60006712658E+03 0.  0.
        5    1    3    3  502    0  0.11905595567E+03  0.14287409782E+03 -0.81240034839E+02  0.20300089080E+03  0.46999998093E+01 0. -1.
       -5    1    3    3    0  502 -0.11905595567E+03 -0.14287409782E+03 -0.11698905208E+04  0.11845899075E+04  0.46999998093E+01 0.  1.
</event>
<event>
 5   0  0.1303808E-02  0.5998758E+03  0.7818609E-02  0.9905664E-01
       -1   -1    0    0    0  501  0.00000000000E+00  0.00000000000E+00  0.52919095103E+03  0.52919095105E+03  0.50400001928E-02 0. -1.
        1   -1    0    0  501    0  0.00000000000E+00  0.00000000000E+00 -0.17000051938E+03  0.17000051946E+03  0.50400001928E-02 0.  1.
    10030    2    1    2    0    0  0.00000000000E+00  0.00000000000E+00  0.35919043164E+03  0.69919147051E+03  0.59987577568E+03 0.  0.
        4    1    3    3  502    0  0.43992974139E+02 -0.28170657881E+03  0.71084447910E+02  0.29385130585E+03  0.12699999809E+01 0.  1.
       -4    1    3    3    0  502 -0.43992974139E+02  0.28170657881E+03  0.28810598373E+03  0.40534016465E+03  0.12699999809E+01 0. -1.
</event>
<event>
 5   0  0.1250390E-02  0.5998028E+03  0.7818609E-02  0.9905815E-01
        1   -1    0    0  501    0  0.00000000000E+00  0.00000000000E+00  0.98523607652E+03  0.98523607654E+03  0.50400001928E-02 0. -1.
       -1   -1    0    0    0  501  0.00000000000E+00  0.00000000000E+00 -0.91288627509E+02  0.91288627648E+02  0.50400001928E-02 0.  1.
    10030    2    1    2    0    0  0.00000000000E+00  0.00000000000E+00  0.89394744902E+03  0.10765247042E+04  0.59980279853E+03 0.  0.
        3    1    3    3  502    0 -0.78395364237E+02 -0.36355414156E+02 -0.68459218264E+02  0.11024619739E+03  0.10100000352E+00 0.  1.
       -3    1    3    3    0  502  0.78395364237E+02  0.36355414156E+02  0.96240666728E+03  0.96627850680E+03  0.10100000352E+00 0. -1.
</event>
<event>
 5   0  0.8551000E-03  0.6005142E+03  0.7818609E-02  0.9904340E-01
       -3   -1    0    0    0  501  0.00000000000E+00  0.00000000000E+00  0.12140289083E+03  0.12140293284E+03  0.10100000352E+00 0. -1.
        3   -1    0    0  501    0  0.00000000000E+00  0.00000000000E+00 -0.74260434410E+03  0.74260435097E+03  0.10100000352E+00 0.  1.
    10030    2    1    2    0    0  0.00000000000E+00  0.00000000000E+00 -0.62120145327E+03  0.86400728381E+03  0.60051423042E+03 0.  0.
        4    1    3    3  502    0  0.10767414744E+03  0.22102590826E+02 -0.71261133489E+03  0.72104006412E+03  0.12699999809E+01 0.  1.
       -4    1    3    3    0  502 -0.10767414744E+03 -0.22102590826E+02  0.91409881623E+02  0.14296721969E+03  0.12699999809E+01 0. -1.
</event>
<event>
 5   0  0.2142838E-02  0.5996497E+03  0.7818609E-02  0.9906133E-01
        2   -1    0    0  501    0  0.00000000000E+00  0.00000000000E+00  0.43962181769E+03  0.43962181770E+03  0.25500000920E-02 0.  1.
       -2   -1    0    0    0  501  0.00000000000E+00  0.00000000000E+00 -0.20448242163E+03  0.20448242164E+03  0.25500000920E-02 0. -1.
    10030    2    1    2    0    0  0.00000000000E+00  0.00000000000E+00  0.23513939606E+03  0.64410423934E+03  0.59964967736E+03 0.  0.
        4    1    3    3  502    0  0.92173334881E+02  0.21045465335E+03 -0.89340552083E+02  0.24651659564E+03  0.12699999809E+01 0. -1.
       -4    1    3    3    0  502 -0.92173334881E+02 -0.21045465335E+03  0.32447994814E+03  0.39758764370E+03  0.12699999809E+01 0.  1.
</event>
<event>
 5   0  0.1303808E-02  0.5993120E+03  0.7818609E-02  0.9906835E-01
        1   -1    0    0  501    0  0.00000000000E+00  0.00000000000E+00  0.72777661034E+03  0.72777661036E+03  0.50400001928E-02 0.  1.
       -1   -1    0    0    0  501  0.00000000000E+00  0.00000000000E+00 -0.12338086380E+03  0.12338086391E+03  0.50400001928E-02 0. -1.
    10030    2    1    2    0    0  0.00000000000E+00  0.00000000000E+00  0.60439574654E+03  0.85115747427E+03  0.59931196181E+03 0.  0.
        4    1    3    3  502    0 -0.36161658623E+02 -0.28334126396E+03  0.17357417311E+03  0.33424473652E+03  0.12699999809E+01 0. -1.
       -4    1    3    3    0  502  0.36161658623E+02  0.28334126396E+03  0.43082157343E+03  0.51691273775E+03  0.12699999809E+01 0.  1.
</event>
<event>
 5   0  0.8551000E-03  0.5936926E+03  0.7818609E-02  0.9918579E-01
       -3   -1    0    0    0  501  0.00000000000E+00  0.00000000000E+00  0.13710029150E+03  0.13710032870E+03  0.10100000352E+00 0.  1.
        3   -1    0    0  501    0  0.00000000000E+00  0.00000000000E+00 -0.64272443179E+03  0.64272443973E+03  0.10100000352E+00 0. -1.
    10030    2    1    2    0    0  0.00000000000E+00  0.00000000000E+00 -0.50562414030E+03  0.77982476843E+03  0.59369259571E+03 0.  0.
        4    1    3    3  502    0 -0.82109244127E+02 -0.43260101975E+02 -0.62317410402E+03  0.63004836419E+03  0.12699999809E+01 0. -1.
       -4    1    3    3    0  502  0.82109244127E+02  0.43260101975E+02  0.11754996373E+03  0.14977640424E+03  0.12699999809E+01 0.  1.
</event>
<event>
 5   0  0.1276705E-02  0.6022194E+03  0.7818609E-02  0.9900812E-01
       -1   -1    0    0    0  501  0.00000000000E+00  0.00000000000E+00  0.54074182722E+03  0.54074182724E+03  0.50400001928E-02 0. -1.
        1   -1    0    0  501    0  0.00000000000E+00  0.00000000000E+00 -0.16767162326E+03  0.16767162334E+03  0.50400001928E-02 0.  1.
    10030    2    1    2    0    0  0.00000000000E+00  0.00000000000E+00  0.37307020396E+03  0.70841345058E+03  0.60221942835E+03 0.  0.
        1    1    3    3  502    0  0.20604610565E+03  0.16170601690E+03  0.11805476165E+02  0.26218925006E+03  0.50400001928E-02 0. -1.
       -1    1    3    3    0  502 -0.20604610565E+03 -0.16170601690E+03  0.36126472779E+03  0.44622420052E+03  0.50400001928E-02 0.  1.
</event>
<event>
 5   0  0.2179625E-02  0.6003775E+03  0.7818609E-02  0.9904623E-01
       -2   -1    0    0    0  501  0.00000000000E+00  0.00000000000E+00  0.49846718365E+02  0.49846718431E+02  0.25500000920E-02 0. -1.
        2   -1    0    0  501    0  0.00000000000E+00  0.00000000000E+00 -0.18078079835E+04  0.18078079835E+04  0.25500000920E-02 0.  1.
    10030    2    1    2    0    0  0.00000000000E+00  0.00000000000E+00 -0.17579612651E+04  0.18576547019E+04  0.60037753280E+03 0.  0.
        1    1    3    3  502    0  0.18408010004E+03  0.81781250229E+01 -0.14572111847E+03  0.23491915493E+03  0.50400001928E-02 0. -1.
       -1    1    3    3    0  502 -0.18408010004E+03 -0.81781250229E+01 -0.16122401466E+04  0.16227355470E+04  0.50400001928E-02 0.  1.
</event>
<event>
 5   0  0.1337051E-02  0.6036389E+03  0.7818609E-02  0.9897885E-01
       -1   -1    0    0    0  501  0.00000000000E+00  0.00000000000E+00  0.86778899776E+02  0.86778899922E+02  0.50400001928E-02 0.  1.
        1   -1    0    0  501    0  0.00000000000E+00  0.00000000000E+00 -0.10497364598E+04  0.10497364598E+04  0.50400001928E-02 0. -1.
    10030    2    1    2    0    0  0.00000000000E+00  0.00000000000E+00 -0.96295755999E+03  0.11365153597E+04  0.60363888252E+03 0.  0.
        5    1    3    3  502    0  0.26392418113E+03 -0.86000010466E+02 -0.70441785913E+03  0.75715162646E+03  0.46999998093E+01 0. -1.
       -5    1    3    3    0  502 -0.26392418113E+03  0.86000010466E+02 -0.25853970086E+03  0.37936373325E+03  0.46999998093E+01 0.  1.
</event>
<event>
 5   0  0.2142838E-02  0.6017983E+03  0.7818609E-02  0.9901682E-01
       -2   -1    0    0    0  501  0.00000000000E+00  0.00000000000E+00  0.16199851984E+03  0.16199851986E+03  0.25500000920E-02 0.  1.
        2   -1    0    0  501    0  0.00000000000E+00  0.00000000000E+00 -0.55889592753E+03  0.55889592754E+03  0.25500000920E-02 0. -1.
    10030    2    1    2    0    0  0.00000000000E+00  0.00000000000E+00 -0.39689740769E+03  0.72089444740E+03  0.60179834834E+03 0.  0.
        4    1    3    3  502    0 -0.24881860376E+03  0.34099749653E+02 -0.39697230652E+03  0.46974686327E+03  0.12699999809E+01 0. -1.
       -4    1    3    3    0  502  0.24881860376E+03 -0.34099749653E+02  0.74898831202E-01  0.25114758413E+03  0.12699999809E+01 0.  1.
</event>
<event>
 5   0  0.2179625E-02  0.5994668E+03  0.7818609E-02  0.9906513E-01
        2   -1    0    0  501    0  0.00000000000E+00  0.00000000000E+00  0.70269672048E+03  0.70269672048E+03  0.25500000920E-02 0. -1.
       -2   -1    0    0    0  501  0.00000000000E+00  0.00000000000E+00 -0.12785046498E+03  0.12785046501E+03  0.25500000920E-02 0.  1.
    10030    2    1    2    0    0  0.00000000000E+00  0.00000000000E+00  0.57484625550E+03  0.83054718549E+03  0.59946677127E+03 0.  0.
        1    1    3    3  502    0  0.35857393157E+02  0.27717906507E+03  0.43745249689E+03  0.51911335354E+03  0.50400001928E-02 0. -1.
       -1    1    3    3    0  502 -0.35857393157E+02 -0.27717906507E+03  0.13739375861E+03  0.31143383195E+03  0.50400001928E-02 0.  1.
</event>
<event>
 5   0  0.2092587E-02  0.6002727E+03  0.7818609E-02  0.9904840E-01
        2   -1    0    0  501    0  0.00000000000E+00  0.00000000000E+00  0.68640153798E+03  0.68640153799E+03  0.25500000920E-02 0. -1.
       -2   -1    0    0    0  501  0.00000000000E+00  0.00000000000E+00 -0.13123780609E+03  0.13123780611E+03  0.25500000920E-02 0.  1.
    10030    2    1    2    0    0  0.00000000000E+00  0.00000000000E+00  0.55516373190E+03  0.81763934410E+03  0.60027271120E+03 0.  0.
        3    1    3    3  502    0  0.24900360056E+03  0.73854382486E+01  0.50560661836E+03  0.56364474674E+03  0.10100000352E+00 0. -1.
       -3    1    3    3    0  502 -0.24900360056E+03 -0.73854382486E+01  0.49557113532E+02  0.25399459737E+03  0.10100000352E+00 0.  1.
</event>
<event>
 5   0  0.2141800E-02  0.5925269E+03  0.7818609E-02  0.9921033E-01
       -2   -1    0    0    0  501  0.00000000000E+00  0.00000000000E+00  0.27881799310E+03  0.27881799311E+03  0.25500000920E-02 0. -1.
        2   -1    0    0  501    0  0.00000000000E+00  0.00000000000E+00 -0.31480041124E+03  0.31480041125E+03  0.25500000920E-02 0.  1.
    10030    2    1    2    0    0  0.00000000000E+00  0.00000000000E+00 -0.35982418147E+02  0.59361840436E+03  0.59252685642E+03 0.  0.
        2    1    3    3  502    0 -0.28085295756E+03  0.52748338878E+02  0.60327273937E+02  0.29206189586E+03  0.25500000920E-02 0. -1.
       -2    1    3    3    0  502  0.28085295756E+03 -0.52748338878E+02 -0.96309692084E+02  0.30155650850E+03  0.25500000920E-02 0.  1.
</event>
<event>
 5   0  0.2179625E-02  0.6106014E+03  0.7818609E-02  0.9883652E-01
        2   -1    0    0  501    0  0.00000000000E+00  0.00000000000E+00  0.84959237471E+03  0.84959237471E+03  0.25500000920E-02 0.  1.
       -2   -1    0    0    0  501  0.00000000000E+00  0.00000000000E+00 -0.10970970706E+03  0.10970970709E+03  0.25500000920E-02 0. -1.
    10030    2    1    2    0    0  0.00000000000E+00  0.00000000000E+00  0.73988266765E+03  0.95930208180E+03  0.61060144305E+03 0.  0.
        1    1    3    3  502    0  0.23305414100E+02  0.20946314079E+03  0.22912504769E+02  0.21199748248E+03  0.50400001928E-02 0. -1.
       -1    1    3    3    0  502 -0.23305414100E+02 -0.20946314079E+03  0.71697016288E+03  0.74730459932E+03  0.50400001928E-02 0.  1.
</event>
<event>
 5   0  0.2126207E-02  0.5995357E+03  0.7818609E-02  0.9906370E-01
        2   -1    0    0  501    0  0.00000000000E+00  0.00000000000E+00  0.27491041333E+03  0.27491041334E+03  0.25500000920E-02 0.  1.
       -2   -1    0    0    0  501  0.00000000000E+00  0.00000000000E+00 -0.32687289917E+03  0.32687289918E+03  0.25500000920E-02 0. -1.
    10030    2    1    2    0    0  0.00000000000E+00  0.00000000000E+00 -0.51962485844E+02  0.60178331252E+03  0.59953569976E+03 0.  0.
        5    1    3    3  502    0  0.78339534444E+02  0.25235454405E+03 -0.16799939064E+03  0.31315456857E+03  0.46999998093E+01 0.  1.
       -5    1    3    3    0  502 -0.78339534444E+02 -0.25235454405E+03  0.11603690480E+03  0.28862874395E+03  0.46999998093E+01 0. -1.
</event>
<event>
 5   0  0.8551000E-03  0.5994091E+03  0.7818609E-02  0.9906633E-01
        3   -1    0    0  501    0  0.00000000000E+00  0.00000000000E+00  0.42768229946E+03  0.42768231138E+03  0.10100000352E+00 0.  1.
       -3   -1    0    0    0  501  0.00000000000E+00  0.00000000000E+00 -0.21002226720E+03  0.21002229148E+03  0.10100000352E+00 0. -1.
    10030    2    1    2    0    0  0.00000000000E+00  0.00000000000E+00  0.21766003226E+03  0.63770460286E+03  0.59940910142E+03 0.  0.
        3    1    3    3  502    0  0.19476657777E+03  0.94114719879E+02 -0.11186269187E+03  0.24352591720E+03  0.10100000352E+00 0. -1.
       -3    1    3    3    0  502 -0.19476657777E+03 -0.94114719879E+02  0.32952272413E+03  0.39417868567E+03  0.10100000352E+00 0.  1.
</event>
<event>
 5   0  0.2141800E-02  0.6053282E+03  0.7818609E-02  0.9894413E-01
        2   -1    0    0  501    0  0.00000000000E+00  0.00000000000E+00  0.30120905840E+03  0.30120905842E+03  0.25500000920E-02 0.  1.
       -2   -1    0    0    0  501  0.00000000000E+00  0.00000000000E+00 -0.30412612887E+03  0.30412612888E+03  0.25500000920E-02 0. -1.
    10030    2    1    2    0    0  0.00000000000E+00  0.00000000000E+00 -0.29170704672E+01  0.60533518730E+03  0.60532815867E+03 0.  0.
        2    1    3    3  502    0 -0.37399680220E+02  0.21096691507E+03  0.21231899130E+03  0.30163741380E+03  0.25500000920E-02 0.  1.
       -2    1    3    3    0  502  0.37399680220E+02 -0.21096691507E+03 -0.21523606176E+03  0.30369777349E+03  0.25500000920E-02 0. -1.
</event>
<event>
 5   0  0.1250390E-02  0.5989624E+03  0.7818609E-02  0.9907561E-01
        1   -1    0    0  501    0  0.00000000000E+00  0.00000000000E+00  0.43123549246E+03  0.43123549249E+03  0.50400001928E-02 0.  1.
       -1   -1    0    0    0  501  0.00000000000E+00  0.00000000000E+00 -0.20798147827E+03  0.20798147833E+03  0.50400001928E-02 0. -1.
    10030    2    1    2    0    0  0.00000000000E+00  0.00000000000E+00  0.22325401419E+03  0.63921697082E+03  0.59896242030E+03 0.  0.
        3    1    3    3  502    0 -0.63552014811E+02  0.41494712630E+02 -0.19754699975E+03  0.21162584217E+03  0.10100000352E+00 0. -1.
       -3    1    3    3    0  502  0.63552014811E+02 -0.41494712630E+02  0.42080101394E+03  0.42759112865E+03  0.10100000352E+00 0.  1.
</event>
<event>
 5   0  0.1276705E-02  0.6014200E+03  0.7818609E-02  0.9902464E-01
        1   -1    0    0  501    0  0.00000000000E+00  0.00000000000E+00  0.23797887178E+03  0.23797887183E+03  0.50400001928E-02 0. -1.
       -1   -1    0    0    0  501  0.00000000000E+00  0.00000000000E+00 -0.37997697968E+03  0.37997697971E+03  0.50400001928E-02 0.  1.
    10030    2    1    2    0    0  0.00000000000E+00  0.00000000000E+00 -0.14199810790E+03  0.61795585155E+03  0.60141996293E+03 0.  0.
        1    1    3    3  502    0  0.24665167621E+03 -0.14715540347E+03  0.20527204177E+02  0.28794639829E+03  0.50400001928E-02 0. -1.
       -1    1    3    3    0  502 -0.24665167621E+03  0.14715540347E+03 -0.16252531208E+03  0.33000945326E+03  0.50400001928E-02 0.  1.
</event>
<event>
 5   0  0.2141800E-02  0.5984616E+03  0.7818609E-02  0.9908603E-01
        2   -1    0    0  501    0  0.00000000000E+00  0.00000000000E+00  0.13854973743E+04  0.13854973743E+04  0.25500000920E-02 0.  1.
       -2   -1    0    0    0  501  0.00000000000E+00  0.00000000000E+00 -0.64625930869E+02  0.64625930919E+02  0.25500000920E-02 0. -1.
    10030    2    1    2    0    0  0.00000000000E+00  0.00000000000E+00  0.13208714434E+04  0.14501233052E+04  0.59846155287E+03 0.  0.
        2    1    3    3  502    0 -0.27968122720E+03 -0.83155952057E+02  0.49965975163E+03  0.57861590767E+03  0.25500000920E-02 0. -1.
       -2    1    3    3    0  502  0.27968122720E+03  0.83155952057E+02  0.82121169177E+03  0.87150739751E+03  0.25500000920E-02 0.  1.
</event>
<event>
 5   0  0.2126207E-02  0.5989646E+03  0.7818609E-02  0.9907557E-01
       -2   -1    0    0    0  501  0.00000000000E+00  0.00000000000E+00  0.14439300591E+03  0.14439300593E+03  0.25500000920E-02 0.  1.
        2   -1    0    0  501    0  0.00000000000E+00  0.00000000000E+00 -0.62114949994E+03  0.62114949995E+03  0.25500000920E-02 0. -1.
    10030    2    1    2    0    0  0.00000000000E+00  0.00000000000E+00 -0.47675649403E+03  0.76554250588E+03  0.59896458469E+03 0.  0.
        5    1    3    3  502    0 -0.58454813226E+02  0.61975578635E+02 -0.60528618691E+03  0.61127031303E+03  0.46999998093E+01 0. -1.
       -5    1    3    3    0  502  0.58454813226E+02 -0.61975578635E+02  0.12852969288E+03  0.15427219285E+03  0.46999998093E+01 0.  1.
</event>
<event>
 5   0  0.2126207E-02  0.6036961E+03  0.7818609E-02  0.9897767E-01
       -2   -1    0    0    0  501  0.00000000000E+00  0.00000000000E+00  0.81369632364E+02  0.81369632404E+02  0.25500000920E-02 0. -1.
        2   -1    0    0  501    0  0.00000000000E+00  0.00000000000E+00 -0.11197327336E+04  0.11197327336E+04  0.25500000920E-02 0.  1.
    10030    2    1    2    0    0  0.00000000000E+00  0.00000000000E+00 -0.10383631012E+04  0.12011023660E+04  0.60369608547E+03 0.  0.
        5    1    3    3  502    0 -0.13828217776E+03 -0.20290216078E+03 -0.86834541328E+03  0.90240628006E+03  0.46999998093E+01 0.  1.
       -5    1    3    3    0  502  0.13828217776E+03  0.20290216078E+03 -0.17001768792E+03  0.29869608591E+03  0.46999998093E+01 0. -1.
</event>
<event>
 5   0  0.1303808E-02  0.5942284E+03  0.7818609E-02  0.9917453E-01
        1   -1    0    0  501    0  0.00000000000E+00  0.00000000000E+00  0.88893311571E+02  0.88893311713E+02  0.50400001928E-02 0.  1.
       -1   -1    0    0    0  501  0.00000000000E+00  0.00000000000E+00 -0.99306526835E+03  0.99306526836E+03  0.50400001928E-02 0. -1.
    10030    2    1    2    0    0  0.00000000000E+00  0.00000000000E+00 -0.90417195678E+03  0.10819585801E+04  0.59422844225E+03 0.  0.
        4    1    3    3  502    0 -0.16892713779E+03  0.32485345049E+02 -0.89316405341E+03  0.90957974622E+03  0.12699999809E+01 0. -1.
       -4    1    3    3    0  502  0.16892713779E+03 -0.32485345049E+02 -0.11007903368E+02  0.17237883386E+03  0.12699999809E+01 0.  1.
</event>
<event>
 5   0  0.1337051E-02  0.6021628E+03  0.7818609E-02  0.9900929E-01
        1   -1    0    0  501    0  0.00000000000E+00  0.00000000000E+00  0.60308519812E+03  0.60308519814E+03  0.50400001928E-02 0.  1.
       -1   -1    0    0    0  501  0.00000000000E+00  0.00000000000E+00 -0.15031045260E+03  0.15031045269E+03  0.50400001928E-02 0. -1.
    10030    2    1    2    0    0  0.00000000000E+00  0.00000000000E+00  0.45277474552E+03  0.75339565083E+03  0.60216279900E+03 0.  0.
        5    1    3    3  502    0 -0.27703790966E+03 -0.48544903549E+02  0.92092299044E+02  0.29598934540E+03  0.46999998093E+01 0. -1.
       -5    1    3    3    0  502  0.27703790966E+03  0.48544903549E+02  0.36068244648E+03  0.45740630543E+03  0.46999998093E+01 0.  1.
</event>
<event>
 5   0  0.2179625E-02  0.6207116E+03  0.7818609E-02  0.9863344E-01
        2   -1    0    0  501    0  0.00000000000E+00  0.00000000000E+00  0.59080842336E+03  0.59080842336E+03  0.25500000920E-02 0. -1.
       -2   -1    0    0    0  501  0.00000000000E+00  0.00000000000E+00 -0.16303208256E+03  0.16303208258E+03  0.25500000920E-02 0.  1.
    10030    2    1    2    0    0  0.00000000000E+00  0.00000000000E+00  0.42777634079E+03  0.75384050595E+03  0.62071161634E+03 0.  0.
        1    1    3    3  502    0 -0.25953510832E+02  0.97882160578E+02 -0.14240375096E+03  0.17473789056E+03  0.50400001928E-02 0.  1.
       -1    1    3    3    0  502  0.25953510832E+02 -0.97882160578E+02  0.57018009176E+03  0.57910261538E+03  0.50400001928E-02 0. -1.
</event>
<event>
 5   0  0.2142838E-02  0.5989569E+03  0.7818609E-02  0.9907573E-01
        2   -1    0    0  501    0  0.00000000000E+00  0.00000000000E+00  0.16432872675E+04  0.16432872675E+04  0.25500000920E-02 0.  1.
       -2   -1    0    0    0  501  0.00000000000E+00  0.00000000000E+00 -0.54578001249E+02  0.54578001309E+02  0.25500000920E-02 0. -1.
    10030    2    1    2    0    0  0.00000000000E+00  0.00000000000E+00  0.15887092662E+04  0.16978652688E+04  0.59895687520E+03 0.  0.
        4    1    3    3  502    0 -0.26723652071E+02 -0.29624274622E+03  0.89303340992E+03  0.94126733843E+03  0.12699999809E+01 0.  1.
       -4    1    3    3    0  502  0.26723652071E+02  0.29624274622E+03  0.69567585628E+03  0.75659793033E+03  0.12699999809E+01 0. -1.
</event>
<event>
 5   0  0.2141800E-02  0.5812233E+03  0.7818609E-02  0.9945146E-01
       -2   -1    0    0    0  501  0.00000000000E+00  0.00000000000E+00  0.43563733442E+02  0.43563733516E+02  0.25500000920E-02 0. -1.
        2   -1    0    0  501    0  0.00000000000E+00  0.00000000000E+00 -0.19386571636E+04  0.19386571636E+04  0.25500000920E-02 0.  1.
    10030    2    1    2    0    0  0.00000000000E+00  0.00000000000E+00 -0.18950934302E+04  0.19822208971E+04  0.58122334429E+03 0.  0.
        2    1    3    3  502    0 -0.10061809151E+03  0.26755164451E+03 -0.11263020346E+04  0.11620086729E+04  0.25500000920E-02 0.  1.
       -2    1    3    3    0  502  0.10061809151E+03 -0.26755164451E+03 -0.76879139559E+03  0.82021222421E+03  0.25500000920E-02 0. -1.
</event>
<event>
 5   0  0.2141800E-02  0.6002395E+03  0.7818609E-02  0.9904909E-01
       -2   -1    0    0    0  501  0.00000000000E+00  0.00000000000E+00  0.63273401788E+02  0.63273401840E+02  0.25500000920E-02 0.  1.
        2   -1    0    0  501    0  0.00000000000E+00  0.00000000000E+00 -0.14235343055E+04  0.14235343055E+04  0.25500000920E-02 0. -1.
    10030    2    1    2    0    0  0.00000000000E+00  0.00000000000E+00 -0.13602609037E+04  0.14868077073E+04  0.60023947924E+03 0.  0.
        2    1    3    3  502    0 -0.16354945880E+03 -0.19826511139E+02 -0.13015147765E+04  0.13119002361E+04  0.25500000920E-02 0. -1.
       -2    1    3    3    0  502  0.16354945880E+03  0.19826511139E+02 -0.58746127167E+02  0.17490747120E+03  0.25500000920E-02 0.  1.
</event>
<event>
 5   0  0.8551000E-03  0.6258078E+03  0.7818609E-02  0.9853264E-01
       -4   -1    0    0    0  501  0.00000000000E+00  0.00000000000E+00  0.29117359280E+03  0.29117636245E+03  0.12699999809E+01 0. -1.
        4   -1    0    0  501    0  0.00000000000E+00  0.00000000000E+00 -0.33625040027E+03  0.33625279862E+03  0.12699999809E+01 0.  1.
    10030    2    1    2    0    0  0.00000000000E+00  0.00000000000E+00 -0.45076807465E+02  0.62742916107E+03  0.62580782480E+03 0.  0.
        4    1    3    3  502    0 -0.22909888586E+03  0.18680618379E+03  0.80315858801E+02  0.30632515384E+03  0.12699999809E+01 0.  1.
       -4    1    3    3    0  502  0.22909888586E+03 -0.18680618379E+03 -0.12539266627E+03  0.32110400722E+03  0.12699999809E+01 0. -1.
</event>
<event>
 5   0  0.1276705E-02  0.5979154E+03  0.7818609E-02  0.9909740E-01
       -1   -1    0    0    0  501  0.00000000000E+00  0.00000000000E+00  0.21785321060E+03  0.21785321066E+03  0.50400001928E-02 0.  1.
        1   -1    0    0  501    0  0.00000000000E+00  0.00000000000E+00 -0.41025655715E+03  0.41025655718E+03  0.50400001928E-02 0. -1.
    10030    2    1    2    0    0  0.00000000000E+00  0.00000000000E+00 -0.19240334655E+03  0.62810976784E+03  0.59791540597E+03 0.  0.
        1    1    3    3  502    0  0.41095884115E+02 -0.35056893271E+02 -0.40508752843E+03  0.40867317403E+03  0.50400001928E-02 0. -1.
       -1    1    3    3    0  502 -0.41095884115E+02  0.35056893271E+02  0.21268418188E+03  0.21943659381E+03  0.50400001928E-02 0.  1.
</event>
<event>
 5   0  0.2126207E-02  0.6072502E+03  0.7818609E-02  0.9890477E-01
        2   -1    0    0  501    0  0.00000000000E+00  0.00000000000E+00  0.90873377427E+03  0.90873377427E+03  0.25500000920E-02 0.  1.
       -2   -1    0    0    0  501  0.00000000000E+00  0.00000000000E+00 -0.10144688709E+03  0.10144688712E+03  0.25500000920E-02 0. -1.
    10030    2    1    2    0    0  0.00000000000E+00  0.00000000000E+00  0.80728688718E+03  0.10101806614E+04  0.60725023710E+03 0.  0.
        5    1    3    3  502    0 -0.15798490458E+03 -0.20960622131E+02 -0.26203715370E+02  0.16157754316E+03  0.46999998093E+01 0. -1.
       -5    1    3    3    0  502  0.15798490458E+03  0.20960622131E+02  0.83349060255E+03  0.84860311824E+03  0.46999998093E+01 0.  1.
</event>
<event>
 5   0  0.2179625E-02  0.5999971E+03  0.7818609E-02  0.9905412E-01
       -2   -1    0    0    0  501  0.00000000000E+00  0.00000000000E+00  0.28043899133E+03  0.28043899135E+03  0.25500000920E-02 0.  1.
        2   -1    0    0  501    0  0.00000000000E+00  0.00000000000E+00 -0.32092231126E+03  0.32092231127E+03  0.25500000920E-02 0. -1.
    10030    2    1    2    0    0  0.00000000000E+00  0.00000000000E+00 -0.40483319921E+02  0.60136130261E+03  0.59999709756E+03 0.  0.
        1    1    3    3  502    0 -0.64674336773E+02  0.48972669590E+02 -0.30972015855E+03  0.32016818836E+03  0.50400001928E-02 0. -1.
       -1    1    3    3    0  502  0.64674336773E+02 -0.48972669590E+02  0.26923683862E+03  0.28119311425E+03  0.50400001928E-02 0.  1.
</event>
<event>
 5   0  0.1303808E-02  0.5992305E+03  0.7818609E-02  0.9907004E-01
       -1   -1    0    0    0  501  0.00000000000E+00  0.00000000000E+00  0.12294069565E+03  0.12294069575E+03  0.50400001928E-02 0. -1.
        1   -1    0    0  501    0  0.00000000000E+00  0.00000000000E+00 -0.73018366533E+03  0.73018366534E+03  0.50400001928E-02 0.  1.
    10030    2    1    2    0    0  0.00000000000E+00  0.00000000000E+00 -0.60724296968E+03  0.85312436110E+03  0.59923046591E+03 0.  0.
        4    1    3    3  502    0  0.25598500295E+03  0.14262883596E+03 -0.21475285984E+03  0.36330663398E+03  0.12699999809E+01 0. -1.
       -4    1    3    3    0  502 -0.25598500295E+03 -0.14262883596E+03 -0.39249010983E+03  0.48981772712E+03  0.12699999809E+01 0.  1.
</event>
<event>
 5   0  0.1250390E-02  0.6049432E+03  0.7818609E-02  0.9895203E-01
       -1   -1    0    0    0  501  0.00000000000E+00  0.00000000000E+00  0.29856936029E+03  0.29856936033E+03  0.50400001928E-02 0. -1.
        1   -1    0    0  501    0  0.00000000000E+00  0.00000000000E+00 -0.30642487780E+03  0.30642487784E+03  0.50400001928E-02 0.  1.
    10030    2    1    2    0    0  0.00000000000E+00  0.00000000000E+00 -0.78555175113E+01  0.60499423817E+03  0.60494323623E+03 0.  0.
        3    1    3    3  502    0 -0.24400623015E+03  0.15429203253E+03 -0.94179468924E+02  0.30366898792E+03  0.10100000352E+00 0.  1.
       -3    1    3    3    0  502  0.24400623015E+03 -0.15429203253E+03  0.86323951413E+02  0.30132525026E+03  0.10100000352E+00 0. -1.
</event>
<event>
 5   0  0.2126207E-02  0.5972118E+03  0.7818609E-02  0.9911208E-01
       -2   -1    0    0    0  501  0.00000000000E+00  0.00000000000E+00  0.97042607016E+02  0.97042607049E+02  0.25500000920E-02 0.  1.
        2   -1    0    0  501    0  0.00000000000E+00  0.00000000000E+00 -0.91882818128E+03  0.91882818128E+03  0.25500000920E-02 0. -1.
    10030    2    1    2    0    0  0.00000000000E+00  0.00000000000E+00 -0.82178557426E+03  0.10158707883E+04  0.59721179536E+03 0.  0.
        5    1    3    3  502    0  0.17204373304E+03  0.15587215548E+03 -0.73025142955E+03  0.76627959342E+03  0.46999998093E+01 0. -1.
       -5    1    3    3    0  502 -0.17204373304E+03 -0.15587215548E+03 -0.91534144714E+02  0.24959119491E+03  0.46999998093E+01 0.  1.
</event>
<event>
 5   0  0.2126207E-02  0.5734541E+03  0.7818609E-02  0.9962064E-01
       -2   -1    0    0    0  501  0.00000000000E+00  0.00000000000E+00  0.20232888514E+03  0.20232888516E+03  0.25500000920E-02 0.  1.
        2   -1    0    0  501    0  0.00000000000E+00  0.00000000000E+00 -0.40633055259E+03  0.40633055260E+03  0.25500000920E-02 0. -1.
    10030    2    1    2    0    0  0.00000000000E+00  0.00000000000E+00 -0.20400166745E+03  0.60865943775E+03  0.57345412270E+03 0.  0.
        5    1    3    3  502    0 -0.88151251016E+02  0.26890300663E+02  0.18613638985E+03  0.20775605154E+03  0.46999998093E+01 0.  1.
       -5    1    3    3    0  502  0.88151251016E+02 -0.26890300663E+02 -0.39013805730E+03  0.40090338621E+03  0.46999998093E+01 0. -1.
</event>
<event>
 5   0  0.2141800E-02  0.5897405E+03  0.7818609E-02  0.9926923E-01
       -2   -1    0    0    0  501  0.00000000000E+00  0.00000000000E+00  0.10258322993E+03  0.10258322996E+03  0.25500000920E-02 0. -1.
        2   -1    0    0  501    0  0.00000000000E+00  0.00000000000E+00 -0.84758937197E+03  0.84758937198E+03  0.25500000920E-02 0.  1.
    10030    2    1    2    0    0  0.00000000000E+00  0.00000000000E+00 -0.74500614205E+03  0.95017260194E+03  0.58974046985E+03 0.  0.
        2    1    3    3  502    0 -0.15610354903E+03  0.87104391959E+02  0.53257901679E+01  0.17884031192E+03  0.25500000920E-02 0. -1.
       -2    1    3    3    0  502  0.15610354903E+03 -0.87104391959E+02 -0.75033193221E+03  0.77133229002E+03  0.25500000920E-02 0.  1.
</event>
<event>
 5   0  0.2142838E-02  0.5981797E+03  0.7818609E-02  0.9909190E-01
        2   -1    0    0  501    0  0.00000000000E+00  0.00000000000E+00  0.48215517635E+03  0.48215517635E+03  0.25500000920E-02 0. -1.
       -2   -1    0    0    0  501  0.00000000000E+00  0.00000000000E+00 -0.18553099332E+03  0.18553099334E+03  0.25500000920E-02 0.  1.
    10030    2    1    2    0    0  0.00000000000E+00  0.00000000000E+00  0.29662418303E+03  0.66768616969E+03  0.59817966803E+03 0.  0.
        4    1    3    3  502    0 -0.18281576582E+03  0.13246660168E+03  0.36728050061E+03  0.43112130986E+03  0.12699999809E+01 0. -1.
       -4    1    3    3    0  502  0.18281576582E+03 -0.13246660168E+03 -0.70656317580E+02  0.23656485983E+03  0.12699999809E+01 0.  1.
</event>
<event>
 5   0  0.1276705E-02  0.5992729E+03  0.7818609E-02  0.9906916E-01
        1   -1    0    0  501    0  0.00000000000E+00  0.00000000000E+00  0.93289509077E+03  0.93289509078E+03  0.50400001928E-02 0.  1.
       -1   -1    0    0    0  501  0.00000000000E+00  0.00000000000E+00 -0.96240183866E+02  0.96240183998E+02  0.50400001928E-02 0. -1.
    10030    2    1    2    0    0  0.00000000000E+00  0.00000000000E+00  0.83665490690E+03  0.10291352748E+04  0.59927287654E+03 0.  0.
        1    1    3    3  502    0 -0.24001410873E+03  0.29967944513E+02  0.72203906385E+03  0.76147571191E+03  0.50400001928E-02 0.  1.
       -1    1    3    3    0  502  0.24001410873E+03 -0.29967944513E+02  0.11461584306E+03  0.26765956287E+03  0.50400001928E-02 0. -1.
</event>
<event>
 5   0  0.1276705E-02  0.6038167E+03  0.7818609E-02  0.9897519E-01
        1   -1    0    0  501    0  0.00000000000E+00  0.00000000000E+00  0.12685131846E+03  0.12685131856E+03  0.50400001928E-02 0. -1.
       -1   -1    0    0    0  501  0.00000000000E+00  0.00000000000E+00 -0.71854708413E+03  0.71854708415E+03  0.50400001928E-02 0.  1.
    10030    2    1    2    0    0  0.00000000000E+00  0.00000000000E+00 -0.59169576567E+03  0.84539840271E+03  0.60381667764E+03 0.  0.
        1    1    3    3  502    0 -0.93707456183E+02  0.25094525216E+03 -0.10086771455E+03  0.28623225323E+03  0.50400001928E-02 0. -1.
       -1    1    3    3    0  502  0.93707456183E+02 -0.25094525216E+03 -0.49082805112E+03  0.55916614948E+03  0.50400001928E-02 0.  1.
</event>
<event>
 5   0  0.1250390E-02  0.6003344E+03  0.7818609E-02  0.9904713E-01
       -1   -1    0    0    0  501  0.00000000000E+00  0.00000000000E+00  0.72056259302E+02  0.72056259478E+02  0.50400001928E-02 0.  1.
        1   -1    0    0  501    0  0.00000000000E+00  0.00000000000E+00 -0.12504164968E+04  0.12504164968E+04  0.50400001928E-02 0. -1.
    10030    2    1    2    0    0  0.00000000000E+00  0.00000000000E+00 -0.11783602375E+04  0.13224727563E+04  0.60033435834E+03 0.  0.
        3    1    3    3  502    0 -0.82222679950E+02  0.51023156326E+02 -0.12151136361E+04  0.12189606599E+04  0.10100000352E+00 0. -1.
       -3    1    3    3    0  502  0.82222679950E+02 -0.51023156326E+02  0.36753398625E+02  0.10351209635E+03  0.10100000352E+00 0.  1.
</event>
<event>
 5   0  0.2179625E-02  0.5966157E+03  0.7818609E-02  0.9912452E-01
       -2   -1    0    0    0  501  0.00000000000E+00  0.00000000000E+00  0.12642747815E+03  0.12642747817E+03  0.25500000920E-02 0. -1.
        2   -1    0    0  501    0  0.00000000000E+00  0.00000000000E+00 -0.70386249296E+03  0.70386249297E+03  0.25500000920E-02 0.  1.
    10030    2    1    2    0    0  0.00000000000E+00  0.00000000000E+00 -0.57743501481E+03  0.83028997114E+03  0.59661565504E+03 0.  0.
        1    1    3    3  502    0 -0.18119223680E+03  0.22764778256E+03 -0.19710588874E+03  0.35143259806E+03  0.50400001928E-02 0.  1.
       -1    1    3    3    0  502  0.18119223680E+03 -0.22764778256E+03 -0.38032912608E+03  0.47885737307E+03  0.50400001928E-02 0. -1.
</event>
<event>
 5   0  0.8551000E-03  0.5997455E+03  0.7818609E-02  0.9905934E-01
       -3   -1    0    0    0  501  0.00000000000E+00  0.00000000000E+00  0.50327859676E+03  0.50327860689E+03  0.10100000352E+00 0. -1.
        3   -1    0    0  501    0  0.00000000000E+00  0.00000000000E+00 -0.17867567483E+03  0.17867570338E+03  0.10100000352E+00 0.  1.
    10030    2    1    2    0    0  0.00000000000E+00  0.00000000000E+00  0.32460292193E+03  0.68195431027E+03  0.59974546632E+03 0.  0.
        2    1    3    3  502    0  0.90291510744E+02 -0.10732970637E+03 -0.13907955994E+03  0.19752302848E+03  0.25500000920E-02 0.  1.
       -2    1    3    3    0  502 -0.90291510744E+02  0.10732970637E+03  0.46368248186E+03  0.48443128179E+03  0.25500000920E-02 0. -1.
</event>
<event>
 5   0  0.2142838E-02  0.6059974E+03  0.7818609E-02  0.9893041E-01
       -2   -1    0    0    0  501  0.00000000000E+00  0.00000000000E+00  0.92703130927E+02  0.92703130962E+02  0.25500000920E-02 0.  1.
        2   -1    0    0  501    0  0.00000000000E+00  0.00000000000E+00 -0.99034642062E+03  0.99034642062E+03  0.25500000920E-02 0. -1.
    10030    2    1    2    0    0  0.00000000000E+00  0.00000000000E+00 -0.89764328969E+03  0.10830495516E+04  0.60599740565E+03 0.  0.
        4    1    3    3  502    0  0.15701160994E+03  0.15799056349E+03 -0.81710607778E+02  0.23725914130E+03  0.12699999809E+01 0.  1.
       -4    1    3    3    0  502 -0.15701160994E+03 -0.15799056349E+03 -0.81593268191E+03  0.84579041028E+03  0.12699999809E+01 0. -1.
</event>
<event>
 5   0  0.1303808E-02  0.5998931E+03  0.7818609E-02  0.9905628E-01
       -1   -1    0    0    0  501  0.00000000000E+00  0.00000000000E+00  0.22241739664E+03  0.22241739670E+03  0.50400001928E-02 0. -1.
        1   -1    0    0  501    0  0.00000000000E+00  0.00000000000E+00 -0.40450043034E+03  0.40450043037E+03  0.50400001928E-02 0.  1.
    10030    2    1    2    0    0  0.00000000000E+00  0.00000000000E+00 -0.18208303370E+03  0.62691782707E+03  0.59989309943E+03 0.  0.
        4    1    3    3  502    0 -0.18052863702E+03  0.57375862767E+02 -0.33407724168E+03  0.38404660488E+03  0.12699999809E+01 0.  1.
       -4    1    3    3    0  502  0.18052863702E+03 -0.57375862767E+02  0.15199420798E+03  0.24287122220E+03  0.12699999809E+01 0. -1.
</event>
<event>
 5   0  0.1337051E-02  0.5990429E+03  0.7818609E-02  0.9907394E-01
        1   -1    0    0  501    0  0.00000000000E+00  0.00000000000E+00  0.13540717198E+03  0.13540717207E+03  0.50400001928E-02 0.  1.
       -1   -1    0    0    0  501  0.00000000000E+00  0.00000000000E+00 -0.66254316782E+03  0.66254316784E+03  0.50400001928E-02 0. -1.
    10030    2    1    2    0    0  0.00000000000E+00  0.00000000000E+00 -0.52713599584E+03  0.79795033991E+03  0.59904289233E+03 0.  0.
        5    1    3    3  502    0  0.22823585616E+03 -0.40471735929E+02 -0.51616981886E+03  0.56584709891E+03  0.46999998093E+01 0. -1.
       -5    1    3    3    0  502 -0.22823585616E+03  0.40471735929E+02 -0.10966176988E+02  0.23210324100E+03  0.46999998093E+01 0.  1.
</event>
<event>
 5   0  0.2179625E-02  0.6011012E+03  0.7818609E-02  0.9903124E-01
        2   -1    0    0  501    0  0.00000000000E+00  0.00000000000E+00  0.78977843562E+03  0.78977843562E+03  0.25500000920E-02 0. -1.
       -2   -1    0    0    0  501  0.00000000000E+00  0.00000000000E+00 -0.11437467679E+03  0.11437467682E+03  0.25500000920E-02 0.  1.
    10030    2    1    2    0    0  0.00000000000E+00  0.00000000000E+00  0.67540375883E+03  0.90415311245E+03  0.60110116728E+03 0.  0.
        1    1    3    3  502    0  0.16020858807E+03  0.25349168165E+03  0.36800350444E+03  0.47471191650E+03  0.50400001928E-02 0.  1.
       -1    1    3    3    0  502 -0.16020858807E+03 -0.25349168165E+03  0.30740025438E+03  0.42944119595E+03  0.50400001928E-02 0. -1.
</event>
<event>
 5   0  0.1250390E-02  0.5994521E+03  0.7818609E-02  0.9906543E-01
       -1   -1    0    0    0  501  0.00000000000E+00  0.00000000000E+00  0.29785064779E+03  0.29785064784E+03  0.50400001928E-02 0. -1.
        1   -1    0    0  501    0  0.00000000000E+00  0.00000000000E+00 -0.30161324804E+03  0.30161324809E+03  0.50400001928E-02 0.  1.
    10030    2    1    2    0    0  0.00000000000E+00  0.00000000000E+00 -0.37626002503E+01  0.59946389592E+03  0.59945208762E+03 0.  0.
        3    1    3    3  502    0  0.58029988151E+02 -0.25568337277E+03  0.14336006986E+03  0.29882032473E+03  0.10100000352E+00 0. -1.
       -3    1    3    3    0  502 -0.58029988151E+02  0.25568337277E+03 -0.14712267011E+03  0.30064357119E+03  0.10100000352E+00 0.  1.
</event>
<event>
 5   0  0.2141800E-02  0.6004597E+03  0.7818609E-02  0.9904453E-01
       -2   -1    0    0    0  501  0.00000000000E+00  0.00000000000E+00  0.32878632117E+03  0.32878632118E+03  0.25500000920E-02 0. -1.
        2   -1    0    0  501    0  0.00000000000E+00  0.00000000000E+00 -0.27415365561E+03  0.27415365563E+03  0.25500000920E-02 0.  1.
    10030    2    1    2    0    0  0.00000000000E+00  0.00000000000E+00  0.54632665559E+02  0.60293997681E+03  0.60045973011E+03 0.  0.
        2    1    3    3  502    0 -0.54751761490E+02  0.13221492118E+03 -0.23770458574E+03  0.27745632243E+03  0.25500000920E-02 0.  1.
       -2    1    3    3    0  502  0.54751761490E+02 -0.13221492118E+03  0.29233725130E+03  0.32548365438E+03  0.25500000920E-02 0. -1.
</event>
<event>
 5   0  0.2141800E-02  0.6011725E+03  0.7818609E-02  0.9902977E-01
        2   -1    0    0  501    0  0.00000000000E+00  0.00000000000E+00  0.54608681690E+03  0.54608681690E+03  0.25500000920E-02 0. -1.
       -2   -1    0    0    0  501  0.00000000000E+00  0.00000000000E+00 -0.16545369259E+03  0.16545369261E+03  0.25500000920E-02 0.  1.
    10030    2    1    2    0    0  0.00000000000E+00  0.00000000000E+00  0.38063312431E+03  0.71154050951E+03  0.60117245558E+03 0.  0.
        2    1    3    3  502    0 -0.11597678712E+03 -0.16491863829E+03  0.45418849802E+03  0.49692651786E+03  0.25500000920E-02 0. -1.
       -2    1    3    3    0  502  0.11597678712E+03  0.16491863829E+03 -0.73555373710E+02  0.21461399165E+03  0.25500000920E-02 0.  1.
</event>
<event>
 5   0  0.2142838E-02  0.5988551E+03  0.7818609E-02  0.9907784E-01
       -2   -1    0    0    0  501  0.00000000000E+00  0.00000000000E+00  0.12072623060E+03  0.12072623063E+03  0.25500000920E-02 0.  1.
        2   -1    0    0  501    0  0.00000000000E+00  0.00000000000E+00 -0.74264605973E+03  0.74264605974E+03  0.25500000920E-02 0. -1.
    10030    2    1    2    0    0  0.00000000000E+00  0.00000000000E+00 -0.62191982913E+03  0.86337229037E+03  0.59885510594E+03 0.  0.
        4    1    3    3  502    0  0.16961856276E+03 -0.23251274208E+03 -0.19187636644E+03  0.34590574578E+03  0.12699999809E+01 0.  1.
       -4    1    3    3    0  502 -0.16961856276E+03  0.23251274208E+03 -0.43004346269E+03  0.51746654459E+03  0.12699999809E+01 0. -1.
</event>
<event>
 5   0  0.2092587E-02  0.5999211E+03  0.7818609E-02  0.9905570E-01
        2   -1    0    0  501    0  0.00000000000E+00  0.00000000000E+00  0.75425978220E+03  0.75425978220E+03  0.25500000920E-02 0. -1.
       -2   -1    0    0    0  501  0.00000000000E+00  0.00000000000E+00 -0.11929091340E+03  0.11929091343E+03  0.25500000920E-02 0.  1.
    10030    2    1    2    0    0  0.00000000000E+00  0.00000000000E+00  0.63496886880E+03  0.87355069563E+03  0.59992112272E+03 0.  0.
        3    1    3    3  502    0  0.21037010668E+03 -0.11763527157E+03  0.57485580371E+02  0.24778668458E+03  0.10100000352E+00 0.  1.
       -3    1    3    3    0  502 -0.21037010668E+03  0.11763527157E+03  0.57748328843E+03  0.62576401104E+03  0.10100000352E+00 0. -1.
</event>
<event>
 5   0  0.2179625E-02  0.5963760E+03  0.7818609E-02  0.9912953E-01
       -2   -1    0    0    0  501  0.00000000000E+00  0.00000000000E+00  0.18779782048E+03  0.18779782049E+03  0.25500000920E-02 0. -1.
        2   -1    0    0  501    0  0.00000000000E+00  0.00000000000E+00 -0.47346711133E+03  0.47346711134E+03  0.25500000920E-02 0.  1.
    10030    2    1    2    0    0  0.00000000000E+00  0.00000000000E+00 -0.28566929085E+03  0.66126493183E+03  0.59637602763E+03 0.  0.
        1    1    3    3  502    0 -0.39997502063E+02  0.23576224526E+03  0.54683569047E+02  0.24530374887E+03  0.50400001928E-02 0. -1.
       -1    1    3    3    0  502  0.39997502063E+02 -0.23576224526E+03 -0.34035285990E+03  0.41596118296E+03  0.50400001928E-02 0.  1.
</event>
<event>
 5   0  0.2126207E-02  0.5991997E+03  0.7818609E-02  0.9907068E-01
       -2   -1    0    0    0  501  0.00000000000E+00  0.00000000000E+00  0.28722845342E+03  0.28722845343E+03  0.25500000920E-02 0.  1.
        2   -1    0    0  501    0  0.00000000000E+00  0.00000000000E+00 -0.31250414148E+03  0.31250414149E+03  0.25500000920E-02 0. -1.
    10030    2    1    2    0    0  0.00000000000E+00  0.00000000000E+00 -0.25275688064E+02  0.59973259493E+03  0.59919973716E+03 0.  0.
        5    1    3    3  502    0  0.12916732560E+03 -0.16136728840E+03 -0.22965868821E+03  0.30901262569E+03  0.46999998093E+01 0. -1.
       -5    1    3    3    0  502 -0.12916732560E+03  0.16136728840E+03  0.20438300014E+03  0.29071996924E+03  0.46999998093E+01 0.  1.
</event>
<event>
 5   0  0.1303808E-02  0.6003321E+03  0.7818609E-02  0.9904717E-01
       -1   -1    0    0    0  501  0.00000000000E+00  0.00000000000E+00  0.16389817398E+03  0.16389817405E+03  0.50400001928E-02 0. -1.
        1   -1    0    0  501    0  0.00000000000E+00  0.00000000000E+00 -0.54972949428E+03  0.54972949430E+03  0.50400001928E-02 0.  1.
    10030    2    1    2    0    0  0.00000000000E+00  0.00000000000E+00 -0.38583132030E+03  0.71362766836E+03  0.60033210919E+03 0.  0.
        4    1    3    3  502    0  0.10707452541E+03 -0.11197073815E+03 -0.49852493983E+03  0.52204514051E+03  0.12699999809E+01 0.  1.
       -4    1    3    3    0  502 -0.10707452541E+03  0.11197073815E+03  0.11269361953E+03  0.19158252785E+03  0.12699999809E+01 0. -1.
</event>
<event>
 5   0  0.1250390E-02  0.6006224E+03  0.7818609E-02  0.9904116E-01
        1   -1    0    0  501    0  0.00000000000E+00  0.00000000000E+00  0.91149323653E+03  0.91149323654E+03  0.50400001928E-02 0. -1.
       -1   -1    0    0    0  501  0.00000000000E+00  0.00000000000E+00 -0.98944047444E+02  0.98944047573E+02  0.50400001928E-02 0.  1.
    10030    2    1    2    0    0  0.00000000000E+00  0.00000000000E+00  0.81254918908E+03  0.10104372841E+04  0.60062244418E+03 0.  0.
        3    1    3    3  502    0  0.16776334995E+03 -0.17850806756E+03  0.69851946920E+03  0.74022910698E+03  0.10100000352E+00 0. -1.
       -3    1    3    3    0  502 -0.16776334995E+03  0.17850806756E+03  0.11402971988E+03  0.27020817713E+03  0.10100000352E+00 0.  1.
</event>
<event>
 5   0  0.2142838E-02  0.5820688E+03  0.7818609E-02  0.9943322E-01
       -2   -1    0    0    0  501  0.00000000000E+00  0.00000000000E+00  0.25835269530E+03  0.25835269532E+03  0.25500000920E-02 0. -1.
        2   -1    0    0  501    0  0.00000000000E+00  0.00000000000E+00 -0.32785038739E+03  0.32785038740E+03  0.25500000920E-02 0.  1.
    10030    2    1    2    0    0  0.00000000000E+00  0.00000000000E+00 -0.69497692088E+02  0.58620308272E+03  0.58206883183E+03 0.  0.
        4    1    3    3  502    0 -0.79959198591E+02  0.23866813281E+03  0.11238284948E+03  0.27565824641E+03  0.12699999809E+01 0. -1.
       -4    1    3    3    0  502  0.79959198591E+02 -0.23866813281E+03 -0.18188054157E+03  0.31054483631E+03  0.12699999809E+01 0.  1.
</event>
<event>
 5   0  0.2141800E-02  0.6009774E+03  0.7818609E-02  0.9903380E-01
        2   -1    0    0  501    0  0.00000000000E+00  0.00000000000E+00  0.47480531311E+03  0.47480531312E+03  0.25500000920E-02 0.  1.
       -2   -1    0    0    0  501  0.00000000000E+00  0.00000000000E+00 -0.19016940710E+03  0.19016940712E+03  0.25500000920E-02 0. -1.
    10030    2    1    2    0    0  0.00000000000E+00  0.00000000000E+00  0.28463590601E+03  0.66497472024E+03  0.60097735362E+03 0.  0.
        2    1    3    3  502    0  0.13025261894E+03 -0.10005015335E+03  0.42074375580E+03  0.45166479382E+03  0.25500000920E-02 0.  1.
       -2    1    3    3    0  502 -0.13025261894E+03  0.10005015335E+03 -0.13610784980E+03  0.21330992642E+03  0.25500000920E-02 0. -1.
</event>
<event>
 5   0  0.1337051E-02  0.5983122E+03  0.7818609E-02  0.9908914E-01
       -1   -1    0    0    0  501  0.00000000000E+00  0.00000000000E+00  0.10078266883E+03  0.10078266895E+03  0.50400001928E-02 0.  1.
        1   -1    0    0  501    0  0.00000000000E+00  0.00000000000E+00 -0.88799378161E+03  0.88799378163E+03  0.50400001928E-02 0. -1.
    10030    2    1    2    0    0  0.00000000000E+00  0.00000000000E+00 -0.78721111279E+03  0.98877645058E+03  0.59831223715E+03 0.  0.
        5    1    3    3  502    0  0.12712852961E+03 -0.15052699521E+03 -0.21668356886E+02  0.19827164956E+03  0.46999998093E+01 0.  1.
       -5    1    3    3    0  502 -0.12712852961E+03  0.15052699521E+03 -0.76554275590E+03  0.79050480102E+03  0.46999998093E+01 0. -1.
</event>
<event>
 5   0  0.1332555E-02  0.5988872E+03  0.7818609E-02  0.9907717E-01
       -1   -1    0    0    0  501  0.00000000000E+00  0.00000000000E+00  0.33640182911E+03  0.33640182915E+03  0.50400001928E-02 0. -1.
        1   -1    0    0  501    0  0.00000000000E+00  0.00000000000E+00 -0.26654571610E+03  0.26654571615E+03  0.50400001928E-02 0.  1.
    10030    2    1    2    0    0  0.00000000000E+00  0.00000000000E+00  0.69856113008E+02  0.60294754529E+03  0.59888718959E+03 0.  0.
        2    1    3    3  502    0  0.21043491256E+03 -0.99748642675E+02  0.22444302145E+03  0.32343053972E+03  0.25500000920E-02 0. -1.
       -2    1    3    3    0  502 -0.21043491256E+03  0.99748642675E+02 -0.15458690844E+03  0.27951700558E+03  0.25500000920E-02 0.  1.
</event>
<event>
 5   0  0.2126207E-02  0.5997779E+03  0.7818609E-02  0.9905867E-01
       -2   -1    0    0    0  501  0.00000000000E+00  0.00000000000E+00  0.41490276042E+03  0.41490276042E+03  0.25500000920E-02 0.  1.
        2   -1    0    0  501    0  0.00000000000E+00  0.00000000000E+00 -0.21675773600E+03  0.21675773602E+03  0.25500000920E-02 0. -1.
    10030    2    1    2    0    0  0.00000000000E+00  0.00000000000E+00  0.19814502441E+03  0.63166049644E+03  0.59977790228E+03 0.  0.
        5    1    3    3  502    0 -0.25262270087E+02 -0.50150837644E+01 -0.21555189082E+03  0.21713599653E+03  0.46999998093E+01 0. -1.
       -5    1    3    3    0  502  0.25262270087E+02  0.50150837644E+01  0.41369691523E+03  0.41452449991E+03  0.46999998093E+01 0.  1.
</event>
<event>
 5   0  0.1332555E-02  0.5988171E+03  0.7818609E-02  0.9907863E-01
       -1   -1    0    0    0  501  0.00000000000E+00  0.00000000000E+00  0.50418842891E+03  0.50418842893E+03  0.50400001928E-02 0.  1.
        1   -1    0    0  501    0  0.00000000000E+00  0.00000000000E+00 -0.17780153874E+03  0.17780153881E+03  0.50400001928E-02 0. -1.
    10030    2    1    2    0    0  0.00000000000E+00  0.00000000000E+00  0.32638689017E+03  0.68198996774E+03  0.59881709564E+03 0.  0.
        2    1    3    3  502    0 -0.59054120856E+02 -0.89716717892E+02  0.48149175601E+03  0.49332625084E+03  0.25500000920E-02 0.  1.
       -2    1    3    3    0  502  0.59054120856E+02  0.89716717892E+02 -0.15510486584E+03  0.18866371690E+03  0.25500000920E-02 0. -1.
</event>
<event>
 5   0  0.1250390E-02  0.5978609E+03  0.7818609E-02  0.9909854E-01
       -1   -1    0    0    0  501  0.00000000000E+00  0.00000000000E+00  0.97142790359E+02  0.97142790490E+02  0.50400001928E-02 0.  1.
        1   -1    0    0  501    0  0.00000000000E+00  0.00000000000E+00 -0.91987701166E+03  0.91987701167E+03  0.50400001928E-02 0. -1.
    10030    2    1    2    0    0  0.00000000000E+00  0.00000000000E+00 -0.82273422130E+03  0.10170198022E+04  0.59786091952E+03 0.  0.
        3    1    3    3  502    0  0.90848506959E+02  0.12653370025E+03 -0.84538103487E+03  0.85961231542E+03  0.10100000352E+00 0. -1.
       -3    1    3    3    0  502 -0.90848506959E+02 -0.12653370025E+03  0.22646813570E+02  0.15740748674E+03  0.10100000352E+00 0.  1.
</event>
<event>
 5   0  0.1276705E-02  0.5985794E+03  0.7818609E-02  0.9908358E-01
       -1   -1    0    0    0  501  0.00000000000E+00  0.00000000000E+00  0.35594888465E+02  0.35594888822E+02  0.50400001928E-02 0. -1.
        1   -1    0    0  501    0  0.00000000000E+00  0.00000000000E+00 -0.25164936214E+04  0.25164936214E+04  0.50400001928E-02 0.  1.
    10030    2    1    2    0    0  0.00000000000E+00  0.00000000000E+00 -0.24808987329E+04  0.25520885102E+04  0.59857935226E+03 0.  0.
        1    1    3    3  502    0 -0.18382290067E+02 -0.21128838585E+03 -0.34010145205E+03  0.40081128763E+03  0.50400001928E-02 0. -1.
       -1    1    3    3    0  502  0.18382290067E+02  0.21128838585E+03 -0.21407972809E+04  0.21512772226E+04  0.50400001928E-02 0.  1.
</event>
<event>
 5   0  0.2179625E-02  0.5995741E+03  0.7818609E-02  0.9906290E-01
       -2   -1    0    0    0  501  0.00000000000E+00  0.00000000000E+00  0.29100788830E+03  0.29100788831E+03  0.25500000920E-02 0. -1.
        2   -1    0    0  501    0  0.00000000000E+00  0.00000000000E+00 -0.30883104874E+03  0.30883104875E+03  0.25500000920E-02 0.  1.
    10030    2    1    2    0    0  0.00000000000E+00  0.00000000000E+00 -0.17823160444E+02  0.59983893706E+03  0.59957408663E+03 0.  0.
        1    1    3    3  502    0 -0.25618627934E+03  0.15050099276E+03 -0.48807921685E+02  0.30110491824E+03  0.50400001928E-02 0.  1.
       -1    1    3    3    0  502  0.25618627934E+03 -0.15050099276E+03  0.30984761241E+02  0.29873401882E+03  0.50400001928E-02 0. -1.
</event>
<event>
 5   0  0.8551000E-03  0.5982971E+03  0.7818609E-02  0.9908945E-01
        3   -1    0    0  501    0  0.00000000000E+00  0.00000000000E+00  0.54938028944E+03  0.54938029873E+03  0.10100000352E+00 0.  1.
       -3   -1    0    0    0  501  0.00000000000E+00  0.00000000000E+00 -0.16289231997E+03  0.16289235128E+03  0.10100000352E+00 0. -1.
    10030    2    1    2    0    0  0.00000000000E+00  0.00000000000E+00  0.38648796947E+03  0.71227265001E+03  0.59829706451E+03 0.  0.
        2    1    3    3  502    0 -0.15496520531E+03  0.21172644039E+03  0.22178025945E+02  0.26331381517E+03  0.25500000920E-02 0. -1.
       -2    1    3    3    0  502  0.15496520531E+03 -0.21172644039E+03  0.36430994353E+03  0.44895883484E+03  0.25500000920E-02 0.  1.
</event>
<event>
 5   0  0.2092587E-02  0.5953325E+03  0.7818609E-02  0.9915137E-01
       -2   -1    0    0    0  501  0.00000000000E+00  0.00000000000E+00  0.71432113835E+03  0.71432113836E+03  0.25500000920E-02 0. -1.
        2   -1    0    0  501    0  0.00000000000E+00  0.00000000000E+00 -0.12404111850E+03  0.12404111853E+03  0.25500000920E-02 0.  1.
    10030    2    1    2    0    0  0.00000000000E+00  0.00000000000E+00  0.59028001985E+03  0.83836225689E+03  0.59533248856E+03 0.  0.
        3    1    3    3  502    0  0.16348211998E+03 -0.14641186512E+03  0.11941933406E+02  0.21978502627E+03  0.10100000352E+00 0.  1.
       -3    1    3    3    0  502 -0.16348211998E+03  0.14641186512E+03  0.57833808644E+03  0.61857723061E+03  0.10100000352E+00 0. -1.
</event>
<event>
 5   0  0.2126207E-02  0.5999960E+03  0.7818609E-02  0.9905414E-01
        2   -1    0    0  501    0  0.00000000000E+00  0.00000000000E+00  0.86522725258E+03  0.86522725259E+03  0.25500000920E-02 0.  1.
       -2   -1    0    0    0  501  0.00000000000E+00  0.00000000000E+00 -0.10401751417E+03  0.10401751420E+03  0.25500000920E-02 0. -1.
    10030    2    1    2    0    0  0.00000000000E+00  0.00000000000E+00  0.76120973841E+03  0.96924476679E+03  0.59999596006E+03 0.  0.
        5    1    3    3  502    0 -0.22457421842E+03  0.10805495933E+02  0.70136359424E+03  0.73653466969E+03  0.46999998093E+01 0.  1.
       -5    1    3    3    0  502  0.22457421842E+03 -0.10805495933E+02  0.59846144169E+02  0.23271009710E+03  0.46999998093E+01 0. -1.
</event>
<event>
 5   0  0.2142838E-02  0.6025981E+03  0.7818609E-02  0.9900031E-01
        2   -1    0    0  501    0  0.00000000000E+00  0.00000000000E+00  0.12855803163E+04  0.12855803163E+04  0.25500000920E-02 0.  1.
       -2   -1    0    0    0  501  0.00000000000E+00  0.00000000000E+00 -0.70614883143E+02  0.70614883189E+02  0.25500000920E-02 0. -1.
    10030    2    1    2    0    0  0.00000000000E+00  0.00000000000E+00  0.12149654332E+04  0.13561951995E+04  0.60259805456E+03 0.  0.
        4    1    3    3  502    0  0.23739464210E+02  0.19443932709E+03  0.92255778912E+02  0.21652472312E+03  0.12699999809E+01 0. -1.
       -4    1    3    3    0  502 -0.23739464210E+02 -0.19443932709E+03  0.11227096543E+04  0.11396704764E+04  0.12699999809E+01 0.  1.
</event>
<event>
 5   0  0.2179625E-02  0.5967626E+03  0.7818609E-02  0.9912145E-01
       -2   -1    0    0    0  501  0.00000000000E+00  0.00000000000E+00  0.22831398129E+03  0.22831398131E+03  0.25500000920E-02 0. -1.
        2   -1    0    0  501    0  0.00000000000E+00  0.00000000000E+00 -0.38995163542E+03  0.38995163543E+03  0.25500000920E-02 0.  1.
    10030    2    1    2    0    0  0.00000000000E+00  0.00000000000E+00 -0.16163765413E+03  0.61826561673E+03  0.59676263422E+03 0.  0.
        1    1    3    3  502    0 -0.64291371811E+02  0.21135684988E+03  0.12697305703E+03  0.25480827247E+03  0.50400001928E-02 0. -1.
       -1    1    3    3    0  502  0.64291371811E+02 -0.21135684988E+03 -0.28861071116E+03  0.36345734427E+03  0.50400001928E-02 0.  1.
</event>
<event>
 5   0  0.1332555E-02  0.6054870E+03  0.7818609E-02  0.9894087E-01
       -1   -1    0    0    0  501  0.00000000000E+00  0.00000000000E+00  0.14938298190E+03  0.14938298199E+03  0.50400001928E-02 0.  1.
        1   -1    0    0  501    0  0.00000000000E+00  0.00000000000E+00 -0.61354803112E+03  0.61354803114E+03  0.50400001928E-02 0. -1.
    10030    2    1    2    0    0  0.00000000000E+00  0.00000000000E+00 -0.46416504922E+03  0.76293101313E+03  0.60548702536E+03 0.  0.
        2    1    3    3  502    0  0.12946166136E+03  0.19083183890E+03  0.15077558063E+02  0.23109401823E+03  0.25500000920E-02 0.  1.
       -2    1    3    3    0  502 -0.12946166136E+03 -0.19083183890E+03 -0.47924260728E+03  0.53183699489E+03  0.25500000920E-02 0. -1.
</event>
<event>
 5   0  0.1250390E-02  0.5979909E+03  0.7818609E-02  0.9909583E-01
        1   -1    0    0  501    0  0.00000000000E+00  0.00000000000E+00  0.33915792386E+03  0.33915792389E+03  0.50400001928E-02 0.  1.
       -1   -1    0    0    0  501  0.00000000000E+00  0.00000000000E+00 -0.26358897585E+03  0.26358897590E+03  0.50400001928E-02 0. -1.
    10030    2    1    2    0    0  0.00000000000E+00  0.00000000000E+00  0.75568948009E+02  0.60274689979E+03  0.59799093580E+03 0.  0.
        3    1    3    3  502    0  0.65063469361E+02  0.26947801367E+03  0.15068704672E+03  0.31552852668E+03  0.10100000352E+00 0.  1.
       -3    1    3    3    0  502 -0.65063469361E+02 -0.26947801367E+03 -0.75118098706E+02  0.28721837311E+03  0.10100000352E+00 0. -1.
</event>
<event>
 5   0  0.8551000E-03  0.5994786E+03  0.7818609E-02  0.9906488E-01
        3   -1    0    0  501    0  0.00000000000E+00  0.00000000000E+00  0.10055602842E+04  0.10055602893E+04  0.10100000352E+00 0. -1.
       -3   -1    0    0    0  501  0.00000000000E+00  0.00000000000E+00 -0.89346833103E+02  0.89346890189E+02  0.10100000352E+00 0.  1.
    10030    2    1    2    0    0  0.00000000000E+00  0.00000000000E+00  0.91621345114E+03  0.10949071795E+04  0.59947864322E+03 0.  0.
        1    1    3    3  502    0  0.27012532108E+03  0.58630631643E+02  0.24637901253E+03  0.37028078251E+03  0.50400001928E-02 0.  1.
       -1    1    3    3    0  502 -0.27012532108E+03 -0.58630631643E+02  0.66983443861E+03  0.72462639700E+03  0.50400001928E-02 0. -1.
</event>
<event>
 5   0  0.2092587E-02  0.6038716E+03  0.7818609E-02  0.9897406E-01
       -2   -1    0    0    0  501  0.00000000000E+00  0.00000000000E+00  0.41790544503E+02  0.41790544581E+02  0.25500000920E-02 0.  1.
        2   -1    0    0  501    0  0.00000000000E+00  0.00000000000E+00 -0.21814798875E+04  0.21814798875E+04  0.25500000920E-02 0. -1.
    10030    2    1    2    0    0  0.00000000000E+00  0.00000000000E+00 -0.21396893430E+04  0.22232704321E+04  0.60387161685E+03 0.  0.
        3    1    3    3  502    0  0.46967341141E+02 -0.21732958919E+03 -0.31777688275E+03  0.38784048124E+03  0.10100000352E+00 0.  1.
       -3    1    3    3    0  502 -0.46967341141E+02  0.21732958919E+03 -0.18219124603E+04  0.18354299509E+04  0.10100000352E+00 0. -1.
</event>
<event>
 5   0  0.2092587E-02  0.5979664E+03  0.7818609E-02  0.9909634E-01
       -2   -1    0    0    0  501  0.00000000000E+00  0.00000000000E+00  0.19757838025E+03  0.19757838027E+03  0.25500000920E-02 0. -1.
        2   -1    0    0  501    0  0.00000000000E+00  0.00000000000E+00 -0.45243284251E+03  0.45243284252E+03  0.25500000920E-02 0.  1.
    10030    2    1    2    0    0  0.00000000000E+00  0.00000000000E+00 -0.25485446227E+03  0.65001122279E+03  0.59796638101E+03 0.  0.
        3    1    3    3  502    0  0.11527406464E+03 -0.13432183820E+03 -0.38935670325E+03  0.42770213789E+03  0.10100000352E+00 0.  1.
       -3    1    3    3    0  502 -0.11527406464E+03  0.13432183820E+03  0.13450224098E+03  0.22230908489E+03  0.10100000352E+00 0. -1.
</event>
<event>
 5   0  0.1332555E-02  0.6056121E+03  0.7818609E-02  0.9893831E-01
       -1   -1    0    0    0  501  0.00000000000E+00  0.00000000000E+00  0.48022194316E+03  0.48022194318E+03  0.50400001928E-02 0.  1.
        1   -1    0    0  501    0  0.00000000000E+00  0.00000000000E+00 -0.19093565423E+03  0.19093565430E+03  0.50400001928E-02 0. -1.
    10030    2    1    2    0    0  0.00000000000E+00  0.00000000000E+00  0.28928628893E+03  0.67115759748E+03  0.60561205709E+03 0.  0.
        2    1    3    3  502    0 -0.73736876582E+02  0.13868644159E+03 -0.14225888383E+03  0.21191660172E+03  0.25500000920E-02 0. -1.
       -2    1    3    3    0  502  0.73736876582E+02 -0.13868644159E+03  0.43154517276E+03  0.45924099576E+03  0.25500000920E-02 0.  1.
</event>
<event>
 5   0  0.1276705E-02  0.5984313E+03  0.7818609E-02  0.9908666E-01
        1   -1    0    0  501    0  0.00000000000E+00  0.00000000000E+00  0.81607586323E+02  0.81607586478E+02  0.50400001928E-02 0.  1.
       -1   -1    0    0    0  501  0.00000000000E+00  0.00000000000E+00 -0.10970792918E+04  0.10970792918E+04  0.50400001928E-02 0. -1.
    10030    2    1    2    0    0  0.00000000000E+00  0.00000000000E+00 -0.10154717054E+04  0.11786868782E+04  0.59843125956E+03 0.  0.
        1    1    3    3  502    0 -0.21054416352E+03 -0.15424685406E+03 -0.21954317669E+03  0.34105738994E+03  0.50400001928E-02 0. -1.
       -1    1    3    3    0  502  0.21054416352E+03  0.15424685406E+03 -0.79592852875E+03  0.83762948830E+03  0.50400001928E-02 0.  1.
</event>
<event>
 5   0  0.2126207E-02  0.5990357E+03  0.7818609E-02  0.9907409E-01
       -2   -1    0    0    0  501  0.00000000000E+00  0.00000000000E+00  0.79468705783E+02  0.79468705824E+02  0.25500000920E-02 0. -1.
        2   -1    0    0  501    0  0.00000000000E+00  0.00000000000E+00 -0.11288840363E+04  0.11288840363E+04  0.25500000920E-02 0.  1.
    10030    2    1    2    0    0  0.00000000000E+00  0.00000000000E+00 -0.10494153305E+04  0.12083527421E+04  0.59903573639E+03 0.  0.
        5    1    3    3  502    0 -0.10334597658E+03  0.25820907313E+02  0.39888135340E+02  0.11384315292E+03  0.46999998093E+01 0. -1.
       -5    1    3    3    0  502  0.10334597658E+03 -0.25820907313E+02 -0.10893034658E+04  0.10945095892E+04  0.46999998093E+01 0.  1.
</event>
<event>
 5   0  0.1303808E-02  0.5927961E+03  0.7818609E-02  0.9920466E-01
       -1   -1    0    0    0  501  0.00000000000E+00  0.00000000000E+00  0.11332695133E+03  0.11332695144E+03  0.50400001928E-02 0.  1.
        1   -1    0    0  501    0  0.00000000000E+00  0.00000000000E+00 -0.77520662160E+03  0.77520662161E+03  0.50400001928E-02 0. -1.
    10030    2    1    2    0    0  0.00000000000E+00  0.00000000000E+00 -0.66187967027E+03  0.88853357305E+03  0.59279609693E+03 0.  0.
        4    1    3    3  502    0 -0.19695993181E+03 -0.22027948104E+03 -0.36557433583E+03  0.47006645533E+03  0.12699999809E+01 0. -1.
       -4    1    3    3    0  502  0.19695993181E+03  0.22027948104E+03 -0.29630533443E+03  0.41846711773E+03  0.12699999809E+01 0.  1.
</event>
<event>
 5   0  0.1276705E-02  0.6004254E+03  0.7818609E-02  0.9904524E-01
        1   -1    0    0  501    0  0.00000000000E+00  0.00000000000E+00  0.99347569693E+03  0.99347569694E+03  0.50400001928E-02 0.  1.
       -1   -1    0    0    0  501  0.00000000000E+00  0.00000000000E+00 -0.90719558921E+02  0.90719559061E+02  0.50400001928E-02 0. -1.
    10030    2    1    2    0    0  0.00000000000E+00  0.00000000000E+00  0.90275613800E+03  0.10841952560E+04  0.60042543952E+03 0.  0.
        1    1    3    3  502    0 -0.58235041477E+02 -0.16092119252E+03  0.59827844376E+01  0.17123885071E+03  0.50400001928E-02 0. -1.
       -1    1    3    3    0  502  0.58235041477E+02  0.16092119252E+03  0.89677335357E+03  0.91295640529E+03  0.50400001928E-02 0.  1.
</event>
<event>
 5   0  0.2142838E-02  0.6034617E+03  0.7818609E-02  0.9898250E-01
       -2   -1    0    0    0  501  0.00000000000E+00  0.00000000000E+00  0.10254154015E+03  0.10254154018E+03  0.25500000920E-02 0. -1.
        2   -1    0    0  501    0  0.00000000000E+00  0.00000000000E+00 -0.88785001063E+03  0.88785001063E+03  0.25500000920E-02 0.  1.
    10030    2    1    2    0    0  0.00000000000E+00  0.00000000000E+00 -0.78530847048E+03  0.99039155081E+03  0.60346170559E+03 0.  0.
        4    1    3    3  502    0  0.16083689972E+03 -0.21484446783E+03 -0.61895461711E+03  0.67463551983E+03  0.12699999809E+01 0.  1.
       -4    1    3    3    0  502 -0.16083689972E+03  0.21484446783E+03 -0.16635385337E+03  0.31575603098E+03  0.12699999809E+01 0. -1.
</event>
<event>
 5   0  0.1276705E-02  0.5998099E+03  0.7818609E-02  0.9905801E-01
        1   -1    0    0  501    0  0.00000000000E+00  0.00000000000E+00  0.77348437701E+03  0.77348437703E+03  0.50400001928E-02 0.  1.
       -1   -1    0    0    0  501  0.00000000000E+00  0.00000000000E+00 -0.11628286357E+03  0.11628286368E+03  0.50400001928E-02 0. -1.
    10030    2    1    2    0    0  0.00000000000E+00  0.00000000000E+00  0.65720151344E+03  0.88976724071E+03  0.59980989770E+03 0.  0.
        1    1    3    3  502    0  0.29234377434E+03 -0.55158042409E+02  0.27239347801E+03  0.40336769692E+03  0.50400001928E-02 0.  1.
       -1    1    3    3    0  502 -0.29234377434E+03  0.55158042409E+02  0.38480803543E+03  0.48639954378E+03  0.50400001928E-02 0. -1.
</event>
<event>
 5   0  0.1276705E-02  0.6006421E+03  0.7818609E-02  0.9904075E-01
       -1   -1    0    0    0  501  0.00000000000E+00  0.00000000000E+00  0.83642224423E+02  0.83642224575E+02  0.50400001928E-02 0.  1.
        1   -1    0    0  501    0  0.00000000000E+00  0.00000000000E+00 -0.10783157148E+04  0.10783157148E+04  0.50400001928E-02 0. -1.
    10030    2    1    2    0    0  0.00000000000E+00  0.00000000000E+00 -0.99467349033E+03  0.11619579393E+04  0.60064207348E+03 0.  0.
        1    1    3    3  502    0 -0.11328823320E+03 -0.26933709340E+03 -0.63158829664E+03  0.69590262979E+03  0.50400001928E-02 0. -1.
       -1    1    3    3    0  502  0.11328823320E+03  0.26933709340E+03 -0.36308519369E+03  0.46605530956E+03  0.50400001928E-02 0.  1.
</event>
<event>
 5   0  0.1276705E-02  0.6056546E+03  0.7818609E-02  0.9893743E-01
       -1   -1    0    0    0  501  0.00000000000E+00  0.00000000000E+00  0.26769647111E+03  0.26769647116E+03  0.50400001928E-02 0.  1.
        1   -1    0    0  501    0  0.00000000000E+00  0.00000000000E+00 -0.34256851299E+03  0.34256851303E+03  0.50400001928E-02 0. -1.
    10030    2    1    2    0    0  0.00000000000E+00  0.00000000000E+00 -0.74872041883E+02  0.61026498418E+03  0.60565462787E+03 0.  0.
        1    1    3    3  502    0  0.14959734686E+02 -0.29654995470E+03  0.22503886337E+02  0.29777859933E+03  0.50400001928E-02 0.  1.
       -1    1    3    3    0  502 -0.14959734686E+02  0.29654995470E+03 -0.97375928220E+02  0.31248638485E+03  0.50400001928E-02 0. -1.
</event>
<event>
 5   0  0.1337051E-02  0.5989222E+03  0.7818609E-02  0.9907645E-01
       -1   -1    0    0    0  501  0.00000000000E+00  0.00000000000E+00  0.57655610305E+02  0.57655610525E+02  0.50400001928E-02 0.  1.
        1   -1    0    0  501    0  0.00000000000E+00  0.00000000000E+00 -0.15553899505E+04  0.15553899505E+04  0.50400001928E-02 0. -1.
    10030    2    1    2    0    0  0.00000000000E+00  0.00000000000E+00 -0.14977343402E+04  0.16130455611E+04  0.59892222214E+03 0.  0.
        5    1    3    3  502    0 -0.19247431698E+03  0.20112613671E+03 -0.45191567773E+03  0.53079935507E+03  0.46999998093E+01 0.  1.
       -5    1    3    3    0  502  0.19247431698E+03 -0.20112613671E+03 -0.10458186625E+04  0.10822462060E+04  0.46999998093E+01 0. -1.
</event>
<event>
 5   0  0.1250390E-02  0.5903715E+03  0.7818609E-02  0.9925586E-01
        1   -1    0    0  501    0  0.00000000000E+00  0.00000000000E+00  0.10263019017E+04  0.10263019017E+04  0.50400001928E-02 0.  1.
       -1   -1    0    0    0  501  0.00000000000E+00  0.00000000000E+00 -0.84901556396E+02  0.84901556546E+02  0.50400001928E-02 0. -1.
    10030    2    1    2    0    0  0.00000000000E+00  0.00000000000E+00  0.94140034528E+03  0.11112034582E+04  0.59037150634E+03 0.  0.
        3    1    3    3  502    0  0.23313496087E+03 -0.18458140320E+02  0.13168272940E+03  0.26838957571E+03  0.10100000352E+00 0.  1.
       -3    1    3    3    0  502 -0.23313496087E+03  0.18458140320E+02  0.80971761588E+03  0.84281388253E+03  0.10100000352E+00 0. -1.
</event>
<event>
 5   0  0.1332555E-02  0.5990388E+03  0.7818609E-02  0.9907402E-01
       -1   -1    0    0    0  501  0.00000000000E+00  0.00000000000E+00  0.60277686788E+03  0.60277686790E+03  0.50400001928E-02 0. -1.
        1   -1    0    0  501    0  0.00000000000E+00  0.00000000000E+00 -0.14883099811E+03  0.14883099820E+03  0.50400001928E-02 0.  1.
    10030    2    1    2    0    0  0.00000000000E+00  0.00000000000E+00  0.45394586977E+03  0.75160786610E+03  0.59903883990E+03 0.  0.
        2    1    3    3  502    0 -0.74918186789E+02 -0.16711061985E+03 -0.70399613535E+02  0.19620091634E+03  0.25500000920E-02 0.  1.
       -2    1    3    3    0  502  0.74918186789E+02  0.16711061985E+03  0.52434548330E+03  0.55540694976E+03  0.25500000920E-02 0. -1.
</event>
<event>
 5   0  0.1332555E-02  0.5993626E+03  0.7818609E-02  0.9906729E-01
        1   -1    0    0  501    0  0.00000000000E+00  0.00000000000E+00  0.51889235358E+03  0.51889235360E+03  0.50400001928E-02 0.  1.
       -1   -1    0    0    0  501  0.00000000000E+00  0.00000000000E+00 -0.17307804735E+03  0.17307804742E+03  0.50400001928E-02 0. -1.
    10030    2    1    2    0    0  0.00000000000E+00  0.00000000000E+00  0.34581430623E+03  0.69197040102E+03  0.59936257933E+03 0.  0.
        2    1    3    3  502    0 -0.60562503842E+02 -0.14922609538E+03 -0.11887269641E+03  0.20016733593E+03  0.25500000920E-02 0. -1.
       -2    1    3    3    0  502  0.60562503842E+02  0.14922609538E+03  0.46468700264E+03  0.49180306510E+03  0.25500000920E-02 0.  1.
</event>
<event>
 5   0  0.1332555E-02  0.6291500E+03  0.7818609E-02  0.9846709E-01
        1   -1    0    0  501    0  0.00000000000E+00  0.00000000000E+00  0.10603982080E+03  0.10603982092E+03  0.50400001928E-02 0.  1.
       -1   -1    0    0    0  501  0.00000000000E+00  0.00000000000E+00 -0.93321005086E+03  0.93321005088E+03  0.50400001928E-02 0. -1.
    10030    2    1    2    0    0  0.00000000000E+00  0.00000000000E+00 -0.82717023007E+03  0.10392498718E+04  0.62914998729E+03 0.  0.
        2    1    3    3  502    0  0.24616794798E+03 -0.87179896385E+02 -0.12388551514E+03  0.28904431116E+03  0.25500000920E-02 0. -1.
       -2    1    3    3    0  502 -0.24616794798E+03  0.87179896385E+02 -0.70328471493E+03  0.75020556063E+03  0.25500000920E-02 0.  1.
</event>
<event>
 5   0  0.2126207E-02  0.6015201E+03  0.7818609E-02  0.9902257E-01
        2   -1    0    0  501    0  0.00000000000E+00  0.00000000000E+00  0.35696425678E+03  0.35696425679E+03  0.25500000920E-02 0.  1.
       -2   -1    0    0    0  501  0.00000000000E+00  0.00000000000E+00 -0.25340524862E+03  0.25340524863E+03  0.25500000920E-02 0. -1.
    10030    2    1    2    0    0  0.00000000000E+00  0.00000000000E+00  0.10355900816E+03  0.61036950542E+03  0.60152012849E+03 0.  0.
        5    1    3    3  502    0  0.16928581583E+03 -0.98815997528E+02  0.28319659581E+03  0.34444838610E+03  0.46999998093E+01 0.  1.
       -5    1    3    3    0  502 -0.16928581583E+03  0.98815997528E+02 -0.17963758765E+03  0.26592111933E+03  0.46999998093E+01 0. -1.
</event>
<event>
 5   0  0.1276705E-02  0.6000887E+03  0.7818609E-02  0.9905222E-01
        1   -1    0    0  501    0  0.00000000000E+00  0.00000000000E+00  0.41344799941E+03  0.41344799944E+03  0.50400001928E-02 0. -1.
       -1   -1    0    0    0  501  0.00000000000E+00  0.00000000000E+00 -0.21774590836E+03  0.21774590842E+03  0.50400001928E-02 0.  1.
    10030    2    1    2    0    0  0.00000000000E+00  0.00000000000E+00  0.19570209105E+03  0.63119390786E+03  0.60008869417E+03 0.  0.
        1    1    3    3  502    0  0.69461431531E+02  0.15089611530E+03  0.36066672007E+03  0.39708312867E+03  0.50400001928E-02 0. -1.
       -1    1    3    3    0  502 -0.69461431531E+02 -0.15089611530E+03 -0.16496462901E+03  0.23411077919E+03  0.50400001928E-02 0.  1.
</event>
<event>
 5   0  0.1337051E-02  0.6006627E+03  0.7818609E-02  0.9904032E-01
        1   -1    0    0  501    0  0.00000000000E+00  0.00000000000E+00  0.18745803778E+03  0.18745803784E+03  0.50400001928E-02 0.  1.
       -1   -1    0    0    0  501  0.00000000000E+00  0.00000000000E+00 -0.48116866568E+03  0.48116866571E+03  0.50400001928E-02 0. -1.
    10030    2    1    2    0    0  0.00000000000E+00  0.00000000000E+00 -0.29371062790E+03  0.66862670355E+03  0.60066274710E+03 0.  0.
        5    1    3    3  502    0  0.34516209369E+01  0.42641157688E+02 -0.47771822907E+03  0.47965297706E+03  0.46999998093E+01 0. -1.
       -5    1    3    3    0  502 -0.34516209369E+01 -0.42641157688E+02  0.18400760117E+03  0.18897372649E+03  0.46999998093E+01 0.  1.
</event>
<event>
 5   0  0.2092587E-02  0.5999371E+03  0.7818609E-02  0.9905537E-01
        2   -1    0    0  501    0  0.00000000000E+00  0.00000000000E+00  0.69305924844E+03  0.69305924845E+03  0.25500000920E-02 0.  1.
       -2   -1    0    0    0  501  0.00000000000E+00  0.00000000000E+00 -0.12983179073E+03  0.12983179075E+03  0.25500000920E-02 0. -1.
    10030    2    1    2    0    0  0.00000000000E+00  0.00000000000E+00  0.56322745771E+03  0.82289103920E+03  0.59993707443E+03 0.  0.
        3    1    3    3  502    0  0.10144542756E+03 -0.29945303041E+02 -0.10340428457E+03  0.14792008726E+03  0.10100000352E+00 0. -1.
       -3    1    3    3    0  502 -0.10144542756E+03  0.29945303041E+02  0.66663174228E+03  0.67497095194E+03  0.10100000352E+00 0.  1.
</event>
<event>
 5   0  0.1303808E-02  0.5966271E+03  0.7818609E-02  0.9912429E-01
       -1   -1    0    0    0  501  0.00000000000E+00  0.00000000000E+00  0.89565814950E+02  0.89565815092E+02  0.50400001928E-02 0. -1.
        1   -1    0    0  501    0  0.00000000000E+00  0.00000000000E+00 -0.99358187934E+03  0.99358187935E+03  0.50400001928E-02 0.  1.
    10030    2    1    2    0    0  0.00000000000E+00  0.00000000000E+00 -0.90401606439E+03  0.10831476944E+04  0.59662708898E+03 0.  0.
        4    1    3    3  502    0  0.11918187796E+03 -0.27316897169E+03 -0.42877657639E+03  0.52218442382E+03  0.12699999809E+01 0. -1.
       -4    1    3    3    0  502 -0.11918187796E+03  0.27316897169E+03 -0.47523948800E+03  0.56096327062E+03  0.12699999809E+01 0.  1.
</event>
<event>
 5   0  0.2142838E-02  0.5985229E+03  0.7818609E-02  0.9908475E-01
        2   -1    0    0  501    0  0.00000000000E+00  0.00000000000E+00  0.32815193599E+03  0.32815193600E+03  0.25500000920E-02 0. -1.
       -2   -1    0    0    0  501  0.00000000000E+00  0.00000000000E+00 -0.27291452300E+03  0.27291452301E+03  0.25500000920E-02 0.  1.
    10030    2    1    2    0    0  0.00000000000E+00  0.00000000000E+00  0.55237412995E+02  0.60106645901E+03  0.59852294556E+03 0.  0.
        4    1    3    3  502    0  0.91137680884E+02  0.57038307542E+02 -0.25284643220E+03  0.27475876070E+03  0.12699999809E+01 0.  1.
       -4    1    3    3    0  502 -0.91137680884E+02 -0.57038307542E+02  0.30808384520E+03  0.32630769831E+03  0.12699999809E+01 0. -1.
</event>
<event>
 5   0  0.2179625E-02  0.6007830E+03  0.7818609E-02  0.9903783E-01
       -2   -1    0    0    0  501  0.00000000000E+00  0.00000000000E+00  0.96225216015E+02  0.96225216049E+02  0.25500000920E-02 0. -1.
        2   -1    0    0  501    0  0.00000000000E+00  0.00000000000E+00 -0.93774863882E+03  0.93774863882E+03  0.25500000920E-02 0.  1.
    10030    2    1    2    0    0  0.00000000000E+00  0.00000000000E+00 -0.84152342280E+03  0.10339738549E+04  0.60078304023E+03 0.  0.
        1    1    3    3  502    0  0.22171757897E+03 -0.11882698522E+03 -0.70333029256E+03  0.74696187165E+03  0.50400001928E-02 0.  1.
       -1    1    3    3    0  502 -0.22171757897E+03  0.11882698522E+03 -0.13819313024E+03  0.28701198322E+03  0.50400001928E-02 0. -1.
</event>
<event>
 5   0  0.1250390E-02  0.5984661E+03  0.7818609E-02  0.9908594E-01
        1   -1    0    0  501    0  0.00000000000E+00  0.00000000000E+00  0.14069825639E+03  0.14069825648E+03  0.50400001928E-02 0.  1.
       -1   -1    0    0    0  501  0.00000000000E+00  0.00000000000E+00 -0.63640026238E+03  0.63640026240E+03  0.50400001928E-02 0. -1.
    10030    2    1    2    0    0  0.00000000000E+00  0.00000000000E+00 -0.49570200599E+03  0.77709851888E+03  0.59846606362E+03 0.  0.
        3    1    3    3  502    0  0.21319103993E+03  0.19179921305E+02 -0.51936179726E+03  0.56174280195E+03  0.10100000352E+00 0. -1.
       -3    1    3    3    0  502 -0.21319103993E+03 -0.19179921305E+02  0.23659791278E+02  0.21535571693E+03  0.10100000352E+00 0.  1.
</event>
<event>
 5   0  0.2092587E-02  0.5999175E+03  0.7818609E-02  0.9905577E-01
       -2   -1    0    0    0  501  0.00000000000E+00  0.00000000000E+00  0.16449829564E+03  0.16449829566E+03  0.25500000920E-02 0. -1.
        2   -1    0    0  501    0  0.00000000000E+00  0.00000000000E+00 -0.54696760565E+03  0.54696760566E+03  0.25500000920E-02 0.  1.
    10030    2    1    2    0    0  0.00000000000E+00  0.00000000000E+00 -0.38246931001E+03  0.71146590132E+03  0.59991745736E+03 0.  0.
        3    1    3    3  502    0 -0.18280701049E+03  0.13280698259E+03 -0.42519602606E+03  0.48150573048E+03  0.10100000352E+00 0.  1.
       -3    1    3    3    0  502  0.18280701049E+03 -0.13280698259E+03  0.42726716048E+02  0.22996017084E+03  0.10100000352E+00 0. -1.
</event>
<event>
 5   0  0.1303808E-02  0.5997481E+03  0.7818609E-02  0.9905929E-01
        1   -1    0    0  501    0  0.00000000000E+00  0.00000000000E+00  0.14380558999E+03  0.14380559008E+03  0.50400001928E-02 0.  1.
       -1   -1    0    0    0  501  0.00000000000E+00  0.00000000000E+00 -0.62531961778E+03  0.62531961781E+03  0.50400001928E-02 0. -1.
    10030    2    1    2    0    0  0.00000000000E+00  0.00000000000E+00 -0.48151402779E+03  0.76912520789E+03  0.59974813584E+03 0.  0.
        4    1    3    3  502    0 -0.48032444877E+02 -0.93247420984E+01  0.13864843974E+03  0.14703424540E+03  0.12699999809E+01 0.  1.
       -4    1    3    3    0  502  0.48032444877E+02  0.93247420984E+01 -0.62016246753E+03  0.62209096249E+03  0.12699999809E+01 0. -1.
</event>
<event>
 5   0  0.2141800E-02  0.5981500E+03  0.7818609E-02  0.9909252E-01
       -2   -1    0    0    0  501  0.00000000000E+00  0.00000000000E+00  0.62506872265E+02  0.62506872317E+02  0.25500000920E-02 0.  1.
        2   -1    0    0  501    0  0.00000000000E+00  0.00000000000E+00 -0.14309762511E+04  0.14309762511E+04  0.25500000920E-02 0. -1.
    10030    2    1    2    0    0  0.00000000000E+00  0.00000000000E+00 -0.13684693789E+04  0.14934831235E+04  0.59814998047E+03 0.  0.
        2    1    3    3  502    0 -0.23213720115E+01  0.91546307866E+02  0.26639612893E+02  0.95371820962E+02  0.25500000920E-02 0.  1.
       -2    1    3    3    0  502  0.23213720115E+01 -0.91546307866E+02 -0.13951089918E+04  0.13981113025E+04  0.25500000920E-02 0. -1.
</event>
<event>
 5   0  0.1303808E-02  0.5998757E+03  0.7818609E-02  0.9905664E-01
       -1   -1    0    0    0  501  0.00000000000E+00  0.00000000000E+00  0.74822948109E+02  0.74822948279E+02  0.50400001928E-02 0. -1.
        1   -1    0    0  501    0  0.00000000000E+00  0.00000000000E+00 -0.12023411517E+04  0.12023411517E+04  0.50400001928E-02 0.  1.
    10030    2    1    2    0    0  0.00000000000E+00  0.00000000000E+00 -0.11275182035E+04  0.12771640999E+04  0.59987568617E+03 0.  0.
        4    1    3    3  502    0  0.96831436793E+02  0.19782983508E+03 -0.99720798914E+03  0.10212435348E+04  0.12699999809E+01 0.  1.
       -4    1    3    3    0  502 -0.96831436793E+02 -0.19782983508E+03 -0.13031021440E+03  0.25592056517E+03  0.12699999809E+01 0. -1.
</event>
<event>
 5   0  0.1303808E-02  0.5993758E+03  0.7818609E-02  0.9906702E-01
       -1   -1    0    0    0  501  0.00000000000E+00  0.00000000000E+00  0.14104444602E+03  0.14104444611E+03  0.50400001928E-02 0. -1.
        1   -1    0    0  501    0  0.00000000000E+00  0.00000000000E+00 -0.63676976851E+03  0.63676976853E+03  0.50400001928E-02 0.  1.
    10030    2    1    2    0    0  0.00000000000E+00  0.00000000000E+00 -0.49572532250E+03  0.77781421464E+03  0.59937580627E+03 0.  0.
        4    1    3    3  502    0 -0.76367205196E+02  0.69675810836E+02 -0.61289581849E+03  0.62155415361E+03  0.12699999809E+01 0.  1.
       -4    1    3    3    0  502  0.76367205196E+02 -0.69675810836E+02  0.11717049599E+03  0.15626006104E+03  0.12699999809E+01 0. -1.
</event>
<event>
 5   0  0.1332555E-02  0.6006748E+03  0.7818609E-02  0.9904007E-01
       -1   -1    0    0    0  501  0.00000000000E+00  0.00000000000E+00  0.10295798383E+03  0.10295798396E+03  0.50400001928E-02 0. -1.
        1   -1    0    0  501    0  0.00000000000E+00  0.00000000000E+00 -0.87611035115E+03  0.87611035117E+03  0.50400001928E-02 0.  1.
    10030    2    1    2    0    0  0.00000000000E+00  0.00000000000E+00 -0.77315236732E+03  0.97906833512E+03  0.60067480532E+03 0.  0.
        2    1    3    3  502    0 -0.10737400698E+03 -0.17732896800E+03 -0.74079572473E+03  0.76925486417E+03  0.25500000920E-02 0.  1.
       -2    1    3    3    0  502  0.10737400698E+03  0.17732896800E+03 -0.32356642591E+02  0.20981347095E+03  0.25500000920E-02 0. -1.
</event>
<event>
 5   0  0.2141800E-02  0.5981779E+03  0.7818609E-02  0.9909194E-01
        2   -1    0    0  501    0  0.00000000000E+00  0.00000000000E+00  0.11012188401E+04  0.11012188401E+04  0.25500000920E-02 0.  1.
       -2   -1    0    0    0  501  0.00000000000E+00  0.00000000000E+00 -0.81231979051E+02  0.81231979091E+02  0.25500000920E-02 0. -1.
    10030    2    1    2    0    0  0.00000000000E+00  0.00000000000E+00  0.10199868610E+04  0.11824508192E+04  0.59817785240E+03 0.  0.
        2    1    3    3  502    0  0.16299097048E+02  0.29509121940E+03  0.41919823983E+03  0.51290511073E+03  0.25500000920E-02 0.  1.
       -2    1    3    3    0  502 -0.16299097048E+02 -0.29509121940E+03  0.60078862121E+03  0.66954570846E+03  0.25500000920E-02 0. -1.
</event>
<event>
 5   0  0.2179625E-02  0.6003325E+03  0.7818609E-02  0.9904717E-01
        2   -1    0    0  501    0  0.00000000000E+00  0.00000000000E+00  0.68342345331E+03  0.68342345331E+03  0.25500000920E-02 0.  1.
       -2   -1    0    0    0  501  0.00000000000E+00  0.00000000000E+00 -0.13183593285E+03  0.13183593287E+03  0.25500000920E-02 0. -1.
    10030    2    1    2    0    0  0.00000000000E+00  0.00000000000E+00  0.55158752046E+03  0.81525938619E+03  0.60033246959E+03 0.  0.
        1    1    3    3  502    0 -0.25501914920E+03  0.15521699937E+03  0.23344018144E+03  0.37897414383E+03  0.50400001928E-02 0. -1.
       -1    1    3    3    0  502  0.25501914920E+03 -0.15521699937E+03  0.31814733901E+03  0.43628524236E+03  0.50400001928E-02 0.  1.
</event>
<event>
 5   0  0.8551000E-03  0.5909614E+03  0.7818609E-02  0.9924338E-01
       -4   -1    0    0    0  501  0.00000000000E+00  0.00000000000E+00  0.10110827278E+04  0.10110835254E+04  0.12699999809E+01 0.  1.
        4   -1    0    0  501    0  0.00000000000E+00  0.00000000000E+00 -0.86346317480E+02  0.86355656690E+02  0.12699999809E+01 0. -1.
    10030    2    1    2    0    0  0.00000000000E+00  0.00000000000E+00  0.92473641034E+03  0.10974391821E+04  0.59096136070E+03 0.  0.
        2    1    3    3  502    0  0.18508146711E+03  0.18336923386E+03  0.72121998140E+03  0.76683615393E+03  0.25500000920E-02 0.  1.
       -2    1    3    3    0  502 -0.18508146711E+03 -0.18336923386E+03  0.20351642894E+03  0.33060302819E+03  0.25500000920E-02 0. -1.
</event>
<event>
 5   0  0.2179625E-02  0.6000307E+03  0.7818609E-02  0.9905342E-01
       -2   -1    0    0    0  501  0.00000000000E+00  0.00000000000E+00  0.23454420835E+03  0.23454420836E+03  0.25500000920E-02 0.  1.
        2   -1    0    0  501    0  0.00000000000E+00  0.00000000000E+00 -0.38376226328E+03  0.38376226329E+03  0.25500000920E-02 0. -1.
    10030    2    1    2    0    0  0.00000000000E+00  0.00000000000E+00 -0.14921805493E+03  0.61830647165E+03  0.60003072002E+03 0.  0.
        1    1    3    3  502    0  0.10957694915E+03  0.24854690235E+03 -0.20587233581E+03  0.34083146734E+03  0.50400001928E-02 0. -1.
       -1    1    3    3    0  502 -0.10957694915E+03 -0.24854690235E+03  0.56654280879E+02  0.27747500431E+03  0.50400001928E-02 0.  1.
</event>
<event>
 5   0  0.1276705E-02  0.5997296E+03  0.7818609E-02  0.9905967E-01
       -1   -1    0    0    0  501  0.00000000000E+00  0.00000000000E+00  0.30077533508E+03  0.30077533512E+03  0.50400001928E-02 0.  1.
        1   -1    0    0  501    0  0.00000000000E+00  0.00000000000E+00 -0.29895698511E+03  0.29895698516E+03  0.50400001928E-02 0. -1.
    10030    2    1    2    0    0  0.00000000000E+00  0.00000000000E+00  0.18183499612E+01  0.59973232027E+03  0.59972956371E+03 0.  0.
        1    1    3    3  502    0 -0.30545063554E+02  0.18845008394E+03 -0.23033300085E+03  0.29916504868E+03  0.50400001928E-02 0. -1.
       -1    1    3    3    0  502  0.30545063554E+02 -0.18845008394E+03  0.23215135081E+03  0.30056727159E+03  0.50400001928E-02 0.  1.
</event>
<event>
 5   0  0.2126207E-02  0.6037216E+03  0.7818609E-02  0.9897715E-01
        2   -1    0    0  501    0  0.00000000000E+00  0.00000000000E+00  0.50205520751E+03  0.50205520752E+03  0.25500000920E-02 0. -1.
       -2   -1    0    0    0  501  0.00000000000E+00  0.00000000000E+00 -0.18149389915E+03  0.18149389916E+03  0.25500000920E-02 0.  1.
    10030    2    1    2    0    0  0.00000000000E+00  0.00000000000E+00  0.32056130836E+03  0.68354910668E+03  0.60372164847E+03 0.  0.
        5    1    3    3  502    0  0.20599036930E+03 -0.90069442362E+02  0.38828663256E+03  0.44870161100E+03  0.46999998093E+01 0. -1.
       -5    1    3    3    0  502 -0.20599036930E+03  0.90069442362E+02 -0.67725324198E+02  0.23484749568E+03  0.46999998093E+01 0.  1.
</event>
<event>
 5   0  0.8551000E-03  0.6022858E+03  0.7818609E-02  0.9900675E-01
       -3   -1    0    0    0  501  0.00000000000E+00  0.00000000000E+00  0.97417012930E+02  0.97417065288E+02  0.10100000352E+00 0.  1.
        3   -1    0    0  501    0  0.00000000000E+00  0.00000000000E+00 -0.93091560507E+03  0.93091561055E+03  0.10100000352E+00 0. -1.
    10030    2    1    2    0    0  0.00000000000E+00  0.00000000000E+00 -0.83349859214E+03  0.10283326758E+04  0.60228580350E+03 0.  0.
        2    1    3    3  502    0  0.29593833695E+03 -0.20522677234E+02 -0.50524327828E+03  0.58589371887E+03  0.25500000920E-02 0. -1.
       -2    1    3    3    0  502 -0.29593833695E+03  0.20522677234E+02 -0.32825531387E+03  0.44243895697E+03  0.25500000920E-02 0.  1.
</event>
<event>
 5   0  0.2142838E-02  0.5993283E+03  0.7818609E-02  0.9906801E-01
       -2   -1    0    0    0  501  0.00000000000E+00  0.00000000000E+00  0.65935175328E+02  0.65935175378E+02  0.25500000920E-02 0. -1.
        2   -1    0    0  501    0  0.00000000000E+00  0.00000000000E+00 -0.13619227517E+04  0.13619227517E+04  0.25500000920E-02 0.  1.
    10030    2    1    2    0    0  0.00000000000E+00  0.00000000000E+00 -0.12959875764E+04  0.14278579271E+04  0.59932834225E+03 0.  0.
        4    1    3    3  502    0 -0.11869514138E+02  0.29929358013E+03 -0.66923219857E+03  0.73320589263E+03  0.12699999809E+01 0.  1.
       -4    1    3    3    0  502  0.11869514138E+02 -0.29929358013E+03 -0.62675537782E+03  0.69465203448E+03  0.12699999809E+01 0. -1.
</event>
<event>
 5   0  0.2142838E-02  0.6014493E+03  0.7818609E-02  0.9902404E-01
        2   -1    0    0  501    0  0.00000000000E+00  0.00000000000E+00  0.10724144903E+04  0.10724144903E+04  0.25500000920E-02 0.  1.
       -2   -1    0    0    0  501  0.00000000000E+00  0.00000000000E+00 -0.84328691505E+02  0.84328691543E+02  0.25500000920E-02 0. -1.
    10030    2    1    2    0    0  0.00000000000E+00  0.00000000000E+00  0.98808579879E+03  0.11567431818E+04  0.60144928545E+03 0.  0.
        4    1    3    3  502    0  0.12394931569E+03 -0.20487737896E+03  0.84392568026E+03  0.87724018374E+03  0.12699999809E+01 0.  1.
       -4    1    3    3    0  502 -0.12394931569E+03  0.20487737896E+03  0.14416011853E+03  0.27950299810E+03  0.12699999809E+01 0. -1.
</event>
<event>
 5   0  0.8551000E-03  0.5978847E+03  0.7818609E-02  0.9909804E-01
        4   -1    0    0  501    0  0.00000000000E+00  0.00000000000E+00  0.86360620869E+03  0.86360714250E+03  0.12699999809E+01 0. -1.
       -4   -1    0    0    0  501  0.00000000000E+00  0.00000000000E+00 -0.10347575702E+03  0.10348355034E+03  0.12699999809E+01 0.  1.
    10030    2    1    2    0    0  0.00000000000E+00  0.00000000000E+00  0.76013045167E+03  0.96709069284E+03  0.59788469175E+03 0.  0.
        5    1    3    3  502    0 -0.26075283926E+03  0.10129242823E+03  0.20970847857E+03  0.34964544210E+03  0.46999998093E+01 0. -1.
       -5    1    3    3    0  502  0.26075283926E+03 -0.10129242823E+03  0.55042197309E+03  0.61744525074E+03  0.46999998093E+01 0.  1.
</event>
<event>
 5   0  0.8551000E-03  0.5930707E+03  0.7818609E-02  0.9919887E-01
        3   -1    0    0  501    0  0.00000000000E+00  0.00000000000E+00  0.23165846488E+03  0.23165848689E+03  0.10100000352E+00 0. -1.
       -3   -1    0    0    0  501  0.00000000000E+00  0.00000000000E+00 -0.37958124866E+03  0.37958126210E+03  0.10100000352E+00 0.  1.
    10030    2    1    2    0    0  0.00000000000E+00  0.00000000000E+00 -0.14792278379E+03  0.61123974899E+03  0.59307072157E+03 0.  0.
        3    1    3    3  502    0  0.25170743531E+02  0.25279931838E+03  0.83669073736E+02  0.26747258888E+03  0.10100000352E+00 0. -1.
       -3    1    3    3    0  502 -0.25170743531E+02 -0.25279931838E+03 -0.23159185752E+03  0.34376716011E+03  0.10100000352E+00 0.  1.
</event>
<event>
 5   0  0.1276705E-02  0.5875283E+03  0.7818609E-02  0.9931624E-01
        1   -1    0    0  501    0  0.00000000000E+00  0.00000000000E+00  0.79432389510E+03  0.79432389512E+03  0.50400001928E-02 0.  1.
       -1   -1    0    0    0  501  0.00000000000E+00  0.00000000000E+00 -0.10864254177E+03  0.10864254188E+03  0.50400001928E-02 0. -1.
    10030    2    1    2    0    0  0.00000000000E+00  0.00000000000E+00  0.68568135334E+03  0.90296643700E+03  0.58752826999E+03 0.  0.
        1    1    3    3  502    0  0.16059216945E+03  0.24564502516E+03  0.32303662485E+03  0.43644470932E+03  0.50400001928E-02 0. -1.
       -1    1    3    3    0  502 -0.16059216945E+03 -0.24564502516E+03  0.36264472849E+03  0.46652172769E+03  0.50400001928E-02 0.  1.
</event>
<event>
 5   0  0.1337051E-02  0.5975056E+03  0.7818609E-02  0.9910595E-01
       -1   -1    0    0    0  501  0.00000000000E+00  0.00000000000E+00  0.81296920428E+03  0.81296920429E+03  0.50400001928E-02 0.  1.
        1   -1    0    0  501    0  0.00000000000E+00  0.00000000000E+00 -0.10978673912E+03  0.10978673923E+03  0.50400001928E-02 0. -1.
    10030    2    1    2    0    0  0.00000000000E+00  0.00000000000E+00  0.70318246516E+03  0.92275594353E+03  0.59750560835E+03 0.  0.
        5    1    3    3  502    0 -0.22111879178E+03  0.18125345291E+03  0.48520012492E+03  0.56319409221E+03  0.46999998093E+01 0.  1.
       -5    1    3    3    0  502  0.22111879178E+03 -0.18125345291E+03  0.21798234023E+03  0.35956185132E+03  0.46999998093E+01 0. -1.
</event>
<event>
 5   0  0.2142838E-02  0.6186480E+03  0.7818609E-02  0.9867455E-01
       -2   -1    0    0    0  501  0.00000000000E+00  0.00000000000E+00  0.12560234139E+03  0.12560234142E+03  0.25500000920E-02 0. -1.
        2   -1    0    0  501    0  0.00000000000E+00  0.00000000000E+00 -0.76177983673E+03  0.76177983673E+03  0.25500000920E-02 0.  1.
    10030    2    1    2    0    0  0.00000000000E+00  0.00000000000E+00 -0.63617749533E+03  0.88738217815E+03  0.61864798111E+03 0.  0.
        4    1    3    3  502    0  0.67773621554E+02  0.14762930111E+03  0.59491083753E+02  0.17299848632E+03  0.12699999809E+01 0. -1.
       -4    1    3    3    0  502 -0.67773621554E+02 -0.14762930111E+03 -0.69566857909E+03  0.71438369183E+03  0.12699999809E+01 0.  1.
</event>
<event>
 5   0  0.2126207E-02  0.5992056E+03  0.7818609E-02  0.9907056E-01
       -2   -1    0    0    0  501  0.00000000000E+00  0.00000000000E+00  0.80496748824E+02  0.80496748864E+02  0.25500000920E-02 0. -1.
        2   -1    0    0  501    0  0.00000000000E+00  0.00000000000E+00 -0.11150990009E+04  0.11150990009E+04  0.25500000920E-02 0.  1.
    10030    2    1    2    0    0  0.00000000000E+00  0.00000000000E+00 -0.10346022521E+04  0.11955957498E+04  0.59920562152E+03 0.  0.
        5    1    3    3  502    0  0.12174894114E+03 -0.10978337199E+03 -0.10175791505E+04  0.10307107310E+04  0.46999998093E+01 0.  1.
       -5    1    3    3    0  502 -0.12174894114E+03  0.10978337199E+03 -0.17023101573E+02  0.16488501878E+03  0.46999998093E+01 0. -1.
</event>
<event>
 5   0  0.2179625E-02  0.6008917E+03  0.7818609E-02  0.9903558E-01
        2   -1    0    0  501    0  0.00000000000E+00  0.00000000000E+00  0.92826994162E+03  0.92826994163E+03  0.25500000920E-02 0. -1.
       -2   -1    0    0    0  501  0.00000000000E+00  0.00000000000E+00 -0.97242947425E+02  0.97242947459E+02  0.25500000920E-02 0.  1.
    10030    2    1    2    0    0  0.00000000000E+00  0.00000000000E+00  0.83102699420E+03  0.10255128891E+04  0.60089168791E+03 0.  0.
        1    1    3    3  502    0  0.23351286005E+03 -0.15554469848E+03  0.59889159524E+03  0.66135735568E+03  0.50400001928E-02 0. -1.
       -1    1    3    3    0  502 -0.23351286005E+03  0.15554469848E+03  0.23213539895E+03  0.36415553340E+03  0.50400001928E-02 0.  1.
</event>
<event>
 5   0  0.2179625E-02  0.5665173E+03  0.7818609E-02  0.9977415E-01
        2   -1    0    0  501    0  0.00000000000E+00  0.00000000000E+00  0.58641872331E+03  0.58641872332E+03  0.25500000920E-02 0. -1.
       -2   -1    0    0    0  501  0.00000000000E+00  0.00000000000E+00 -0.13682280024E+03  0.13682280027E+03  0.25500000920E-02 0.  1.
    10030    2    1    2    0    0  0.00000000000E+00  0.00000000000E+00  0.44959592307E+03  0.72324152359E+03  0.56651726134E+03 0.  0.
        1    1    3    3  502    0 -0.11502910768E+03  0.22588154646E+03  0.38618774129E+03  0.46194711839E+03  0.50400001928E-02 0. -1.
       -1    1    3    3    0  502  0.11502910768E+03 -0.22588154646E+03  0.63408181775E+02  0.26129440519E+03  0.50400001928E-02 0.  1.
</event>
<event>
 5   0  0.1337051E-02  0.5969269E+03  0.7818609E-02  0.9911802E-01
       -1   -1    0    0    0  501  0.00000000000E+00  0.00000000000E+00  0.43385308482E+03  0.43385308485E+03  0.50400001928E-02 0.  1.
        1   -1    0    0  501    0  0.00000000000E+00  0.00000000000E+00 -0.20532395907E+03  0.20532395913E+03  0.50400001928E-02 0. -1.
    10030    2    1    2    0    0  0.00000000000E+00  0.00000000000E+00  0.22852912575E+03  0.63917704398E+03  0.59692690694E+03 0.  0.
        5    1    3    3  502    0  0.20619956851E+02  0.16685759414E+03 -0.14974652756E+03  0.22519491969E+03  0.46999998093E+01 0. -1.
       -5    1    3    3    0  502 -0.20619956851E+02 -0.16685759414E+03  0.37827565331E+03  0.41398212429E+03  0.46999998093E+01 0.  1.
</event>
<event>
 5   0  0.1337051E-02  0.6007089E+03  0.7818609E-02  0.9903937E-01
       -1   -1    0    0    0  501  0.00000000000E+00  0.00000000000E+00  0.99694206653E+03  0.99694206654E+03  0.50400001928E-02 0.  1.
        1   -1    0    0  501    0  0.00000000000E+00  0.00000000000E+00 -0.90489492311E+02  0.90489492451E+02  0.50400001928E-02 0. -1.
    10030    2    1    2    0    0  0.00000000000E+00  0.00000000000E+00  0.90645257422E+03  0.10874315590E+04  0.60070885310E+03 0.  0.
        5    1    3    3  502    0 -0.48788897563E+02  0.24389903316E+03  0.14856862802E+03  0.28976166436E+03  0.46999998093E+01 0. -1.
       -5    1    3    3    0  502  0.48788897563E+02 -0.24389903316E+03  0.75788394620E+03  0.79766989463E+03  0.46999998093E+01 0.  1.
</event>
<event>
 5   0  0.2142838E-02  0.5952563E+03  0.7818609E-02  0.9915297E-01
       -2   -1    0    0    0  501  0.00000000000E+00  0.00000000000E+00  0.44612288592E+02  0.44612288665E+02  0.25500000920E-02 0. -1.
        2   -1    0    0  501    0  0.00000000000E+00  0.00000000000E+00 -0.19856078664E+04  0.19856078664E+04  0.25500000920E-02 0.  1.
    10030    2    1    2    0    0  0.00000000000E+00  0.00000000000E+00 -0.19409955778E+04  0.20302201551E+04  0.59525628512E+03 0.  0.
        4    1    3    3  502    0 -0.44970623155E+02  0.13989489182E+02 -0.19728090089E+04  0.19733714960E+04  0.12699999809E+01 0.  1.
       -4    1    3    3    0  502  0.44970623155E+02 -0.13989489182E+02  0.31813431006E+02  0.56848659147E+02  0.12699999809E+01 0. -1.
</event>
<event>
 5   0  0.1303808E-02  0.6043253E+03  0.7818609E-02  0.9896473E-01
       -1   -1    0    0    0  501  0.00000000000E+00  0.00000000000E+00  0.16185499618E+03  0.16185499626E+03  0.50400001928E-02 0. -1.
        1   -1    0    0  501    0  0.00000000000E+00  0.00000000000E+00 -0.56409923304E+03  0.56409923306E+03  0.50400001928E-02 0.  1.
    10030    2    1    2    0    0  0.00000000000E+00  0.00000000000E+00 -0.40224423686E+03  0.72595422932E+03  0.60432534034E+03 0.  0.
        4    1    3    3  502    0 -0.14644774169E+03  0.26378972770E+03 -0.22081350037E+03  0.37388791948E+03  0.12699999809E+01 0. -1.
       -4    1    3    3    0  502  0.14644774169E+03 -0.26378972770E+03 -0.18143073649E+03  0.35206630984E+03  0.12699999809E+01 0.  1.
</event>
<event>
 5   0  0.2142838E-02  0.6046384E+03  0.7818609E-02  0.9895829E-01
       -2   -1    0    0    0  501  0.00000000000E+00  0.00000000000E+00  0.90181695451E+02  0.90181695487E+02  0.25500000920E-02 0. -1.
        2   -1    0    0  501    0  0.00000000000E+00  0.00000000000E+00 -0.10134751721E+04  0.10134751721E+04  0.25500000920E-02 0.  1.
    10030    2    1    2    0    0  0.00000000000E+00  0.00000000000E+00 -0.92329347666E+03  0.11036568676E+04  0.60463843523E+03 0.  0.
        4    1    3    3  502    0 -0.89119390772E+02 -0.16565194625E+03 -0.89364366359E+03  0.91322693974E+03  0.12699999809E+01 0.  1.
       -4    1    3    3    0  502  0.89119390772E+02  0.16565194625E+03 -0.29649813076E+02  0.19042992786E+03  0.12699999809E+01 0. -1.
</event>
<event>
 5   0  0.1250390E-02  0.5961154E+03  0.7818609E-02  0.9913498E-01
       -1   -1    0    0    0  501  0.00000000000E+00  0.00000000000E+00  0.13797516411E+03  0.13797516421E+03  0.50400001928E-02 0. -1.
        1   -1    0    0  501    0  0.00000000000E+00  0.00000000000E+00 -0.64387225991E+03  0.64387225993E+03  0.50400001928E-02 0.  1.
    10030    2    1    2    0    0  0.00000000000E+00  0.00000000000E+00 -0.50589709580E+03  0.78184742414E+03  0.59611536056E+03 0.  0.
        3    1    3    3  502    0 -0.20482201117E+03  0.15180002332E+03 -0.50426290954E+02  0.25988098115E+03  0.10100000352E+00 0. -1.
       -3    1    3    3    0  502  0.20482201117E+03 -0.15180002332E+03 -0.45547080485E+03  0.52196644299E+03  0.10100000352E+00 0.  1.
</event>
<event>
 5   0  0.1303808E-02  0.6089076E+03  0.7818609E-02  0.9887096E-01
        1   -1    0    0  501    0  0.00000000000E+00  0.00000000000E+00  0.30572996035E+03  0.30572996039E+03  0.50400001928E-02 0. -1.
       -1   -1    0    0    0  501  0.00000000000E+00  0.00000000000E+00 -0.30318298092E+03  0.30318298097E+03  0.50400001928E-02 0.  1.
    10030    2    1    2    0    0  0.00000000000E+00  0.00000000000E+00  0.25469794265E+01  0.60891294136E+03  0.60890761455E+03 0.  0.
        4    1    3    3  502    0 -0.11147343859E+03  0.25276647156E+03  0.12923277105E+03  0.30499170262E+03  0.12699999809E+01 0. -1.
       -4    1    3    3    0  502  0.11147343859E+03 -0.25276647156E+03 -0.12668579162E+03  0.30392123874E+03  0.12699999809E+01 0.  1.
</event>
<event>
 5   0  0.1332555E-02  0.5996868E+03  0.7818609E-02  0.9906056E-01
       -1   -1    0    0    0  501  0.00000000000E+00  0.00000000000E+00  0.12018053880E+03  0.12018053891E+03  0.50400001928E-02 0. -1.
        1   -1    0    0  501    0  0.00000000000E+00  0.00000000000E+00 -0.74809182078E+03  0.74809182080E+03  0.50400001928E-02 0.  1.
    10030    2    1    2    0    0  0.00000000000E+00  0.00000000000E+00 -0.62791128198E+03  0.86827235971E+03  0.59968684544E+03 0.  0.
        2    1    3    3  502    0 -0.27457924587E+03 -0.10218563433E+03 -0.22158145179E+03  0.36733364386E+03  0.25500000920E-02 0. -1.
       -2    1    3    3    0  502  0.27457924587E+03  0.10218563433E+03 -0.40632983019E+03  0.50093871585E+03  0.25500000920E-02 0.  1.
</event>
<event>
 5   0  0.2179625E-02  0.6008470E+03  0.7818609E-02  0.9903650E-01
       -2   -1    0    0    0  501  0.00000000000E+00  0.00000000000E+00  0.79571249163E+02  0.79571249204E+02  0.25500000920E-02 0. -1.
        2   -1    0    0  501    0  0.00000000000E+00  0.00000000000E+00 -0.11342573995E+04  0.11342573995E+04  0.25500000920E-02 0.  1.
    10030    2    1    2    0    0  0.00000000000E+00  0.00000000000E+00 -0.10546861504E+04  0.12138286487E+04  0.60084699609E+03 0.  0.
        1    1    3    3  502    0  0.11731069365E+03  0.62090774782E+01 -0.10859333715E+04  0.10922690323E+04  0.50400001928E-02 0.  1.
       -1    1    3    3    0  502 -0.11731069365E+03 -0.62090774782E+01  0.31247221180E+02  0.12155961642E+03  0.50400001928E-02 0. -1.
</event>
<event>
 5   0  0.1276705E-02  0.5981989E+03  0.7818609E-02  0.9909150E-01
       -1   -1    0    0    0  501  0.00000000000E+00  0.00000000000E+00  0.75289265216E+03  0.75289265217E+03  0.50400001928E-02 0.  1.
        1   -1    0    0  501    0  0.00000000000E+00  0.00000000000E+00 -0.11882234982E+03  0.11882234993E+03  0.50400001928E-02 0. -1.
    10030    2    1    2    0    0  0.00000000000E+00  0.00000000000E+00  0.63407030233E+03  0.87171500210E+03  0.59819887712E+03 0.  0.
        1    1    3    3  502    0 -0.64365411695E+02  0.12884806504E+03 -0.64959299070E+02  0.15800139445E+03  0.50400001928E-02 0. -1.
       -1    1    3    3    0  502  0.64365411695E+02 -0.12884806504E+03  0.69902960140E+03  0.71371360765E+03  0.50400001928E-02 0.  1.
</event>
<event>
 5   0  0.2179625E-02  0.5993029E+03  0.7818609E-02  0.9906853E-01
       -2   -1    0    0    0  501  0.00000000000E+00  0.00000000000E+00  0.24387697621E+03  0.24387697623E+03  0.25500000920E-02 0.  1.
        2   -1    0    0  501    0  0.00000000000E+00  0.00000000000E+00 -0.36818152617E+03  0.36818152618E+03  0.25500000920E-02 0. -1.
    10030    2    1    2    0    0  0.00000000000E+00  0.00000000000E+00 -0.12430454996E+03  0.61205850240E+03  0.59930291942E+03 0.  0.
        1    1    3    3  502    0  0.25041911648E+03  0.37988908006E+02  0.10137474163E+03  0.27281812494E+03  0.50400001928E-02 0.  1.
       -1    1    3    3    0  502 -0.25041911648E+03 -0.37988908006E+02 -0.22567929159E+03  0.33924037747E+03  0.50400001928E-02 0. -1.
</event>
<event>
 5   0  0.2141800E-02  0.5884945E+03  0.7818609E-02  0.9929568E-01
       -2   -1    0    0    0  501  0.00000000000E+00  0.00000000000E+00  0.16005505230E+03  0.16005505232E+03  0.25500000920E-02 0. -1.
        2   -1    0    0  501    0  0.00000000000E+00  0.00000000000E+00 -0.54094788195E+03  0.54094788195E+03  0.25500000920E-02 0.  1.
    10030    2    1    2    0    0  0.00000000000E+00  0.00000000000E+00 -0.38089282965E+03  0.70100293427E+03  0.58849449121E+03 0.  0.
        2    1    3    3  502    0 -0.12585999031E+03 -0.22124930296E+03 -0.14613339811E+02  0.25496184210E+03  0.25500000920E-02 0. -1.
       -2    1    3    3    0  502  0.12585999031E+03  0.22124930296E+03 -0.36627948984E+03  0.44604109217E+03  0.25500000920E-02 0.  1.
</event>
<event>
 5   0  0.2142838E-02  0.6005571E+03  0.7818609E-02  0.9904251E-01
        2   -1    0    0  501    0  0.00000000000E+00  0.00000000000E+00  0.80701627134E+03  0.80701627134E+03  0.25500000920E-02 0.  1.
       -2   -1    0    0    0  501  0.00000000000E+00  0.00000000000E+00 -0.11172909726E+03  0.11172909729E+03  0.25500000920E-02 0. -1.
    10030    2    1    2    0    0  0.00000000000E+00  0.00000000000E+00  0.69528717408E+03  0.91874536863E+03  0.60055707301E+03 0.  0.
        4    1    3    3  502    0  0.20952171714E+03 -0.20986557462E+03  0.27551970799E+03  0.40479084940E+03  0.12699999809E+01 0.  1.
       -4    1    3    3    0  502 -0.20952171714E+03  0.20986557462E+03  0.41976746608E+03  0.51395451924E+03  0.12699999809E+01 0. -1.
</event>
<event>
 5   0  0.1332555E-02  0.6017220E+03  0.7818609E-02  0.9901840E-01
       -1   -1    0    0    0  501  0.00000000000E+00  0.00000000000E+00  0.12005605252E+03  0.12005605263E+03  0.50400001928E-02 0.  1.
        1   -1    0    0  501    0  0.00000000000E+00  0.00000000000E+00 -0.75395910102E+03  0.75395910103E+03  0.50400001928E-02 0. -1.
    10030    2    1    2    0    0  0.00000000000E+00  0.00000000000E+00 -0.63390304850E+03  0.87401515366E+03  0.60172204043E+03 0.  0.
        2    1    3    3  502    0  0.11969939244E+03 -0.22459784920E+03 -0.83889612251E+02  0.26797314318E+03  0.25500000920E-02 0.  1.
       -2    1    3    3    0  502 -0.11969939244E+03  0.22459784920E+03 -0.55001343625E+03  0.60604201048E+03  0.25500000920E-02 0. -1.
</event>
<event>
 5   0  0.1276705E-02  0.5969534E+03  0.7818609E-02  0.9911747E-01
       -1   -1    0    0    0  501  0.00000000000E+00  0.00000000000E+00  0.79974164028E+02  0.79974164187E+02  0.50400001928E-02 0. -1.
        1   -1    0    0  501    0  0.00000000000E+00  0.00000000000E+00 -0.11139638622E+04  0.11139638622E+04  0.50400001928E-02 0.  1.
    10030    2    1    2    0    0  0.00000000000E+00  0.00000000000E+00 -0.10339896982E+04  0.11939380264E+04  0.59695336078E+03 0.  0.
        1    1    3    3  502    0 -0.14296626853E+03 -0.10796502883E+03 -0.99446952320E+03  0.10104778246E+04  0.50400001928E-02 0.  1.
       -1    1    3    3    0  502  0.14296626853E+03  0.10796502883E+03 -0.39520174958E+02  0.18346020179E+03  0.50400001928E-02 0. -1.
</event>
<event>
 5   0  0.2142838E-02  0.5999845E+03  0.7818609E-02  0.9905438E-01
       -2   -1    0    0    0  501  0.00000000000E+00  0.00000000000E+00  0.19681316344E+03  0.19681316346E+03  0.25500000920E-02 0.  1.
        2   -1    0    0  501    0  0.00000000000E+00  0.00000000000E+00 -0.45726290823E+03  0.45726290824E+03  0.25500000920E-02 0. -1.
    10030    2    1    2    0    0  0.00000000000E+00  0.00000000000E+00 -0.26044974479E+03  0.65407607170E+03  0.59998453147E+03 0.  0.
        4    1    3    3  502    0 -0.14985915795E+03  0.25955847464E+03 -0.14424418040E+03  0.33262045256E+03  0.12699999809E+01 0.  1.
       -4    1    3    3    0  502  0.14985915795E+03 -0.25955847464E+03 -0.11620556439E+03  0.32145561914E+03  0.12699999809E+01 0. -1.
</event>
<event>
 5   0  0.2126207E-02  0.5999240E+03  0.7818609E-02  0.9905564E-01
        2   -1    0    0  501    0  0.00000000000E+00  0.00000000000E+00  0.89192423920E+02  0.89192423957E+02  0.25500000920E-02 0. -1.
       -2   -1    0    0    0  501  0.00000000000E+00  0.00000000000E+00 -0.10087987976E+04  0.10087987976E+04  0.25500000920E-02 0.  1.
    10030    2    1    2    0    0  0.00000000000E+00  0.00000000000E+00 -0.91960637365E+03  0.10979912215E+04  0.59992402861E+03 0.  0.
        5    1    3    3  502    0  0.24240477954E+03  0.92376330114E+02 -0.73532020989E+03  0.77975083494E+03  0.46999998093E+01 0.  1.
       -5    1    3    3    0  502 -0.24240477954E+03 -0.92376330114E+02 -0.18428616376E+03  0.31824038659E+03  0.46999998093E+01 0. -1.
</event>
<event>
 5   0  0.8551000E-03  0.5971102E+03  0.7818609E-02  0.9911420E-01
       -4   -1    0    0    0  501  0.00000000000E+00  0.00000000000E+00  0.23247570929E+03  0.23247917823E+03  0.12699999809E+01 0.  1.
        4   -1    0    0  501    0  0.00000000000E+00  0.00000000000E+00 -0.38340960296E+03  0.38341170632E+03  0.12699999809E+01 0. -1.
    10030    2    1    2    0    0  0.00000000000E+00  0.00000000000E+00 -0.15093389367E+03  0.61589088456E+03  0.59711015853E+03 0.  0.
        3    1    3    3  502    0  0.16638073677E+03  0.11780102501E+03  0.14951152900E+03  0.25281087510E+03  0.10100000352E+00 0.  1.
       -3    1    3    3    0  502 -0.16638073677E+03 -0.11780102501E+03 -0.30044542267E+03  0.36308000946E+03  0.10100000352E+00 0. -1.
</event>
<event>
 5   0  0.8551000E-03  0.6020875E+03  0.7818609E-02  0.9901085E-01
       -3   -1    0    0    0  501  0.00000000000E+00  0.00000000000E+00  0.73176690345E+03  0.73176691042E+03  0.10100000352E+00 0. -1.
        3   -1    0    0  501    0  0.00000000000E+00  0.00000000000E+00 -0.12384724549E+03  0.12384728667E+03  0.10100000352E+00 0.  1.
    10030    2    1    2    0    0  0.00000000000E+00  0.00000000000E+00  0.60791965796E+03  0.85561419709E+03  0.60208748843E+03 0.  0.
        4    1    3    3  502    0 -0.26273672339E+03  0.82817683245E+02  0.47646956754E+03  0.55037643133E+03  0.12699999809E+01 0. -1.
       -4    1    3    3    0  502  0.26273672339E+03 -0.82817683245E+02  0.13145009043E+03  0.30523776576E+03  0.12699999809E+01 0.  1.
</event>
<event>
 5   0  0.1250390E-02  0.6021728E+03  0.7818609E-02  0.9900908E-01
        1   -1    0    0  501    0  0.00000000000E+00  0.00000000000E+00  0.87060484441E+03  0.87060484442E+03  0.50400001928E-02 0.  1.
       -1   -1    0    0    0  501  0.00000000000E+00  0.00000000000E+00 -0.10412649417E+03  0.10412649430E+03  0.50400001928E-02 0. -1.
    10030    2    1    2    0    0  0.00000000000E+00  0.00000000000E+00  0.76647835023E+03  0.97473133872E+03  0.60217283341E+03 0.  0.
        3    1    3    3  502    0 -0.23053209015E+03  0.24590716005E+02  0.72285131270E+02  0.24284747952E+03  0.10100000352E+00 0. -1.
       -3    1    3    3    0  502  0.23053209015E+03 -0.24590716005E+02  0.69419321896E+03  0.73188385920E+03  0.10100000352E+00 0.  1.
</event>
<event>
 5   0  0.2141800E-02  0.5998524E+03  0.7818609E-02  0.9905712E-01
       -2   -1    0    0    0  501  0.00000000000E+00  0.00000000000E+00  0.12476913562E+03  0.12476913565E+03  0.25500000920E-02 0.  1.
        2   -1    0    0  501    0  0.00000000000E+00  0.00000000000E+00 -0.72097749299E+03  0.72097749299E+03  0.25500000920E-02 0. -1.
    10030    2    1    2    0    0  0.00000000000E+00  0.00000000000E+00 -0.59620835736E+03  0.84574662864E+03  0.59985244391E+03 0.  0.
        2    1    3    3  502    0 -0.17512214908E+03  0.23507369225E+03 -0.20861749740E+03  0.35978975543E+03  0.25500000920E-02 0. -1.
       -2    1    3    3    0  502  0.17512214908E+03 -0.23507369225E+03 -0.38759085996E+03  0.48595687321E+03  0.25500000920E-02 0.  1.
</event>
<event>
 5   0  0.2142838E-02  0.6020890E+03  0.7818609E-02  0.9901081E-01
       -2   -1    0    0    0  501  0.00000000000E+00  0.00000000000E+00  0.11098964134E+03  0.11098964137E+03  0.25500000920E-02 0. -1.
        2   -1    0    0  501    0  0.00000000000E+00  0.00000000000E+00 -0.81654281973E+03  0.81654281974E+03  0.25500000920E-02 0.  1.
    10030    2    1    2    0    0  0.00000000000E+00  0.00000000000E+00 -0.70555317839E+03  0.92753246111E+03  0.60208901242E+03 0.  0.
        4    1    3    3  502    0 -0.32216750194E+02  0.10318948427E+03 -0.78560674229E+03  0.79301043819E+03  0.12699999809E+01 0.  1.
       -4    1    3    3    0  502  0.32216750194E+02 -0.10318948427E+03  0.80053563897E+02  0.13452202292E+03  0.12699999809E+01 0. -1.
</event>
<event>
 5   0  0.1276705E-02  0.5798498E+03  0.7818609E-02  0.9948116E-01
       -1   -1    0    0    0  501  0.00000000000E+00  0.00000000000E+00  0.27538031715E+03  0.27538031720E+03  0.50400001928E-02 0. -1.
        1   -1    0    0  501    0  0.00000000000E+00  0.00000000000E+00 -0.30523772567E+03  0.30523772571E+03  0.50400001928E-02 0.  1.
    10030    2    1    2    0    0  0.00000000000E+00  0.00000000000E+00 -0.29857408519E+02  0.58061804292E+03  0.57984984859E+03 0.  0.
        1    1    3    3  502    0  0.58044203165E+01 -0.22598547959E+03  0.16684232056E+03  0.28096172023E+03  0.50400001928E-02 0. -1.
       -1    1    3    3    0  502 -0.58044203165E+01  0.22598547959E+03 -0.19669972907E+03  0.29965632268E+03  0.50400001928E-02 0.  1.
</event>
<event>
 5   0  0.1276705E-02  0.6001684E+03  0.7818609E-02  0.9905057E-01
       -1   -1    0    0    0  501  0.00000000000E+00  0.00000000000E+00  0.50113748362E+02  0.50113748616E+02  0.50400001928E-02 0.  1.
        1   -1    0    0  501    0  0.00000000000E+00  0.00000000000E+00 -0.17969223466E+04  0.17969223466E+04  0.50400001928E-02 0. -1.
    10030    2    1    2    0    0  0.00000000000E+00  0.00000000000E+00 -0.17468085982E+04  0.18470360952E+04  0.60016835819E+03 0.  0.
        1    1    3    3  502    0 -0.41220498571E+02 -0.28796475653E+03 -0.64667399751E+03  0.70909103054E+03  0.50400001928E-02 0.  1.
       -1    1    3    3    0  502  0.41220498571E+02  0.28796475653E+03 -0.11001346007E+04  0.11379450647E+04  0.50400001928E-02 0. -1.
</event>
<event>
 5   0  0.2092587E-02  0.6032723E+03  0.7818609E-02  0.9898640E-01
        2   -1    0    0  501    0  0.00000000000E+00  0.00000000000E+00  0.46079540915E+03  0.46079540916E+03  0.25500000920E-02 0. -1.
       -2   -1    0    0    0  501  0.00000000000E+00  0.00000000000E+00 -0.19745067980E+03  0.19745067981E+03  0.25500000920E-02 0.  1.
    10030    2    1    2    0    0  0.00000000000E+00  0.00000000000E+00  0.26334472936E+03  0.65824608897E+03  0.60327229935E+03 0.  0.
        3    1    3    3  502    0  0.24945598804E+03  0.15671386801E+03  0.60986007296E+02  0.30084353023E+03  0.10100000352E+00 0.  1.
       -3    1    3    3    0  502 -0.24945598804E+03 -0.15671386801E+03  0.20235872206E+03  0.35740255874E+03  0.10100000352E+00 0. -1.
</event>
<event>
 5   0  0.1303808E-02  0.6046631E+03  0.7818609E-02  0.9895779E-01
       -1   -1    0    0    0  501  0.00000000000E+00  0.00000000000E+00  0.20123913214E+03  0.20123913221E+03  0.50400001928E-02 0.  1.
        1   -1    0    0  501    0  0.00000000000E+00  0.00000000000E+00 -0.45420767989E+03  0.45420767992E+03  0.50400001928E-02 0. -1.
    10030    2    1    2    0    0  0.00000000000E+00  0.00000000000E+00 -0.25296854775E+03  0.65544681213E+03  0.60466307757E+03 0.  0.
        4    1    3    3  502    0  0.11433226508E+03  0.27952591439E+03 -0.11130293128E+03  0.32186419351E+03  0.12699999809E+01 0.  1.
       -4    1    3    3    0  502 -0.11433226508E+03 -0.27952591439E+03 -0.14166561647E+03  0.33358261861E+03  0.12699999809E+01 0. -1.
</event>
<event>
 5   0  0.1276705E-02  0.5995269E+03  0.7818609E-02  0.9906388E-01
        1   -1    0    0  501    0  0.00000000000E+00  0.00000000000E+00  0.19223052350E+03  0.19223052357E+03  0.50400001928E-02 0. -1.
       -1   -1    0    0    0  501  0.00000000000E+00  0.00000000000E+00 -0.46744976219E+03  0.46744976222E+03  0.50400001928E-02 0.  1.
    10030    2    1    2    0    0  0.00000000000E+00  0.00000000000E+00 -0.27521923869E+03  0.65968028579E+03  0.59952685521E+03 0.  0.
        1    1    3    3  502    0 -0.17090991968E+03 -0.13818730758E+03 -0.36190574408E+03  0.42341669812E+03  0.50400001928E-02 0.  1.
       -1    1    3    3    0  502  0.17090991968E+03  0.13818730758E+03  0.86686505389E+02  0.23626358768E+03  0.50400001928E-02 0. -1.
</event>
<event>
 5   0  0.8551000E-03  0.5995750E+03  0.7818609E-02  0.9906288E-01
       -3   -1    0    0    0  501  0.00000000000E+00  0.00000000000E+00  0.15854928034E+03  0.15854931251E+03  0.10100000352E+00 0.  1.
        3   -1    0    0  501    0  0.00000000000E+00  0.00000000000E+00 -0.56684291617E+03  0.56684292517E+03  0.10100000352E+00 0. -1.
    10030    2    1    2    0    0  0.00000000000E+00  0.00000000000E+00 -0.40829363583E+03  0.72539223768E+03  0.59957502069E+03 0.  0.
        4    1    3    3  502    0  0.19826595693E+03  0.48355235217E+02 -0.46982624508E+03  0.51223620715E+03  0.12699999809E+01 0. -1.
       -4    1    3    3    0  502 -0.19826595693E+03 -0.48355235217E+02  0.61532609249E+02  0.21315603053E+03  0.12699999809E+01 0.  1.
</event>
<event>
 5   0  0.1276705E-02  0.6011259E+03  0.7818609E-02  0.9903073E-01
       -1   -1    0    0    0  501  0.00000000000E+00  0.00000000000E+00  0.12503136697E+03  0.12503136707E+03  0.50400001928E-02 0. -1.
        1   -1    0    0  501    0  0.00000000000E+00  0.00000000000E+00 -0.72252340874E+03  0.72252340876E+03  0.50400001928E-02 0.  1.
    10030    2    1    2    0    0  0.00000000000E+00  0.00000000000E+00 -0.59749204177E+03  0.84755477583E+03  0.60112590865E+03 0.  0.
        1    1    3    3  502    0 -0.20199655291E+03 -0.85014786682E+02 -0.58875631462E+03  0.62822298539E+03  0.50400001928E-02 0.  1.
       -1    1    3    3    0  502  0.20199655291E+03  0.85014786682E+02 -0.87357271512E+01  0.21933179044E+03  0.50400001928E-02 0. -1.
</event>
<event>
 5   0  0.1250390E-02  0.6071994E+03  0.7818609E-02  0.9890581E-01
        1   -1    0    0  501    0  0.00000000000E+00  0.00000000000E+00  0.10254419392E+04  0.10254419393E+04  0.50400001928E-02 0. -1.
       -1   -1    0    0    0  501  0.00000000000E+00  0.00000000000E+00 -0.89885911109E+02  0.89885911250E+02  0.50400001928E-02 0.  1.
    10030    2    1    2    0    0  0.00000000000E+00  0.00000000000E+00  0.93555602813E+03  0.11153278505E+04  0.60719941727E+03 0.  0.
        3    1    3    3  502    0 -0.23042028570E+03  0.19351870967E+03  0.39362396493E+03  0.49546224380E+03  0.10100000352E+00 0. -1.
       -3    1    3    3    0  502  0.23042028570E+03 -0.19351870967E+03  0.54193206320E+03  0.61986560671E+03  0.10100000352E+00 0.  1.
</event>
<event>
 5   0  0.2126207E-02  0.5918199E+03  0.7818609E-02  0.9922524E-01
        2   -1    0    0  501    0  0.00000000000E+00  0.00000000000E+00  0.60338378392E+03  0.60338378392E+03  0.25500000920E-02 0. -1.
       -2   -1    0    0    0  501  0.00000000000E+00  0.00000000000E+00 -0.14511939656E+03  0.14511939658E+03  0.25500000920E-02 0.  1.
    10030    2    1    2    0    0  0.00000000000E+00  0.00000000000E+00  0.45826438736E+03  0.74850318050E+03  0.59181987336E+03 0.  0.
        5    1    3    3  502    0 -0.10302858688E+02 -0.11663427802E+03 -0.11452321028E+03  0.16385163838E+03  0.46999998093E+01 0.  1.
       -5    1    3    3    0  502  0.10302858688E+02  0.11663427802E+03  0.57278759764E+03  0.58465154213E+03  0.46999998093E+01 0. -1.
</event>
<event>
 5   0  0.1303808E-02  0.5988951E+03  0.7818609E-02  0.9907701E-01
        1   -1    0    0  501    0  0.00000000000E+00  0.00000000000E+00  0.31507907641E+03  0.31507907645E+03  0.50400001928E-02 0.  1.
       -1   -1    0    0    0  501  0.00000000000E+00  0.00000000000E+00 -0.28459153782E+03  0.28459153787E+03  0.50400001928E-02 0. -1.
    10030    2    1    2    0    0  0.00000000000E+00  0.00000000000E+00  0.30487538588E+02  0.59967061432E+03  0.59889511241E+03 0.  0.
        4    1    3    3  502    0 -0.47609788100E+01  0.22875512289E+03  0.20866650472E+03  0.30966901081E+03  0.12699999809E+01 0.  1.
       -4    1    3    3    0  502  0.47609788100E+01 -0.22875512289E+03 -0.17817896613E+03  0.29000160351E+03  0.12699999809E+01 0. -1.
</event>
<event>
 5   0  0.1276705E-02  0.6038706E+03  0.7818609E-02  0.9897408E-01
       -1   -1    0    0    0  501  0.00000000000E+00  0.00000000000E+00  0.40327472390E+02  0.40327472705E+02  0.50400001928E-02 0.  1.
        1   -1    0    0  501    0  0.00000000000E+00  0.00000000000E+00 -0.22606159614E+04  0.22606159614E+04  0.50400001928E-02 0. -1.
    10030    2    1    2    0    0  0.00000000000E+00  0.00000000000E+00 -0.22202884890E+04  0.23009434341E+04  0.60387060911E+03 0.  0.
        1    1    3    3  502    0  0.18143990675E+03  0.99747828508E+02 -0.27278368559E+03  0.34246314868E+03  0.50400001928E-02 0.  1.
       -1    1    3    3    0  502 -0.18143990675E+03 -0.99747828508E+02 -0.19475048034E+04  0.19584802854E+04  0.50400001928E-02 0. -1.
</event>
<event>
 5   0  0.1276705E-02  0.5994944E+03  0.7818609E-02  0.9906456E-01
       -1   -1    0    0    0  501  0.00000000000E+00  0.00000000000E+00  0.81121124323E+02  0.81121124480E+02  0.50400001928E-02 0. -1.
        1   -1    0    0  501    0  0.00000000000E+00  0.00000000000E+00 -0.11075829644E+04  0.11075829645E+04  0.50400001928E-02 0.  1.
    10030    2    1    2    0    0  0.00000000000E+00  0.00000000000E+00 -0.10264618401E+04  0.11887040889E+04  0.59949437181E+03 0.  0.
        1    1    3    3  502    0  0.27342406136E+03  0.11026357818E+03 -0.40590789245E+03  0.50167717826E+03  0.50400001928E-02 0.  1.
       -1    1    3    3    0  502 -0.27342406136E+03 -0.11026357818E+03 -0.62055394766E+03  0.68702691067E+03  0.50400001928E-02 0. -1.
</event>
<event>
 5   0  0.2126207E-02  0.5982253E+03  0.7818609E-02  0.9909095E-01
        2   -1    0    0  501    0  0.00000000000E+00  0.00000000000E+00  0.11607850233E+04  0.11607850233E+04  0.25500000920E-02 0. -1.
       -2   -1    0    0    0  501  0.00000000000E+00  0.00000000000E+00 -0.77075756629E+02  0.77075756671E+02  0.25500000920E-02 0.  1.
    10030    2    1    2    0    0  0.00000000000E+00  0.00000000000E+00  0.10837092667E+04  0.12378607800E+04  0.59822532204E+03 0.  0.
        5    1    3    3  502    0  0.20362473705E+03 -0.91864528132E+02  0.13037510133E+03  0.25869264024E+03  0.46999998093E+01 0. -1.
       -5    1    3    3    0  502 -0.20362473705E+03  0.91864528132E+02  0.95333416534E+03  0.97916813973E+03  0.46999998093E+01 0.  1.
</event>
<event>
 5   0  0.8551000E-03  0.6007004E+03  0.7818609E-02  0.9903954E-01
        3   -1    0    0  501    0  0.00000000000E+00  0.00000000000E+00  0.31681719973E+03  0.31681721582E+03  0.10100000352E+00 0. -1.
       -3   -1    0    0    0  501  0.00000000000E+00  0.00000000000E+00 -0.28473907807E+03  0.28473909598E+03  0.10100000352E+00 0.  1.
    10030    2    1    2    0    0  0.00000000000E+00  0.00000000000E+00  0.32078121658E+02  0.60155631181E+03  0.60070041650E+03 0.  0.
        5    1    3    3  502    0 -0.25936388549E+03  0.12118716252E+03 -0.74821710783E+02  0.29593298542E+03  0.46999998093E+01 0.  1.
       -5    1    3    3    0  502  0.25936388549E+03 -0.12118716252E+03  0.10689983244E+03  0.30562332639E+03  0.46999998093E+01 0. -1.
</event>
<event>
 5   0  0.2142838E-02  0.6083602E+03  0.7818609E-02  0.9888212E-01
        2   -1    0    0  501    0  0.00000000000E+00  0.00000000000E+00  0.90100253923E+03  0.90100253923E+03  0.25500000920E-02 0.  1.
       -2   -1    0    0    0  501  0.00000000000E+00  0.00000000000E+00 -0.10269174200E+03  0.10269174204E+03  0.25500000920E-02 0. -1.
    10030    2    1    2    0    0  0.00000000000E+00  0.00000000000E+00  0.79831079723E+03  0.10036942813E+04  0.60836015754E+03 0.  0.
        4    1    3    3  502    0  0.17488489338E+03 -0.67139625538E+02  0.37745903955E+01  0.18737213155E+03  0.12699999809E+01 0. -1.
       -4    1    3    3    0  502 -0.17488489338E+03  0.67139625538E+02  0.79453620683E+03  0.81632214971E+03  0.12699999809E+01 0.  1.
</event>
<event>
 5   0  0.1337051E-02  0.6001841E+03  0.7818609E-02  0.9905024E-01
       -1   -1    0    0    0  501  0.00000000000E+00  0.00000000000E+00  0.60191356384E+02  0.60191356595E+02  0.50400001928E-02 0.  1.
        1   -1    0    0  501    0  0.00000000000E+00  0.00000000000E+00 -0.14961489790E+04  0.14961489791E+04  0.50400001928E-02 0. -1.
    10030    2    1    2    0    0  0.00000000000E+00  0.00000000000E+00 -0.14359576227E+04  0.15563403357E+04  0.60018409366E+03 0.  0.
        5    1    3    3  502    0  0.14155645518E+03 -0.24516671697E+03 -0.97583565188E+03  0.10160818169E+04  0.46999998093E+01 0. -1.
       -5    1    3    3    0  502 -0.14155645518E+03  0.24516671697E+03 -0.46012197079E+03  0.54025851878E+03  0.46999998093E+01 0.  1.
</event>
<event>
 5   0  0.2142838E-02  0.5999137E+03  0.7818609E-02  0.9905585E-01
       -2   -1    0    0    0  501  0.00000000000E+00  0.00000000000E+00  0.12402775619E+03  0.12402775622E+03  0.25500000920E-02 0.  1.
        2   -1    0    0  501    0  0.00000000000E+00  0.00000000000E+00 -0.72543523130E+03  0.72543523130E+03  0.25500000920E-02 0. -1.
    10030    2    1    2    0    0  0.00000000000E+00  0.00000000000E+00 -0.60140747511E+03  0.84946298752E+03  0.59991367383E+03 0.  0.
        4    1    3    3  502    0  0.78317390715E+02  0.28954698238E+03 -0.29901497173E+03  0.42353587205E+03  0.12699999809E+01 0. -1.
       -4    1    3    3    0  502 -0.78317390715E+02 -0.28954698238E+03 -0.30239250338E+03  0.42592711547E+03  0.12699999809E+01 0.  1.
</event>
<event>
 5   0  0.1250390E-02  0.6001636E+03  0.7818609E-02  0.9905067E-01
       -1   -1    0    0    0  501  0.00000000000E+00  0.00000000000E+00  0.76431730371E+02  0.76431730537E+02  0.50400001928E-02 0. -1.
        1   -1    0    0  501    0  0.00000000000E+00  0.00000000000E+00 -0.11781636632E+04  0.11781636632E+04  0.50400001928E-02 0.  1.
    10030    2    1    2    0    0  0.00000000000E+00  0.00000000000E+00 -0.11017319328E+04  0.12545953938E+04  0.60016360286E+03 0.  0.
        3    1    3    3  502    0  0.10764405493E+03 -0.47353992702E+02 -0.11279869896E+04  0.11341006578E+04  0.10100000352E+00 0.  1.
       -3    1    3    3    0  502 -0.10764405493E+03  0.47353992702E+02  0.26255056735E+02  0.12049473595E+03  0.10100000352E+00 0. -1.
</event>
<event>
 5   0  0.2141800E-02  0.5993551E+03  0.7818609E-02  0.9906745E-01
        2   -1    0    0  501    0  0.00000000000E+00  0.00000000000E+00  0.96759592862E+03  0.96759592862E+03  0.25500000920E-02 0.  1.
       -2   -1    0    0    0  501  0.00000000000E+00  0.00000000000E+00 -0.92814199158E+02  0.92814199193E+02  0.25500000920E-02 0. -1.
    10030    2    1    2    0    0  0.00000000000E+00  0.00000000000E+00  0.87478172946E+03  0.10604101278E+04  0.59935512426E+03 0.  0.
        2    1    3    3  502    0 -0.10327079176E+03  0.11131369778E+03 -0.19716986091E+02  0.15311549658E+03  0.25500000920E-02 0. -1.
       -2    1    3    3    0  502  0.10327079176E+03 -0.11131369778E+03  0.89449871555E+03  0.90729463124E+03  0.25500000920E-02 0.  1.
</event>
<event>
 5   0  0.2179625E-02  0.6003854E+03  0.7818609E-02  0.9904607E-01
       -2   -1    0    0    0  501  0.00000000000E+00  0.00000000000E+00  0.33027756496E+02  0.33027756595E+02  0.25500000920E-02 0. -1.
        2   -1    0    0  501    0  0.00000000000E+00  0.00000000000E+00 -0.27284822461E+04  0.27284822461E+04  0.25500000920E-02 0.  1.
    10030    2    1    2    0    0  0.00000000000E+00  0.00000000000E+00 -0.26954544896E+04  0.27615100027E+04  0.60038536746E+03 0.  0.
        1    1    3    3  502    0 -0.54723507471E+02  0.25606812616E+03 -0.20229408192E+04  0.20398174197E+04  0.50400001928E-02 0. -1.
       -1    1    3    3    0  502  0.54723507471E+02 -0.25606812616E+03 -0.67251367032E+03  0.72169258296E+03  0.50400001928E-02 0.  1.
</event>
<event>
 5   0  0.8551000E-03  0.6040332E+03  0.7818609E-02  0.9897074E-01
        3   -1    0    0  501    0  0.00000000000E+00  0.00000000000E+00  0.10823669226E+04  0.10823669274E+04  0.10100000352E+00 0. -1.
       -3   -1    0    0    0  501  0.00000000000E+00  0.00000000000E+00 -0.84272704546E+02  0.84272765070E+02  0.10100000352E+00 0.  1.
    10030    2    1    2    0    0  0.00000000000E+00  0.00000000000E+00  0.99809421809E+03  0.11666396924E+04  0.60403319755E+03 0.  0.
        3    1    3    3  502    0 -0.24454387906E+03 -0.11632548835E+03  0.75731359257E+03  0.80427434108E+03  0.10100000352E+00 0. -1.
       -3    1    3    3    0  502  0.24454387906E+03  0.11632548835E+03  0.24078062552E+03  0.36236535134E+03  0.10100000352E+00 0.  1.
</event>
<event>
 5   0  0.1303808E-02  0.6018598E+03  0.7818609E-02  0.9901555E-01
        1   -1    0    0  501    0  0.00000000000E+00  0.00000000000E+00  0.51505634546E+03  0.51505634549E+03  0.50400001928E-02 0. -1.
       -1   -1    0    0    0  501  0.00000000000E+00  0.00000000000E+00 -0.17582308274E+03  0.17582308282E+03  0.50400001928E-02 0.  1.
    10030    2    1    2    0    0  0.00000000000E+00  0.00000000000E+00  0.33923326272E+03  0.69087942830E+03  0.60185976599E+03 0.  0.
        4    1    3    3  502    0 -0.12323079271E+03 -0.14168380312E+03  0.43955085095E+03  0.47798189486E+03  0.12699999809E+01 0. -1.
       -4    1    3    3    0  502  0.12323079271E+03  0.14168380312E+03 -0.10031758823E+03  0.21289753345E+03  0.12699999809E+01 0.  1.
</event>
<event>
 5   0  0.2179625E-02  0.6017681E+03  0.7818609E-02  0.9901745E-01
       -2   -1    0    0    0  501  0.00000000000E+00  0.00000000000E+00  0.54240253041E+02  0.54240253101E+02  0.25500000920E-02 0.  1.
        2   -1    0    0  501    0  0.00000000000E+00  0.00000000000E+00 -0.16690781970E+04  0.16690781970E+04  0.25500000920E-02 0. -1.
    10030    2    1    2    0    0  0.00000000000E+00  0.00000000000E+00 -0.16148379440E+04  0.17233184501E+04  0.60176814075E+03 0.  0.
        1    1    3    3  502    0 -0.25850500636E+03  0.98448220897E+02 -0.46840112073E+03  0.54398207731E+03  0.50400001928E-02 0. -1.
       -1    1    3    3    0  502  0.25850500636E+03 -0.98448220897E+02 -0.11464368233E+04  0.11793363728E+04  0.50400001928E-02 0.  1.
</event>
<event>
 5   0  0.8551000E-03  0.6017662E+03  0.7818609E-02  0.9901748E-01
       -4   -1    0    0    0  501  0.00000000000E+00  0.00000000000E+00  0.41494073720E+03  0.41494268072E+03  0.12699999809E+01 0.  1.
        4   -1    0    0  501    0  0.00000000000E+00  0.00000000000E+00 -0.21817298373E+03  0.21817668008E+03  0.12699999809E+01 0. -1.
    10030    2    1    2    0    0  0.00000000000E+00  0.00000000000E+00  0.19676775347E+03  0.63311936080E+03  0.60176621392E+03 0.  0.
        1    1    3    3  502    0  0.20305424311E+03  0.63989908992E+02  0.32207595162E+03  0.38608114786E+03  0.50400001928E-02 0.  1.
       -1    1    3    3    0  502 -0.20305424311E+03 -0.63989908992E+02 -0.12530819815E+03  0.24703821293E+03  0.50400001928E-02 0. -1.
</event>
<event>
 5   0  0.2142838E-02  0.5948819E+03  0.7818609E-02  0.9916082E-01
       -2   -1    0    0    0  501  0.00000000000E+00  0.00000000000E+00  0.46832539903E+02  0.46832539973E+02  0.25500000920E-02 0. -1.
        2   -1    0    0  501    0  0.00000000000E+00  0.00000000000E+00 -0.18890952252E+04  0.18890952252E+04  0.25500000920E-02 0.  1.
    10030    2    1    2    0    0  0.00000000000E+00  0.00000000000E+00 -0.18422626853E+04  0.19359277651E+04  0.59488192974E+03 0.  0.
        4    1    3    3  502    0  0.68828234277E+02 -0.16880579632E+03 -0.16859748697E+04  0.16958023460E+04  0.12699999809E+01 0.  1.
       -4    1    3    3    0  502 -0.68828234277E+02  0.16880579632E+03 -0.15628781560E+03  0.24012541913E+03  0.12699999809E+01 0. -1.
</event>
<event>
 5   0  0.2092587E-02  0.6000993E+03  0.7818609E-02  0.9905200E-01
       -2   -1    0    0    0  501  0.00000000000E+00  0.00000000000E+00  0.19656901393E+03  0.19656901395E+03  0.25500000920E-02 0.  1.
        2   -1    0    0  501    0  0.00000000000E+00  0.00000000000E+00 -0.45800597163E+03  0.45800597164E+03  0.25500000920E-02 0. -1.
    10030    2    1    2    0    0  0.00000000000E+00  0.00000000000E+00 -0.26143695770E+03  0.65457498558E+03  0.60009926587E+03 0.  0.
        3    1    3    3  502    0 -0.28533225395E+03  0.11568136838E+01 -0.23195499627E+03  0.36772131276E+03  0.10100000352E+00 0. -1.
       -3    1    3    3    0  502  0.28533225395E+03 -0.11568136838E+01 -0.29481961428E+02  0.28685367282E+03  0.10100000352E+00 0.  1.
</event>
<event>
 5   0  0.1332555E-02  0.5995811E+03  0.7818609E-02  0.9906276E-01
       -1   -1    0    0    0  501  0.00000000000E+00  0.00000000000E+00  0.17006375471E+03  0.17006375478E+03  0.50400001928E-02 0.  1.
        1   -1    0    0  501    0  0.00000000000E+00  0.00000000000E+00 -0.52847458923E+03  0.52847458925E+03  0.50400001928E-02 0. -1.
    10030    2    1    2    0    0  0.00000000000E+00  0.00000000000E+00 -0.35841083452E+03  0.69853834404E+03  0.59958109692E+03 0.  0.
        2    1    3    3  502    0 -0.19708521845E+03  0.22486931492E+03 -0.20434394607E+03  0.36216742043E+03  0.25500000920E-02 0.  1.
       -2    1    3    3    0  502  0.19708521845E+03 -0.22486931492E+03 -0.15406688845E+03  0.33637092360E+03  0.25500000920E-02 0. -1.
</event>
<event>
 5   0  0.1303808E-02  0.5971168E+03  0.7818609E-02  0.9911406E-01
        1   -1    0    0  501    0  0.00000000000E+00  0.00000000000E+00  0.84810275249E+02  0.84810275399E+02  0.50400001928E-02 0.  1.
       -1   -1    0    0    0  501  0.00000000000E+00  0.00000000000E+00 -0.10510178036E+04  0.10510178036E+04  0.50400001928E-02 0. -1.
    10030    2    1    2    0    0  0.00000000000E+00  0.00000000000E+00 -0.96620752832E+03  0.11358280790E+04  0.59711677017E+03 0.  0.
        4    1    3    3  502    0 -0.17187055269E+03  0.22894409019E+03 -0.32191524871E+03  0.43079684720E+03  0.12699999809E+01 0.  1.
       -4    1    3    3    0  502  0.17187055269E+03 -0.22894409019E+03 -0.64429227961E+03  0.70503123177E+03  0.12699999809E+01 0. -1.
</event>
<event>
 5   0  0.1250390E-02  0.5980404E+03  0.7818609E-02  0.9909480E-01
        1   -1    0    0  501    0  0.00000000000E+00  0.00000000000E+00  0.31449265632E+03  0.31449265636E+03  0.50400001928E-02 0.  1.
       -1   -1    0    0    0  501  0.00000000000E+00  0.00000000000E+00 -0.28430895990E+03  0.28430895995E+03  0.50400001928E-02 0. -1.
    10030    2    1    2    0    0  0.00000000000E+00  0.00000000000E+00  0.30183696420E+02  0.59880161631E+03  0.59804040011E+03 0.  0.
        3    1    3    3  502    0  0.16946048223E+03 -0.66580406760E+02 -0.22240885678E+03  0.28742914845E+03  0.10100000352E+00 0. -1.
       -3    1    3    3    0  502 -0.16946048223E+03  0.66580406760E+02  0.25259255320E+03  0.31137246786E+03  0.10100000352E+00 0.  1.
</event>
<event>
 5   0  0.1250390E-02  0.6018780E+03  0.7818609E-02  0.9901517E-01
        1   -1    0    0  501    0  0.00000000000E+00  0.00000000000E+00  0.12802769146E+03  0.12802769156E+03  0.50400001928E-02 0. -1.
       -1   -1    0    0    0  501  0.00000000000E+00  0.00000000000E+00 -0.70738037162E+03  0.70738037164E+03  0.50400001928E-02 0.  1.
    10030    2    1    2    0    0  0.00000000000E+00  0.00000000000E+00 -0.57935268016E+03  0.83540806319E+03  0.60187798102E+03 0.  0.
        3    1    3    3  502    0  0.12887472292E+03 -0.12148744432E+03 -0.62738154498E+03  0.65190145461E+03  0.10100000352E+00 0.  1.
       -3    1    3    3    0  502 -0.12887472292E+03  0.12148744432E+03  0.48028864821E+02  0.18350660858E+03  0.10100000352E+00 0. -1.
</event>
<event>
 5   0  0.2092587E-02  0.5986920E+03  0.7818609E-02  0.9908124E-01
       -2   -1    0    0    0  501  0.00000000000E+00  0.00000000000E+00  0.24746284842E+03  0.24746284843E+03  0.25500000920E-02 0. -1.
        2   -1    0    0  501    0  0.00000000000E+00  0.00000000000E+00 -0.36210693473E+03  0.36210693474E+03  0.25500000920E-02 0.  1.
    10030    2    1    2    0    0  0.00000000000E+00  0.00000000000E+00 -0.11464408631E+03  0.60956978317E+03  0.59869195253E+03 0.  0.
        3    1    3    3  502    0 -0.37688140073E+02  0.25669296781E+03 -0.20935462795E+03  0.33337823275E+03  0.10100000352E+00 0.  1.
       -3    1    3    3    0  502  0.37688140073E+02 -0.25669296781E+03  0.94710541644E+02  0.27619155042E+03  0.10100000352E+00 0. -1.
</event>
<event>
 5   0  0.2126207E-02  0.5995106E+03  0.7818609E-02  0.9906422E-01
       -2   -1    0    0    0  501  0.00000000000E+00  0.00000000000E+00  0.90455440453E+02  0.90455440489E+02  0.25500000920E-02 0. -1.
        2   -1    0    0  501    0  0.00000000000E+00  0.00000000000E+00 -0.99334242181E+03  0.99334242181E+03  0.25500000920E-02 0.  1.
    10030    2    1    2    0    0  0.00000000000E+00  0.00000000000E+00 -0.90288698136E+03  0.10837978623E+04  0.59951055472E+03 0.  0.
        5    1    3    3  502    0  0.62015054707E+02  0.15192212593E+03 -0.90485633872E+03  0.91962670855E+03  0.46999998093E+01 0.  1.
       -5    1    3    3    0  502 -0.62015054707E+02 -0.15192212593E+03  0.19693573649E+01  0.16417115375E+03  0.46999998093E+01 0. -1.
</event>
<event>
 5   0  0.2141800E-02  0.6184812E+03  0.7818609E-02  0.9867788E-01
       -2   -1    0    0    0  501  0.00000000000E+00  0.00000000000E+00  0.61918064894E+02  0.61918064946E+02  0.25500000920E-02 0. -1.
        2   -1    0    0  501    0  0.00000000000E+00  0.00000000000E+00 -0.15444562886E+04  0.15444562886E+04  0.25500000920E-02 0.  1.
    10030    2    1    2    0    0  0.00000000000E+00  0.00000000000E+00 -0.14825382237E+04  0.16063743536E+04  0.61848118726E+03 0.  0.
        2    1    3    3  502    0 -0.30154887672E+03  0.57389488075E+02 -0.83860565928E+03  0.89302000548E+03  0.25500000920E-02 0.  1.
       -2    1    3    3    0  502  0.30154887672E+03 -0.57389488075E+02 -0.64393256447E+03  0.71335434812E+03  0.25500000920E-02 0. -1.
</event>
<event>
 5   0  0.1276705E-02  0.5937257E+03  0.7818609E-02  0.9918510E-01
        1   -1    0    0  501    0  0.00000000000E+00  0.00000000000E+00  0.54361830654E+03  0.54361830656E+03  0.50400001928E-02 0.  1.
       -1   -1    0    0    0  501  0.00000000000E+00  0.00000000000E+00 -0.16211289472E+03  0.16211289480E+03  0.50400001928E-02 0. -1.
    10030    2    1    2    0    0  0.00000000000E+00  0.00000000000E+00  0.38150541182E+03  0.70573120136E+03  0.59372565156E+03 0.  0.
        1    1    3    3  502    0 -0.15368379014E+03  0.23692645969E+03  0.81975553563E+02  0.29406265669E+03  0.50400001928E-02 0. -1.
       -1    1    3    3    0  502  0.15368379014E+03 -0.23692645969E+03  0.29952985826E+03  0.41166854467E+03  0.50400001928E-02 0.  1.
</event>
<event>
 5   0  0.2141800E-02  0.6026961E+03  0.7818609E-02  0.9899828E-01
        2   -1    0    0  501    0  0.00000000000E+00  0.00000000000E+00  0.46299300741E+03  0.46299300742E+03  0.25500000920E-02 0.  1.
       -2   -1    0    0    0  501  0.00000000000E+00  0.00000000000E+00 -0.19613826634E+03  0.19613826636E+03  0.25500000920E-02 0. -1.
    10030    2    1    2    0    0  0.00000000000E+00  0.00000000000E+00  0.26685474107E+03  0.65913127377E+03  0.60269609526E+03 0.  0.
        2    1    3    3  502    0 -0.14935127464E+03 -0.70404956840E+02 -0.14226479909E+03  0.21794938461E+03  0.25500000920E-02 0. -1.
       -2    1    3    3    0  502  0.14935127464E+03  0.70404956840E+02  0.40911954016E+03  0.44118188917E+03  0.25500000920E-02 0.  1.
</event>
<event>
 5   0  0.1276705E-02  0.6015011E+03  0.7818609E-02  0.9902297E-01
       -1   -1    0    0    0  501  0.00000000000E+00  0.00000000000E+00  0.16249526441E+03  0.16249526449E+03  0.50400001928E-02 0. -1.
        1   -1    0    0  501    0  0.00000000000E+00  0.00000000000E+00 -0.55663704467E+03  0.55663704469E+03  0.50400001928E-02 0.  1.
    10030    2    1    2    0    0  0.00000000000E+00  0.00000000000E+00 -0.39414178025E+03  0.71913230918E+03  0.60150106830E+03 0.  0.
        1    1    3    3  502    0  0.81034851340E+02 -0.16939961780E+03 -0.47793403219E+03  0.51350152560E+03  0.50400001928E-02 0.  1.
       -1    1    3    3    0  502 -0.81034851340E+02  0.16939961780E+03  0.83792251940E+02  0.20563078358E+03  0.50400001928E-02 0. -1.
</event>
<event>
 5   0  0.1337051E-02  0.5928373E+03  0.7818609E-02  0.9920379E-01
        1   -1    0    0  501    0  0.00000000000E+00  0.00000000000E+00  0.16832435780E+04  0.16832435780E+04  0.50400001928E-02 0. -1.
       -1   -1    0    0    0  501  0.00000000000E+00  0.00000000000E+00 -0.52199228009E+02  0.52199228252E+02  0.50400001928E-02 0.  1.
    10030    2    1    2    0    0  0.00000000000E+00  0.00000000000E+00  0.16310443500E+04  0.17354428062E+04  0.59283729822E+03 0.  0.
        5    1    3    3  502    0 -0.78146891166E+02  0.91689291898E+02  0.22820288478E+02  0.12270582061E+03  0.46999998093E+01 0.  1.
       -5    1    3    3    0  502  0.78146891166E+02 -0.91689291898E+02  0.16082240615E+04  0.16127369856E+04  0.46999998093E+01 0. -1.
</event>
<event>
 5   0  0.2142838E-02  0.6022661E+03  0.7818609E-02  0.9900716E-01
        2   -1    0    0  501    0  0.00000000000E+00  0.00000000000E+00  0.40742020259E+03  0.40742020260E+03  0.25500000920E-02 0.  1.
       -2   -1    0    0    0  501  0.00000000000E+00  0.00000000000E+00 -0.22257390089E+03  0.22257390091E+03  0.25500000920E-02 0. -1.
    10030    2    1    2    0    0  0.00000000000E+00  0.00000000000E+00  0.18484630170E+03  0.62999410351E+03  0.60226606679E+03 0.  0.
        4    1    3    3  502    0  0.47950147239E+02  0.62946342369E+02  0.39634764493E+03  0.40417140817E+03  0.12699999809E+01 0.  1.
       -4    1    3    3    0  502 -0.47950147239E+02 -0.62946342369E+02 -0.21150134324E+03  0.22582269534E+03  0.12699999809E+01 0. -1.
</event>
<event>
 5   0  0.1276705E-02  0.5989716E+03  0.7818609E-02  0.9907542E-01
       -1   -1    0    0    0  501  0.00000000000E+00  0.00000000000E+00  0.10838115792E+03  0.10838115804E+03  0.50400001928E-02 0.  1.
        1   -1    0    0  501    0  0.00000000000E+00  0.00000000000E+00 -0.82755844376E+03  0.82755844378E+03  0.50400001928E-02 0. -1.
    10030    2    1    2    0    0  0.00000000000E+00  0.00000000000E+00 -0.71917728584E+03  0.93593960182E+03  0.59897159346E+03 0.  0.
        1    1    3    3  502    0  0.12386382533E+03 -0.23573433531E+03 -0.14545952503E+03  0.30343269026E+03  0.50400001928E-02 0.  1.
       -1    1    3    3    0  502 -0.12386382533E+03  0.23573433531E+03 -0.57371776081E+03  0.63250691155E+03  0.50400001928E-02 0. -1.
</event>
<event>
 5   0  0.1337051E-02  0.6020023E+03  0.7818609E-02  0.9901261E-01
       -1   -1    0    0    0  501  0.00000000000E+00  0.00000000000E+00  0.40301754475E+03  0.40301754478E+03  0.50400001928E-02 0.  1.
        1   -1    0    0  501    0  0.00000000000E+00  0.00000000000E+00 -0.22480831604E+03  0.22480831610E+03  0.50400001928E-02 0. -1.
    10030    2    1    2    0    0  0.00000000000E+00  0.00000000000E+00  0.17820922871E+03  0.62782586088E+03  0.60200231095E+03 0.  0.
        5    1    3    3  502    0 -0.22790134387E+03 -0.19197500507E+03  0.45028458207E+02  0.30140185328E+03  0.46999998093E+01 0.  1.
       -5    1    3    3    0  502  0.22790134387E+03  0.19197500507E+03  0.13318077050E+03  0.32642400760E+03  0.46999998093E+01 0. -1.
</event>
<event>
 5   0  0.1276705E-02  0.5985332E+03  0.7818609E-02  0.9908454E-01
        1   -1    0    0  501    0  0.00000000000E+00  0.00000000000E+00  0.13578671445E+04  0.13578671446E+04  0.50400001928E-02 0.  1.
       -1   -1    0    0    0  501  0.00000000000E+00  0.00000000000E+00 -0.65956736147E+02  0.65956736339E+02  0.50400001928E-02 0. -1.
    10030    2    1    2    0    0  0.00000000000E+00  0.00000000000E+00  0.12919104084E+04  0.14238238809E+04  0.59853315737E+03 0.  0.
        1    1    3    3  502    0 -0.22707892298E+03 -0.66059755843E+02  0.10822126310E+04  0.11077512840E+04  0.50400001928E-02 0.  1.
       -1    1    3    3    0  502  0.22707892298E+03  0.66059755843E+02  0.20969777740E+03  0.31607259684E+03  0.50400001928E-02 0. -1.
</event>
<event>
 5   0  0.1332555E-02  0.5985453E+03  0.7818609E-02  0.9908429E-01
        1   -1    0    0  501    0  0.00000000000E+00  0.00000000000E+00  0.38129063815E+03  0.38129063818E+03  0.50400001928E-02 0. -1.
       -1   -1    0    0    0  501  0.00000000000E+00  0.00000000000E+00 -0.23489725447E+03  0.23489725452E+03  0.50400001928E-02 0.  1.
    10030    2    1    2    0    0  0.00000000000E+00  0.00000000000E+00  0.14639338369E+03  0.61618789271E+03  0.59854531686E+03 0.  0.
        2    1    3    3  502    0 -0.11815295103E+03  0.23742422644E+03  0.21597032288E+03  0.34201398145E+03  0.25500000920E-02 0. -1.
       -2    1    3    3    0  502  0.11815295103E+03 -0.23742422644E+03 -0.69576939190E+02  0.27417391125E+03  0.25500000920E-02 0.  1.
</event>
<event>
 5   0  0.1332555E-02  0.5984100E+03  0.7818609E-02  0.9908710E-01
        1   -1    0    0  501    0  0.00000000000E+00  0.00000000000E+00  0.44598742463E+03  0.44598742466E+03  0.50400001928E-02 0.  1.
       -1   -1    0    0    0  501  0.00000000000E+00  0.00000000000E+00 -0.20073126877E+03  0.20073126883E+03  0.50400001928E-02 0. -1.
    10030    2    1    2    0    0  0.00000000000E+00  0.00000000000E+00  0.24525615586E+03  0.64671869349E+03  0.59840996526E+03 0.  0.
        2    1    3    3  502    0 -0.15415784232E+03  0.24627445229E+03  0.19986709629E+03  0.35265082218E+03  0.25500000920E-02 0.  1.
       -2    1    3    3    0  502  0.15415784232E+03 -0.24627445229E+03  0.45389059571E+02  0.29406787131E+03  0.25500000920E-02 0. -1.
</event>
<event>
 5   0  0.8551000E-03  0.6017365E+03  0.7818609E-02  0.9901810E-01
        3   -1    0    0  501    0  0.00000000000E+00  0.00000000000E+00  0.21768636510E+03  0.21768638853E+03  0.10100000352E+00 0. -1.
       -3   -1    0    0    0  501  0.00000000000E+00  0.00000000000E+00 -0.41583542280E+03  0.41583543506E+03  0.10100000352E+00 0.  1.
    10030    2    1    2    0    0  0.00000000000E+00  0.00000000000E+00 -0.19814905770E+03  0.63352182360E+03  0.60173653031E+03 0.  0.
        3    1    3    3  502    0  0.13829131177E+03 -0.23232472996E+03 -0.23804087475E+03  0.36022595036E+03  0.10100000352E+00 0.  1.
       -3    1    3    3    0  502 -0.13829131177E+03  0.23232472996E+03  0.39891817052E+02  0.27329587324E+03  0.10100000352E+00 0. -1.
</event>
<event>
 5   0  0.1337051E-02  0.5987775E+03  0.7818609E-02  0.9907946E-01
        1   -1    0    0  501    0  0.00000000000E+00  0.00000000000E+00  0.13813386949E+04  0.13813386949E+04  0.50400001928E-02 0.  1.
       -1   -1    0    0    0  501  0.00000000000E+00  0.00000000000E+00 -0.64888943951E+02  0.64888944146E+02  0.50400001928E-02 0. -1.
    10030    2    1    2    0    0  0.00000000000E+00  0.00000000000E+00  0.13164497509E+04  0.14462276390E+04  0.59877745214E+03 0.  0.
        5    1    3    3  502    0 -0.35695902695E+02 -0.29694137436E+03  0.62737494857E+03  0.69503222470E+03  0.46999998093E+01 0. -1.
       -5    1    3    3    0  502  0.35695902695E+02  0.29694137436E+03  0.68907480237E+03  0.75119541435E+03  0.46999998093E+01 0.  1.
</event>
<event>
 5   0  0.2179625E-02  0.6011874E+03  0.7818609E-02  0.9902946E-01
        2   -1    0    0  501    0  0.00000000000E+00  0.00000000000E+00  0.11617118476E+04  0.11617118476E+04  0.25500000920E-02 0.  1.
       -2   -1    0    0    0  501  0.00000000000E+00  0.00000000000E+00 -0.77778811940E+02  0.77778811982E+02  0.25500000920E-02 0. -1.
    10030    2    1    2    0    0  0.00000000000E+00  0.00000000000E+00  0.10839330356E+04  0.12394906596E+04  0.60118738293E+03 0.  0.
        1    1    3    3  502    0 -0.19613160765E+03  0.22489376971E+03  0.46729425833E+03  0.55444453200E+03  0.50400001928E-02 0. -1.
       -1    1    3    3    0  502  0.19613160765E+03 -0.22489376971E+03  0.61663877732E+03  0.68504612757E+03  0.50400001928E-02 0.  1.
</event>
<event>
 5   0  0.1332555E-02  0.5981148E+03  0.7818609E-02  0.9909325E-01
        1   -1    0    0  501    0  0.00000000000E+00  0.00000000000E+00  0.30947359730E+03  0.30947359734E+03  0.50400001928E-02 0.  1.
       -1   -1    0    0    0  501  0.00000000000E+00  0.00000000000E+00 -0.28899178524E+03  0.28899178528E+03  0.50400001928E-02 0. -1.
    10030    2    1    2    0    0  0.00000000000E+00  0.00000000000E+00  0.20481812060E+02  0.59846538262E+03  0.59811479632E+03 0.  0.
        2    1    3    3  502    0  0.53184817420E+02 -0.28915643282E+03 -0.44520141508E+02  0.29735855537E+03  0.25500000920E-02 0.  1.
       -2    1    3    3    0  502 -0.53184817420E+02  0.28915643282E+03  0.65001953567E+02  0.30110682725E+03  0.25500000920E-02 0. -1.
</event>
<event>
 5   0  0.2092587E-02  0.6002947E+03  0.7818609E-02  0.9904795E-01
       -2   -1    0    0    0  501  0.00000000000E+00  0.00000000000E+00  0.13307291943E+03  0.13307291945E+03  0.25500000920E-02 0.  1.
        2   -1    0    0  501    0  0.00000000000E+00  0.00000000000E+00 -0.67698551629E+03  0.67698551629E+03  0.25500000920E-02 0. -1.
    10030    2    1    2    0    0  0.00000000000E+00  0.00000000000E+00 -0.54391259686E+03  0.81005843575E+03  0.60029472453E+03 0.  0.
        3    1    3    3  502    0  0.91885498906E+02  0.11812863738E+03  0.79133036379E+02  0.16929077803E+03  0.10100000352E+00 0.  1.
       -3    1    3    3    0  502 -0.91885498906E+02 -0.11812863738E+03 -0.62304563324E+03  0.64076765772E+03  0.10100000352E+00 0. -1.
</event>
<event>
 5   0  0.1303808E-02  0.5966333E+03  0.7818609E-02  0.9912416E-01
        1   -1    0    0  501    0  0.00000000000E+00  0.00000000000E+00  0.12719550618E+04  0.12719550618E+04  0.50400001928E-02 0. -1.
       -1   -1    0    0    0  501  0.00000000000E+00  0.00000000000E+00 -0.69965384101E+02  0.69965384283E+02  0.50400001928E-02 0.  1.
    10030    2    1    2    0    0  0.00000000000E+00  0.00000000000E+00  0.12019896777E+04  0.13419204461E+04  0.59663330309E+03 0.  0.
        4    1    3    3  502    0 -0.65129460063E+02 -0.29106437093E+03  0.58849287878E+03  0.65976192363E+03  0.12699999809E+01 0. -1.
       -4    1    3    3    0  502  0.65129460063E+02  0.29106437093E+03  0.61349679895E+03  0.68215852250E+03  0.12699999809E+01 0.  1.
</event>
<event>
 5   0  0.2179625E-02  0.5999584E+03  0.7818609E-02  0.9905492E-01
        2   -1    0    0  501    0  0.00000000000E+00  0.00000000000E+00  0.10204025491E+04  0.10204025491E+04  0.25500000920E-02 0. -1.
       -2   -1    0    0    0  501  0.00000000000E+00  0.00000000000E+00 -0.88188261575E+02  0.88188261612E+02  0.25500000920E-02 0.  1.
    10030    2    1    2    0    0  0.00000000000E+00  0.00000000000E+00  0.93221428754E+03  0.11085908107E+04  0.59995842168E+03 0.  0.
        1    1    3    3  502    0 -0.23481700971E+03 -0.85978165921E+02  0.77228287315E+03  0.81175865210E+03  0.50400001928E-02 0. -1.
       -1    1    3    3    0  502  0.23481700971E+03  0.85978165921E+02  0.15993141439E+03  0.29683215863E+03  0.50400001928E-02 0.  1.
</event>
<event>
 5   0  0.1276705E-02  0.5772717E+03  0.7818609E-02  0.9953715E-01
        1   -1    0    0  501    0  0.00000000000E+00  0.00000000000E+00  0.79782965606E+03  0.79782965607E+03  0.50400001928E-02 0.  1.
       -1   -1    0    0    0  501  0.00000000000E+00  0.00000000000E+00 -0.10442161177E+03  0.10442161189E+03  0.50400001928E-02 0. -1.
    10030    2    1    2    0    0  0.00000000000E+00  0.00000000000E+00  0.69340804429E+03  0.90225126797E+03  0.57727171650E+03 0.  0.
        1    1    3    3  502    0  0.94479141467E+02  0.13557824815E+03  0.71657685828E+03  0.73538436439E+03  0.50400001928E-02 0.  1.
       -1    1    3    3    0  502 -0.94479141467E+02 -0.13557824815E+03 -0.23168813992E+02  0.16686690358E+03  0.50400001928E-02 0. -1.
</event>
<event>
 5   0  0.2142838E-02  0.6027041E+03  0.7818609E-02  0.9899812E-01
        2   -1    0    0  501    0  0.00000000000E+00  0.00000000000E+00  0.24577455896E+03  0.24577455898E+03  0.25500000920E-02 0. -1.
       -2   -1    0    0    0  501  0.00000000000E+00  0.00000000000E+00 -0.36949743961E+03  0.36949743962E+03  0.25500000920E-02 0.  1.
    10030    2    1    2    0    0  0.00000000000E+00  0.00000000000E+00 -0.12372288065E+03  0.61527199860E+03  0.60270414057E+03 0.  0.
        4    1    3    3  502    0 -0.13825519457E+03  0.20191869913E+03  0.11766293706E+03  0.27153607411E+03  0.12699999809E+01 0. -1.
       -4    1    3    3    0  502  0.13825519457E+03 -0.20191869913E+03 -0.24138581771E+03  0.34373592448E+03  0.12699999809E+01 0.  1.
</event>
<event>
 5   0  0.8551000E-03  0.6223652E+03  0.7818609E-02  0.9860062E-01
       -3   -1    0    0    0  501  0.00000000000E+00  0.00000000000E+00  0.53418860032E+03  0.53418860987E+03  0.10100000352E+00 0.  1.
        3   -1    0    0  501    0  0.00000000000E+00  0.00000000000E+00 -0.18127418497E+03  0.18127421310E+03  0.10100000352E+00 0. -1.
    10030    2    1    2    0    0  0.00000000000E+00  0.00000000000E+00  0.35291441536E+03  0.71546282298E+03  0.62236521954E+03 0.  0.
        2    1    3    3  502    0  0.13558056457E+03  0.11363133713E+03 -0.11784698880E+03  0.21256077494E+03  0.25500000920E-02 0. -1.
       -2    1    3    3    0  502 -0.13558056457E+03 -0.11363133713E+03  0.47076140416E+03  0.50290204804E+03  0.25500000920E-02 0.  1.
</event>
<event>
 5   0  0.2142838E-02  0.6023587E+03  0.7818609E-02  0.9900525E-01
        2   -1    0    0  501    0  0.00000000000E+00  0.00000000000E+00  0.22699599847E+03  0.22699599848E+03  0.25500000920E-02 0.  1.
       -2   -1    0    0    0  501  0.00000000000E+00  0.00000000000E+00 -0.39960615441E+03  0.39960615442E+03  0.25500000920E-02 0. -1.
    10030    2    1    2    0    0  0.00000000000E+00  0.00000000000E+00 -0.17261015594E+03  0.62660215290E+03  0.60235869055E+03 0.  0.
        4    1    3    3  502    0 -0.76852625049E+02 -0.27092871733E+03 -0.19736673776E+03  0.34389524266E+03  0.12699999809E+01 0.  1.
       -4    1    3    3    0  502  0.76852625049E+02  0.27092871733E+03  0.24756581817E+02  0.28270691024E+03  0.12699999809E+01 0. -1.
</event>
<event>
 5   0  0.2126207E-02  0.5927388E+03  0.7818609E-02  0.9920586E-01
       -2   -1    0    0    0  501  0.00000000000E+00  0.00000000000E+00  0.70108228736E+02  0.70108228783E+02  0.25500000920E-02 0. -1.
        2   -1    0    0  501    0  0.00000000000E+00  0.00000000000E+00 -0.12528462105E+04  0.12528462105E+04  0.25500000920E-02 0.  1.
    10030    2    1    2    0    0  0.00000000000E+00  0.00000000000E+00 -0.11827379818E+04  0.13229544393E+04  0.59273882521E+03 0.  0.
        5    1    3    3  502    0 -0.53821561179E+02  0.17067213563E+03 -0.64202231192E+02  0.19018347672E+03  0.46999998093E+01 0. -1.
       -5    1    3    3    0  502  0.53821561179E+02 -0.17067213563E+03 -0.11185357506E+04  0.11327709626E+04  0.46999998093E+01 0.  1.
</event>
<event>
 5   0  0.2141800E-02  0.6022059E+03  0.7818609E-02  0.9900840E-01
       -2   -1    0    0    0  501  0.00000000000E+00  0.00000000000E+00  0.30646644580E+03  0.30646644581E+03  0.25500000920E-02 0. -1.
        2   -1    0    0  501    0  0.00000000000E+00  0.00000000000E+00 -0.29583330588E+03  0.29583330590E+03  0.25500000920E-02 0.  1.
    10030    2    1    2    0    0  0.00000000000E+00  0.00000000000E+00  0.10633139913E+02  0.60229975170E+03  0.60220588443E+03 0.  0.
        2    1    3    3  502    0 -0.27335287210E+02  0.24481745066E+03 -0.16785827412E+03  0.29809260687E+03  0.25500000920E-02 0.  1.
       -2    1    3    3    0  502  0.27335287210E+02 -0.24481745066E+03  0.17849141404E+03  0.30420714483E+03  0.25500000920E-02 0. -1.
</event>
<event>
 5   0  0.2092587E-02  0.6023462E+03  0.7818609E-02  0.9900550E-01
       -2   -1    0    0    0  501  0.00000000000E+00  0.00000000000E+00  0.13709260640E+03  0.13709260642E+03  0.25500000920E-02 0. -1.
        2   -1    0    0  501    0  0.00000000000E+00  0.00000000000E+00 -0.66163481847E+03  0.66163481848E+03  0.25500000920E-02 0.  1.
    10030    2    1    2    0    0  0.00000000000E+00  0.00000000000E+00 -0.52454221207E+03  0.79872742490E+03  0.60234621858E+03 0.  0.
        3    1    3    3  502    0  0.13637217432E+03  0.26838314631E+03 -0.25053382539E+03  0.39165557703E+03  0.10100000352E+00 0.  1.
       -3    1    3    3    0  502 -0.13637217432E+03 -0.26838314631E+03 -0.27400838668E+03  0.40707184787E+03  0.10100000352E+00 0. -1.
</event>
<event>
 5   0  0.2092587E-02  0.5929960E+03  0.7818609E-02  0.9920045E-01
        2   -1    0    0  501    0  0.00000000000E+00  0.00000000000E+00  0.43738128066E+03  0.43738128066E+03  0.25500000920E-02 0.  1.
       -2   -1    0    0    0  501  0.00000000000E+00  0.00000000000E+00 -0.20099413518E+03  0.20099413519E+03  0.25500000920E-02 0. -1.
    10030    2    1    2    0    0  0.00000000000E+00  0.00000000000E+00  0.23638714548E+03  0.63837541586E+03  0.59299602783E+03 0.  0.
        3    1    3    3  502    0  0.12301716897E+03 -0.18147406230E+03  0.33308114577E+03  0.39875947515E+03  0.10100000352E+00 0.  1.
       -3    1    3    3    0  502 -0.12301716897E+03  0.18147406230E+03 -0.96694000292E+02  0.23961594071E+03  0.10100000352E+00 0. -1.
</event>
<event>
 5   0  0.2141800E-02  0.5963050E+03  0.7818609E-02  0.9913102E-01
        2   -1    0    0  501    0  0.00000000000E+00  0.00000000000E+00  0.24219450935E+03  0.24219450936E+03  0.25500000920E-02 0. -1.
       -2   -1    0    0    0  501  0.00000000000E+00  0.00000000000E+00 -0.36703931516E+03  0.36703931517E+03  0.25500000920E-02 0.  1.
    10030    2    1    2    0    0  0.00000000000E+00  0.00000000000E+00 -0.12484480581E+03  0.60923382453E+03  0.59630497852E+03 0.  0.
        2    1    3    3  502    0 -0.75610680406E+02 -0.75418964134E+01  0.23213577634E+03  0.24425575501E+03  0.25500000920E-02 0. -1.
       -2    1    3    3    0  502  0.75610680406E+02  0.75418964134E+01 -0.35698058215E+03  0.36497806952E+03  0.25500000920E-02 0.  1.
</event>
<event>
 5   0  0.1337051E-02  0.5911849E+03  0.7818609E-02  0.9923865E-01
        1   -1    0    0  501    0  0.00000000000E+00  0.00000000000E+00  0.51034485242E+03  0.51034485244E+03  0.50400001928E-02 0. -1.
       -1   -1    0    0    0  501  0.00000000000E+00  0.00000000000E+00 -0.17120755433E+03  0.17120755441E+03  0.50400001928E-02 0.  1.
    10030    2    1    2    0    0  0.00000000000E+00  0.00000000000E+00  0.33913729808E+03  0.68155240685E+03  0.59118489183E+03 0.  0.
        5    1    3    3  502    0  0.15618140497E+03 -0.24212707782E+03  0.24547061028E+03  0.37854466524E+03  0.46999998093E+01 0. -1.
       -5    1    3    3    0  502 -0.15618140497E+03  0.24212707782E+03  0.93666687802E+02  0.30300774161E+03  0.46999998093E+01 0.  1.
</event>
<event>
 5   0  0.8551000E-03  0.5949611E+03  0.7818609E-02  0.9915916E-01
        4   -1    0    0  501    0  0.00000000000E+00  0.00000000000E+00  0.60785465515E+03  0.60785598186E+03  0.12699999809E+01 0. -1.
       -4   -1    0    0    0  501  0.00000000000E+00  0.00000000000E+00 -0.14558099424E+03  0.14558653366E+03  0.12699999809E+01 0.  1.
    10030    2    1    2    0    0  0.00000000000E+00  0.00000000000E+00  0.46227366092E+03  0.75344251552E+03  0.59496107992E+03 0.  0.
        2    1    3    3  502    0  0.26123559509E+03  0.13743784790E+03  0.18441001778E+03  0.34805208352E+03  0.25500000920E-02 0.  1.
       -2    1    3    3    0  502 -0.26123559509E+03 -0.13743784790E+03  0.27786364313E+03  0.40539043200E+03  0.25500000920E-02 0. -1.
</event>
<event>
 5   0  0.2092587E-02  0.5994496E+03  0.7818609E-02  0.9906549E-01
       -2   -1    0    0    0  501  0.00000000000E+00  0.00000000000E+00  0.60111615796E+03  0.60111615796E+03  0.25500000920E-02 0. -1.
        2   -1    0    0  501    0  0.00000000000E+00  0.00000000000E+00 -0.14944692006E+03  0.14944692008E+03  0.25500000920E-02 0.  1.
    10030    2    1    2    0    0  0.00000000000E+00  0.00000000000E+00  0.45166923790E+03  0.75056307804E+03  0.59944960894E+03 0.  0.
        3    1    3    3  502    0  0.13723122306E+03 -0.26187368465E+03  0.28748910452E+03  0.41238359657E+03  0.10100000352E+00 0. -1.
       -3    1    3    3    0  502 -0.13723122306E+03  0.26187368465E+03  0.16418013338E+03  0.33817948148E+03  0.10100000352E+00 0.  1.
</event>
<event>
 5   0  0.1303808E-02  0.6011363E+03  0.7818609E-02  0.9903051E-01
       -1   -1    0    0    0  501  0.00000000000E+00  0.00000000000E+00  0.21887725442E+03  0.21887725448E+03  0.50400001928E-02 0. -1.
        1   -1    0    0  501    0  0.00000000000E+00  0.00000000000E+00 -0.41274832923E+03  0.41274832926E+03  0.50400001928E-02 0.  1.
    10030    2    1    2    0    0  0.00000000000E+00  0.00000000000E+00 -0.19387107481E+03  0.63162558374E+03  0.60113632762E+03 0.  0.
        4    1    3    3  502    0  0.22020719172E+03  0.11850209071E+03  0.78272210342E+02  0.26203454849E+03  0.12699999809E+01 0. -1.
       -4    1    3    3    0  502 -0.22020719172E+03 -0.11850209071E+03 -0.27214328515E+03  0.36959103526E+03  0.12699999809E+01 0.  1.
</event>
<event>
 5   0  0.2179625E-02  0.6012320E+03  0.7818609E-02  0.9902853E-01
       -2   -1    0    0    0  501  0.00000000000E+00  0.00000000000E+00  0.66669166799E+02  0.66669166847E+02  0.25500000920E-02 0.  1.
        2   -1    0    0  501    0  0.00000000000E+00  0.00000000000E+00 -0.13554989452E+04  0.13554989452E+04  0.25500000920E-02 0. -1.
    10030    2    1    2    0    0  0.00000000000E+00  0.00000000000E+00 -0.12888297784E+04  0.14221681120E+04  0.60123201946E+03 0.  0.
        1    1    3    3  502    0  0.15577339169E+03  0.10954668051E+02 -0.12520323300E+04  0.12617330580E+04  0.50400001928E-02 0. -1.
       -1    1    3    3    0  502 -0.15577339169E+03 -0.10954668051E+02 -0.36797448340E+02  0.16043505397E+03  0.50400001928E-02 0.  1.
</event>
<event>
 5   0  0.2141800E-02  0.6002305E+03  0.7818609E-02  0.9904928E-01
       -2   -1    0    0    0  501  0.00000000000E+00  0.00000000000E+00  0.14109902283E+03  0.14109902285E+03  0.25500000920E-02 0. -1.
        2   -1    0    0  501    0  0.00000000000E+00  0.00000000000E+00 -0.63833998657E+03  0.63833998657E+03  0.25500000920E-02 0.  1.
    10030    2    1    2    0    0  0.00000000000E+00  0.00000000000E+00 -0.49724096374E+03  0.77943900943E+03  0.60023045024E+03 0.  0.
        2    1    3    3  502    0  0.24512504183E+02  0.18559880002E+03  0.55979460850E+02  0.19540081237E+03  0.25500000920E-02 0.  1.
       -2    1    3    3    0  502 -0.24512504183E+02 -0.18559880002E+03 -0.55322042459E+03  0.58403819706E+03  0.25500000920E-02 0. -1.
</event>
<event>
 5   0  0.1332555E-02  0.6001407E+03  0.7818609E-02  0.9905114E-01
       -1   -1    0    0    0  501  0.00000000000E+00  0.00000000000E+00  0.46672408567E+03  0.46672408570E+03  0.50400001928E-02 0.  1.
        1   -1    0    0  501    0  0.00000000000E+00  0.00000000000E+00 -0.19292388795E+03  0.19292388802E+03  0.50400001928E-02 0. -1.
    10030    2    1    2    0    0  0.00000000000E+00  0.00000000000E+00  0.27380019772E+03  0.65964797371E+03  0.60014073429E+03 0.  0.
        2    1    3    3  502    0 -0.86708684745E+02  0.14013740795E+03  0.41253475450E+03  0.44423171070E+03  0.25500000920E-02 0.  1.
       -2    1    3    3    0  502  0.86708684745E+02 -0.14013740795E+03 -0.13873455678E+03  0.21541626301E+03  0.25500000920E-02 0. -1.
</event>
<event>
 5   0  0.2126207E-02  0.6020405E+03  0.7818609E-02  0.9901182E-01
       -2   -1    0    0    0  501  0.00000000000E+00  0.00000000000E+00  0.10431723188E+03  0.10431723191E+03  0.25500000920E-02 0. -1.
        2   -1    0    0  501    0  0.00000000000E+00  0.00000000000E+00 -0.86863110391E+03  0.86863110391E+03  0.25500000920E-02 0.  1.
    10030    2    1    2    0    0  0.00000000000E+00  0.00000000000E+00 -0.76431387203E+03  0.97294833582E+03  0.60204050462E+03 0.  0.
        5    1    3    3  502    0 -0.17691671551E+03  0.10850423011E+03 -0.73444263975E+03  0.76321738270E+03  0.46999998093E+01 0. -1.
       -5    1    3    3    0  502  0.17691671551E+03 -0.10850423011E+03 -0.29871232278E+02  0.20973095312E+03  0.46999998093E+01 0.  1.
</event>
<event>
 5   0  0.1250390E-02  0.6000623E+03  0.7818609E-02  0.9905277E-01
       -1   -1    0    0    0  501  0.00000000000E+00  0.00000000000E+00  0.83416551675E+02  0.83416551828E+02  0.50400001928E-02 0. -1.
        1   -1    0    0  501    0  0.00000000000E+00  0.00000000000E+00 -0.10791466556E+04  0.10791466556E+04  0.50400001928E-02 0.  1.
    10030    2    1    2    0    0  0.00000000000E+00  0.00000000000E+00 -0.99573010395E+03  0.11625632075E+04  0.60006230630E+03 0.  0.
        3    1    3    3  502    0  0.18716545119E+02  0.20272907491E+03 -0.70891346153E+02  0.21558056507E+03  0.10100000352E+00 0. -1.
       -3    1    3    3    0  502 -0.18716545119E+02 -0.20272907491E+03 -0.92483875780E+03  0.94698264240E+03  0.10100000352E+00 0.  1.
</event>
<event>
 5   0  0.1250390E-02  0.6015380E+03  0.7818609E-02  0.9902220E-01
        1   -1    0    0  501    0  0.00000000000E+00  0.00000000000E+00  0.77576075797E+03  0.77576075798E+03  0.50400001928E-02 0. -1.
       -1   -1    0    0    0  501  0.00000000000E+00  0.00000000000E+00 -0.11661066550E+03  0.11661066561E+03  0.50400001928E-02 0.  1.
    10030    2    1    2    0    0  0.00000000000E+00  0.00000000000E+00  0.65915009247E+03  0.89237142359E+03  0.60153795661E+03 0.  0.
        3    1    3    3  502    0 -0.12134725095E+03 -0.18194164913E+03  0.63588485824E+03  0.67244143399E+03  0.10100000352E+00 0. -1.
       -3    1    3    3    0  502  0.12134725095E+03  0.18194164913E+03  0.23265234221E+02  0.21992998960E+03  0.10100000352E+00 0.  1.
</event>
<event>
 5   0  0.1303808E-02  0.5965564E+03  0.7818609E-02  0.9912576E-01
        1   -1    0    0  501    0  0.00000000000E+00  0.00000000000E+00  0.79502543166E+03  0.79502543168E+03  0.50400001928E-02 0. -1.
       -1   -1    0    0    0  501  0.00000000000E+00  0.00000000000E+00 -0.11190822480E+03  0.11190822491E+03  0.50400001928E-02 0.  1.
    10030    2    1    2    0    0  0.00000000000E+00  0.00000000000E+00  0.68311720687E+03  0.90693365659E+03  0.59655640063E+03 0.  0.
        4    1    3    3  502    0  0.92230900499E+02  0.22254814579E+03  0.74170278424E+02  0.25206558532E+03  0.12699999809E+01 0.  1.
       -4    1    3    3    0  502 -0.92230900499E+02 -0.22254814579E+03  0.60894692844E+03  0.65486807126E+03  0.12699999809E+01 0. -1.
</event>
<event>
 5   0  0.2142838E-02  0.6000563E+03  0.7818609E-02  0.9905289E-01
       -2   -1    0    0    0  501  0.00000000000E+00  0.00000000000E+00  0.72809120064E+02  0.72809120109E+02  0.25500000920E-02 0.  1.
        2   -1    0    0  501    0  0.00000000000E+00  0.00000000000E+00 -0.12363409483E+04  0.12363409483E+04  0.25500000920E-02 0. -1.
    10030    2    1    2    0    0  0.00000000000E+00  0.00000000000E+00 -0.11635318283E+04  0.13091500684E+04  0.60005631928E+03 0.  0.
        4    1    3    3  502    0 -0.23017863733E+03 -0.11560743490E+02 -0.10008558531E+04  0.10270491261E+04  0.12699999809E+01 0. -1.
       -4    1    3    3    0  502  0.23017863733E+03  0.11560743490E+02 -0.16267597522E+03  0.28210094237E+03  0.12699999809E+01 0.  1.
</event>
<event>
 5   0  0.2141800E-02  0.6010753E+03  0.7818609E-02  0.9903178E-01
       -2   -1    0    0    0  501  0.00000000000E+00  0.00000000000E+00  0.62699535096E+02  0.62699535148E+02  0.25500000920E-02 0. -1.
        2   -1    0    0  501    0  0.00000000000E+00  0.00000000000E+00 -0.14405670794E+04  0.14405670794E+04  0.25500000920E-02 0.  1.
    10030    2    1    2    0    0  0.00000000000E+00  0.00000000000E+00 -0.13778675443E+04  0.15032666145E+04  0.60107532370E+03 0.  0.
        2    1    3    3  502    0 -0.18661842209E+03  0.18671838060E+03 -0.10481741251E+04  0.10809066498E+04  0.25500000920E-02 0.  1.
       -2    1    3    3    0  502  0.18661842209E+03 -0.18671838060E+03 -0.32969341919E+03  0.42235996470E+03  0.25500000920E-02 0. -1.
</event>
<event>
 5   0  0.2142838E-02  0.6000310E+03  0.7818609E-02  0.9905342E-01
       -2   -1    0    0    0  501  0.00000000000E+00  0.00000000000E+00  0.10614838591E+03  0.10614838595E+03  0.25500000920E-02 0. -1.
        2   -1    0    0  501    0  0.00000000000E+00  0.00000000000E+00 -0.84795736607E+03  0.84795736607E+03  0.25500000920E-02 0.  1.
    10030    2    1    2    0    0  0.00000000000E+00  0.00000000000E+00 -0.74180898016E+03  0.95410575202E+03  0.60003101836E+03 0.  0.
        4    1    3    3  502    0  0.29972831551E+03 -0.28885742638E+01 -0.39116093220E+03  0.49280208478E+03  0.12699999809E+01 0. -1.
       -4    1    3    3    0  502 -0.29972831551E+03  0.28885742638E+01 -0.35064804795E+03  0.46130366724E+03  0.12699999809E+01 0.  1.
</event>
<event>
 5   0  0.2179625E-02  0.5973457E+03  0.7818609E-02  0.9910928E-01
       -2   -1    0    0    0  501  0.00000000000E+00  0.00000000000E+00  0.12508029425E+03  0.12508029428E+03  0.25500000920E-02 0. -1.
        2   -1    0    0  501    0  0.00000000000E+00  0.00000000000E+00 -0.71318558008E+03  0.71318558008E+03  0.25500000920E-02 0.  1.
    10030    2    1    2    0    0  0.00000000000E+00  0.00000000000E+00 -0.58810528583E+03  0.83826587436E+03  0.59734566953E+03 0.  0.
        1    1    3    3  502    0  0.28133015031E+02  0.29142629720E+03 -0.21121278924E+03  0.36101467505E+03  0.50400001928E-02 0.  1.
       -1    1    3    3    0  502 -0.28133015031E+02 -0.29142629720E+03 -0.37689249658E+03  0.47725119931E+03  0.50400001928E-02 0. -1.
</event>
<event>
 5   0  0.2092587E-02  0.6031118E+03  0.7818609E-02  0.9898971E-01
       -2   -1    0    0    0  501  0.00000000000E+00  0.00000000000E+00  0.29711606038E+03  0.29711606039E+03  0.25500000920E-02 0.  1.
        2   -1    0    0  501    0  0.00000000000E+00  0.00000000000E+00 -0.30606210327E+03  0.30606210328E+03  0.25500000920E-02 0. -1.
    10030    2    1    2    0    0  0.00000000000E+00  0.00000000000E+00 -0.89460428877E+01  0.60317816366E+03  0.60311181835E+03 0.  0.
        3    1    3    3  502    0 -0.11447782805E+03  0.16375165083E+03 -0.23036548387E+03  0.30493940812E+03  0.10100000352E+00 0. -1.
       -3    1    3    3    0  502  0.11447782805E+03 -0.16375165083E+03  0.22141944098E+03  0.29823875555E+03  0.10100000352E+00 0.  1.
</event>
<event>
 5   0  0.1276705E-02  0.5990756E+03  0.7818609E-02  0.9907326E-01
       -1   -1    0    0    0  501  0.00000000000E+00  0.00000000000E+00  0.19094379480E+03  0.19094379487E+03  0.50400001928E-02 0.  1.
        1   -1    0    0  501    0  0.00000000000E+00  0.00000000000E+00 -0.46989167193E+03  0.46989167195E+03  0.50400001928E-02 0. -1.
    10030    2    1    2    0    0  0.00000000000E+00  0.00000000000E+00 -0.27894787713E+03  0.66083546682E+03  0.59907561797E+03 0.  0.
        1    1    3    3  502    0 -0.25675129772E+03 -0.49555485268E+02  0.21690484644E+02  0.26238798020E+03  0.50400001928E-02 0.  1.
       -1    1    3    3    0  502  0.25675129772E+03  0.49555485268E+02 -0.30063836177E+03  0.39844748662E+03  0.50400001928E-02 0. -1.
</event>
<event>
 5   0  0.2141800E-02  0.5962266E+03  0.7818609E-02  0.9913266E-01
        2   -1    0    0  501    0  0.00000000000E+00  0.00000000000E+00  0.32090403369E+03  0.32090403370E+03  0.25500000920E-02 0. -1.
       -2   -1    0    0    0  501  0.00000000000E+00  0.00000000000E+00 -0.27694118774E+03  0.27694118775E+03  0.25500000920E-02 0.  1.
    10030    2    1    2    0    0  0.00000000000E+00  0.00000000000E+00  0.43962845950E+02  0.59784522145E+03  0.59622661547E+03 0.  0.
        2    1    3    3  502    0  0.22875364793E+02 -0.52944976964E+02  0.31525636021E+03  0.32048872922E+03  0.25500000920E-02 0. -1.
       -2    1    3    3    0  502 -0.22875364793E+02  0.52944976964E+02 -0.27129351426E+03  0.27735649223E+03  0.25500000920E-02 0.  1.
</event>
<event>
 5   0  0.1332555E-02  0.5971733E+03  0.7818609E-02  0.9911288E-01
        1   -1    0    0  501    0  0.00000000000E+00  0.00000000000E+00  0.63567920153E+03  0.63567920155E+03  0.50400001928E-02 0.  1.
       -1   -1    0    0    0  501  0.00000000000E+00  0.00000000000E+00 -0.14024995430E+03  0.14024995439E+03  0.50400001928E-02 0. -1.
    10030    2    1    2    0    0  0.00000000000E+00  0.00000000000E+00  0.49542924723E+03  0.77592915594E+03  0.59717327136E+03 0.  0.
        2    1    3    3  502    0  0.84970994199E+02 -0.53521739053E+02 -0.11764937065E+03  0.15468038281E+03  0.25500000920E-02 0. -1.
       -2    1    3    3    0  502 -0.84970994199E+02  0.53521739053E+02  0.61307861788E+03  0.62124877313E+03  0.25500000920E-02 0.  1.
</event>
<event>
 5   0  0.2142838E-02  0.5984729E+03  0.7818609E-02  0.9908579E-01
        2   -1    0    0  501    0  0.00000000000E+00  0.00000000000E+00  0.12971882460E+04  0.12971882460E+04  0.25500000920E-02 0.  1.
       -2   -1    0    0    0  501  0.00000000000E+00  0.00000000000E+00 -0.69028106163E+02  0.69028106210E+02  0.25500000920E-02 0. -1.
    10030    2    1    2    0    0  0.00000000000E+00  0.00000000000E+00  0.12281601398E+04  0.13662163522E+04  0.59847288323E+03 0.  0.
        4    1    3    3  502    0  0.16457915444E+03  0.24594129119E+03  0.51282346641E+03  0.59208355608E+03  0.12699999809E+01 0. -1.
       -4    1    3    3    0  502 -0.16457915444E+03 -0.24594129119E+03  0.71533667340E+03  0.77413279610E+03  0.12699999809E+01 0.  1.
</event>
<event>
 5   0  0.2142838E-02  0.6003622E+03  0.7818609E-02  0.9904655E-01
       -2   -1    0    0    0  501  0.00000000000E+00  0.00000000000E+00  0.48554306554E+02  0.48554306621E+02  0.25500000920E-02 0. -1.
        2   -1    0    0  501    0  0.00000000000E+00  0.00000000000E+00 -0.18558329889E+04  0.18558329890E+04  0.25500000920E-02 0.  1.
    10030    2    1    2    0    0  0.00000000000E+00  0.00000000000E+00 -0.18072786824E+04  0.19043872956E+04  0.60036217044E+03 0.  0.
        4    1    3    3  502    0  0.15139978529E+02 -0.17759978009E+03 -0.13749444367E+03  0.22511604958E+03  0.12699999809E+01 0. -1.
       -4    1    3    3    0  502 -0.15139978529E+02  0.17759978009E+03 -0.16697842387E+04  0.16792712460E+04  0.12699999809E+01 0.  1.
</event>
<event>
 5   0  0.1303808E-02  0.5991340E+03  0.7818609E-02  0.9907204E-01
       -1   -1    0    0    0  501  0.00000000000E+00  0.00000000000E+00  0.49440231692E+03  0.49440231694E+03  0.50400001928E-02 0.  1.
        1   -1    0    0  501    0  0.00000000000E+00  0.00000000000E+00 -0.18151290675E+03  0.18151290682E+03  0.50400001928E-02 0. -1.
    10030    2    1    2    0    0  0.00000000000E+00  0.00000000000E+00  0.31288941017E+03  0.67591522376E+03  0.59913404737E+03 0.  0.
        4    1    3    3  502    0  0.16255933758E+03  0.21982067463E+03  0.18310963552E+02  0.27401381628E+03  0.12699999809E+01 0. -1.
       -4    1    3    3    0  502 -0.16255933758E+03 -0.21982067463E+03  0.29457844662E+03  0.40190140748E+03  0.12699999809E+01 0.  1.
</event>
<event>
 5   0  0.1250390E-02  0.6002604E+03  0.7818609E-02  0.9904866E-01
       -1   -1    0    0    0  501  0.00000000000E+00  0.00000000000E+00  0.14576527564E+03  0.14576527572E+03  0.50400001928E-02 0. -1.
        1   -1    0    0  501    0  0.00000000000E+00  0.00000000000E+00 -0.61796701949E+03  0.61796701951E+03  0.50400001928E-02 0.  1.
    10030    2    1    2    0    0  0.00000000000E+00  0.00000000000E+00 -0.47220174385E+03  0.76373229523E+03  0.60026038673E+03 0.  0.
        3    1    3    3  502    0  0.14259309447E+03  0.39756548538E+02 -0.56828692301E+03  0.58725072227E+03  0.10100000352E+00 0.  1.
       -3    1    3    3    0  502 -0.14259309447E+03 -0.39756548538E+02  0.96085179156E+02  0.17648157296E+03  0.10100000352E+00 0. -1.
</event>
<event>
 5   0  0.2092587E-02  0.6010463E+03  0.7818609E-02  0.9903238E-01
        2   -1    0    0  501    0  0.00000000000E+00  0.00000000000E+00  0.97161185051E+02  0.97161185084E+02  0.25500000920E-02 0. -1.
       -2   -1    0    0    0  501  0.00000000000E+00  0.00000000000E+00 -0.92952933996E+03  0.92952933996E+03  0.25500000920E-02 0.  1.
    10030    2    1    2    0    0  0.00000000000E+00  0.00000000000E+00 -0.83236815491E+03  0.10266905250E+04  0.60104632843E+03 0.  0.
        3    1    3    3  502    0 -0.23073096377E+03 -0.18812155918E+03 -0.34601035479E+03  0.45645336508E+03  0.10100000352E+00 0.  1.
       -3    1    3    3    0  502  0.23073096377E+03  0.18812155918E+03 -0.48635780012E+03  0.57023715997E+03  0.10100000352E+00 0. -1.
</event>
<event>
 5   0  0.1337051E-02  0.5995746E+03  0.7818609E-02  0.9906289E-01
        1   -1    0    0  501    0  0.00000000000E+00  0.00000000000E+00  0.21669500590E+03  0.21669500595E+03  0.50400001928E-02 0.  1.
       -1   -1    0    0    0  501  0.00000000000E+00  0.00000000000E+00 -0.41474161698E+03  0.41474161701E+03  0.50400001928E-02 0. -1.
    10030    2    1    2    0    0  0.00000000000E+00  0.00000000000E+00 -0.19804661109E+03  0.63143662297E+03  0.59957463978E+03 0.  0.
        5    1    3    3  502    0  0.11750340516E+02 -0.31978700184E+02  0.21461056412E+03  0.21734877961E+03  0.46999998093E+01 0.  1.
       -5    1    3    3    0  502 -0.11750340516E+02  0.31978700184E+02 -0.41265717521E+03  0.41408784336E+03  0.46999998093E+01 0. -1.
</event>
<event>
 5   0  0.1303808E-02  0.6090552E+03  0.7818609E-02  0.9886795E-01
       -1   -1    0    0    0  501  0.00000000000E+00  0.00000000000E+00  0.97187583858E+02  0.97187583988E+02  0.50400001928E-02 0.  1.
        1   -1    0    0  501    0  0.00000000000E+00  0.00000000000E+00 -0.95420691517E+03  0.95420691518E+03  0.50400001928E-02 0. -1.
    10030    2    1    2    0    0  0.00000000000E+00  0.00000000000E+00 -0.85701933131E+03  0.10513944992E+04  0.60905521806E+03 0.  0.
        4    1    3    3  502    0 -0.23841127370E+03 -0.17427469688E+03 -0.55681060248E+03  0.63027872036E+03  0.12699999809E+01 0. -1.
       -4    1    3    3    0  502  0.23841127370E+03  0.17427469688E+03 -0.30020872883E+03  0.42111577882E+03  0.12699999809E+01 0.  1.
</event>
<event>
 5   0  0.2142838E-02  0.5998391E+03  0.7818609E-02  0.9905740E-01
        2   -1    0    0  501    0  0.00000000000E+00  0.00000000000E+00  0.59574146414E+03  0.59574146415E+03  0.25500000920E-02 0. -1.
       -2   -1    0    0    0  501  0.00000000000E+00  0.00000000000E+00 -0.15099123324E+03  0.15099123326E+03  0.25500000920E-02 0.  1.
    10030    2    1    2    0    0  0.00000000000E+00  0.00000000000E+00  0.44475023090E+03  0.74673269741E+03  0.59983910634E+03 0.  0.
        4    1    3    3  502    0 -0.23437465487E+03 -0.14955767802E+03  0.36239681770E+03  0.45676256883E+03  0.12699999809E+01 0. -1.
       -4    1    3    3    0  502  0.23437465487E+03  0.14955767802E+03  0.82353413205E+02  0.28997012858E+03  0.12699999809E+01 0.  1.
</event>
<event>
 5   0  0.2179625E-02  0.6006298E+03  0.7818609E-02  0.9904100E-01
        2   -1    0    0  501    0  0.00000000000E+00  0.00000000000E+00  0.80006593713E+03  0.80006593714E+03  0.25500000920E-02 0. -1.
       -2   -1    0    0    0  501  0.00000000000E+00  0.00000000000E+00 -0.11272699252E+03  0.11272699255E+03  0.25500000920E-02 0.  1.
    10030    2    1    2    0    0  0.00000000000E+00  0.00000000000E+00  0.68733894461E+03  0.91279292969E+03  0.60062975926E+03 0.  0.
        1    1    3    3  502    0 -0.17754620921E+03 -0.10138555117E+03  0.67796556277E+03  0.70812357023E+03  0.50400001928E-02 0. -1.
       -1    1    3    3    0  502  0.17754620921E+03  0.10138555117E+03  0.93733818464E+01  0.20466935946E+03  0.50400001928E-02 0.  1.
</event>
<event>
 5   0  0.1332555E-02  0.6001029E+03  0.7818609E-02  0.9905193E-01
        1   -1    0    0  501    0  0.00000000000E+00  0.00000000000E+00  0.58999503786E+03  0.58999503788E+03  0.50400001928E-02 0.  1.
       -1   -1    0    0    0  501  0.00000000000E+00  0.00000000000E+00 -0.15259596646E+03  0.15259596655E+03  0.50400001928E-02 0. -1.
    10030    2    1    2    0    0  0.00000000000E+00  0.00000000000E+00  0.43739907139E+03  0.74259100442E+03  0.60010286801E+03 0.  0.
        2    1    3    3  502    0 -0.95486360572E+02  0.13994379246E+03 -0.87748439861E+02  0.19079229232E+03  0.25500000920E-02 0. -1.
       -2    1    3    3    0  502  0.95486360572E+02 -0.13994379246E+03  0.52514751125E+03  0.55179871211E+03  0.25500000920E-02 0.  1.
</event>
<event>
 5   0  0.2141800E-02  0.5969895E+03  0.7818609E-02  0.9911672E-01
       -2   -1    0    0    0  501  0.00000000000E+00  0.00000000000E+00  0.21680631499E+03  0.21680631501E+03  0.25500000920E-02 0. -1.
        2   -1    0    0  501    0  0.00000000000E+00  0.00000000000E+00 -0.41096174644E+03  0.41096174645E+03  0.25500000920E-02 0.  1.
    10030    2    1    2    0    0  0.00000000000E+00  0.00000000000E+00 -0.19415543144E+03  0.62776806146E+03  0.59698945336E+03 0.  0.
        2    1    3    3  502    0 -0.89037362385E+02 -0.26088224020E+03 -0.21748852713E+03  0.35112455709E+03  0.25500000920E-02 0.  1.
       -2    1    3    3    0  502  0.89037362385E+02  0.26088224020E+03  0.23333095683E+02  0.27664350437E+03  0.25500000920E-02 0. -1.
</event>
<event>
 5   0  0.8551000E-03  0.5997988E+03  0.7818609E-02  0.9905824E-01
       -3   -1    0    0    0  501  0.00000000000E+00  0.00000000000E+00  0.10234782651E+04  0.10234782700E+04  0.10100000352E+00 0.  1.
        3   -1    0    0  501    0  0.00000000000E+00  0.00000000000E+00 -0.87876432368E+02  0.87876490410E+02  0.10100000352E+00 0. -1.
    10030    2    1    2    0    0  0.00000000000E+00  0.00000000000E+00  0.93560183269E+03  0.11113547605E+04  0.59979881147E+03 0.  0.
        1    1    3    3  502    0  0.79902648490E+02 -0.39000564118E+02 -0.62893507180E+02  0.10890854194E+03  0.50400001928E-02 0. -1.
       -1    1    3    3    0  502 -0.79902648490E+02  0.39000564118E+02  0.99849533987E+03  0.10024462185E+04  0.50400001928E-02 0.  1.
</event>
<event>
 5   0  0.2179625E-02  0.5968853E+03  0.7818609E-02  0.9911889E-01
        2   -1    0    0  501    0  0.00000000000E+00  0.00000000000E+00  0.50525912984E+03  0.50525912985E+03  0.25500000920E-02 0.  1.
       -2   -1    0    0    0  501  0.00000000000E+00  0.00000000000E+00 -0.17628183989E+03  0.17628183991E+03  0.25500000920E-02 0. -1.
    10030    2    1    2    0    0  0.00000000000E+00  0.00000000000E+00  0.32897728995E+03  0.68154096976E+03  0.59688527889E+03 0.  0.
        1    1    3    3  502    0  0.14740198028E+03 -0.21578123060E+02  0.45976805147E+03  0.48330075560E+03  0.50400001928E-02 0.  1.
       -1    1    3    3    0  502 -0.14740198028E+03  0.21578123060E+02 -0.13079076153E+03  0.19824021416E+03  0.50400001928E-02 0. -1.
</event>
<event>
 5   0  0.2092587E-02  0.6062457E+03  0.7818609E-02  0.9892532E-01
       -2   -1    0    0    0  501  0.00000000000E+00  0.00000000000E+00  0.13604379536E+03  0.13604379539E+03  0.25500000920E-02 0. -1.
        2   -1    0    0  501    0  0.00000000000E+00  0.00000000000E+00 -0.67539628436E+03  0.67539628437E+03  0.25500000920E-02 0.  1.
    10030    2    1    2    0    0  0.00000000000E+00  0.00000000000E+00 -0.53935248900E+03  0.81144007976E+03  0.60624573866E+03 0.  0.
        3    1    3    3  502    0 -0.23341029670E+03  0.33000334111E+02 -0.52473794432E+03  0.57525586400E+03  0.10100000352E+00 0. -1.
       -3    1    3    3    0  502  0.23341029670E+03 -0.33000334111E+02 -0.14614544682E+02  0.23618421576E+03  0.10100000352E+00 0.  1.
</event>
<event>
 5   0  0.2141800E-02  0.5980611E+03  0.7818609E-02  0.9909437E-01
       -2   -1    0    0    0  501  0.00000000000E+00  0.00000000000E+00  0.13222735943E+04  0.13222735943E+04  0.25500000920E-02 0.  1.
        2   -1    0    0  501    0  0.00000000000E+00  0.00000000000E+00 -0.67625396011E+02  0.67625396059E+02  0.25500000920E-02 0. -1.
    10030    2    1    2    0    0  0.00000000000E+00  0.00000000000E+00  0.12546481983E+04  0.13898989903E+04  0.59806111890E+03 0.  0.
        2    1    3    3  502    0  0.10181984159E+03 -0.24202337011E+03  0.29476603690E+03  0.39475259130E+03  0.25500000920E-02 0. -1.
       -2    1    3    3    0  502 -0.10181984159E+03  0.24202337011E+03  0.95988216137E+03  0.99514639905E+03  0.25500000920E-02 0.  1.
</event>
<event>
 5   0  0.1337051E-02  0.6047792E+03  0.7818609E-02  0.9895540E-01
       -1   -1    0    0    0  501  0.00000000000E+00  0.00000000000E+00  0.75852008304E+03  0.75852008306E+03  0.50400001928E-02 0. -1.
        1   -1    0    0  501    0  0.00000000000E+00  0.00000000000E+00 -0.12054984438E+03  0.12054984449E+03  0.50400001928E-02 0.  1.
    10030    2    1    2    0    0  0.00000000000E+00  0.00000000000E+00  0.63797023866E+03  0.87906992754E+03  0.60477922591E+03 0.  0.
        5    1    3    3  502    0 -0.71819884043E+02  0.12908506260E+03 -0.64474604964E+02  0.16124550788E+03  0.46999998093E+01 0.  1.
       -5    1    3    3    0  502  0.71819884043E+02 -0.12908506260E+03  0.70244484362E+03  0.71782441966E+03  0.46999998093E+01 0. -1.
</event>
<event>
 5   0  0.2142838E-02  0.6010829E+03  0.7818609E-02  0.9903162E-01
        2   -1    0    0  501    0  0.00000000000E+00  0.00000000000E+00  0.26299389223E+03  0.26299389224E+03  0.25500000920E-02 0.  1.
       -2   -1    0    0    0  501  0.00000000000E+00  0.00000000000E+00 -0.34344963040E+03  0.34344963041E+03  0.25500000920E-02 0. -1.
    10030    2    1    2    0    0  0.00000000000E+00  0.00000000000E+00 -0.80455738170E+02  0.60644352264E+03  0.60108287311E+03 0.  0.
        4    1    3    3  502    0 -0.23276905341E+03  0.18259812694E+03 -0.93615132569E+02  0.31030455062E+03  0.12699999809E+01 0. -1.
       -4    1    3    3    0  502  0.23276905341E+03 -0.18259812694E+03  0.13159394399E+02  0.29613897202E+03  0.12699999809E+01 0.  1.
</event>
<event>
 5   0  0.1250390E-02  0.6009388E+03  0.7818609E-02  0.9903460E-01
       -1   -1    0    0    0  501  0.00000000000E+00  0.00000000000E+00  0.18430484699E+03  0.18430484706E+03  0.50400001928E-02 0. -1.
        1   -1    0    0  501    0  0.00000000000E+00  0.00000000000E+00 -0.48985064072E+03  0.48985064074E+03  0.50400001928E-02 0.  1.
    10030    2    1    2    0    0  0.00000000000E+00  0.00000000000E+00 -0.30554579373E+03  0.67415548780E+03  0.60093875701E+03 0.  0.
        3    1    3    3  502    0  0.72308495413E+01 -0.18897364723E+03  0.10916712503E+03  0.21835932753E+03  0.10100000352E+00 0. -1.
       -3    1    3    3    0  502 -0.72308495413E+01  0.18897364723E+03 -0.41471291876E+03  0.45579616027E+03  0.10100000352E+00 0.  1.
</event>
<event>
 5   0  0.1276705E-02  0.6007774E+03  0.7818609E-02  0.9903795E-01
       -1   -1    0    0    0  501  0.00000000000E+00  0.00000000000E+00  0.24158360916E+03  0.24158360921E+03  0.50400001928E-02 0.  1.
        1   -1    0    0  501    0  0.00000000000E+00  0.00000000000E+00 -0.37350781106E+03  0.37350781109E+03  0.50400001928E-02 0. -1.
    10030    2    1    2    0    0  0.00000000000E+00  0.00000000000E+00 -0.13192420190E+03  0.61509142031E+03  0.60077737997E+03 0.  0.
        1    1    3    3  502    0  0.78260201856E+02  0.28560075599E+02 -0.36144368718E+03  0.37092030969E+03  0.50400001928E-02 0. -1.
       -1    1    3    3    0  502 -0.78260201856E+02 -0.28560075599E+02  0.22951948528E+03  0.24417111062E+03  0.50400001928E-02 0.  1.
</event>
<event>
 5   0  0.2092587E-02  0.6001236E+03  0.7818609E-02  0.9905150E-01
       -2   -1    0    0    0  501  0.00000000000E+00  0.00000000000E+00  0.11578888838E+03  0.11578888841E+03  0.25500000920E-02 0. -1.
        2   -1    0    0  501    0  0.00000000000E+00  0.00000000000E+00 -0.77759693708E+03  0.77759693708E+03  0.25500000920E-02 0.  1.
    10030    2    1    2    0    0  0.00000000000E+00  0.00000000000E+00 -0.66180804870E+03  0.89338582549E+03  0.60012360383E+03 0.  0.
        3    1    3    3  502    0 -0.77733061551E+02 -0.13270180249E+03 -0.71446368721E+03  0.73082868566E+03  0.10100000352E+00 0.  1.
       -3    1    3    3    0  502  0.77733061551E+02  0.13270180249E+03  0.52655638511E+02  0.16255713983E+03  0.10100000352E+00 0. -1.
</event>
<event>
 5   0  0.1337051E-02  0.6022572E+03  0.7818609E-02  0.9900734E-01
        1   -1    0    0  501    0  0.00000000000E+00  0.00000000000E+00  0.88357110844E+03  0.88357110845E+03  0.50400001928E-02 0. -1.
       -1   -1    0    0    0  501  0.00000000000E+00  0.00000000000E+00 -0.10262720833E+03  0.10262720845E+03  0.50400001928E-02 0.  1.
    10030    2    1    2    0    0  0.00000000000E+00  0.00000000000E+00  0.78094390011E+03  0.98619831691E+03  0.60225720847E+03 0.  0.
        5    1    3    3  502    0 -0.11712920014E+03 -0.71021666924E+02 -0.48589808616E+02  0.14541797068E+03  0.46999998093E+01 0.  1.
       -5    1    3    3    0  502  0.11712920014E+03  0.71021666924E+02  0.82953370873E+03  0.84078034623E+03  0.46999998093E+01 0. -1.
</event>
<event>
 5   0  0.1250390E-02  0.6005720E+03  0.7818609E-02  0.9904220E-01
        1   -1    0    0  501    0  0.00000000000E+00  0.00000000000E+00  0.34862784862E+03  0.34862784866E+03  0.50400001928E-02 0.  1.
       -1   -1    0    0    0  501  0.00000000000E+00  0.00000000000E+00 -0.25864742888E+03  0.25864742893E+03  0.50400001928E-02 0. -1.
    10030    2    1    2    0    0  0.00000000000E+00  0.00000000000E+00  0.89980419747E+02  0.60727527758E+03  0.60057204966E+03 0.  0.
        3    1    3    3  502    0  0.10802687799E+03 -0.30635727160E+02 -0.23662020632E+03  0.26191121852E+03  0.10100000352E+00 0. -1.
       -3    1    3    3    0  502 -0.10802687799E+03  0.30635727160E+02  0.32660062607E+03  0.34536405907E+03  0.10100000352E+00 0.  1.
</event>
<event>
 5   0  0.1303808E-02  0.6159372E+03  0.7818609E-02  0.9872882E-01
        1   -1    0    0  501    0  0.00000000000E+00  0.00000000000E+00  0.17473035415E+03  0.17473035422E+03  0.50400001928E-02 0. -1.
       -1   -1    0    0    0  501  0.00000000000E+00  0.00000000000E+00 -0.54280582877E+03  0.54280582880E+03  0.50400001928E-02 0.  1.
    10030    2    1    2    0    0  0.00000000000E+00  0.00000000000E+00 -0.36807547463E+03  0.71753618302E+03  0.61593718747E+03 0.  0.
        4    1    3    3  502    0  0.24075995475E+03 -0.42687031396E+02  0.34077237935E+02  0.24688136727E+03  0.12699999809E+01 0. -1.
       -4    1    3    3    0  502 -0.24075995475E+03  0.42687031396E+02 -0.40215271256E+03  0.47065481574E+03  0.12699999809E+01 0.  1.
</event>
<event>
 5   0  0.1337051E-02  0.5967549E+03  0.7818609E-02  0.9912162E-01
        1   -1    0    0  501    0  0.00000000000E+00  0.00000000000E+00  0.41807122307E+03  0.41807122310E+03  0.50400001928E-02 0.  1.
       -1   -1    0    0    0  501  0.00000000000E+00  0.00000000000E+00 -0.21295200697E+03  0.21295200703E+03  0.50400001928E-02 0. -1.
    10030    2    1    2    0    0  0.00000000000E+00  0.00000000000E+00  0.20511921610E+03  0.63102323013E+03  0.59675491129E+03 0.  0.
        5    1    3    3  502    0  0.26530087291E+03 -0.20335390330E+02 -0.40129760335E+02  0.26912927921E+03  0.46999998093E+01 0. -1.
       -5    1    3    3    0  502 -0.26530087291E+03  0.20335390330E+02  0.24524897644E+03  0.36189395092E+03  0.46999998093E+01 0.  1.
</event>
<event>
 5   0  0.1303808E-02  0.5993316E+03  0.7818609E-02  0.9906794E-01
       -1   -1    0    0    0  501  0.00000000000E+00  0.00000000000E+00  0.53230363246E+02  0.53230363485E+02  0.50400001928E-02 0. -1.
        1   -1    0    0  501    0  0.00000000000E+00  0.00000000000E+00 -0.16869991440E+04  0.16869991440E+04  0.50400001928E-02 0.  1.
    10030    2    1    2    0    0  0.00000000000E+00  0.00000000000E+00 -0.16337687807E+04  0.17402295075E+04  0.59933155246E+03 0.  0.
        4    1    3    3  502    0 -0.10845952638E+03  0.23658310214E+03 -0.12481759847E+04  0.12750215429E+04  0.12699999809E+01 0.  1.
       -4    1    3    3    0  502  0.10845952638E+03 -0.23658310214E+03 -0.38559279602E+03  0.46520796460E+03  0.12699999809E+01 0. -1.
</event>
<event>
 5   0  0.2092587E-02  0.6067297E+03  0.7818609E-02  0.9891542E-01
        2   -1    0    0  501    0  0.00000000000E+00  0.00000000000E+00  0.93567723254E+03  0.93567723255E+03  0.25500000920E-02 0. -1.
       -2   -1    0    0    0  501  0.00000000000E+00  0.00000000000E+00 -0.98356812698E+02  0.98356812731E+02  0.25500000920E-02 0.  1.
    10030    2    1    2    0    0  0.00000000000E+00  0.00000000000E+00  0.83732041984E+03  0.10340340453E+04  0.60672969377E+03 0.  0.
        3    1    3    3  502    0  0.27264797103E+03 -0.12907982758E+03  0.36391870260E+03  0.47268948613E+03  0.10100000352E+00 0.  1.
       -3    1    3    3    0  502 -0.27264797103E+03  0.12907982758E+03  0.47340171725E+03  0.56134455915E+03  0.10100000352E+00 0. -1.
</event>
<event>
 5   0  0.1303808E-02  0.5909415E+03  0.7818609E-02  0.9924380E-01
        1   -1    0    0  501    0  0.00000000000E+00  0.00000000000E+00  0.49223090661E+03  0.49223090664E+03  0.50400001928E-02 0. -1.
       -1   -1    0    0    0  501  0.00000000000E+00  0.00000000000E+00 -0.17736179450E+03  0.17736179457E+03  0.50400001928E-02 0.  1.
    10030    2    1    2    0    0  0.00000000000E+00  0.00000000000E+00  0.31486911211E+03  0.66959270121E+03  0.59094147574E+03 0.  0.
        4    1    3    3  502    0  0.44566673286E+02 -0.28945049603E+03  0.20180742169E+03  0.35566223636E+03  0.12699999809E+01 0. -1.
       -4    1    3    3    0  502 -0.44566673286E+02  0.28945049603E+03  0.11306169042E+03  0.31393046485E+03  0.12699999809E+01 0.  1.
</event>
<event>
 5   0  0.2092587E-02  0.5994167E+03  0.7818609E-02  0.9906617E-01
       -2   -1    0    0    0  501  0.00000000000E+00  0.00000000000E+00  0.49096483699E+02  0.49096483765E+02  0.25500000920E-02 0.  1.
        2   -1    0    0  501    0  0.00000000000E+00  0.00000000000E+00 -0.18295624113E+04  0.18295624113E+04  0.25500000920E-02 0. -1.
    10030    2    1    2    0    0  0.00000000000E+00  0.00000000000E+00 -0.17804659276E+04  0.18786588951E+04  0.59941665365E+03 0.  0.
        3    1    3    3  502    0 -0.21043549463E+03 -0.96341488137E+02 -0.14870411510E+04  0.15049439108E+04  0.10100000352E+00 0.  1.
       -3    1    3    3    0  502  0.21043549463E+03  0.96341488137E+02 -0.29342477666E+03  0.37371498431E+03  0.10100000352E+00 0. -1.
</event>
<event>
 5   0  0.2142838E-02  0.5961373E+03  0.7818609E-02  0.9913453E-01
       -2   -1    0    0    0  501  0.00000000000E+00  0.00000000000E+00  0.84130602713E+02  0.84130602751E+02  0.25500000920E-02 0.  1.
        2   -1    0    0  501    0  0.00000000000E+00  0.00000000000E+00 -0.10560356661E+04  0.10560356661E+04  0.25500000920E-02 0. -1.
    10030    2    1    2    0    0  0.00000000000E+00  0.00000000000E+00 -0.97190506339E+03  0.11401662689E+04  0.59613728989E+03 0.  0.
        4    1    3    3  502    0  0.14856519535E+03 -0.25759384535E+03 -0.52501330449E+03  0.60337947366E+03  0.12699999809E+01 0. -1.
       -4    1    3    3    0  502 -0.14856519535E+03  0.25759384535E+03 -0.44689175890E+03  0.53678679521E+03  0.12699999809E+01 0.  1.
</event>
<event>
 5   0  0.1303808E-02  0.6003438E+03  0.7818609E-02  0.9904693E-01
       -1   -1    0    0    0  501  0.00000000000E+00  0.00000000000E+00  0.11396388656E+03  0.11396388668E+03  0.50400001928E-02 0. -1.
        1   -1    0    0  501    0  0.00000000000E+00  0.00000000000E+00 -0.79062917628E+03  0.79062917629E+03  0.50400001928E-02 0.  1.
    10030    2    1    2    0    0  0.00000000000E+00  0.00000000000E+00 -0.67666528971E+03  0.90459306297E+03  0.60034381422E+03 0.  0.
        4    1    3    3  502    0 -0.14348087365E+03 -0.21283805251E+03 -0.10385938244E+03  0.27690283841E+03  0.12699999809E+01 0. -1.
       -4    1    3    3    0  502  0.14348087365E+03  0.21283805251E+03 -0.57280590728E+03  0.62769022456E+03  0.12699999809E+01 0.  1.
</event>
<event>
 5   0  0.1276705E-02  0.6176556E+03  0.7818609E-02  0.9869439E-01
        1   -1    0    0  501    0  0.00000000000E+00  0.00000000000E+00  0.22579919981E+03  0.22579919987E+03  0.50400001928E-02 0.  1.
       -1   -1    0    0    0  501  0.00000000000E+00  0.00000000000E+00 -0.42238683297E+03  0.42238683300E+03  0.50400001928E-02 0. -1.
    10030    2    1    2    0    0  0.00000000000E+00  0.00000000000E+00 -0.19658763316E+03  0.64818603287E+03  0.61765559635E+03 0.  0.
        1    1    3    3  502    0  0.92403578602E+02  0.29301601583E+03 -0.13110929609E+03  0.33404558734E+03  0.50400001928E-02 0.  1.
       -1    1    3    3    0  502 -0.92403578602E+02 -0.29301601583E+03 -0.65478337068E+02  0.31414044554E+03  0.50400001928E-02 0. -1.
</event>
<event>
 5   0  0.2141800E-02  0.6041369E+03  0.7818609E-02  0.9896860E-01
        2   -1    0    0  501    0  0.00000000000E+00  0.00000000000E+00  0.52666761993E+03  0.52666761994E+03  0.25500000920E-02 0. -1.
       -2   -1    0    0    0  501  0.00000000000E+00  0.00000000000E+00 -0.17325036753E+03  0.17325036755E+03  0.25500000920E-02 0.  1.
    10030    2    1    2    0    0  0.00000000000E+00  0.00000000000E+00  0.35341725240E+03  0.69991798749E+03  0.60413693391E+03 0.  0.
        2    1    3    3  502    0 -0.14693593285E+03  0.17848014369E+03 -0.48537760141E+02  0.23622286980E+03  0.25500000920E-02 0.  1.
       -2    1    3    3    0  502  0.14693593285E+03 -0.17848014369E+03  0.40195501254E+03  0.46369511769E+03  0.25500000920E-02 0. -1.
</event>
<event>
 5   0  0.2092587E-02  0.5940595E+03  0.7818609E-02  0.9917808E-01
       -2   -1    0    0    0  501  0.00000000000E+00  0.00000000000E+00  0.32122770205E+03  0.32122770206E+03  0.25500000920E-02 0. -1.
        2   -1    0    0  501    0  0.00000000000E+00  0.00000000000E+00 -0.27465465562E+03  0.27465465563E+03  0.25500000920E-02 0.  1.
    10030    2    1    2    0    0  0.00000000000E+00  0.00000000000E+00  0.46573046434E+02  0.59588235769E+03  0.59405953873E+03 0.  0.
        3    1    3    3  502    0  0.20913655966E+03  0.95865770986E+01 -0.18806518160E+03  0.28142232637E+03  0.10100000352E+00 0.  1.
       -3    1    3    3    0  502 -0.20913655966E+03 -0.95865770986E+01  0.23463822803E+03  0.31446003133E+03  0.10100000352E+00 0. -1.
</event>
<event>
 5   0  0.1303808E-02  0.5974131E+03  0.7818609E-02  0.9910788E-01
        1   -1    0    0  501    0  0.00000000000E+00  0.00000000000E+00  0.57271275084E+03  0.57271275086E+03  0.50400001928E-02 0.  1.
       -1   -1    0    0    0  501  0.00000000000E+00  0.00000000000E+00 -0.15579470932E+03  0.15579470940E+03  0.50400001928E-02 0. -1.
    10030    2    1    2    0    0  0.00000000000E+00  0.00000000000E+00  0.41691804152E+03  0.72850746027E+03  0.59741314542E+03 0.  0.
        4    1    3    3  502    0 -0.27542287836E+02 -0.27233535494E+03  0.62641319526E+02  0.28080361639E+03  0.12699999809E+01 0. -1.
       -4    1    3    3    0  502  0.27542287836E+02  0.27233535494E+03  0.35427672200E+03  0.44770384387E+03  0.12699999809E+01 0.  1.
</event>
<event>
 5   0  0.1332555E-02  0.5943570E+03  0.7818609E-02  0.9917183E-01
        1   -1    0    0  501    0  0.00000000000E+00  0.00000000000E+00  0.89763558116E+03  0.89763558117E+03  0.50400001928E-02 0. -1.
       -1   -1    0    0    0  501  0.00000000000E+00  0.00000000000E+00 -0.98386331775E+02  0.98386331904E+02  0.50400001928E-02 0.  1.
    10030    2    1    2    0    0  0.00000000000E+00  0.00000000000E+00  0.79924924938E+03  0.99602191307E+03  0.59435703806E+03 0.  0.
        2    1    3    3  502    0 -0.87334163131E+02  0.56331162531E+02 -0.66941586760E+02  0.12361889810E+03  0.25500000920E-02 0.  1.
       -2    1    3    3    0  502  0.87334163131E+02 -0.56331162531E+02  0.86619083614E+03  0.87240301498E+03  0.25500000920E-02 0. -1.
</event>
<event>
 5   0  0.1276705E-02  0.5995059E+03  0.7818609E-02  0.9906432E-01
        1   -1    0    0  501    0  0.00000000000E+00  0.00000000000E+00  0.88609035705E+03  0.88609035706E+03  0.50400001928E-02 0.  1.
       -1   -1    0    0    0  501  0.00000000000E+00  0.00000000000E+00 -0.10140257070E+03  0.10140257083E+03  0.50400001928E-02 0. -1.
    10030    2    1    2    0    0  0.00000000000E+00  0.00000000000E+00  0.78468778634E+03  0.98749292789E+03  0.59950593040E+03 0.  0.
        1    1    3    3  502    0 -0.90849314319E+02 -0.50166608508E+02  0.85555408540E+03  0.86182543452E+03  0.50400001928E-02 0.  1.
       -1    1    3    3    0  502  0.90849314319E+02  0.50166608508E+02 -0.70866299055E+02  0.12566749336E+03  0.50400001928E-02 0. -1.
</event>
<event>
 5   0  0.2141800E-02  0.5977570E+03  0.7818609E-02  0.9910070E-01
       -2   -1    0    0    0  501  0.00000000000E+00  0.00000000000E+00  0.14593744686E+03  0.14593744688E+03  0.25500000920E-02 0. -1.
        2   -1    0    0  501    0  0.00000000000E+00  0.00000000000E+00 -0.61210040352E+03  0.61210040353E+03  0.25500000920E-02 0.  1.
    10030    2    1    2    0    0  0.00000000000E+00  0.00000000000E+00 -0.46616295666E+03  0.75803785041E+03  0.59775704135E+03 0.  0.
        2    1    3    3  502    0 -0.21503704870E+03  0.60989850237E+01  0.30038594181E+02  0.21721060535E+03  0.25500000920E-02 0. -1.
       -2    1    3    3    0  502  0.21503704870E+03 -0.60989850237E+01 -0.49620155084E+03  0.54082724506E+03  0.25500000920E-02 0.  1.
</event>
<event>
 5   0  0.8551000E-03  0.6048992E+03  0.7818609E-02  0.9895294E-01
        3   -1    0    0  501    0  0.00000000000E+00  0.00000000000E+00  0.66012815853E+03  0.66012816626E+03  0.10100000352E+00 0.  1.
       -3   -1    0    0    0  501  0.00000000000E+00  0.00000000000E+00 -0.13857271892E+03  0.13857275572E+03  0.10100000352E+00 0. -1.
    10030    2    1    2    0    0  0.00000000000E+00  0.00000000000E+00  0.52155543962E+03  0.79870092198E+03  0.60489923639E+03 0.  0.
        3    1    3    3  502    0 -0.18892325062E+03  0.12162471237E+02  0.57222065103E+03  0.60272415249E+03  0.10100000352E+00 0.  1.
       -3    1    3    3    0  502  0.18892325062E+03 -0.12162471237E+02 -0.50665211408E+02  0.19597676949E+03  0.10100000352E+00 0. -1.
</event>
<event>
 5   0  0.1250390E-02  0.5600009E+03  0.7818609E-02  0.9992053E-01
        1   -1    0    0  501    0  0.00000000000E+00  0.00000000000E+00  0.56779654015E+03  0.56779654017E+03  0.50400001928E-02 0. -1.
       -1   -1    0    0    0  501  0.00000000000E+00  0.00000000000E+00 -0.13807804885E+03  0.13807804894E+03  0.50400001928E-02 0.  1.
    10030    2    1    2    0    0  0.00000000000E+00  0.00000000000E+00  0.42971849130E+03  0.70587458911E+03  0.56000085160E+03 0.  0.
        3    1    3    3  502    0 -0.12841505996E+03  0.24878289124E+03  0.20968146827E+03  0.34978519542E+03  0.10100000352E+00 0. -1.
       -3    1    3    3    0  502  0.12841505996E+03 -0.24878289124E+03  0.22003702303E+03  0.35608939370E+03  0.10100000352E+00 0.  1.
</event>
<event>
 5   0  0.1250390E-02  0.6001990E+03  0.7818609E-02  0.9904993E-01
       -1   -1    0    0    0  501  0.00000000000E+00  0.00000000000E+00  0.87765515048E+02  0.87765515192E+02  0.50400001928E-02 0. -1.
        1   -1    0    0  501    0  0.00000000000E+00  0.00000000000E+00 -0.10261400152E+04  0.10261400152E+04  0.50400001928E-02 0.  1.
    10030    2    1    2    0    0  0.00000000000E+00  0.00000000000E+00 -0.93837450018E+03  0.11139055304E+04  0.60019899045E+03 0.  0.
        3    1    3    3  502    0 -0.80661615135E+01 -0.24080153243E+03 -0.13714688058E+03  0.27723585272E+03  0.10100000352E+00 0. -1.
       -3    1    3    3    0  502  0.80661615135E+01  0.24080153243E+03 -0.80122761960E+03  0.83666967771E+03  0.10100000352E+00 0.  1.
</event>
<event>
 5   0  0.2092587E-02  0.6001556E+03  0.7818609E-02  0.9905083E-01
        2   -1    0    0  501    0  0.00000000000E+00  0.00000000000E+00  0.85019375211E+03  0.85019375211E+03  0.25500000920E-02 0. -1.
       -2   -1    0    0    0  501  0.00000000000E+00  0.00000000000E+00 -0.10591314216E+03  0.10591314219E+03  0.25500000920E-02 0.  1.
    10030    2    1    2    0    0  0.00000000000E+00  0.00000000000E+00  0.74428060994E+03  0.95610689430E+03  0.60015561898E+03 0.  0.
        3    1    3    3  502    0  0.26325754563E+03 -0.14080311579E+03  0.32390785508E+03  0.44050693699E+03  0.10100000352E+00 0.  1.
       -3    1    3    3    0  502 -0.26325754563E+03  0.14080311579E+03  0.42037275486E+03  0.51559995731E+03  0.10100000352E+00 0. -1.
</event>
<event>
 5   0  0.2092587E-02  0.5998765E+03  0.7818609E-02  0.9905662E-01
        2   -1    0    0  501    0  0.00000000000E+00  0.00000000000E+00  0.60951509829E+03  0.60951509829E+03  0.25500000920E-02 0.  1.
       -2   -1    0    0    0  501  0.00000000000E+00  0.00000000000E+00 -0.14759757845E+03  0.14759757847E+03  0.25500000920E-02 0. -1.
    10030    2    1    2    0    0  0.00000000000E+00  0.00000000000E+00  0.46191751984E+03  0.75711267676E+03  0.59987649577E+03 0.  0.
        3    1    3    3  502    0 -0.23470429120E+03 -0.13914902288E+03  0.38816362740E+03  0.47446766667E+03  0.10100000352E+00 0.  1.
       -3    1    3    3    0  502  0.23470429120E+03  0.13914902288E+03  0.73753892436E+02  0.28264501009E+03  0.10100000352E+00 0. -1.
</event>
<event>
 5   0  0.1276705E-02  0.5885571E+03  0.7818609E-02  0.9929435E-01
       -1   -1    0    0    0  501  0.00000000000E+00  0.00000000000E+00  0.25938932809E+03  0.25938932814E+03  0.50400001928E-02 0. -1.
        1   -1    0    0  501    0  0.00000000000E+00  0.00000000000E+00 -0.33386055177E+03  0.33386055181E+03  0.50400001928E-02 0.  1.
    10030    2    1    2    0    0  0.00000000000E+00  0.00000000000E+00 -0.74471223685E+02  0.59324987995E+03  0.58855709740E+03 0.  0.
        1    1    3    3  502    0  0.28475188579E+03 -0.63531942056E+02 -0.76012074492E+02  0.30149258634E+03  0.50400001928E-02 0. -1.
       -1    1    3    3    0  502 -0.28475188579E+03  0.63531942056E+02  0.15408508069E+01  0.29175729360E+03  0.50400001928E-02 0.  1.
</event>
<event>
 5   0  0.8551000E-03  0.5993264E+03  0.7818609E-02  0.9906805E-01
        3   -1    0    0  501    0  0.00000000000E+00  0.00000000000E+00  0.30513787607E+03  0.30513789279E+03  0.10100000352E+00 0. -1.
       -3   -1    0    0    0  501  0.00000000000E+00  0.00000000000E+00 -0.29428669372E+03  0.29428671105E+03  0.10100000352E+00 0.  1.
    10030    2    1    2    0    0  0.00000000000E+00  0.00000000000E+00  0.10851182353E+02  0.59942460384E+03  0.59932637813E+03 0.  0.
        5    1    3    3  502    0 -0.21519232234E+03  0.12270901226E+03 -0.16315677155E+03  0.29666051201E+03  0.46999998093E+01 0.  1.
       -5    1    3    3    0  502  0.21519232234E+03 -0.12270901226E+03  0.17400795390E+03  0.30276409183E+03  0.46999998093E+01 0. -1.
</event>
<event>
 5   0  0.2179625E-02  0.5981299E+03  0.7818609E-02  0.9909293E-01
        2   -1    0    0  501    0  0.00000000000E+00  0.00000000000E+00  0.11324582197E+04  0.11324582197E+04  0.25500000920E-02 0.  1.
       -2   -1    0    0    0  501  0.00000000000E+00  0.00000000000E+00 -0.78978504007E+02  0.78978504048E+02  0.25500000920E-02 0. -1.
    10030    2    1    2    0    0  0.00000000000E+00  0.00000000000E+00  0.10534797157E+04  0.12114367238E+04  0.59812993930E+03 0.  0.
        1    1    3    3  502    0  0.51956146474E+02 -0.45715961669E+02 -0.62537656054E+02  0.93275660051E+02  0.50400001928E-02 0. -1.
       -1    1    3    3    0  502 -0.51956146474E+02  0.45715961669E+02  0.11160173718E+04  0.11181610637E+04  0.50400001928E-02 0.  1.
</event>
<event>
 5   0  0.1332555E-02  0.6039365E+03  0.7818609E-02  0.9897273E-01
        1   -1    0    0  501    0  0.00000000000E+00  0.00000000000E+00  0.25550903672E+03  0.25550903677E+03  0.50400001928E-02 0. -1.
       -1   -1    0    0    0  501  0.00000000000E+00  0.00000000000E+00 -0.35687516348E+03  0.35687516351E+03  0.50400001928E-02 0.  1.
    10030    2    1    2    0    0  0.00000000000E+00  0.00000000000E+00 -0.10136612676E+03  0.61238420028E+03  0.60393651744E+03 0.  0.
        2    1    3    3  502    0 -0.11425866808E+03  0.51834631270E+02 -0.32919386172E+03  0.35229316035E+03  0.25500000920E-02 0.  1.
       -2    1    3    3    0  502  0.11425866808E+03 -0.51834631270E+02  0.22782773496E+03  0.26009103993E+03  0.25500000920E-02 0. -1.
</event>
<event>
 5   0  0.1276705E-02  0.5975731E+03  0.7818609E-02  0.9910454E-01
        1   -1    0    0  501    0  0.00000000000E+00  0.00000000000E+00  0.15249621979E+03  0.15249621988E+03  0.50400001928E-02 0.  1.
       -1   -1    0    0    0  501  0.00000000000E+00  0.00000000000E+00 -0.58541383831E+03  0.58541383833E+03  0.50400001928E-02 0. -1.
    10030    2    1    2    0    0  0.00000000000E+00  0.00000000000E+00 -0.43291761851E+03  0.73791005821E+03  0.59757308305E+03 0.  0.
        1    1    3    3  502    0  0.26406363163E+03 -0.92402849367E+02 -0.86914758005E+02  0.29295402934E+03  0.50400001928E-02 0.  1.
       -1    1    3    3    0  502 -0.26406363163E+03  0.92402849367E+02 -0.34600286051E+03  0.44495602887E+03  0.50400001928E-02 0. -1.
</event>
<event>
 5   0  0.8551000E-03  0.5995744E+03  0.7818609E-02  0.9906290E-01
       -4   -1    0    0    0  501  0.00000000000E+00  0.00000000000E+00  0.17050201014E+03  0.17050673993E+03  0.12699999809E+01 0. -1.
        4   -1    0    0  501    0  0.00000000000E+00  0.00000000000E+00 -0.52709154985E+03  0.52709307985E+03  0.12699999809E+01 0.  1.
    10030    2    1    2    0    0  0.00000000000E+00  0.00000000000E+00 -0.35658953971E+03  0.69759981978E+03  0.59957435629E+03 0.  0.
        2    1    3    3  502    0  0.15765635829E+03 -0.17144268910E+03 -0.39789664701E+03  0.46105299550E+03  0.25500000920E-02 0.  1.
       -2    1    3    3    0  502 -0.15765635829E+03  0.17144268910E+03  0.41307107298E+02  0.23654682428E+03  0.25500000920E-02 0. -1.
</event>
<event>
 5   0  0.2179625E-02  0.6000714E+03  0.7818609E-02  0.9905258E-01
       -2   -1    0    0    0  501  0.00000000000E+00  0.00000000000E+00  0.19844514140E+03  0.19844514142E+03  0.25500000920E-02 0. -1.
        2   -1    0    0  501    0  0.00000000000E+00  0.00000000000E+00 -0.45363382989E+03  0.45363382990E+03  0.25500000920E-02 0.  1.
    10030    2    1    2    0    0  0.00000000000E+00  0.00000000000E+00 -0.25518868849E+03  0.65207897132E+03  0.60007142750E+03 0.  0.
        1    1    3    3  502    0 -0.22457671997E+03 -0.48707201454E+02 -0.33722383408E+03  0.40807720951E+03  0.50400001928E-02 0.  1.
       -1    1    3    3    0  502  0.22457671997E+03  0.48707201454E+02  0.82035145590E+02  0.24400176181E+03  0.50400001928E-02 0. -1.
</event>
<event>
 5   0  0.1332555E-02  0.6031452E+03  0.7818609E-02  0.9898902E-01
       -1   -1    0    0    0  501  0.00000000000E+00  0.00000000000E+00  0.72597593569E+02  0.72597593744E+02  0.50400001928E-02 0. -1.
        1   -1    0    0  501    0  0.00000000000E+00  0.00000000000E+00 -0.12527415668E+04  0.12527415668E+04  0.50400001928E-02 0.  1.
    10030    2    1    2    0    0  0.00000000000E+00  0.00000000000E+00 -0.11801439733E+04  0.13253391606E+04  0.60314516740E+03 0.  0.
        2    1    3    3  502    0 -0.24484717032E+03 -0.14422411791E+03 -0.81194525186E+03  0.86023591242E+03  0.25500000920E-02 0.  1.
       -2    1    3    3    0  502  0.24484717032E+03  0.14422411791E+03 -0.36819872141E+03  0.46510324817E+03  0.25500000920E-02 0. -1.
</event>
<event>
 5   0  0.1332555E-02  0.5973164E+03  0.7818609E-02  0.9910989E-01
        1   -1    0    0  501    0  0.00000000000E+00  0.00000000000E+00  0.55047061912E+03  0.55047061915E+03  0.50400001928E-02 0.  1.
       -1   -1    0    0    0  501  0.00000000000E+00  0.00000000000E+00 -0.16203717910E+03  0.16203717918E+03  0.50400001928E-02 0. -1.
    10030    2    1    2    0    0  0.00000000000E+00  0.00000000000E+00  0.38843344002E+03  0.71250779833E+03  0.59731635282E+03 0.  0.
        2    1    3    3  502    0 -0.65759115735E+02 -0.25654809542E+03  0.35887956584E+03  0.44602211756E+03  0.25500000920E-02 0.  1.
       -2    1    3    3    0  502  0.65759115735E+02  0.25654809542E+03  0.29553874181E+02  0.26648568077E+03  0.25500000920E-02 0. -1.
</event>
<event>
 5   0  0.2141800E-02  0.6121698E+03  0.7818609E-02  0.9880474E-01
       -2   -1    0    0    0  501  0.00000000000E+00  0.00000000000E+00  0.29884103653E+03  0.29884103654E+03  0.25500000920E-02 0.  1.
        2   -1    0    0  501    0  0.00000000000E+00  0.00000000000E+00 -0.31350434564E+03  0.31350434565E+03  0.25500000920E-02 0. -1.
    10030    2    1    2    0    0  0.00000000000E+00  0.00000000000E+00 -0.14663309103E+02  0.61234538219E+03  0.61216979218E+03 0.  0.
        2    1    3    3  502    0 -0.26902748999E+03 -0.65319127378E+02 -0.13792784394E+03  0.30929996591E+03  0.25500000920E-02 0. -1.
       -2    1    3    3    0  502  0.26902748999E+03  0.65319127378E+02  0.12326453484E+03  0.30304541628E+03  0.25500000920E-02 0.  1.
</event>
<event>
 5   0  0.8551000E-03  0.6082468E+03  0.7818609E-02  0.9888443E-01
       -3   -1    0    0    0  501  0.00000000000E+00  0.00000000000E+00  0.11090039533E+03  0.11090044132E+03  0.10100000352E+00 0. -1.
        3   -1    0    0  501    0  0.00000000000E+00  0.00000000000E+00 -0.83400068956E+03  0.83400069568E+03  0.10100000352E+00 0.  1.
    10030    2    1    2    0    0  0.00000000000E+00  0.00000000000E+00 -0.72310029423E+03  0.94490113700E+03  0.60824676175E+03 0.  0.
        4    1    3    3  502    0 -0.50842270872E+02 -0.33259384450E+02  0.10137298085E+03  0.11819144346E+03  0.12699999809E+01 0. -1.
       -4    1    3    3    0  502  0.50842270872E+02  0.33259384450E+02 -0.82447327508E+03  0.82670969354E+03  0.12699999809E+01 0.  1.
</event>
<event>
 5   0  0.1250390E-02  0.5994600E+03  0.7818609E-02  0.9906527E-01
        1   -1    0    0  501    0  0.00000000000E+00  0.00000000000E+00  0.39751669925E+03  0.39751669928E+03  0.50400001928E-02 0.  1.
       -1   -1    0    0    0  501  0.00000000000E+00  0.00000000000E+00 -0.22599826424E+03  0.22599826429E+03  0.50400001928E-02 0. -1.
    10030    2    1    2    0    0  0.00000000000E+00  0.00000000000E+00  0.17151843501E+03  0.62351496357E+03  0.59946003724E+03 0.  0.
        3    1    3    3  502    0  0.26715453973E+03 -0.10191028622E+03 -0.77413705987E+01  0.28603704927E+03  0.10100000352E+00 0. -1.
       -3    1    3    3    0  502 -0.26715453973E+03  0.10191028622E+03  0.17925980561E+03  0.33747791430E+03  0.10100000352E+00 0.  1.
</event>
<event>
 5   0  0.2126207E-02  0.5917137E+03  0.7818609E-02  0.9922748E-01
        2   -1    0    0  501    0  0.00000000000E+00  0.00000000000E+00  0.63479856163E+03  0.63479856164E+03  0.25500000920E-02 0. -1.
       -2   -1    0    0    0  501  0.00000000000E+00  0.00000000000E+00 -0.13788828695E+03  0.13788828697E+03  0.25500000920E-02 0.  1.
    10030    2    1    2    0    0  0.00000000000E+00  0.00000000000E+00  0.49691027468E+03  0.77268684861E+03  0.59171373562E+03 0.  0.
        5    1    3    3  502    0 -0.19704632075E+03 -0.15137892411E+03  0.45806825013E+03  0.52114435904E+03  0.46999998093E+01 0. -1.
       -5    1    3    3    0  502  0.19704632075E+03  0.15137892411E+03  0.38842024552E+02  0.25154248956E+03  0.46999998093E+01 0.  1.
</event>
<event>
 5   0  0.1250390E-02  0.5927489E+03  0.7818609E-02  0.9920565E-01
       -1   -1    0    0    0  501  0.00000000000E+00  0.00000000000E+00  0.62731315749E+02  0.62731315952E+02  0.50400001928E-02 0.  1.
        1   -1    0    0  501    0  0.00000000000E+00  0.00000000000E+00 -0.14002228819E+04  0.14002228820E+04  0.50400001928E-02 0. -1.
    10030    2    1    2    0    0  0.00000000000E+00  0.00000000000E+00 -0.13374915662E+04  0.14629541979E+04  0.59274893127E+03 0.  0.
        3    1    3    3  502    0  0.38881152012E+02 -0.67864783246E+02 -0.13742917284E+04  0.13765155785E+04  0.10100000352E+00 0. -1.
       -3    1    3    3    0  502 -0.38881152012E+02  0.67864783246E+02  0.36800162229E+02  0.86438619424E+02  0.10100000352E+00 0.  1.
</event>
<event>
 5   0  0.2141800E-02  0.5951233E+03  0.7818609E-02  0.9915576E-01
       -2   -1    0    0    0  501  0.00000000000E+00  0.00000000000E+00  0.70185919902E+02  0.70185919949E+02  0.25500000920E-02 0.  1.
        2   -1    0    0  501    0  0.00000000000E+00  0.00000000000E+00 -0.12615482682E+04  0.12615482682E+04  0.25500000920E-02 0. -1.
    10030    2    1    2    0    0  0.00000000000E+00  0.00000000000E+00 -0.11913623483E+04  0.13317341881E+04  0.59512326702E+03 0.  0.
        2    1    3    3  502    0  0.16386880616E+03  0.24837085444E+03 -0.59873203617E+03  0.66859637907E+03  0.25500000920E-02 0. -1.
       -2    1    3    3    0  502 -0.16386880616E+03 -0.24837085444E+03 -0.59263031211E+03  0.66313780906E+03  0.25500000920E-02 0.  1.
</event>
<event>
 5   0  0.2141800E-02  0.5999586E+03  0.7818609E-02  0.9905492E-01
        2   -1    0    0  501    0  0.00000000000E+00  0.00000000000E+00  0.68527328815E+03  0.68527328816E+03  0.25500000920E-02 0. -1.
       -2   -1    0    0    0  501  0.00000000000E+00  0.00000000000E+00 -0.13131635349E+03  0.13131635352E+03  0.25500000920E-02 0.  1.
    10030    2    1    2    0    0  0.00000000000E+00  0.00000000000E+00  0.55395693466E+03  0.81658964167E+03  0.59995862977E+03 0.  0.
        2    1    3    3  502    0 -0.21299422333E+03 -0.11698918607E+02 -0.10089929243E+02  0.21355376500E+03  0.25500000920E-02 0.  1.
       -2    1    3    3    0  502  0.21299422333E+03  0.11698918607E+02  0.56404686390E+03  0.60303587667E+03  0.25500000920E-02 0. -1.
</event>
<event>
 5   0  0.1276705E-02  0.6052023E+03  0.7818609E-02  0.9894671E-01
        1   -1    0    0  501    0  0.00000000000E+00  0.00000000000E+00  0.75484628747E+03  0.75484628749E+03  0.50400001928E-02 0.  1.
       -1   -1    0    0    0  501  0.00000000000E+00  0.00000000000E+00 -0.12130610119E+03  0.12130610130E+03  0.50400001928E-02 0. -1.
    10030    2    1    2    0    0  0.00000000000E+00  0.00000000000E+00  0.63354018628E+03  0.87615238879E+03  0.60520231390E+03 0.  0.
        1    1    3    3  502    0 -0.15848095223E+02  0.80200500520E+02 -0.10501618092E+03  0.13308523842E+03  0.50400001928E-02 0. -1.
       -1    1    3    3    0  502  0.15848095223E+02 -0.80200500520E+02  0.73855636719E+03  0.74306715037E+03  0.50400001928E-02 0.  1.
</event>
<event>
 5   0  0.2092587E-02  0.5584740E+03  0.7818609E-02  0.9995513E-01
        2   -1    0    0  501    0  0.00000000000E+00  0.00000000000E+00  0.12257739459E+04  0.12257739459E+04  0.25500000920E-02 0. -1.
       -2   -1    0    0    0  501  0.00000000000E+00  0.00000000000E+00 -0.63611480407E+02  0.63611480458E+02  0.25500000920E-02 0.  1.
    10030    2    1    2    0    0  0.00000000000E+00  0.00000000000E+00  0.11621624655E+04  0.12893854264E+04  0.55847397568E+03 0.  0.
        3    1    3    3  502    0 -0.93148685137E+02  0.46963093937E+02 -0.16933927185E+02  0.10568338481E+03  0.10100000352E+00 0.  1.
       -3    1    3    3    0  502  0.93148685137E+02 -0.46963093937E+02  0.11790963927E+04  0.11837020416E+04  0.10100000352E+00 0. -1.
</event>
<event>
 5   0  0.2141800E-02  0.5999270E+03  0.7818609E-02  0.9905558E-01
        2   -1    0    0  501    0  0.00000000000E+00  0.00000000000E+00  0.11374085232E+04  0.11374085232E+04  0.25500000920E-02 0.  1.
       -2   -1    0    0    0  501  0.00000000000E+00  0.00000000000E+00 -0.79107983146E+02  0.79107983187E+02  0.25500000920E-02 0. -1.
    10030    2    1    2    0    0  0.00000000000E+00  0.00000000000E+00  0.10583005400E+04  0.12165165064E+04  0.59992697658E+03 0.  0.
        2    1    3    3  502    0 -0.99264167657E+02 -0.72838417129E+02  0.10838096857E+04  0.10907805668E+04  0.25500000920E-02 0.  1.
       -2    1    3    3    0  502  0.99264167657E+02  0.72838417129E+02 -0.25509145668E+02  0.12573593961E+03  0.25500000920E-02 0. -1.
</event>
<event>
 5   0  0.1250390E-02  0.6013311E+03  0.7818609E-02  0.9902648E-01
        1   -1    0    0  501    0  0.00000000000E+00  0.00000000000E+00  0.14075648174E+03  0.14075648183E+03  0.50400001928E-02 0. -1.
       -1   -1    0    0    0  501  0.00000000000E+00  0.00000000000E+00 -0.64224236051E+03  0.64224236053E+03  0.50400001928E-02 0.  1.
    10030    2    1    2    0    0  0.00000000000E+00  0.00000000000E+00 -0.50148587877E+03  0.78299884235E+03  0.60133110723E+03 0.  0.
        3    1    3    3  502    0 -0.20622050459E+03 -0.10965214947E+03 -0.42028012767E+01  0.23359829652E+03  0.10100000352E+00 0.  1.
       -3    1    3    3    0  502  0.20622050459E+03  0.10965214947E+03 -0.49728307750E+03  0.54940054583E+03  0.10100000352E+00 0. -1.
</event>
<event>
 5   0  0.1250390E-02  0.5964489E+03  0.7818609E-02  0.9912801E-01
        1   -1    0    0  501    0  0.00000000000E+00  0.00000000000E+00  0.82137765466E+02  0.82137765620E+02  0.50400001928E-02 0. -1.
       -1   -1    0    0    0  501  0.00000000000E+00  0.00000000000E+00 -0.10827883617E+04  0.10827883618E+04  0.50400001928E-02 0.  1.
    10030    2    1    2    0    0  0.00000000000E+00  0.00000000000E+00 -0.10006505963E+04  0.11649261274E+04  0.59644887996E+03 0.  0.
        3    1    3    3  502    0 -0.13505054873E+03 -0.24390301732E+03 -0.70711892167E+03  0.76009506783E+03  0.10100000352E+00 0.  1.
       -3    1    3    3    0  502  0.13505054873E+03  0.24390301732E+03 -0.29353167461E+03  0.40483105954E+03  0.10100000352E+00 0. -1.
</event>
<event>
 5   0  0.1303808E-02  0.6005078E+03  0.7818609E-02  0.9904353E-01
       -1   -1    0    0    0  501  0.00000000000E+00  0.00000000000E+00  0.10244695716E+03  0.10244695729E+03  0.50400001928E-02 0. -1.
        1   -1    0    0  501    0  0.00000000000E+00  0.00000000000E+00 -0.87999091372E+03  0.87999091374E+03  0.50400001928E-02 0.  1.
    10030    2    1    2    0    0  0.00000000000E+00  0.00000000000E+00 -0.77754395656E+03  0.98243787102E+03  0.60050775685E+03 0.  0.
        4    1    3    3  502    0  0.23039295292E+03 -0.40895246793E+02 -0.80969275273E+02  0.24761052159E+03  0.12699999809E+01 0. -1.
       -4    1    3    3    0  502 -0.23039295292E+03  0.40895246793E+02 -0.69657468129E+03  0.73482734943E+03  0.12699999809E+01 0.  1.
</event>
<event>
 5   0  0.2092587E-02  0.6013036E+03  0.7818609E-02  0.9902705E-01
       -2   -1    0    0    0  501  0.00000000000E+00  0.00000000000E+00  0.16201215346E+04  0.16201215346E+04  0.25500000920E-02 0.  1.
        2   -1    0    0  501    0  0.00000000000E+00  0.00000000000E+00 -0.55793040768E+02  0.55793040826E+02  0.25500000920E-02 0. -1.
    10030    2    1    2    0    0  0.00000000000E+00  0.00000000000E+00  0.15643284938E+04  0.16759145754E+04  0.60130360677E+03 0.  0.
        3    1    3    3  502    0  0.74805899196E+02  0.27454969907E+03  0.10526461803E+04  0.10904299386E+04  0.10100000352E+00 0.  1.
       -3    1    3    3    0  502 -0.74805899196E+02 -0.27454969907E+03  0.51168231350E+03  0.58548463683E+03  0.10100000352E+00 0. -1.
</event>
<event>
 5   0  0.2141800E-02  0.5990495E+03  0.7818609E-02  0.9907380E-01
       -2   -1    0    0    0  501  0.00000000000E+00  0.00000000000E+00  0.19596685678E+03  0.19596685679E+03  0.25500000920E-02 0.  1.
        2   -1    0    0  501    0  0.00000000000E+00  0.00000000000E+00 -0.45780741653E+03  0.45780741654E+03  0.25500000920E-02 0. -1.
    10030    2    1    2    0    0  0.00000000000E+00  0.00000000000E+00 -0.26184055976E+03  0.65377427333E+03  0.59904951526E+03 0.  0.
        2    1    3    3  502    0  0.18441724635E+03  0.22608736728E+03 -0.20485780699E+03  0.35649956450E+03  0.25500000920E-02 0. -1.
       -2    1    3    3    0  502 -0.18441724635E+03 -0.22608736728E+03 -0.56982752761E+02  0.29727470883E+03  0.25500000920E-02 0.  1.
</event>
<event>
 5   0  0.2142838E-02  0.6053462E+03  0.7818609E-02  0.9894376E-01
       -2   -1    0    0    0  501  0.00000000000E+00  0.00000000000E+00  0.60188014234E+02  0.60188014288E+02  0.25500000920E-02 0. -1.
        2   -1    0    0  501    0  0.00000000000E+00  0.00000000000E+00 -0.15220803726E+04  0.15220803726E+04  0.25500000920E-02 0.  1.
    10030    2    1    2    0    0  0.00000000000E+00  0.00000000000E+00 -0.14618923584E+04  0.15822683869E+04  0.60534616601E+03 0.  0.
        4    1    3    3  502    0 -0.75580021308E+02 -0.78727898657E+02  0.69626110611E+01  0.10936412803E+03  0.12699999809E+01 0. -1.
       -4    1    3    3    0  502  0.75580021308E+02  0.78727898657E+02 -0.14688549694E+04  0.14729042589E+04  0.12699999809E+01 0.  1.
</event>
<event>
 5   0  0.1332555E-02  0.5996983E+03  0.7818609E-02  0.9906032E-01
       -1   -1    0    0    0  501  0.00000000000E+00  0.00000000000E+00  0.84869475612E+02  0.84869475761E+02  0.50400001928E-02 0.  1.
        1   -1    0    0  501    0  0.00000000000E+00  0.00000000000E+00 -0.10593856591E+04  0.10593856591E+04  0.50400001928E-02 0. -1.
    10030    2    1    2    0    0  0.00000000000E+00  0.00000000000E+00 -0.97451618350E+03  0.11442551349E+04  0.59969827564E+03 0.  0.
        2    1    3    3  502    0 -0.22541204241E+03  0.32776575207E+02 -0.85932622004E+03  0.88900306254E+03  0.25500000920E-02 0. -1.
       -2    1    3    3    0  502  0.22541204241E+03 -0.32776575207E+02 -0.11518996345E+03  0.25525207234E+03  0.25500000920E-02 0.  1.
</event>
<event>
 5   0  0.1337051E-02  0.6001642E+03  0.7818609E-02  0.9905065E-01
        1   -1    0    0  501    0  0.00000000000E+00  0.00000000000E+00  0.82704119024E+03  0.82704119026E+03  0.50400001928E-02 0.  1.
       -1   -1    0    0    0  501  0.00000000000E+00  0.00000000000E+00 -0.10888124678E+03  0.10888124690E+03  0.50400001928E-02 0. -1.
    10030    2    1    2    0    0  0.00000000000E+00  0.00000000000E+00  0.71815994346E+03  0.93592243716E+03  0.60016423084E+03 0.  0.
        5    1    3    3  502    0  0.10979535232E+03  0.14786068099E+02 -0.75760374239E+02  0.13429583576E+03  0.46999998093E+01 0. -1.
       -5    1    3    3    0  502 -0.10979535232E+03 -0.14786068099E+02  0.79392031770E+03  0.80162660139E+03  0.46999998093E+01 0.  1.
</event>
<event>
 5   0  0.2092587E-02  0.6082336E+03  0.7818609E-02  0.9888470E-01
       -2   -1    0    0    0  501  0.00000000000E+00  0.00000000000E+00  0.30810328475E+03  0.30810328476E+03  0.25500000920E-02 0. -1.
        2   -1    0    0  501    0  0.00000000000E+00  0.00000000000E+00 -0.30018193021E+03  0.30018193022E+03  0.25500000920E-02 0.  1.
    10030    2    1    2    0    0  0.00000000000E+00  0.00000000000E+00  0.79213545410E+01  0.60828521498E+03  0.60823363513E+03 0.  0.
        3    1    3    3  502    0  0.87959972498E+02  0.27223205081E+03 -0.99197390351E+02  0.30279923828E+03  0.10100000352E+00 0. -1.
       -3    1    3    3    0  502 -0.87959972498E+02 -0.27223205081E+03  0.10711874489E+03  0.30548597670E+03  0.10100000352E+00 0.  1.
</event>
<event>
 5   0  0.2141800E-02  0.5993540E+03  0.7818609E-02  0.9906747E-01
        2   -1    0    0  501    0  0.00000000000E+00  0.00000000000E+00  0.72886527565E+03  0.72886527566E+03  0.25500000920E-02 0.  1.
       -2   -1    0    0    0  501  0.00000000000E+00  0.00000000000E+00 -0.12321385995E+03  0.12321385998E+03  0.25500000920E-02 0. -1.
    10030    2    1    2    0    0  0.00000000000E+00  0.00000000000E+00  0.60565141570E+03  0.85207913563E+03  0.59935399894E+03 0.  0.
        2    1    3    3  502    0  0.24408823127E+03 -0.49174877274E+02  0.65748522382E+02  0.25752689452E+03  0.25500000920E-02 0. -1.
       -2    1    3    3    0  502 -0.24408823127E+03  0.49174877274E+02  0.53990289332E+03  0.59455224112E+03  0.25500000920E-02 0.  1.
</event>
<event>
 5   0  0.1276705E-02  0.6010350E+03  0.7818609E-02  0.9903261E-01
        1   -1    0    0  501    0  0.00000000000E+00  0.00000000000E+00  0.15350194406E+04  0.15350194406E+04  0.50400001928E-02 0. -1.
       -1   -1    0    0    0  501  0.00000000000E+00  0.00000000000E+00 -0.58833635346E+02  0.58833635562E+02  0.50400001928E-02 0.  1.
    10030    2    1    2    0    0  0.00000000000E+00  0.00000000000E+00  0.14761858053E+04  0.15938530762E+04  0.60103502127E+03 0.  0.
        1    1    3    3  502    0 -0.25383720596E+03 -0.82553804971E+02  0.11042237685E+04  0.11360275475E+04  0.50400001928E-02 0. -1.
       -1    1    3    3    0  502  0.25383720596E+03  0.82553804971E+02  0.37196203677E+03  0.45782552863E+03  0.50400001928E-02 0.  1.
</event>
<event>
 5   0  0.1250390E-02  0.5888956E+03  0.7818609E-02  0.9928716E-01
       -1   -1    0    0    0  501  0.00000000000E+00  0.00000000000E+00  0.18820341540E+03  0.18820341547E+03  0.50400001928E-02 0.  1.
        1   -1    0    0  501    0  0.00000000000E+00  0.00000000000E+00 -0.46066916211E+03  0.46066916214E+03  0.50400001928E-02 0. -1.
    10030    2    1    2    0    0  0.00000000000E+00  0.00000000000E+00 -0.27246574671E+03  0.64887257761E+03  0.58889560946E+03 0.  0.
        3    1    3    3  502    0 -0.20013399341E+03  0.21559612251E+03 -0.12211391725E+03  0.31850764881E+03  0.10100000352E+00 0.  1.
       -3    1    3    3    0  502  0.20013399341E+03 -0.21559612251E+03 -0.15035182946E+03  0.33036492880E+03  0.10100000352E+00 0. -1.
</event>
<event>
 5   0  0.1303808E-02  0.6005483E+03  0.7818609E-02  0.9904269E-01
        1   -1    0    0  501    0  0.00000000000E+00  0.00000000000E+00  0.89329885921E+03  0.89329885922E+03  0.50400001928E-02 0. -1.
       -1   -1    0    0    0  501  0.00000000000E+00  0.00000000000E+00 -0.10093437475E+03  0.10093437487E+03  0.50400001928E-02 0.  1.
    10030    2    1    2    0    0  0.00000000000E+00  0.00000000000E+00  0.79236448446E+03  0.99423323410E+03  0.60054828911E+03 0.  0.
        4    1    3    3  502    0  0.15947957117E+03 -0.10134350065E+03  0.78252610519E+03  0.80501736438E+03  0.12699999809E+01 0. -1.
       -4    1    3    3    0  502 -0.15947957117E+03  0.10134350065E+03  0.98383792660E+01  0.18921586972E+03  0.12699999809E+01 0.  1.
</event>
<event>
 5   0  0.8551000E-03  0.6007434E+03  0.7818609E-02  0.9903865E-01
        3   -1    0    0  501    0  0.00000000000E+00  0.00000000000E+00  0.53182483355E+03  0.53182484314E+03  0.10100000352E+00 0. -1.
       -3   -1    0    0    0  501  0.00000000000E+00  0.00000000000E+00 -0.16964821758E+03  0.16964824765E+03  0.10100000352E+00 0.  1.
    10030    2    1    2    0    0  0.00000000000E+00  0.00000000000E+00  0.36217661597E+03  0.70147309079E+03  0.60074336946E+03 0.  0.
        4    1    3    3  502    0  0.89130496087E+02  0.42105178220E+02  0.51239633562E+03  0.52179374184E+03  0.12699999809E+01 0. -1.
       -4    1    3    3    0  502 -0.89130496087E+02 -0.42105178220E+02 -0.15021971965E+03  0.17967934895E+03  0.12699999809E+01 0.  1.
</event>
<event>
 5   0  0.1276705E-02  0.6033992E+03  0.7818609E-02  0.9898379E-01
       -1   -1    0    0    0  501  0.00000000000E+00  0.00000000000E+00  0.10155908671E+03  0.10155908684E+03  0.50400001928E-02 0. -1.
        1   -1    0    0  501    0  0.00000000000E+00  0.00000000000E+00 -0.89625311636E+03  0.89625311638E+03  0.50400001928E-02 0.  1.
    10030    2    1    2    0    0  0.00000000000E+00  0.00000000000E+00 -0.79469402965E+03  0.99781220321E+03  0.60339919798E+03 0.  0.
        1    1    3    3  502    0  0.19354361713E+03  0.21516289833E+03 -0.25636465018E+03  0.38662260466E+03  0.50400001928E-02 0. -1.
       -1    1    3    3    0  502 -0.19354361713E+03 -0.21516289833E+03 -0.53832937947E+03  0.61118959855E+03  0.50400001928E-02 0.  1.
</event>
<event>
 5   0  0.2092587E-02  0.5971677E+03  0.7818609E-02  0.9911300E-01
       -2   -1    0    0    0  501  0.00000000000E+00  0.00000000000E+00  0.47855460676E+02  0.47855460744E+02  0.25500000920E-02 0.  1.
        2   -1    0    0  501    0  0.00000000000E+00  0.00000000000E+00 -0.18629496933E+04  0.18629496933E+04  0.25500000920E-02 0. -1.
    10030    2    1    2    0    0  0.00000000000E+00  0.00000000000E+00 -0.18150942326E+04  0.19108051540E+04  0.59716770125E+03 0.  0.
        3    1    3    3  502    0  0.48586180814E+02  0.19148200279E+03 -0.16239429540E+04  0.16359146378E+04  0.10100000352E+00 0. -1.
       -3    1    3    3    0  502 -0.48586180814E+02 -0.19148200279E+03 -0.19115127860E+03  0.27489051615E+03  0.10100000352E+00 0.  1.
</event>
<event>
 5   0  0.1332555E-02  0.5991086E+03  0.7818609E-02  0.9907257E-01
       -1   -1    0    0    0  501  0.00000000000E+00  0.00000000000E+00  0.77070423942E+02  0.77070424106E+02  0.50400001928E-02 0. -1.
        1   -1    0    0  501    0  0.00000000000E+00  0.00000000000E+00 -0.11642958720E+04  0.11642958720E+04  0.50400001928E-02 0.  1.
    10030    2    1    2    0    0  0.00000000000E+00  0.00000000000E+00 -0.10872254480E+04  0.12413662961E+04  0.59910859301E+03 0.  0.
        2    1    3    3  502    0  0.31636351651E+02 -0.92047736160E+01 -0.11605299368E+04  0.11609975541E+04  0.25500000920E-02 0.  1.
       -2    1    3    3    0  502 -0.31636351651E+02  0.92047736160E+01  0.73304488744E+02  0.80368741932E+02  0.25500000920E-02 0. -1.
</event>
<event>
 5   0  0.2179625E-02  0.6010178E+03  0.7818609E-02  0.9903297E-01
        2   -1    0    0  501    0  0.00000000000E+00  0.00000000000E+00  0.83982311148E+03  0.83982311148E+03  0.25500000920E-02 0. -1.
       -2   -1    0    0    0  501  0.00000000000E+00  0.00000000000E+00 -0.10752929215E+03  0.10752929218E+03  0.25500000920E-02 0.  1.
    10030    2    1    2    0    0  0.00000000000E+00  0.00000000000E+00  0.73229381933E+03  0.94735240366E+03  0.60101775255E+03 0.  0.
        1    1    3    3  502    0  0.22101803229E+03 -0.48122682201E+02  0.54301590389E+02  0.23262292639E+03  0.50400001928E-02 0.  1.
       -1    1    3    3    0  502 -0.22101803229E+03  0.48122682201E+02  0.67799222894E+03  0.71472947727E+03  0.50400001928E-02 0. -1.
</event>
<event>
 5   0  0.1332555E-02  0.5975568E+03  0.7818609E-02  0.9910488E-01
       -1   -1    0    0    0  501  0.00000000000E+00  0.00000000000E+00  0.70130676392E+02  0.70130676573E+02  0.50400001928E-02 0. -1.
        1   -1    0    0  501    0  0.00000000000E+00  0.00000000000E+00 -0.12728885619E+04  0.12728885619E+04  0.50400001928E-02 0.  1.
    10030    2    1    2    0    0  0.00000000000E+00  0.00000000000E+00 -0.12027578855E+04  0.13430192385E+04  0.59755681218E+03 0.  0.
        2    1    3    3  502    0 -0.29032763895E+03 -0.37471091649E+02 -0.46700982620E+03  0.55117365542E+03  0.25500000920E-02 0.  1.
       -2    1    3    3    0  502  0.29032763895E+03  0.37471091649E+02 -0.73574805931E+03  0.79184558307E+03  0.25500000920E-02 0. -1.
</event>
<event>
 5   0  0.1250390E-02  0.5952409E+03  0.7818609E-02  0.9915329E-01
        1   -1    0    0  501    0  0.00000000000E+00  0.00000000000E+00  0.35546723110E+03  0.35546723113E+03  0.50400001928E-02 0.  1.
       -1   -1    0    0    0  501  0.00000000000E+00  0.00000000000E+00 -0.24918734665E+03  0.24918734670E+03  0.50400001928E-02 0. -1.
    10030    2    1    2    0    0  0.00000000000E+00  0.00000000000E+00  0.10627988445E+03  0.60465457783E+03  0.59524091312E+03 0.  0.
        3    1    3    3  502    0 -0.29417339700E+03 -0.39376962898E+02  0.30667847305E+02  0.29837737811E+03  0.10100000352E+00 0.  1.
       -3    1    3    3    0  502  0.29417339700E+03  0.39376962898E+02  0.75612037145E+02  0.30627719972E+03  0.10100000352E+00 0. -1.
</event>
<event>
 5   0  0.2179625E-02  0.5990847E+03  0.7818609E-02  0.9907307E-01
        2   -1    0    0  501    0  0.00000000000E+00  0.00000000000E+00  0.24484526837E+03  0.24484526839E+03  0.25500000920E-02 0.  1.
       -2   -1    0    0    0  501  0.00000000000E+00  0.00000000000E+00 -0.36645840972E+03  0.36645840973E+03  0.25500000920E-02 0. -1.
    10030    2    1    2    0    0  0.00000000000E+00  0.00000000000E+00 -0.12161314135E+03  0.61130367812E+03  0.59908466074E+03 0.  0.
        1    1    3    3  502    0  0.46406694875E+02  0.10726174435E+03  0.22062109923E+03  0.24966443996E+03  0.50400001928E-02 0.  1.
       -1    1    3    3    0  502 -0.46406694875E+02 -0.10726174435E+03 -0.34223424058E+03  0.36163923816E+03  0.50400001928E-02 0. -1.
</event>
<event>
 5   0  0.1303808E-02  0.6007552E+03  0.7818609E-02  0.9903840E-01
        1   -1    0    0  501    0  0.00000000000E+00  0.00000000000E+00  0.88426473981E+03  0.88426473982E+03  0.50400001928E-02 0. -1.
       -1   -1    0    0    0  501  0.00000000000E+00  0.00000000000E+00 -0.10203585047E+03  0.10203585060E+03  0.50400001928E-02 0.  1.
    10030    2    1    2    0    0  0.00000000000E+00  0.00000000000E+00  0.78222888933E+03  0.98630059042E+03  0.60075520751E+03 0.  0.
        4    1    3    3  502    0 -0.84860231785E+02  0.28664549967E+03  0.43920985175E+03  0.53129446467E+03  0.12699999809E+01 0. -1.
       -4    1    3    3    0  502  0.84860231785E+02 -0.28664549967E+03  0.34301903758E+03  0.45500612575E+03  0.12699999809E+01 0.  1.
</event>
<event>
 5   0  0.2141800E-02  0.6011682E+03  0.7818609E-02  0.9902985E-01
       -2   -1    0    0    0  501  0.00000000000E+00  0.00000000000E+00  0.13377552534E+03  0.13377552537E+03  0.25500000920E-02 0.  1.
        2   -1    0    0  501    0  0.00000000000E+00  0.00000000000E+00 -0.67539117268E+03  0.67539117268E+03  0.25500000920E-02 0. -1.
    10030    2    1    2    0    0  0.00000000000E+00  0.00000000000E+00 -0.54161564733E+03  0.80916669805E+03  0.60116822587E+03 0.  0.
        2    1    3    3  502    0 -0.25819591006E+03  0.11685776878E+03 -0.40560823317E+03  0.49481198946E+03  0.25500000920E-02 0.  1.
       -2    1    3    3    0  502  0.25819591006E+03 -0.11685776878E+03 -0.13600741416E+03  0.31435470859E+03  0.25500000920E-02 0. -1.
</event>
<event>
 5   0  0.1250390E-02  0.6003573E+03  0.7818609E-02  0.9904665E-01
        1   -1    0    0  501    0  0.00000000000E+00  0.00000000000E+00  0.35929112070E+03  0.35929112074E+03  0.50400001928E-02 0.  1.
       -1   -1    0    0    0  501  0.00000000000E+00  0.00000000000E+00 -0.25079168860E+03  0.25079168865E+03  0.50400001928E-02 0. -1.
    10030    2    1    2    0    0  0.00000000000E+00  0.00000000000E+00  0.10849943210E+03  0.61008280939E+03  0.60035731656E+03 0.  0.
        3    1    3    3  502    0  0.11239639792E+03 -0.14110081658E+03  0.29806312018E+03  0.34840210177E+03  0.10100000352E+00 0.  1.
       -3    1    3    3    0  502 -0.11239639792E+03  0.14110081658E+03 -0.18956368808E+03  0.26168070762E+03  0.10100000352E+00 0. -1.
</event>
<event>
 5   0  0.2092587E-02  0.6003719E+03  0.7818609E-02  0.9904635E-01
       -2   -1    0    0    0  501  0.00000000000E+00  0.00000000000E+00  0.32744353290E+03  0.32744353291E+03  0.25500000920E-02 0. -1.
        2   -1    0    0  501    0  0.00000000000E+00  0.00000000000E+00 -0.27519741970E+03  0.27519741971E+03  0.25500000920E-02 0.  1.
    10030    2    1    2    0    0  0.00000000000E+00  0.00000000000E+00  0.52246113208E+02  0.60264095262E+03  0.60037193591E+03 0.  0.
        3    1    3    3  502    0  0.35943033781E+02  0.29501976794E+03  0.68508702088E+02  0.30499511081E+03  0.10100000352E+00 0. -1.
       -3    1    3    3    0  502 -0.35943033781E+02 -0.29501976794E+03 -0.16262588880E+02  0.29764584182E+03  0.10100000352E+00 0.  1.
</event>
<event>
 5   0  0.1332555E-02  0.6002019E+03  0.7818609E-02  0.9904987E-01
       -1   -1    0    0    0  501  0.00000000000E+00  0.00000000000E+00  0.16118890114E+03  0.16118890122E+03  0.50400001928E-02 0. -1.
        1   -1    0    0  501    0  0.00000000000E+00  0.00000000000E+00 -0.55872693779E+03  0.55872693781E+03  0.50400001928E-02 0.  1.
    10030    2    1    2    0    0  0.00000000000E+00  0.00000000000E+00 -0.39753803665E+03  0.71991583903E+03  0.60020190328E+03 0.  0.
        2    1    3    3  502    0 -0.47549784577E+02 -0.23959978789E+03  0.10334201239E+02  0.24449097344E+03  0.25500000920E-02 0. -1.
       -2    1    3    3    0  502  0.47549784577E+02  0.23959978789E+03 -0.40787223789E+03  0.47542486559E+03  0.25500000920E-02 0.  1.
</event>
<event>
 5   0  0.2141800E-02  0.5990863E+03  0.7818609E-02  0.9907304E-01
       -2   -1    0    0    0  501  0.00000000000E+00  0.00000000000E+00  0.57059721252E+02  0.57059721309E+02  0.25500000920E-02 0. -1.
        2   -1    0    0  501    0  0.00000000000E+00  0.00000000000E+00 -0.15724945060E+04  0.15724945060E+04  0.25500000920E-02 0.  1.
    10030    2    1    2    0    0  0.00000000000E+00  0.00000000000E+00 -0.15154347847E+04  0.16295542273E+04  0.59908629839E+03 0.  0.
        2    1    3    3  502    0  0.16558412001E+02  0.28990714945E+03 -0.55772757344E+03  0.62879279774E+03  0.25500000920E-02 0. -1.
       -2    1    3    3    0  502 -0.16558412001E+02 -0.28990714945E+03 -0.95770721130E+03  0.10007614296E+04  0.25500000920E-02 0.  1.
</event>
<event>
 5   0  0.2179625E-02  0.5980084E+03  0.7818609E-02  0.9909547E-01
       -2   -1    0    0    0  501  0.00000000000E+00  0.00000000000E+00  0.48615398382E+03  0.48615398383E+03  0.25500000920E-02 0. -1.
        2   -1    0    0  501    0  0.00000000000E+00  0.00000000000E+00 -0.18389959381E+03  0.18389959382E+03  0.25500000920E-02 0.  1.
    10030    2    1    2    0    0  0.00000000000E+00  0.00000000000E+00  0.30225439002E+03  0.67005357765E+03  0.59800842857E+03 0.  0.
        1    1    3    3  502    0  0.22746046545E+03 -0.19096885703E+03  0.11237507287E+03  0.31754609858E+03  0.50400001928E-02 0. -1.
       -1    1    3    3    0  502 -0.22746046545E+03  0.19096885703E+03  0.18987931715E+03  0.35250747907E+03  0.50400001928E-02 0.  1.
</event>
<event>
 5   0  0.1276705E-02  0.5997671E+03  0.7818609E-02  0.9905889E-01
       -1   -1    0    0    0  501  0.00000000000E+00  0.00000000000E+00  0.72310822050E+02  0.72310822226E+02  0.50400001928E-02 0.  1.
        1   -1    0    0  501    0  0.00000000000E+00  0.00000000000E+00 -0.12436609949E+04  0.12436609949E+04  0.50400001928E-02 0. -1.
    10030    2    1    2    0    0  0.00000000000E+00  0.00000000000E+00 -0.11713501728E+04  0.13159718171E+04  0.59976711818E+03 0.  0.
        1    1    3    3  502    0  0.12299675299E+02 -0.25115367261E+02  0.69443538177E+02  0.74862999573E+02  0.50400001928E-02 0.  1.
       -1    1    3    3    0  502 -0.12299675299E+02  0.25115367261E+02 -0.12407937110E+04  0.12411088175E+04  0.50400001928E-02 0. -1.
</event>
<event>
 5   0  0.1332555E-02  0.6023885E+03  0.7818609E-02  0.9900463E-01
        1   -1    0    0  501    0  0.00000000000E+00  0.00000000000E+00  0.51371033279E+03  0.51371033281E+03  0.50400001928E-02 0. -1.
       -1   -1    0    0    0  501  0.00000000000E+00  0.00000000000E+00 -0.17659363728E+03  0.17659363736E+03  0.50400001928E-02 0.  1.
    10030    2    1    2    0    0  0.00000000000E+00  0.00000000000E+00  0.33711669550E+03  0.69030397017E+03  0.60238849993E+03 0.  0.
        2    1    3    3  502    0 -0.28214275039E+03  0.66259762944E+02  0.74597243864E+02  0.29926516099E+03  0.25500000920E-02 0.  1.
       -2    1    3    3    0  502  0.28214275039E+03 -0.66259762944E+02  0.26251945164E+03  0.39103880917E+03  0.25500000920E-02 0. -1.
</event>
<event>
 5   0  0.2141800E-02  0.5999801E+03  0.7818609E-02  0.9905447E-01
        2   -1    0    0  501    0  0.00000000000E+00  0.00000000000E+00  0.29271171839E+03  0.29271171840E+03  0.25500000920E-02 0. -1.
       -2   -1    0    0    0  501  0.00000000000E+00  0.00000000000E+00 -0.30744935286E+03  0.30744935287E+03  0.25500000920E-02 0.  1.
    10030    2    1    2    0    0  0.00000000000E+00  0.00000000000E+00 -0.14737634471E+02  0.60016107127E+03  0.59998009433E+03 0.  0.
        2    1    3    3  502    0  0.28326301727E+03 -0.95282504419E+02 -0.33402343197E+02  0.30071981833E+03  0.25500000920E-02 0.  1.
       -2    1    3    3    0  502 -0.28326301727E+03  0.95282504419E+02  0.18664708726E+02  0.29944125294E+03  0.25500000920E-02 0. -1.
</event>
<event>
 5   0  0.2142838E-02  0.5976864E+03  0.7818609E-02  0.9910218E-01
       -2   -1    0    0    0  501  0.00000000000E+00  0.00000000000E+00  0.13794605303E+03  0.13794605305E+03  0.25500000920E-02 0. -1.
        2   -1    0    0  501    0  0.00000000000E+00  0.00000000000E+00 -0.64740720654E+03  0.64740720654E+03  0.25500000920E-02 0.  1.
    10030    2    1    2    0    0  0.00000000000E+00  0.00000000000E+00 -0.50946115351E+03  0.78535325960E+03  0.59768643571E+03 0.  0.
        4    1    3    3  502    0  0.29749337394E+03 -0.16195339038E+02 -0.22416629958E+03  0.37284948613E+03  0.12699999809E+01 0. -1.
       -4    1    3    3    0  502 -0.29749337394E+03  0.16195339038E+02 -0.28529485393E+03  0.41250377346E+03  0.12699999809E+01 0.  1.
</event>
<event>
 5   0  0.2092587E-02  0.5992887E+03  0.7818609E-02  0.9906883E-01
       -2   -1    0    0    0  501  0.00000000000E+00  0.00000000000E+00  0.56012846997E+02  0.56012847055E+02  0.25500000920E-02 0.  1.
        2   -1    0    0  501    0  0.00000000000E+00  0.00000000000E+00 -0.16029668493E+04  0.16029668493E+04  0.25500000920E-02 0. -1.
    10030    2    1    2    0    0  0.00000000000E+00  0.00000000000E+00 -0.15469540023E+04  0.16589796964E+04  0.59928870145E+03 0.  0.
        3    1    3    3  502    0 -0.14401161296E+03  0.18733119683E+03 -0.12835743209E+04  0.13051418963E+04  0.10100000352E+00 0. -1.
       -3    1    3    3    0  502  0.14401161296E+03 -0.18733119683E+03 -0.26337968138E+03  0.35383780004E+03  0.10100000352E+00 0.  1.
</event>
<event>
 5   0  0.2126207E-02  0.5980854E+03  0.7818609E-02  0.9909386E-01
        2   -1    0    0  501    0  0.00000000000E+00  0.00000000000E+00  0.85995628093E+02  0.85995628130E+02  0.25500000920E-02 0.  1.
       -2   -1    0    0    0  501  0.00000000000E+00  0.00000000000E+00 -0.10398963683E+04  0.10398963683E+04  0.25500000920E-02 0. -1.
    10030    2    1    2    0    0  0.00000000000E+00  0.00000000000E+00 -0.95390074024E+03  0.11258919965E+04  0.59808541654E+03 0.  0.
        5    1    3    3  502    0  0.20958443164E+03 -0.56319611061E+02 -0.86415381944E+03  0.89100025041E+03  0.46999998093E+01 0. -1.
       -5    1    3    3    0  502 -0.20958443164E+03  0.56319611061E+02 -0.89746920804E+02  0.23489174606E+03  0.46999998093E+01 0.  1.
</event>
<event>
 5   0  0.1303808E-02  0.6023201E+03  0.7818609E-02  0.9900604E-01
        1   -1    0    0  501    0  0.00000000000E+00  0.00000000000E+00  0.10200596410E+04  0.10200596410E+04  0.50400001928E-02 0.  1.
       -1   -1    0    0    0  501  0.00000000000E+00  0.00000000000E+00 -0.88913791168E+02  0.88913791310E+02  0.50400001928E-02 0. -1.
    10030    2    1    2    0    0  0.00000000000E+00  0.00000000000E+00  0.93114584981E+03  0.11089734323E+04  0.60232008096E+03 0.  0.
        4    1    3    3  502    0 -0.29981394734E+03 -0.20340414062E+02  0.42904430448E+03  0.52381558164E+03  0.12699999809E+01 0.  1.
       -4    1    3    3    0  502  0.29981394734E+03  0.20340414062E+02  0.50210154533E+03  0.58515785066E+03  0.12699999809E+01 0. -1.
</event>
<event>
 5   0  0.1250390E-02  0.6004008E+03  0.7818609E-02  0.9904575E-01
       -1   -1    0    0    0  501  0.00000000000E+00  0.00000000000E+00  0.42907609441E+02  0.42907609737E+02  0.50400001928E-02 0.  1.
        1   -1    0    0  501    0  0.00000000000E+00  0.00000000000E+00 -0.21003332266E+04  0.21003332266E+04  0.50400001928E-02 0. -1.
    10030    2    1    2    0    0  0.00000000000E+00  0.00000000000E+00 -0.20574256172E+04  0.21432408364E+04  0.60040079317E+03 0.  0.
        3    1    3    3  502    0 -0.22993994725E+03 -0.50006751545E+02 -0.16941233992E+04  0.17103880134E+04  0.10100000352E+00 0. -1.
       -3    1    3    3    0  502  0.22993994725E+03  0.50006751545E+02 -0.36330221802E+03  0.43285282298E+03  0.10100000352E+00 0.  1.
</event>
<event>
 5   0  0.1303808E-02  0.5970850E+03  0.7818609E-02  0.9911472E-01
        1   -1    0    0  501    0  0.00000000000E+00  0.00000000000E+00  0.40035066309E+03  0.40035066313E+03  0.50400001928E-02 0.  1.
       -1   -1    0    0    0  501  0.00000000000E+00  0.00000000000E+00 -0.22262391052E+03  0.22262391057E+03  0.50400001928E-02 0. -1.
    10030    2    1    2    0    0  0.00000000000E+00  0.00000000000E+00  0.17772675258E+03  0.62297457370E+03  0.59708501982E+03 0.  0.
        4    1    3    3  502    0  0.18407280407E+03 -0.60625580424E+02  0.32579513382E+03  0.37908091527E+03  0.12699999809E+01 0.  1.
       -4    1    3    3    0  502 -0.18407280407E+03  0.60625580424E+02 -0.14806838124E+03  0.24389365843E+03  0.12699999809E+01 0. -1.
</event>
<event>
 5   0  0.2142838E-02  0.5999279E+03  0.7818609E-02  0.9905556E-01
        2   -1    0    0  501    0  0.00000000000E+00  0.00000000000E+00  0.13927949912E+04  0.13927949912E+04  0.25500000920E-02 0.  1.
       -2   -1    0    0    0  501  0.00000000000E+00  0.00000000000E+00 -0.64602737723E+02  0.64602737773E+02  0.25500000920E-02 0. -1.
    10030    2    1    2    0    0  0.00000000000E+00  0.00000000000E+00  0.13281922535E+04  0.14573977290E+04  0.59992789419E+03 0.  0.
        4    1    3    3  502    0  0.18729171840E+03 -0.15778600779E+03  0.24331603572E+03  0.34522299774E+03  0.12699999809E+01 0. -1.
       -4    1    3    3    0  502 -0.18729171840E+03  0.15778600779E+03  0.10848762178E+04  0.11121747312E+04  0.12699999809E+01 0.  1.
</event>
<event>
 5   0  0.2142838E-02  0.5975195E+03  0.7818609E-02  0.9910566E-01
        2   -1    0    0  501    0  0.00000000000E+00  0.00000000000E+00  0.56323769827E+03  0.56323769828E+03  0.25500000920E-02 0. -1.
       -2   -1    0    0    0  501  0.00000000000E+00  0.00000000000E+00 -0.15847199179E+03  0.15847199181E+03  0.25500000920E-02 0.  1.
    10030    2    1    2    0    0  0.00000000000E+00  0.00000000000E+00  0.40476570648E+03  0.72170969009E+03  0.59751953911E+03 0.  0.
        4    1    3    3  502    0 -0.51889059172E+02 -0.83757542371E+01 -0.15284033288E+03  0.16163046735E+03  0.12699999809E+01 0.  1.
       -4    1    3    3    0  502  0.51889059172E+02  0.83757542371E+01  0.55760603936E+03  0.56007922274E+03  0.12699999809E+01 0. -1.
</event>
<event>
 5   0  0.1337051E-02  0.6002619E+03  0.7818609E-02  0.9904863E-01
       -1   -1    0    0    0  501  0.00000000000E+00  0.00000000000E+00  0.82909361862E+03  0.82909361864E+03  0.50400001928E-02 0. -1.
        1   -1    0    0  501    0  0.00000000000E+00  0.00000000000E+00 -0.10864706693E+03  0.10864706705E+03  0.50400001928E-02 0.  1.
    10030    2    1    2    0    0  0.00000000000E+00  0.00000000000E+00  0.72044655169E+03  0.93774068569E+03  0.60026190929E+03 0.  0.
        5    1    3    3  502    0 -0.13924335838E+03 -0.25652537732E+03  0.46915956554E+03  0.55256381531E+03  0.46999998093E+01 0.  1.
       -5    1    3    3    0  502  0.13924335838E+03  0.25652537732E+03  0.25128698616E+03  0.38517687037E+03  0.46999998093E+01 0. -1.
</event>
<event>
 5   0  0.2141800E-02  0.6041965E+03  0.7818609E-02  0.9896738E-01
       -2   -1    0    0    0  501  0.00000000000E+00  0.00000000000E+00  0.14507106693E+03  0.14507106696E+03  0.25500000920E-02 0. -1.
        2   -1    0    0  501    0  0.00000000000E+00  0.00000000000E+00 -0.62909409995E+03  0.62909409996E+03  0.25500000920E-02 0.  1.
    10030    2    1    2    0    0  0.00000000000E+00  0.00000000000E+00 -0.48402303302E+03  0.77416516691E+03  0.60419649881E+03 0.  0.
        2    1    3    3  502    0 -0.89371617278E+01 -0.30141112953E+03 -0.21856626451E+03  0.37242415853E+03  0.25500000920E-02 0.  1.
       -2    1    3    3    0  502  0.89371617278E+01  0.30141112953E+03 -0.26545676851E+03  0.40174100839E+03  0.25500000920E-02 0. -1.
</event>
<event>
 5   0  0.1332555E-02  0.6002310E+03  0.7818609E-02  0.9904927E-01
        1   -1    0    0  501    0  0.00000000000E+00  0.00000000000E+00  0.84933015320E+03  0.84933015321E+03  0.50400001928E-02 0. -1.
       -1   -1    0    0    0  501  0.00000000000E+00  0.00000000000E+00 -0.10604746408E+03  0.10604746420E+03  0.50400001928E-02 0.  1.
    10030    2    1    2    0    0  0.00000000000E+00  0.00000000000E+00  0.74328268912E+03  0.95537761741E+03  0.60023098546E+03 0.  0.
        2    1    3    3  502    0  0.22750675812E+03 -0.27230954078E+02  0.68015070308E+03  0.71770873532E+03  0.25500000920E-02 0. -1.
       -2    1    3    3    0  502 -0.22750675812E+03  0.27230954078E+02  0.63131986040E+02  0.23766888210E+03  0.25500000920E-02 0.  1.
</event>
<event>
 5   0  0.1250390E-02  0.6011258E+03  0.7818609E-02  0.9903073E-01
       -1   -1    0    0    0  501  0.00000000000E+00  0.00000000000E+00  0.20078949326E+03  0.20078949332E+03  0.50400001928E-02 0. -1.
        1   -1    0    0  501    0  0.00000000000E+00  0.00000000000E+00 -0.44991431786E+03  0.44991431789E+03  0.50400001928E-02 0.  1.
    10030    2    1    2    0    0  0.00000000000E+00  0.00000000000E+00 -0.24912482460E+03  0.65070381121E+03  0.60112583682E+03 0.  0.
        3    1    3    3  502    0 -0.81706014417E+02  0.99615396341E+01  0.18835147972E+03  0.20555144168E+03  0.10100000352E+00 0. -1.
       -3    1    3    3    0  502  0.81706014417E+02 -0.99615396341E+01 -0.43747630431E+03  0.44515236953E+03  0.10100000352E+00 0.  1.
</event>
<event>
 5   0  0.2126207E-02  0.5872463E+03  0.7818609E-02  0.9932225E-01
       -2   -1    0    0    0  501  0.00000000000E+00  0.00000000000E+00  0.95987066792E+02  0.95987066826E+02  0.25500000920E-02 0.  1.
        2   -1    0    0  501    0  0.00000000000E+00  0.00000000000E+00 -0.89818921955E+03  0.89818921956E+03  0.25500000920E-02 0. -1.
    10030    2    1    2    0    0  0.00000000000E+00  0.00000000000E+00 -0.80220215276E+03  0.99417628638E+03  0.58724628097E+03 0.  0.
        5    1    3    3  502    0 -0.43860986197E+02  0.28638699114E+03 -0.48142532566E+03  0.56190188556E+03  0.46999998093E+01 0.  1.
       -5    1    3    3    0  502  0.43860986197E+02 -0.28638699114E+03 -0.32077682710E+03  0.43227440082E+03  0.46999998093E+01 0. -1.
</event>
<event>
 5   0  0.2179625E-02  0.6017667E+03  0.7818609E-02  0.9901747E-01
       -2   -1    0    0    0  501  0.00000000000E+00  0.00000000000E+00  0.46270004928E+02  0.46270004998E+02  0.25500000920E-02 0.  1.
        2   -1    0    0  501    0  0.00000000000E+00  0.00000000000E+00 -0.19565762616E+04  0.19565762616E+04  0.25500000920E-02 0. -1.
    10030    2    1    2    0    0  0.00000000000E+00  0.00000000000E+00 -0.19103062567E+04  0.20028462666E+04  0.60176671007E+03 0.  0.
        1    1    3    3  502    0  0.63979467514E+02 -0.44403395014E+02  0.12143785995E+02  0.78819447574E+02  0.50400001928E-02 0.  1.
       -1    1    3    3    0  502 -0.63979467514E+02  0.44403395014E+02 -0.19224500427E+04  0.19240268190E+04  0.50400001928E-02 0. -1.
</event>
<event>
 5   0  0.1303808E-02  0.6005704E+03  0.7818609E-02  0.9904223E-01
       -1   -1    0    0    0  501  0.00000000000E+00  0.00000000000E+00  0.41895217734E+03  0.41895217737E+03  0.50400001928E-02 0.  1.
        1   -1    0    0  501    0  0.00000000000E+00  0.00000000000E+00 -0.21523032352E+03  0.21523032358E+03  0.50400001928E-02 0. -1.
    10030    2    1    2    0    0  0.00000000000E+00  0.00000000000E+00  0.20372185382E+03  0.63418250095E+03  0.60057043782E+03 0.  0.
        4    1    3    3  502    0 -0.29811907598E+03 -0.77253420902E+01  0.64752509934E+02  0.30517071421E+03  0.12699999809E+01 0. -1.
       -4    1    3    3    0  502  0.29811907598E+03  0.77253420902E+01  0.13896934389E+03  0.32901178674E+03  0.12699999809E+01 0.  1.
</event>
<event>
 5   0  0.1303808E-02  0.6013706E+03  0.7818609E-02  0.9902567E-01
       -1   -1    0    0    0  501  0.00000000000E+00  0.00000000000E+00  0.38729832810E+03  0.38729832814E+03  0.50400001928E-02 0.  1.
        1   -1    0    0  501    0  0.00000000000E+00  0.00000000000E+00 -0.23344188545E+03  0.23344188550E+03  0.50400001928E-02 0. -1.
    10030    2    1    2    0    0  0.00000000000E+00  0.00000000000E+00  0.15385644265E+03  0.62074021364E+03  0.60137060776E+03 0.  0.
        4    1    3    3  502    0  0.10816992193E+03 -0.11363114764E+03 -0.18784351200E+03  0.24474388169E+03  0.12699999809E+01 0. -1.
       -4    1    3    3    0  502 -0.10816992193E+03  0.11363114764E+03  0.34169995465E+03  0.37599633195E+03  0.12699999809E+01 0.  1.
</event>
<event>
 5   0  0.1250390E-02  0.6006534E+03  0.7818609E-02  0.9904051E-01
       -1   -1    0    0    0  501  0.00000000000E+00  0.00000000000E+00  0.38403199562E+02  0.38403199893E+02  0.50400001928E-02 0. -1.
        1   -1    0    0  501    0  0.00000000000E+00  0.00000000000E+00 -0.23486617905E+04  0.23486617905E+04  0.50400001928E-02 0.  1.
    10030    2    1    2    0    0  0.00000000000E+00  0.00000000000E+00 -0.23102585910E+04  0.23870649904E+04  0.60065340371E+03 0.  0.
        3    1    3    3  502    0  0.20555046657E+03 -0.17379569275E+03 -0.16844505319E+04  0.17058222480E+04  0.10100000352E+00 0.  1.
       -3    1    3    3    0  502 -0.20555046657E+03  0.17379569275E+03 -0.62580805909E+03  0.68124274245E+03  0.10100000352E+00 0. -1.
</event>
<event>
 5   0  0.2142838E-02  0.5984379E+03  0.7818609E-02  0.9908652E-01
        2   -1    0    0  501    0  0.00000000000E+00  0.00000000000E+00  0.93698720691E+03  0.93698720691E+03  0.25500000920E-02 0.  1.
       -2   -1    0    0    0  501  0.00000000000E+00  0.00000000000E+00 -0.95553051509E+02  0.95553051543E+02  0.25500000920E-02 0. -1.
    10030    2    1    2    0    0  0.00000000000E+00  0.00000000000E+00  0.84143415540E+03  0.10325402585E+04  0.59843792281E+03 0.  0.
        4    1    3    3  502    0  0.23223538634E+03  0.48695054371E+01  0.95292390052E+02  0.25107616226E+03  0.12699999809E+01 0. -1.
       -4    1    3    3    0  502 -0.23223538634E+03 -0.48695054371E+01  0.74614176534E+03  0.78146409620E+03  0.12699999809E+01 0.  1.
</event>
<event>
 5   0  0.1337051E-02  0.5968159E+03  0.7818609E-02  0.9912034E-01
       -1   -1    0    0    0  501  0.00000000000E+00  0.00000000000E+00  0.23972676724E+03  0.23972676729E+03  0.50400001928E-02 0. -1.
        1   -1    0    0  501    0  0.00000000000E+00  0.00000000000E+00 -0.37145326517E+03  0.37145326521E+03  0.50400001928E-02 0.  1.
    10030    2    1    2    0    0  0.00000000000E+00  0.00000000000E+00 -0.13172649793E+03  0.61118003250E+03  0.59681585256E+03 0.  0.
        5    1    3    3  502    0  0.23094998678E+03 -0.49205241892E+02 -0.25264311785E+03  0.34584633469E+03  0.46999998093E+01 0.  1.
       -5    1    3    3    0  502 -0.23094998678E+03  0.49205241892E+02  0.12091661992E+03  0.26533369781E+03  0.46999998093E+01 0. -1.
</event>
<event>
 5   0  0.2092587E-02  0.5997070E+03  0.7818609E-02  0.9906014E-01
        2   -1    0    0  501    0  0.00000000000E+00  0.00000000000E+00  0.64465767332E+03  0.64465767333E+03  0.25500000920E-02 0. -1.
       -2   -1    0    0    0  501  0.00000000000E+00  0.00000000000E+00 -0.13947265286E+03  0.13947265288E+03  0.25500000920E-02 0.  1.
    10030    2    1    2    0    0  0.00000000000E+00  0.00000000000E+00  0.50518502046E+03  0.78413032621E+03  0.59970698144E+03 0.  0.
        3    1    3    3  502    0 -0.29306661627E+03 -0.10999349928E+02  0.17090554068E+03  0.33943738937E+03  0.10100000352E+00 0.  1.
       -3    1    3    3    0  502  0.29306661627E+03  0.10999349928E+02  0.33427947979E+03  0.44469293684E+03  0.10100000352E+00 0. -1.
</event>
<event>
 5   0  0.2092587E-02  0.6001081E+03  0.7818609E-02  0.9905182E-01
        2   -1    0    0  501    0  0.00000000000E+00  0.00000000000E+00  0.50568250934E+03  0.50568250935E+03  0.25500000920E-02 0.  1.
       -2   -1    0    0    0  501  0.00000000000E+00  0.00000000000E+00 -0.17804142982E+03  0.17804142983E+03  0.25500000920E-02 0. -1.
    10030    2    1    2    0    0  0.00000000000E+00  0.00000000000E+00  0.32764107953E+03  0.68372393918E+03  0.60010811361E+03 0.  0.
        3    1    3    3  502    0  0.53582290859E+02 -0.95179383238E+02  0.48222787195E+03  0.49444302763E+03  0.10100000352E+00 0.  1.
       -3    1    3    3    0  502 -0.53582290859E+02  0.95179383238E+02 -0.15458679242E+03  0.18928091155E+03  0.10100000352E+00 0. -1.
</event>
<event>
 5   0  0.1337051E-02  0.5994642E+03  0.7818609E-02  0.9906518E-01
        1   -1    0    0  501    0  0.00000000000E+00  0.00000000000E+00  0.16531540801E+04  0.16531540801E+04  0.50400001928E-02 0. -1.
       -1   -1    0    0    0  501  0.00000000000E+00  0.00000000000E+00 -0.54344192754E+02  0.54344192988E+02  0.50400001928E-02 0.  1.
    10030    2    1    2    0    0  0.00000000000E+00  0.00000000000E+00  0.15988098873E+04  0.17074982731E+04  0.59946417470E+03 0.  0.
        5    1    3    3  502    0 -0.17386936127E+03  0.14429197769E+03  0.23858253106E+03  0.32862508081E+03  0.46999998093E+01 0.  1.
       -5    1    3    3    0  502  0.17386936127E+03 -0.14429197769E+03  0.13602273563E+04  0.13788731923E+04  0.46999998093E+01 0. -1.
</event>
<event>
 5   0  0.8551000E-03  0.5992562E+03  0.7818609E-02  0.9906950E-01
       -3   -1    0    0    0  501  0.00000000000E+00  0.00000000000E+00  0.20018928426E+03  0.20018930974E+03  0.10100000352E+00 0.  1.
        3   -1    0    0  501    0  0.00000000000E+00  0.00000000000E+00 -0.44846051530E+03  0.44846052668E+03  0.10100000352E+00 0. -1.
    10030    2    1    2    0    0  0.00000000000E+00  0.00000000000E+00 -0.24827123104E+03  0.64864983642E+03  0.59925621075E+03 0.  0.
        3    1    3    3  502    0  0.27105927037E+03  0.98335320498E+02 -0.35972603379E+02  0.29058045651E+03  0.10100000352E+00 0.  1.
       -3    1    3    3    0  502 -0.27105927037E+03 -0.98335320498E+02 -0.21229862766E+03  0.35806937990E+03  0.10100000352E+00 0. -1.
</event>
<event>
 5   0  0.8551000E-03  0.6000081E+03  0.7818609E-02  0.9905389E-01
        3   -1    0    0  501    0  0.00000000000E+00  0.00000000000E+00  0.79052096887E+03  0.79052097532E+03  0.10100000352E+00 0. -1.
       -3   -1    0    0    0  501  0.00000000000E+00  0.00000000000E+00 -0.11385200328E+03  0.11385204808E+03  0.10100000352E+00 0.  1.
    10030    2    1    2    0    0  0.00000000000E+00  0.00000000000E+00  0.67666896559E+03  0.90437302340E+03  0.60000806366E+03 0.  0.
        1    1    3    3  502    0  0.85970608058E+02 -0.99864488225E+02 -0.67897505260E+02  0.14823607086E+03  0.50400001928E-02 0.  1.
       -1    1    3    3    0  502 -0.85970608058E+02  0.99864488225E+02  0.74456647085E+03  0.75613695254E+03  0.50400001928E-02 0. -1.
</event>
<event>
 5   0  0.1337051E-02  0.5995597E+03  0.7818609E-02  0.9906320E-01
       -1   -1    0    0    0  501  0.00000000000E+00  0.00000000000E+00  0.16938960792E+03  0.16938960799E+03  0.50400001928E-02 0. -1.
        1   -1    0    0  501    0  0.00000000000E+00  0.00000000000E+00 -0.53053990378E+03  0.53053990380E+03  0.50400001928E-02 0.  1.
    10030    2    1    2    0    0  0.00000000000E+00  0.00000000000E+00 -0.36115029586E+03  0.69992951179E+03  0.59955965948E+03 0.  0.
        5    1    3    3  502    0  0.81423608487E+02 -0.21271979234E+03 -0.40804365665E+03  0.46733417359E+03  0.46999998093E+01 0.  1.
       -5    1    3    3    0  502 -0.81423608487E+02  0.21271979234E+03  0.46893360786E+02  0.23259533821E+03  0.46999998093E+01 0. -1.
</event>
<event>
 5   0  0.2092587E-02  0.5995887E+03  0.7818609E-02  0.9906260E-01
        2   -1    0    0  501    0  0.00000000000E+00  0.00000000000E+00  0.22189958329E+04  0.22189958329E+04  0.25500000920E-02 0.  1.
       -2   -1    0    0    0  501  0.00000000000E+00  0.00000000000E+00 -0.40503301786E+02  0.40503301867E+02  0.25500000920E-02 0. -1.
    10030    2    1    2    0    0  0.00000000000E+00  0.00000000000E+00  0.21784925311E+04  0.22594991348E+04  0.59958871896E+03 0.  0.
        3    1    3    3  502    0  0.21587111171E+03  0.14335767725E+03  0.16573263904E+04  0.16774631247E+04  0.10100000352E+00 0.  1.
       -3    1    3    3    0  502 -0.21587111171E+03 -0.14335767725E+03  0.52116614077E+03  0.58203601003E+03  0.10100000352E+00 0. -1.
</event>
<event>
 5   0  0.8551000E-03  0.6001996E+03  0.7818609E-02  0.9904992E-01
       -3   -1    0    0    0  501  0.00000000000E+00  0.00000000000E+00  0.34028354214E+03  0.34028355713E+03  0.10100000352E+00 0.  1.
        3   -1    0    0  501    0  0.00000000000E+00  0.00000000000E+00 -0.26466126251E+03  0.26466128179E+03  0.10100000352E+00 0. -1.
    10030    2    1    2    0    0  0.00000000000E+00  0.00000000000E+00  0.75622279623E+02  0.60494483891E+03  0.60019957427E+03 0.  0.
        2    1    3    3  502    0  0.84192939091E+02 -0.27938918693E+03  0.10845891501E+03  0.31130387890E+03  0.25500000920E-02 0.  1.
       -2    1    3    3    0  502 -0.84192939091E+02  0.27938918693E+03 -0.32836635387E+02  0.29364096001E+03  0.25500000920E-02 0. -1.
</event>
<event>
 5   0  0.2141800E-02  0.5907295E+03  0.7818609E-02  0.9924828E-01
        2   -1    0    0  501    0  0.00000000000E+00  0.00000000000E+00  0.53140061269E+03  0.53140061270E+03  0.25500000920E-02 0.  1.
       -2   -1    0    0    0  501  0.00000000000E+00  0.00000000000E+00 -0.16417055447E+03  0.16417055449E+03  0.25500000920E-02 0. -1.
    10030    2    1    2    0    0  0.00000000000E+00  0.00000000000E+00  0.36723005822E+03  0.69557116719E+03  0.59072949221E+03 0.  0.
        2    1    3    3  502    0 -0.51752883274E+02 -0.76225652375E+02 -0.14681740692E+03  0.17333223009E+03  0.25500000920E-02 0. -1.
       -2    1    3    3    0  502  0.51752883274E+02  0.76225652375E+02  0.51404746513E+03  0.52223893710E+03  0.25500000920E-02 0.  1.
</event>
<event>
 5   0  0.2179625E-02  0.6008452E+03  0.7818609E-02  0.9903654E-01
       -2   -1    0    0    0  501  0.00000000000E+00  0.00000000000E+00  0.14758994037E+03  0.14758994040E+03  0.25500000920E-02 0.  1.
        2   -1    0    0  501    0  0.00000000000E+00  0.00000000000E+00 -0.61151680505E+03  0.61151680505E+03  0.25500000920E-02 0. -1.
    10030    2    1    2    0    0  0.00000000000E+00  0.00000000000E+00 -0.46392686467E+03  0.75910674545E+03  0.60084516743E+03 0.  0.
        1    1    3    3  502    0  0.26518702488E+03  0.45689828895E+02 -0.40072057721E+03  0.48268902997E+03  0.50400001928E-02 0. -1.
       -1    1    3    3    0  502 -0.26518702488E+03 -0.45689828895E+02 -0.63206287460E+02  0.27641771548E+03  0.50400001928E-02 0.  1.
</event>
<event>
 5   0  0.1276705E-02  0.5986302E+03  0.7818609E-02  0.9908252E-01
       -1   -1    0    0    0  501  0.00000000000E+00  0.00000000000E+00  0.89131154088E+02  0.89131154231E+02  0.50400001928E-02 0.  1.
        1   -1    0    0  501    0  0.00000000000E+00  0.00000000000E+00 -0.10051428235E+04  0.10051428235E+04  0.50400001928E-02 0. -1.
    10030    2    1    2    0    0  0.00000000000E+00  0.00000000000E+00 -0.91601166939E+03  0.10942739777E+04  0.59863023634E+03 0.  0.
        1    1    3    3  502    0 -0.18617207548E+03 -0.22144865660E+03 -0.59829519305E+03  0.66457255981E+03  0.50400001928E-02 0. -1.
       -1    1    3    3    0  502  0.18617207548E+03  0.22144865660E+03 -0.31771647634E+03  0.42970141791E+03  0.50400001928E-02 0.  1.
</event>
<event>
 5   0  0.2142838E-02  0.5963502E+03  0.7818609E-02  0.9913007E-01
        2   -1    0    0  501    0  0.00000000000E+00  0.00000000000E+00  0.16918599211E+04  0.16918599211E+04  0.25500000920E-02 0. -1.
       -2   -1    0    0    0  501  0.00000000000E+00  0.00000000000E+00 -0.52550685175E+02  0.52550685237E+02  0.25500000920E-02 0.  1.
    10030    2    1    2    0    0  0.00000000000E+00  0.00000000000E+00  0.16393092360E+04  0.17444106064E+04  0.59635022640E+03 0.  0.
        4    1    3    3  502    0 -0.13358267842E+03  0.19475897283E+03  0.13520903534E+04  0.13725615928E+04  0.12699999809E+01 0. -1.
       -4    1    3    3    0  502  0.13358267842E+03 -0.19475897283E+03  0.28721888257E+03  0.37184901355E+03  0.12699999809E+01 0.  1.
</event>
<event>
 5   0  0.2142838E-02  0.6105823E+03  0.7818609E-02  0.9883691E-01
        2   -1    0    0  501    0  0.00000000000E+00  0.00000000000E+00  0.86055703613E+03  0.86055703613E+03  0.25500000920E-02 0. -1.
       -2   -1    0    0    0  501  0.00000000000E+00  0.00000000000E+00 -0.10830507889E+03  0.10830507892E+03  0.25500000920E-02 0.  1.
    10030    2    1    2    0    0  0.00000000000E+00  0.00000000000E+00  0.75225195724E+03  0.96886211505E+03  0.61058233745E+03 0.  0.
        4    1    3    3  502    0 -0.91935302345E+02  0.60995800713E+02  0.82781197824E+03  0.83513284676E+03  0.12699999809E+01 0. -1.
       -4    1    3    3    0  502  0.91935302345E+02 -0.60995800713E+02 -0.75560021003E+02  0.13372926828E+03  0.12699999809E+01 0.  1.
</event>
<event>
 5   0  0.2126207E-02  0.6037440E+03  0.7818609E-02  0.9897669E-01
        2   -1    0    0  501    0  0.00000000000E+00  0.00000000000E+00  0.18153762523E+04  0.18153762523E+04  0.25500000920E-02 0.  1.
       -2   -1    0    0    0  501  0.00000000000E+00  0.00000000000E+00 -0.50197142380E+02  0.50197142445E+02  0.25500000920E-02 0. -1.
    10030    2    1    2    0    0  0.00000000000E+00  0.00000000000E+00  0.17651791099E+04  0.18655733948E+04  0.60374398638E+03 0.  0.
        5    1    3    3  502    0 -0.26751364467E+02  0.12311027104E+03  0.35043633838E+02  0.13085075699E+03  0.46999998093E+01 0. -1.
       -5    1    3    3    0  502  0.26751364467E+02 -0.12311027104E+03  0.17301354761E+04  0.17347226378E+04  0.46999998093E+01 0.  1.
</event>
<event>
 5   0  0.8551000E-03  0.6010065E+03  0.7818609E-02  0.9903320E-01
       -3   -1    0    0    0  501  0.00000000000E+00  0.00000000000E+00  0.10676665022E+03  0.10676669799E+03  0.10100000352E+00 0. -1.
        3   -1    0    0  501    0  0.00000000000E+00  0.00000000000E+00 -0.84579025213E+03  0.84579025816E+03  0.10100000352E+00 0.  1.
    10030    2    1    2    0    0  0.00000000000E+00  0.00000000000E+00 -0.73902360191E+03  0.95255695615E+03  0.60100654783E+03 0.  0.
        5    1    3    3  502    0 -0.15748777839E+03 -0.14757613005E+03 -0.38191868669E+02  0.21923006941E+03  0.46999998093E+01 0. -1.
       -5    1    3    3    0  502  0.15748777839E+03  0.14757613005E+03 -0.70083173324E+03  0.73332688674E+03  0.46999998093E+01 0.  1.
</event>
<event>
 5   0  0.1303808E-02  0.6018217E+03  0.7818609E-02  0.9901634E-01
       -1   -1    0    0    0  501  0.00000000000E+00  0.00000000000E+00  0.11611063563E+03  0.11611063574E+03  0.50400001928E-02 0. -1.
        1   -1    0    0  501    0  0.00000000000E+00  0.00000000000E+00 -0.77983676723E+03  0.77983676725E+03  0.50400001928E-02 0.  1.
    10030    2    1    2    0    0  0.00000000000E+00  0.00000000000E+00 -0.66372613160E+03  0.89594740299E+03  0.60182171043E+03 0.  0.
        4    1    3    3  502    0  0.28608933579E+03  0.42906873279E+02 -0.20858056442E+03  0.35664488301E+03  0.12699999809E+01 0. -1.
       -4    1    3    3    0  502 -0.28608933579E+03 -0.42906873279E+02 -0.45514556719E+03  0.53930251998E+03  0.12699999809E+01 0.  1.
</event>
<event>
 5   0  0.1332555E-02  0.6019583E+03  0.7818609E-02  0.9901352E-01
        1   -1    0    0  501    0  0.00000000000E+00  0.00000000000E+00  0.10058347334E+04  0.10058347334E+04  0.50400001928E-02 0. -1.
       -1   -1    0    0    0  501  0.00000000000E+00  0.00000000000E+00 -0.90062942052E+02  0.90062942193E+02  0.50400001928E-02 0.  1.
    10030    2    1    2    0    0  0.00000000000E+00  0.00000000000E+00  0.91577179137E+03  0.10958976756E+04  0.60195825568E+03 0.  0.
        2    1    3    3  502    0 -0.19068916206E+03  0.19410137219E+03  0.69209959232E+03  0.74366628599E+03  0.25500000920E-02 0. -1.
       -2    1    3    3    0  502  0.19068916206E+03 -0.19410137219E+03  0.22367219905E+03  0.35223138964E+03  0.25500000920E-02 0.  1.
</event>
<event>
 5   0  0.2092587E-02  0.5981461E+03  0.7818609E-02  0.9909260E-01
        2   -1    0    0  501    0  0.00000000000E+00  0.00000000000E+00  0.51424719546E+03  0.51424719546E+03  0.25500000920E-02 0.  1.
       -2   -1    0    0    0  501  0.00000000000E+00  0.00000000000E+00 -0.17393324372E+03  0.17393324374E+03  0.25500000920E-02 0. -1.
    10030    2    1    2    0    0  0.00000000000E+00  0.00000000000E+00  0.34031395174E+03  0.68818043920E+03  0.59814607844E+03 0.  0.
        3    1    3    3  502    0 -0.21542474375E+03 -0.78845327879E+02  0.39092619876E+03  0.45326339917E+03  0.10100000352E+00 0.  1.
       -3    1    3    3    0  502  0.21542474375E+03  0.78845327879E+02 -0.50612247022E+02  0.23491704003E+03  0.10100000352E+00 0. -1.
</event>
<event>
 5   0  0.2142838E-02  0.5990843E+03  0.7818609E-02  0.9907308E-01
       -2   -1    0    0    0  501  0.00000000000E+00  0.00000000000E+00  0.93887039173E+02  0.93887039208E+02  0.25500000920E-02 0.  1.
        2   -1    0    0  501    0  0.00000000000E+00  0.00000000000E+00 -0.95567503362E+03  0.95567503362E+03  0.25500000920E-02 0. -1.
    10030    2    1    2    0    0  0.00000000000E+00  0.00000000000E+00 -0.86178799445E+03  0.10495620728E+04  0.59908429904E+03 0.  0.
        4    1    3    3  502    0 -0.86070359307E+02  0.13545082374E+03  0.12208784294E+02  0.16095247658E+03  0.12699999809E+01 0.  1.
       -4    1    3    3    0  502  0.86070359307E+02 -0.13545082374E+03 -0.87399677874E+03  0.88860959625E+03  0.12699999809E+01 0. -1.
</event>
<event>
 5   0  0.2142838E-02  0.6001576E+03  0.7818609E-02  0.9905079E-01
       -2   -1    0    0    0  501  0.00000000000E+00  0.00000000000E+00  0.83374950355E+02  0.83374950394E+02  0.25500000920E-02 0.  1.
        2   -1    0    0  501    0  0.00000000000E+00  0.00000000000E+00 -0.10800282312E+04  0.10800282312E+04  0.25500000920E-02 0. -1.
    10030    2    1    2    0    0  0.00000000000E+00  0.00000000000E+00 -0.99665328086E+03  0.11634031816E+04  0.60015764657E+03 0.  0.
        4    1    3    3  502    0  0.19405840948E+02  0.10558807909E+03  0.44868358459E+02  0.11636241489E+03  0.12699999809E+01 0.  1.
       -4    1    3    3    0  502 -0.19405840948E+02 -0.10558807909E+03 -0.10415216393E+04  0.10470407667E+04  0.12699999809E+01 0. -1.
</event>
<event>
 5   0  0.1250390E-02  0.6079190E+03  0.7818609E-02  0.9889111E-01
        1   -1    0    0  501    0  0.00000000000E+00  0.00000000000E+00  0.50084108488E+03  0.50084108491E+03  0.50400001928E-02 0. -1.
       -1   -1    0    0    0  501  0.00000000000E+00  0.00000000000E+00 -0.18447245168E+03  0.18447245175E+03  0.50400001928E-02 0.  1.
    10030    2    1    2    0    0  0.00000000000E+00  0.00000000000E+00  0.31636863320E+03  0.68531353665E+03  0.60791901718E+03 0.  0.
        3    1    3    3  502    0  0.20658094615E+03  0.20274333994E+02  0.40849965512E+03  0.45821252096E+03  0.10100000352E+00 0. -1.
       -3    1    3    3    0  502 -0.20658094615E+03 -0.20274333994E+02 -0.92131021917E+02  0.22710101569E+03  0.10100000352E+00 0.  1.
</event>
<event>
 5   0  0.1276705E-02  0.6003025E+03  0.7818609E-02  0.9904779E-01
        1   -1    0    0  501    0  0.00000000000E+00  0.00000000000E+00  0.12355640762E+03  0.12355640772E+03  0.50400001928E-02 0. -1.
       -1   -1    0    0    0  501  0.00000000000E+00  0.00000000000E+00 -0.72914693961E+03  0.72914693963E+03  0.50400001928E-02 0.  1.
    10030    2    1    2    0    0  0.00000000000E+00  0.00000000000E+00 -0.60559053199E+03  0.85270334735E+03  0.60030251220E+03 0.  0.
        1    1    3    3  502    0 -0.10850568659E+03 -0.21239184872E+03 -0.43948587821E+02  0.24251857624E+03  0.50400001928E-02 0. -1.
       -1    1    3    3    0  502  0.10850568659E+03  0.21239184872E+03 -0.56164194417E+03  0.61018477111E+03  0.50400001928E-02 0.  1.
</event>
<event>
 5   0  0.1332555E-02  0.5955127E+03  0.7818609E-02  0.9914760E-01
       -1   -1    0    0    0  501  0.00000000000E+00  0.00000000000E+00  0.14646567622E+03  0.14646567630E+03  0.50400001928E-02 0. -1.
        1   -1    0    0  501    0  0.00000000000E+00  0.00000000000E+00 -0.60532161394E+03  0.60532161396E+03  0.50400001928E-02 0.  1.
    10030    2    1    2    0    0  0.00000000000E+00  0.00000000000E+00 -0.45885593772E+03  0.75178729026E+03  0.59551268518E+03 0.  0.
        2    1    3    3  502    0  0.24738661328E+03  0.88344397339E+02 -0.52445962952E+02  0.26787207396E+03  0.25500000920E-02 0. -1.
       -2    1    3    3    0  502 -0.24738661328E+03 -0.88344397339E+02 -0.40640997477E+03  0.48391521630E+03  0.25500000920E-02 0.  1.
</event>
<event>
 5   0  0.2179625E-02  0.6005431E+03  0.7818609E-02  0.9904280E-01
        2   -1    0    0  501    0  0.00000000000E+00  0.00000000000E+00  0.66040230038E+03  0.66040230039E+03  0.25500000920E-02 0.  1.
       -2   -1    0    0    0  501  0.00000000000E+00  0.00000000000E+00 -0.13652739779E+03  0.13652739781E+03  0.25500000920E-02 0. -1.
    10030    2    1    2    0    0  0.00000000000E+00  0.00000000000E+00  0.52387490259E+03  0.79692969820E+03  0.60054311278E+03 0.  0.
        1    1    3    3  502    0  0.26450735621E+03 -0.14192238964E+03  0.27194752372E+03  0.40504513558E+03  0.50400001928E-02 0. -1.
       -1    1    3    3    0  502 -0.26450735621E+03  0.14192238964E+03  0.25192737887E+03  0.39188456262E+03  0.50400001928E-02 0.  1.
</event>
<event>
 5   0  0.2142838E-02  0.6074507E+03  0.7818609E-02  0.9890068E-01
       -2   -1    0    0    0  501  0.00000000000E+00  0.00000000000E+00  0.16738518564E+03  0.16738518566E+03  0.25500000920E-02 0.  1.
        2   -1    0    0  501    0  0.00000000000E+00  0.00000000000E+00 -0.55111856713E+03  0.55111856714E+03  0.25500000920E-02 0. -1.
    10030    2    1    2    0    0  0.00000000000E+00  0.00000000000E+00 -0.38373338149E+03  0.71850375280E+03  0.60745068501E+03 0.  0.
        4    1    3    3  502    0  0.68210373206E+02  0.15724383282E+03 -0.48844334184E+03  0.51764542793E+03  0.12699999809E+01 0. -1.
       -4    1    3    3    0  502 -0.68210373206E+02 -0.15724383282E+03  0.10470996035E+03  0.20085832487E+03  0.12699999809E+01 0.  1.
</event>
<event>
 5   0  0.1337051E-02  0.6040202E+03  0.7818609E-02  0.9897100E-01
       -1   -1    0    0    0  501  0.00000000000E+00  0.00000000000E+00  0.10567504971E+03  0.10567504983E+03  0.50400001928E-02 0. -1.
        1   -1    0    0  501    0  0.00000000000E+00  0.00000000000E+00 -0.86311859897E+03  0.86311859899E+03  0.50400001928E-02 0.  1.
    10030    2    1    2    0    0  0.00000000000E+00  0.00000000000E+00 -0.75744354927E+03  0.96879364881E+03  0.60402020136E+03 0.  0.
        5    1    3    3  502    0 -0.45309690459E+02 -0.29576314157E+03 -0.44405439825E+03  0.53547661253E+03  0.46999998093E+01 0.  1.
       -5    1    3    3    0  502  0.45309690459E+02  0.29576314157E+03 -0.31338915102E+03  0.43331703629E+03  0.46999998093E+01 0. -1.
</event>
<event>
 5   0  0.2179625E-02  0.5996234E+03  0.7818609E-02  0.9906188E-01
        2   -1    0    0  501    0  0.00000000000E+00  0.00000000000E+00  0.17903303160E+04  0.17903303160E+04  0.25500000920E-02 0. -1.
       -2   -1    0    0    0  501  0.00000000000E+00  0.00000000000E+00 -0.50206970942E+02  0.50206971007E+02  0.25500000920E-02 0.  1.
    10030    2    1    2    0    0  0.00000000000E+00  0.00000000000E+00  0.17401233451E+04  0.18405372870E+04  0.59962342254E+03 0.  0.
        1    1    3    3  502    0 -0.12579227782E+03  0.24007195108E+03  0.47663005269E+03  0.54830141893E+03  0.50400001928E-02 0.  1.
       -1    1    3    3    0  502  0.12579227782E+03 -0.24007195108E+03  0.12634932924E+04  0.12922358681E+04  0.50400001928E-02 0. -1.
</event>
<event>
 5   0  0.1276705E-02  0.5996006E+03  0.7818609E-02  0.9906235E-01
        1   -1    0    0  501    0  0.00000000000E+00  0.00000000000E+00  0.98272498885E+03  0.98272498887E+03  0.50400001928E-02 0.  1.
       -1   -1    0    0    0  501  0.00000000000E+00  0.00000000000E+00 -0.91460183963E+02  0.91460184102E+02  0.50400001928E-02 0. -1.
    10030    2    1    2    0    0  0.00000000000E+00  0.00000000000E+00  0.89126480489E+03  0.10741851730E+04  0.59960056153E+03 0.  0.
        1    1    3    3  502    0  0.12689781855E+03  0.19249129842E+03  0.10231675174E+03  0.25223931897E+03  0.50400001928E-02 0. -1.
       -1    1    3    3    0  502 -0.12689781855E+03 -0.19249129842E+03  0.78894805315E+03  0.82194585400E+03  0.50400001928E-02 0.  1.
</event>
<event>
 5   0  0.1337051E-02  0.5999336E+03  0.7818609E-02  0.9905544E-01
       -1   -1    0    0    0  501  0.00000000000E+00  0.00000000000E+00  0.65588625020E+02  0.65588625213E+02  0.50400001928E-02 0. -1.
        1   -1    0    0  501    0  0.00000000000E+00  0.00000000000E+00 -0.13718855234E+04  0.13718855234E+04  0.50400001928E-02 0.  1.
    10030    2    1    2    0    0  0.00000000000E+00  0.00000000000E+00 -0.13062968984E+04  0.14374741486E+04  0.59993361402E+03 0.  0.
        5    1    3    3  502    0  0.28447104134E+03 -0.84084903455E+02 -0.54696369480E+03  0.62224225007E+03  0.46999998093E+01 0.  1.
       -5    1    3    3    0  502 -0.28447104134E+03  0.84084903455E+02 -0.75933320357E+03  0.81523189853E+03  0.46999998093E+01 0. -1.
</event>
<event>
 5   0  0.1337051E-02  0.5979488E+03  0.7818609E-02  0.9909671E-01
       -1   -1    0    0    0  501  0.00000000000E+00  0.00000000000E+00  0.97086224559E+02  0.97086224690E+02  0.50400001928E-02 0.  1.
        1   -1    0    0  501    0  0.00000000000E+00  0.00000000000E+00 -0.92068370179E+03  0.92068370180E+03  0.50400001928E-02 0. -1.
    10030    2    1    2    0    0  0.00000000000E+00  0.00000000000E+00 -0.82359747723E+03  0.10177699265E+04  0.59794884294E+03 0.  0.
        5    1    3    3  502    0 -0.12224501758E+03 -0.24125710794E+03 -0.19505772957E+03  0.33349429428E+03  0.46999998093E+01 0. -1.
       -5    1    3    3    0  502  0.12224501758E+03  0.24125710794E+03 -0.62853974766E+03  0.68427563221E+03  0.46999998093E+01 0.  1.
</event>
<event>
 5   0  0.8551000E-03  0.5971154E+03  0.7818609E-02  0.9911409E-01
       -4   -1    0    0    0  501  0.00000000000E+00  0.00000000000E+00  0.37344922106E+03  0.37345138052E+03  0.12699999809E+01 0. -1.
        4   -1    0    0  501    0  0.00000000000E+00  0.00000000000E+00 -0.23868040766E+03  0.23868378642E+03  0.12699999809E+01 0.  1.
    10030    2    1    2    0    0  0.00000000000E+00  0.00000000000E+00  0.13476881341E+03  0.61213516694E+03  0.59711542396E+03 0.  0.
        2    1    3    3  502    0 -0.62761428342E+02 -0.29186338699E+03  0.63621404564E+02  0.30523911394E+03  0.25500000920E-02 0.  1.
       -2    1    3    3    0  502  0.62761428342E+02  0.29186338699E+03  0.71147408841E+02  0.30689605300E+03  0.25500000920E-02 0. -1.
</event>
<event>
 5   0  0.2126207E-02  0.6012161E+03  0.7818609E-02  0.9902886E-01
        2   -1    0    0  501    0  0.00000000000E+00  0.00000000000E+00  0.82142079265E+03  0.82142079265E+03  0.25500000920E-02 0. -1.
       -2   -1    0    0    0  501  0.00000000000E+00  0.00000000000E+00 -0.11001086460E+03  0.11001086463E+03  0.25500000920E-02 0.  1.
    10030    2    1    2    0    0  0.00000000000E+00  0.00000000000E+00  0.71140992805E+03  0.93143165728E+03  0.60121613956E+03 0.  0.
        5    1    3    3  502    0  0.13876065045E+03  0.10988875250E+03  0.73205715768E+03  0.75316653414E+03  0.46999998093E+01 0. -1.
       -5    1    3    3    0  502 -0.13876065045E+03 -0.10988875250E+03 -0.20647229636E+02  0.17826512314E+03  0.46999998093E+01 0.  1.
</event>
<event>
 5   0  0.2142838E-02  0.6004294E+03  0.7818609E-02  0.9904516E-01
        2   -1    0    0  501    0  0.00000000000E+00  0.00000000000E+00  0.16633451500E+04  0.16633451500E+04  0.25500000920E-02 0.  1.
       -2   -1    0    0    0  501  0.00000000000E+00  0.00000000000E+00 -0.54185306972E+02  0.54185307032E+02  0.25500000920E-02 0. -1.
    10030    2    1    2    0    0  0.00000000000E+00  0.00000000000E+00  0.16091598430E+04  0.17175304570E+04  0.60042940502E+03 0.  0.
        4    1    3    3  502    0  0.84860996810E+00 -0.12428191735E+03  0.22868931327E+02  0.12637767224E+03  0.12699999809E+01 0. -1.
       -4    1    3    3    0  502 -0.84860996810E+00  0.12428191735E+03  0.15862909117E+04  0.15911527848E+04  0.12699999809E+01 0.  1.
</event>
<event>
 5   0  0.1276705E-02  0.6018275E+03  0.7818609E-02  0.9901622E-01
       -1   -1    0    0    0  501  0.00000000000E+00  0.00000000000E+00  0.56413393115E+03  0.56413393117E+03  0.50400001928E-02 0.  1.
        1   -1    0    0  501    0  0.00000000000E+00  0.00000000000E+00 -0.16050989380E+03  0.16050989388E+03  0.50400001928E-02 0. -1.
    10030    2    1    2    0    0  0.00000000000E+00  0.00000000000E+00  0.40362403735E+03  0.72464382505E+03  0.60182747499E+03 0.  0.
        1    1    3    3  502    0  0.12627814699E+03 -0.24665032683E+03  0.34308682534E+03  0.44101147817E+03  0.50400001928E-02 0.  1.
       -1    1    3    3    0  502 -0.12627814699E+03  0.24665032683E+03  0.60537212016E+02  0.28363234688E+03  0.50400001928E-02 0. -1.
</event>
<event>
 5   0  0.2126207E-02  0.6004768E+03  0.7818609E-02  0.9904417E-01
        2   -1    0    0  501    0  0.00000000000E+00  0.00000000000E+00  0.27854909969E+03  0.27854909970E+03  0.25500000920E-02 0.  1.
       -2   -1    0    0    0  501  0.00000000000E+00  0.00000000000E+00 -0.32361652840E+03  0.32361652841E+03  0.25500000920E-02 0. -1.
    10030    2    1    2    0    0  0.00000000000E+00  0.00000000000E+00 -0.45067428706E+02  0.60216562811E+03  0.60047678602E+03 0.  0.
        5    1    3    3  502    0  0.18379586696E+03  0.21316812910E+03  0.82160250224E+02  0.29324728249E+03  0.46999998093E+01 0. -1.
       -5    1    3    3    0  502 -0.18379586696E+03 -0.21316812910E+03 -0.12722767893E+03  0.30891834562E+03  0.46999998093E+01 0.  1.
</event>
<event>
 5   0  0.1250390E-02  0.5984454E+03  0.7818609E-02  0.9908637E-01
        1   -1    0    0  501    0  0.00000000000E+00  0.00000000000E+00  0.87314819441E+03  0.87314819443E+03  0.50400001928E-02 0.  1.
       -1   -1    0    0    0  501  0.00000000000E+00  0.00000000000E+00 -0.10254184378E+03  0.10254184390E+03  0.50400001928E-02 0. -1.
    10030    2    1    2    0    0  0.00000000000E+00  0.00000000000E+00  0.77060635063E+03  0.97569003833E+03  0.59844540542E+03 0.  0.
        3    1    3    3  502    0 -0.85676692711E+02 -0.16900763198E+03  0.77381130371E+01  0.18964167247E+03  0.10100000352E+00 0. -1.
       -3    1    3    3    0  502  0.85676692711E+02  0.16900763198E+03  0.76286823760E+03  0.78604836586E+03  0.10100000352E+00 0.  1.
</event>
<event>
 5   0  0.2092587E-02  0.6022427E+03  0.7818609E-02  0.9900764E-01
       -2   -1    0    0    0  501  0.00000000000E+00  0.00000000000E+00  0.20781606841E+03  0.20781606843E+03  0.25500000920E-02 0. -1.
        2   -1    0    0  501    0  0.00000000000E+00  0.00000000000E+00 -0.43631878241E+03  0.43631878242E+03  0.25500000920E-02 0.  1.
    10030    2    1    2    0    0  0.00000000000E+00  0.00000000000E+00 -0.22850271400E+03  0.64413485085E+03  0.60224265522E+03 0.  0.
        3    1    3    3  502    0 -0.84690534648E+02  0.71205371132E+02 -0.41378812288E+03  0.42832617521E+03  0.10100000352E+00 0.  1.
       -3    1    3    3    0  502  0.84690534648E+02 -0.71205371132E+02  0.18528540888E+03  0.21580867564E+03  0.10100000352E+00 0. -1.
</event>
<event>
 5   0  0.2126207E-02  0.5982861E+03  0.7818609E-02  0.9908968E-01
       -2   -1    0    0    0  501  0.00000000000E+00  0.00000000000E+00  0.10289828734E+03  0.10289828737E+03  0.25500000920E-02 0. -1.
        2   -1    0    0  501    0  0.00000000000E+00  0.00000000000E+00 -0.86966040608E+03  0.86966040608E+03  0.25500000920E-02 0.  1.
    10030    2    1    2    0    0  0.00000000000E+00  0.00000000000E+00 -0.76676211874E+03  0.97255869346E+03  0.59828610671E+03 0.  0.
        5    1    3    3  502    0 -0.22802208798E+03  0.14808875511E+03 -0.18073687358E+03  0.32651532807E+03  0.46999998093E+01 0. -1.
       -5    1    3    3    0  502  0.22802208798E+03 -0.14808875511E+03 -0.58602524516E+03  0.64604336538E+03  0.46999998093E+01 0.  1.
</event>
<event>
 5   0  0.1303808E-02  0.5995769E+03  0.7818609E-02  0.9906284E-01
        1   -1    0    0  501    0  0.00000000000E+00  0.00000000000E+00  0.51658783061E+03  0.51658783063E+03  0.50400001928E-02 0. -1.
       -1   -1    0    0    0  501  0.00000000000E+00  0.00000000000E+00 -0.17397451188E+03  0.17397451195E+03  0.50400001928E-02 0.  1.
    10030    2    1    2    0    0  0.00000000000E+00  0.00000000000E+00  0.34261331873E+03  0.69056234258E+03  0.59957690318E+03 0.  0.
        4    1    3    3  502    0  0.50396713663E+01 -0.23654083073E+03 -0.40735817632E+02  0.24007911743E+03  0.12699999809E+01 0. -1.
       -4    1    3    3    0  502 -0.50396713663E+01  0.23654083073E+03  0.38334913637E+03  0.45048322515E+03  0.12699999809E+01 0.  1.
</event>
<event>
 5   0  0.2092587E-02  0.6012231E+03  0.7818609E-02  0.9902872E-01
       -2   -1    0    0    0  501  0.00000000000E+00  0.00000000000E+00  0.10560118146E+03  0.10560118149E+03  0.25500000920E-02 0.  1.
        2   -1    0    0  501    0  0.00000000000E+00  0.00000000000E+00 -0.85574153839E+03  0.85574153840E+03  0.25500000920E-02 0. -1.
    10030    2    1    2    0    0  0.00000000000E+00  0.00000000000E+00 -0.75014035694E+03  0.96134271988E+03  0.60122314490E+03 0.  0.
        3    1    3    3  502    0 -0.19290492650E+03 -0.15285984357E+03 -0.65104504236E+03  0.69601587613E+03  0.10100000352E+00 0. -1.
       -3    1    3    3    0  502  0.19290492650E+03  0.15285984357E+03 -0.99095314581E+02  0.26532684376E+03  0.10100000352E+00 0.  1.
</event>
<event>
 5   0  0.2141800E-02  0.6001481E+03  0.7818609E-02  0.9905099E-01
       -2   -1    0    0    0  501  0.00000000000E+00  0.00000000000E+00  0.21444149934E+03  0.21444149936E+03  0.25500000920E-02 0. -1.
        2   -1    0    0  501    0  0.00000000000E+00  0.00000000000E+00 -0.41990204644E+03  0.41990204645E+03  0.25500000920E-02 0.  1.
    10030    2    1    2    0    0  0.00000000000E+00  0.00000000000E+00 -0.20546054710E+03  0.63434354581E+03  0.60014806314E+03 0.  0.
        2    1    3    3  502    0  0.80594708358E+02 -0.58649898836E+02 -0.40189270979E+03  0.41406891678E+03  0.25500000920E-02 0.  1.
       -2    1    3    3    0  502 -0.80594708358E+02  0.58649898836E+02  0.19643216269E+03  0.22027462903E+03  0.25500000920E-02 0. -1.
</event>
<event>
 5   0  0.2142838E-02  0.6039362E+03  0.7818609E-02  0.9897273E-01
        2   -1    0    0  501    0  0.00000000000E+00  0.00000000000E+00  0.89124405088E+03  0.89124405089E+03  0.25500000920E-02 0. -1.
       -2   -1    0    0    0  501  0.00000000000E+00  0.00000000000E+00 -0.10231173961E+03  0.10231173964E+03  0.25500000920E-02 0.  1.
    10030    2    1    2    0    0  0.00000000000E+00  0.00000000000E+00  0.78893231127E+03  0.99355579053E+03  0.60393618630E+03 0.  0.
        4    1    3    3  502    0 -0.82679413014E+02  0.21740579513E+03  0.71126420305E+03  0.74833117303E+03  0.12699999809E+01 0. -1.
       -4    1    3    3    0  502  0.82679413014E+02 -0.21740579513E+03  0.77668108223E+02  0.24522461750E+03  0.12699999809E+01 0.  1.
</event>
<event>
 5   0  0.2126207E-02  0.6027989E+03  0.7818609E-02  0.9899616E-01
       -2   -1    0    0    0  501  0.00000000000E+00  0.00000000000E+00  0.22274698305E+03  0.22274698307E+03  0.25500000920E-02 0.  1.
        2   -1    0    0  501    0  0.00000000000E+00  0.00000000000E+00 -0.40782425450E+03  0.40782425451E+03  0.25500000920E-02 0. -1.
    10030    2    1    2    0    0  0.00000000000E+00  0.00000000000E+00 -0.18507727145E+03  0.63057123758E+03  0.60279887960E+03 0.  0.
        5    1    3    3  502    0  0.20778172033E+03 -0.83208772281E+02 -0.30363434824E+03  0.37724375477E+03  0.46999998093E+01 0. -1.
       -5    1    3    3    0  502 -0.20778172033E+03  0.83208772281E+02  0.11855707679E+03  0.25332748280E+03  0.46999998093E+01 0.  1.
</event>
<event>
 5   0  0.2179625E-02  0.6031149E+03  0.7818609E-02  0.9898965E-01
        2   -1    0    0  501    0  0.00000000000E+00  0.00000000000E+00  0.28732724026E+03  0.28732724027E+03  0.25500000920E-02 0.  1.
       -2   -1    0    0    0  501  0.00000000000E+00  0.00000000000E+00 -0.31649242189E+03  0.31649242191E+03  0.25500000920E-02 0. -1.
    10030    2    1    2    0    0  0.00000000000E+00  0.00000000000E+00 -0.29165181639E+02  0.60381966217E+03  0.60311489503E+03 0.  0.
        1    1    3    3  502    0  0.73797049603E+02  0.15564132012E+03 -0.26239287813E+03  0.31387935195E+03  0.50400001928E-02 0. -1.
       -1    1    3    3    0  502 -0.73797049603E+02 -0.15564132012E+03  0.23322769649E+03  0.28994031023E+03  0.50400001928E-02 0.  1.
</event>
<event>
 5   0  0.2179625E-02  0.5997543E+03  0.7818609E-02  0.9905916E-01
       -2   -1    0    0    0  501  0.00000000000E+00  0.00000000000E+00  0.42274978254E+03  0.42274978254E+03  0.25500000920E-02 0. -1.
        2   -1    0    0  501    0  0.00000000000E+00  0.00000000000E+00 -0.21271756619E+03  0.21271756620E+03  0.25500000920E-02 0.  1.
    10030    2    1    2    0    0  0.00000000000E+00  0.00000000000E+00  0.21003221635E+03  0.63546734875E+03  0.59975429921E+03 0.  0.
        1    1    3    3  502    0 -0.51146804031E+02  0.22160823204E+03  0.31210276892E+03  0.38617915850E+03  0.50400001928E-02 0. -1.
       -1    1    3    3    0  502  0.51146804031E+02 -0.22160823204E+03 -0.10207055257E+03  0.24928819025E+03  0.50400001928E-02 0.  1.
</event>
<event>
 5   0  0.1276705E-02  0.5832755E+03  0.7818609E-02  0.9940725E-01
       -1   -1    0    0    0  501  0.00000000000E+00  0.00000000000E+00  0.10320822741E+03  0.10320822753E+03  0.50400001928E-02 0. -1.
        1   -1    0    0  501    0  0.00000000000E+00  0.00000000000E+00 -0.82408710216E+03  0.82408710218E+03  0.50400001928E-02 0.  1.
    10030    2    1    2    0    0  0.00000000000E+00  0.00000000000E+00 -0.72087887475E+03  0.92729532971E+03  0.58327547218E+03 0.  0.
        1    1    3    3  502    0  0.18797747281E+02  0.28587637513E+03 -0.27374157100E+03  0.39624879165E+03  0.50400001928E-02 0. -1.
       -1    1    3    3    0  502 -0.18797747281E+02 -0.28587637513E+03 -0.44713730375E+03  0.53104653807E+03  0.50400001928E-02 0.  1.
</event>
<event>
 5   0  0.1332555E-02  0.5976257E+03  0.7818609E-02  0.9910344E-01
        1   -1    0    0  501    0  0.00000000000E+00  0.00000000000E+00  0.91687945608E+02  0.91687945746E+02  0.50400001928E-02 0.  1.
       -1   -1    0    0    0  501  0.00000000000E+00  0.00000000000E+00 -0.97383704070E+03  0.97383704071E+03  0.50400001928E-02 0. -1.
    10030    2    1    2    0    0  0.00000000000E+00  0.00000000000E+00 -0.88214909509E+03  0.10655249865E+04  0.59762569456E+03 0.  0.
        2    1    3    3  502    0 -0.85530599429E+02  0.26712196446E+03 -0.25734195028E+03  0.38065011062E+03  0.25500000920E-02 0.  1.
       -2    1    3    3    0  502  0.85530599429E+02 -0.26712196446E+03 -0.62480714481E+03  0.68487487583E+03  0.25500000920E-02 0. -1.
</event>
<event>
 5   0  0.2179625E-02  0.5993640E+03  0.7818609E-02  0.9906726E-01
        2   -1    0    0  501    0  0.00000000000E+00  0.00000000000E+00  0.20175267383E+03  0.20175267385E+03  0.25500000920E-02 0.  1.
       -2   -1    0    0    0  501  0.00000000000E+00  0.00000000000E+00 -0.44514550253E+03  0.44514550254E+03  0.25500000920E-02 0. -1.
    10030    2    1    2    0    0  0.00000000000E+00  0.00000000000E+00 -0.24339282870E+03  0.64689817639E+03  0.59936398086E+03 0.  0.
        1    1    3    3  502    0  0.31745760984E+02 -0.22027607496E+03 -0.33831203095E+03  0.40494983992E+03  0.50400001928E-02 0. -1.
       -1    1    3    3    0  502 -0.31745760984E+02  0.22027607496E+03  0.94919202249E+02  0.24194833647E+03  0.50400001928E-02 0.  1.
</event>
<event>
 5   0  0.1250390E-02  0.6139314E+03  0.7818609E-02  0.9876917E-01
        1   -1    0    0  501    0  0.00000000000E+00  0.00000000000E+00  0.13948123666E+04  0.13948123666E+04  0.50400001928E-02 0.  1.
       -1   -1    0    0    0  501  0.00000000000E+00  0.00000000000E+00 -0.67555987406E+02  0.67555987594E+02  0.50400001928E-02 0. -1.
    10030    2    1    2    0    0  0.00000000000E+00  0.00000000000E+00  0.13272563792E+04  0.14623683542E+04  0.61393135386E+03 0.  0.
        3    1    3    3  502    0 -0.64658504308E+02 -0.26398776351E+03  0.10034888080E+04  0.10396441985E+04  0.10100000352E+00 0.  1.
       -3    1    3    3    0  502  0.64658504308E+02  0.26398776351E+03  0.32376757117E+03  0.42272415569E+03  0.10100000352E+00 0. -1.
</event>
<event>
 5   0  0.2126207E-02  0.5939254E+03  0.7818609E-02  0.9918090E-01
       -2   -1    0    0    0  501  0.00000000000E+00  0.00000000000E+00  0.76843937369E+02  0.76843937412E+02  0.25500000920E-02 0.  1.
        2   -1    0    0  501    0  0.00000000000E+00  0.00000000000E+00 -0.11476095881E+04  0.11476095881E+04  0.25500000920E-02 0. -1.
    10030    2    1    2    0    0  0.00000000000E+00  0.00000000000E+00 -0.10707656507E+04  0.12244535255E+04  0.59392538029E+03 0.  0.
        5    1    3    3  502    0 -0.40171992465E+02 -0.93342662772E+02 -0.11105665068E+04  0.11152159870E+04  0.46999998093E+01 0. -1.
       -5    1    3    3    0  502  0.40171992465E+02  0.93342662772E+02  0.39800856080E+02  0.10923753849E+03  0.46999998093E+01 0.  1.
</event>
<event>
 5   0  0.1250390E-02  0.6040304E+03  0.7818609E-02  0.9897079E-01
        1   -1    0    0  501    0  0.00000000000E+00  0.00000000000E+00  0.90085805725E+03  0.90085805726E+03  0.50400001928E-02 0.  1.
       -1   -1    0    0    0  501  0.00000000000E+00  0.00000000000E+00 -0.10125144887E+03  0.10125144899E+03  0.50400001928E-02 0. -1.
    10030    2    1    2    0    0  0.00000000000E+00  0.00000000000E+00  0.79960660838E+03  0.10021095063E+04  0.60403040847E+03 0.  0.
        3    1    3    3  502    0  0.77757020738E+02 -0.30668337374E+02  0.88128600133E+03  0.88524105617E+03  0.10100000352E+00 0.  1.
       -3    1    3    3    0  502 -0.77757020738E+02  0.30668337374E+02 -0.81679392949E+02  0.11686845008E+03  0.10100000352E+00 0. -1.
</event>
<event>
 5   0  0.2141800E-02  0.5993016E+03  0.7818609E-02  0.9906856E-01
        2   -1    0    0  501    0  0.00000000000E+00  0.00000000000E+00  0.22943064588E+03  0.22943064589E+03  0.25500000920E-02 0.  1.
       -2   -1    0    0    0  501  0.00000000000E+00  0.00000000000E+00 -0.39136277439E+03  0.39136277440E+03  0.25500000920E-02 0. -1.
    10030    2    1    2    0    0  0.00000000000E+00  0.00000000000E+00 -0.16193212851E+03  0.62079342029E+03  0.59930164060E+03 0.  0.
        2    1    3    3  502    0 -0.10741945662E+03  0.26100622379E+03  0.23277960074E+02  0.28320496456E+03  0.25500000920E-02 0.  1.
       -2    1    3    3    0  502  0.10741945662E+03 -0.26100622379E+03 -0.18521008859E+03  0.33758845573E+03  0.25500000920E-02 0. -1.
</event>
<event>
 5   0  0.1303808E-02  0.5987165E+03  0.7818609E-02  0.9908073E-01
        1   -1    0    0  501    0  0.00000000000E+00  0.00000000000E+00  0.15672737028E+03  0.15672737036E+03  0.50400001928E-02 0. -1.
       -1   -1    0    0    0  501  0.00000000000E+00  0.00000000000E+00 -0.57179133501E+03  0.57179133503E+03  0.50400001928E-02 0.  1.
    10030    2    1    2    0    0  0.00000000000E+00  0.00000000000E+00 -0.41506396473E+03  0.72851870540E+03  0.59871646820E+03 0.  0.
        4    1    3    3  502    0  0.12174872875E+03  0.12798264163E+03 -0.50161396807E+03  0.53180870186E+03  0.12699999809E+01 0.  1.
       -4    1    3    3    0  502 -0.12174872875E+03 -0.12798264163E+03  0.86550003345E+02  0.19671000353E+03  0.12699999809E+01 0. -1.
</event>
<event>
 5   0  0.1337051E-02  0.6029525E+03  0.7818609E-02  0.9899299E-01
        1   -1    0    0  501    0  0.00000000000E+00  0.00000000000E+00  0.35701733431E+03  0.35701733435E+03  0.50400001928E-02 0.  1.
       -1   -1    0    0    0  501  0.00000000000E+00  0.00000000000E+00 -0.25457568243E+03  0.25457568248E+03  0.50400001928E-02 0. -1.
    10030    2    1    2    0    0  0.00000000000E+00  0.00000000000E+00  0.10244165188E+03  0.61159301683E+03  0.60295250741E+03 0.  0.
        5    1    3    3  502    0  0.20750000297E+03  0.17345944358E+03 -0.83808646435E+02  0.28317911119E+03  0.46999998093E+01 0. -1.
       -5    1    3    3    0  502 -0.20750000297E+03 -0.17345944358E+03  0.18625029831E+03  0.32841390564E+03  0.46999998093E+01 0.  1.
</event>
<event>
 5   0  0.1276705E-02  0.6010789E+03  0.7818609E-02  0.9903170E-01
        1   -1    0    0  501    0  0.00000000000E+00  0.00000000000E+00  0.55398368624E+03  0.55398368626E+03  0.50400001928E-02 0. -1.
       -1   -1    0    0    0  501  0.00000000000E+00  0.00000000000E+00 -0.16304444319E+03  0.16304444327E+03  0.50400001928E-02 0.  1.
    10030    2    1    2    0    0  0.00000000000E+00  0.00000000000E+00  0.39093924304E+03  0.71702812953E+03  0.60107890230E+03 0.  0.
        1    1    3    3  502    0  0.11232132415E+03  0.73900930170E+02 -0.12516706989E+03  0.18369600635E+03  0.50400001928E-02 0.  1.
       -1    1    3    3    0  502 -0.11232132415E+03 -0.73900930170E+02  0.51610631294E+03  0.53333212318E+03  0.50400001928E-02 0. -1.
</event>
<event>
 5   0  0.1332555E-02  0.5994697E+03  0.7818609E-02  0.9906507E-01
        1   -1    0    0  501    0  0.00000000000E+00  0.00000000000E+00  0.76768963685E+03  0.76768963687E+03  0.50400001928E-02 0. -1.
       -1   -1    0    0    0  501  0.00000000000E+00  0.00000000000E+00 -0.11702774296E+03  0.11702774307E+03  0.50400001928E-02 0.  1.
    10030    2    1    2    0    0  0.00000000000E+00  0.00000000000E+00  0.65066189389E+03  0.88471737994E+03  0.59946971750E+03 0.  0.
        2    1    3    3  502    0 -0.37356657475E+02 -0.31693211613E+02  0.76174113662E+03  0.76331483593E+03  0.25500000920E-02 0. -1.
       -2    1    3    3    0  502  0.37356657475E+02  0.31693211613E+02 -0.11107924273E+03  0.12140254401E+03  0.25500000920E-02 0.  1.
</event>
<event>
 5   0  0.2092587E-02  0.6006694E+03  0.7818609E-02  0.9904018E-01
        2   -1    0    0  501    0  0.00000000000E+00  0.00000000000E+00  0.14148181943E+04  0.14148181944E+04  0.25500000920E-02 0. -1.
       -2   -1    0    0    0  501  0.00000000000E+00  0.00000000000E+00 -0.63754435415E+02  0.63754435466E+02  0.25500000920E-02 0.  1.
    10030    2    1    2    0    0  0.00000000000E+00  0.00000000000E+00  0.13510637589E+04  0.14785726298E+04  0.60066941069E+03 0.  0.
        3    1    3    3  502    0 -0.32843800116E+01 -0.24053632234E+03  0.11181469759E+04  0.11437312531E+04  0.10100000352E+00 0. -1.
       -3    1    3    3    0  502  0.32843800116E+01  0.24053632234E+03  0.23291678306E+03  0.33484137670E+03  0.10100000352E+00 0.  1.
</event>
<event>
 5   0  0.2179625E-02  0.5867780E+03  0.7818609E-02  0.9933224E-01
        2   -1    0    0  501    0  0.00000000000E+00  0.00000000000E+00  0.14642224740E+04  0.14642224740E+04  0.25500000920E-02 0.  1.
       -2   -1    0    0    0  501  0.00000000000E+00  0.00000000000E+00 -0.58786906960E+02  0.58786907015E+02  0.25500000920E-02 0. -1.
    10030    2    1    2    0    0  0.00000000000E+00  0.00000000000E+00  0.14054355670E+04  0.15230093810E+04  0.58677801728E+03 0.  0.
        1    1    3    3  502    0 -0.26933084554E+02 -0.10465290434E+03 -0.52503650123E+01  0.10819051616E+03  0.50400001928E-02 0. -1.
       -1    1    3    3    0  502  0.26933084554E+02  0.10465290434E+03  0.14106859320E+04  0.14148188648E+04  0.50400001928E-02 0.  1.
</event>
<event>
 5   0  0.1332555E-02  0.6005888E+03  0.7818609E-02  0.9904185E-01
       -1   -1    0    0    0  501  0.00000000000E+00  0.00000000000E+00  0.22181913803E+03  0.22181913808E+03  0.50400001928E-02 0.  1.
        1   -1    0    0  501    0  0.00000000000E+00  0.00000000000E+00 -0.40653260598E+03  0.40653260601E+03  0.50400001928E-02 0. -1.
    10030    2    1    2    0    0  0.00000000000E+00  0.00000000000E+00 -0.18471346796E+03  0.62835174410E+03  0.60058875203E+03 0.  0.
        2    1    3    3  502    0  0.22333374396E+02  0.28252091032E+03  0.11530259610E+02  0.28363672413E+03  0.25500000920E-02 0.  1.
       -2    1    3    3    0  502 -0.22333374396E+02 -0.28252091032E+03 -0.19624372757E+03  0.34471501997E+03  0.25500000920E-02 0. -1.
</event>
<event>
 5   0  0.1332555E-02  0.6020671E+03  0.7818609E-02  0.9901127E-01
       -1   -1    0    0    0  501  0.00000000000E+00  0.00000000000E+00  0.53176595459E+02  0.53176595698E+02  0.50400001928E-02 0.  1.
        1   -1    0    0  501    0  0.00000000000E+00  0.00000000000E+00 -0.17041556875E+04  0.17041556875E+04  0.50400001928E-02 0. -1.
    10030    2    1    2    0    0  0.00000000000E+00  0.00000000000E+00 -0.16509790920E+04  0.17573322832E+04  0.60206709861E+03 0.  0.
        2    1    3    3  502    0  0.32473933939E+02  0.15489633440E+02 -0.16978574293E+04  0.16982385979E+04  0.25500000920E-02 0. -1.
       -2    1    3    3    0  502 -0.32473933939E+02 -0.15489633440E+02  0.46878337277E+02  0.59093685297E+02  0.25500000920E-02 0.  1.
</event>
<event>
 5   0  0.1250390E-02  0.6034561E+03  0.7818609E-02  0.9898262E-01
       -1   -1    0    0    0  501  0.00000000000E+00  0.00000000000E+00  0.15020189583E+03  0.15020189591E+03  0.50400001928E-02 0.  1.
        1   -1    0    0  501    0  0.00000000000E+00  0.00000000000E+00 -0.60611620965E+03  0.60611620967E+03  0.50400001928E-02 0. -1.
    10030    2    1    2    0    0  0.00000000000E+00  0.00000000000E+00 -0.45591431382E+03  0.75631810559E+03  0.60345605912E+03 0.  0.
        3    1    3    3  502    0  0.19854047935E+03  0.19148995366E+03 -0.38121546200E+03  0.47054432625E+03  0.10100000352E+00 0. -1.
       -3    1    3    3    0  502 -0.19854047935E+03 -0.19148995366E+03 -0.74698851822E+02  0.28577377934E+03  0.10100000352E+00 0.  1.
</event>
<event>
 5   0  0.1303808E-02  0.6088789E+03  0.7818609E-02  0.9887155E-01
        1   -1    0    0  501    0  0.00000000000E+00  0.00000000000E+00  0.81943256200E+03  0.81943256202E+03  0.50400001928E-02 0.  1.
       -1   -1    0    0    0  501  0.00000000000E+00  0.00000000000E+00 -0.11310676432E+03  0.11310676444E+03  0.50400001928E-02 0. -1.
    10030    2    1    2    0    0  0.00000000000E+00  0.00000000000E+00  0.70632579768E+03  0.93253932646E+03  0.60887885734E+03 0.  0.
        4    1    3    3  502    0  0.76807635383E+02  0.21305255521E+03  0.66475680249E+03  0.70227773957E+03  0.12699999809E+01 0.  1.
       -4    1    3    3    0  502 -0.76807635383E+02 -0.21305255521E+03  0.41568995187E+02  0.23026158689E+03  0.12699999809E+01 0. -1.
</event>
<event>
 5   0  0.2141800E-02  0.5968778E+03  0.7818609E-02  0.9911905E-01
        2   -1    0    0  501    0  0.00000000000E+00  0.00000000000E+00  0.22807449532E+04  0.22807449532E+04  0.25500000920E-02 0. -1.
       -2   -1    0    0    0  501  0.00000000000E+00  0.00000000000E+00 -0.39051176237E+02  0.39051176320E+02  0.25500000920E-02 0.  1.
    10030    2    1    2    0    0  0.00000000000E+00  0.00000000000E+00  0.22416937770E+04  0.23197961295E+04  0.59687778722E+03 0.  0.
        2    1    3    3  502    0 -0.23042865536E+03  0.18782471040E+03  0.10187343705E+04  0.10612234471E+04  0.25500000920E-02 0.  1.
       -2    1    3    3    0  502  0.23042865536E+03 -0.18782471040E+03  0.12229594065E+04  0.12585726825E+04  0.25500000920E-02 0. -1.
</event>
<event>
 5   0  0.2179625E-02  0.6022612E+03  0.7818609E-02  0.9900726E-01
        2   -1    0    0  501    0  0.00000000000E+00  0.00000000000E+00  0.12217473674E+04  0.12217473674E+04  0.25500000920E-02 0.  1.
       -2   -1    0    0    0  501  0.00000000000E+00  0.00000000000E+00 -0.74221278011E+02  0.74221278054E+02  0.25500000920E-02 0. -1.
    10030    2    1    2    0    0  0.00000000000E+00  0.00000000000E+00  0.11475260894E+04  0.12959686454E+04  0.60226124247E+03 0.  0.
        1    1    3    3  502    0 -0.54836929379E+02 -0.29069590747E+03  0.69488785661E+03  0.75523528303E+03  0.50400001928E-02 0.  1.
       -1    1    3    3    0  502  0.54836929379E+02  0.29069590747E+03  0.45263823277E+03  0.54073336242E+03  0.50400001928E-02 0. -1.
</event>
<event>
 5   0  0.8551000E-03  0.5943386E+03  0.7818609E-02  0.9917222E-01
        3   -1    0    0  501    0  0.00000000000E+00  0.00000000000E+00  0.29613175971E+03  0.29613177693E+03  0.10100000352E+00 0. -1.
       -3   -1    0    0    0  501  0.00000000000E+00  0.00000000000E+00 -0.29821039965E+03  0.29821041675E+03  0.10100000352E+00 0.  1.
    10030    2    1    2    0    0  0.00000000000E+00  0.00000000000E+00 -0.20786399393E+01  0.59434219369E+03  0.59433855878E+03 0.  0.
        4    1    3    3  502    0  0.10143630984E+03  0.21001321923E+03 -0.18519551814E+03  0.29781516087E+03  0.12699999809E+01 0.  1.
       -4    1    3    3    0  502 -0.10143630984E+03 -0.21001321923E+03  0.18311687820E+03  0.29652703281E+03  0.12699999809E+01 0. -1.
</event>
<event>
 5   0  0.1276705E-02  0.6012404E+03  0.7818609E-02  0.9902836E-01
        1   -1    0    0  501    0  0.00000000000E+00  0.00000000000E+00  0.31399692251E+03  0.31399692255E+03  0.50400001928E-02 0.  1.
       -1   -1    0    0    0  501  0.00000000000E+00  0.00000000000E+00 -0.28781338052E+03  0.28781338057E+03  0.50400001928E-02 0. -1.
    10030    2    1    2    0    0  0.00000000000E+00  0.00000000000E+00  0.26183541982E+02  0.60181030311E+03  0.60124043698E+03 0.  0.
        1    1    3    3  502    0  0.49008116380E+02 -0.14146653881E+03 -0.24784274789E+03  0.28955242148E+03  0.50400001928E-02 0. -1.
       -1    1    3    3    0  502 -0.49008116380E+02  0.14146653881E+03  0.27402628988E+03  0.31225788164E+03  0.50400001928E-02 0.  1.
</event>
<event>
 5   0  0.2141800E-02  0.6066496E+03  0.7818609E-02  0.9891705E-01
        2   -1    0    0  501    0  0.00000000000E+00  0.00000000000E+00  0.87473925721E+03  0.87473925721E+03  0.25500000920E-02 0. -1.
       -2   -1    0    0    0  501  0.00000000000E+00  0.00000000000E+00 -0.10518098973E+03  0.10518098976E+03  0.25500000920E-02 0.  1.
    10030    2    1    2    0    0  0.00000000000E+00  0.00000000000E+00  0.76955826748E+03  0.97992024697E+03  0.60664962159E+03 0.  0.
        2    1    3    3  502    0  0.25850094758E+03 -0.14049303888E+03  0.26558687996E+03  0.39635517492E+03  0.25500000920E-02 0.  1.
       -2    1    3    3    0  502 -0.25850094758E+03  0.14049303888E+03  0.50397138752E+03  0.58356507205E+03  0.25500000920E-02 0. -1.
</event>
<event>
 5   0  0.1276705E-02  0.5997280E+03  0.7818609E-02  0.9905970E-01
       -1   -1    0    0    0  501  0.00000000000E+00  0.00000000000E+00  0.60511046904E+03  0.60511046906E+03  0.50400001928E-02 0. -1.
        1   -1    0    0  501    0  0.00000000000E+00  0.00000000000E+00 -0.14859837549E+03  0.14859837558E+03  0.50400001928E-02 0.  1.
    10030    2    1    2    0    0  0.00000000000E+00  0.00000000000E+00  0.45651209355E+03  0.75370884464E+03  0.59972804748E+03 0.  0.
        1    1    3    3  502    0  0.23796147465E+03 -0.16088405960E+03  0.12007986521E+03  0.31133345163E+03  0.50400001928E-02 0.  1.
       -1    1    3    3    0  502 -0.23796147465E+03  0.16088405960E+03  0.33643222834E+03  0.44237539301E+03  0.50400001928E-02 0. -1.
</event>
<event>
 5   0  0.2179625E-02  0.5940196E+03  0.7818609E-02  0.9917892E-01
        2   -1    0    0  501    0  0.00000000000E+00  0.00000000000E+00  0.40856918325E+03  0.40856918326E+03  0.25500000920E-02 0. -1.
       -2   -1    0    0    0  501  0.00000000000E+00  0.00000000000E+00 -0.21591156940E+03  0.21591156941E+03  0.25500000920E-02 0.  1.
    10030    2    1    2    0    0  0.00000000000E+00  0.00000000000E+00  0.19265761385E+03  0.62448075267E+03  0.59401957399E+03 0.  0.
        1    1    3    3  502    0 -0.10634155981E+03  0.26800404902E+03  0.21398913987E+02  0.28912386823E+03  0.50400001928E-02 0. -1.
       -1    1    3    3    0  502  0.10634155981E+03 -0.26800404902E+03  0.17125869986E+03  0.33535688444E+03  0.50400001928E-02 0.  1.
</event>
<event>
 5   0  0.1250390E-02  0.5982002E+03  0.7818609E-02  0.9909147E-01
       -1   -1    0    0    0  501  0.00000000000E+00  0.00000000000E+00  0.47689980918E+03  0.47689980921E+03  0.50400001928E-02 0.  1.
        1   -1    0    0  501    0  0.00000000000E+00  0.00000000000E+00 -0.18758837953E+03  0.18758837960E+03  0.50400001928E-02 0. -1.
    10030    2    1    2    0    0  0.00000000000E+00  0.00000000000E+00  0.28931142965E+03  0.66448818881E+03  0.59820017531E+03 0.  0.
        3    1    3    3  502    0 -0.55185367172E+01 -0.82594009259E+02  0.46392227527E+03  0.47124952234E+03  0.10100000352E+00 0.  1.
       -3    1    3    3    0  502  0.55185367172E+01  0.82594009259E+02 -0.17461084561E+03  0.19323866647E+03  0.10100000352E+00 0. -1.
</event>
<event>
 5   0  0.2126207E-02  0.5966984E+03  0.7818609E-02  0.9912280E-01
       -2   -1    0    0    0  501  0.00000000000E+00  0.00000000000E+00  0.77546460411E+03  0.77546460411E+03  0.25500000920E-02 0. -1.
        2   -1    0    0  501    0  0.00000000000E+00  0.00000000000E+00 -0.11478569213E+03  0.11478569216E+03  0.25500000920E-02 0.  1.
    10030    2    1    2    0    0  0.00000000000E+00  0.00000000000E+00  0.66067891198E+03  0.89025029627E+03  0.59669838719E+03 0.  0.
        5    1    3    3  502    0 -0.37198832077E+02 -0.24192276820E+03  0.58476034435E+03  0.63393779601E+03  0.46999998093E+01 0. -1.
       -5    1    3    3    0  502  0.37198832077E+02  0.24192276820E+03  0.75918567627E+02  0.25631250026E+03  0.46999998093E+01 0.  1.
</event>
<event>
 5   0  0.2179625E-02  0.5993614E+03  0.7818609E-02  0.9906732E-01
        2   -1    0    0  501    0  0.00000000000E+00  0.00000000000E+00  0.49276490544E+03  0.49276490544E+03  0.25500000920E-02 0.  1.
       -2   -1    0    0    0  501  0.00000000000E+00  0.00000000000E+00 -0.18225430662E+03  0.18225430664E+03  0.25500000920E-02 0. -1.
    10030    2    1    2    0    0  0.00000000000E+00  0.00000000000E+00  0.31051059882E+03  0.67501921208E+03  0.59936141409E+03 0.  0.
        1    1    3    3  502    0 -0.52617535455E+02  0.28356684493E+03  0.24695679933E+03  0.37969253527E+03  0.50400001928E-02 0.  1.
       -1    1    3    3    0  502  0.52617535455E+02 -0.28356684493E+03  0.63553799484E+02  0.29532667681E+03  0.50400001928E-02 0. -1.
</event>
<event>
 5   0  0.1332555E-02  0.5997576E+03  0.7818609E-02  0.9905909E-01
       -1   -1    0    0    0  501  0.00000000000E+00  0.00000000000E+00  0.22283867226E+03  0.22283867231E+03  0.50400001928E-02 0.  1.
        1   -1    0    0  501    0  0.00000000000E+00  0.00000000000E+00 -0.40355331464E+03  0.40355331467E+03  0.50400001928E-02 0. -1.
    10030    2    1    2    0    0  0.00000000000E+00  0.00000000000E+00 -0.18071464239E+03  0.62639198699E+03  0.59975756718E+03 0.  0.
        2    1    3    3  502    0  0.26755037093E+03 -0.52170494744E+02  0.40182576593E+02  0.27553511750E+03  0.25500000920E-02 0.  1.
       -2    1    3    3    0  502 -0.26755037093E+03  0.52170494744E+02 -0.22089721898E+03  0.35085686949E+03  0.25500000920E-02 0. -1.
</event>
<event>
 5   0  0.2141800E-02  0.5997595E+03  0.7818609E-02  0.9905905E-01
       -2   -1    0    0    0  501  0.00000000000E+00  0.00000000000E+00  0.44418240738E+03  0.44418240738E+03  0.25500000920E-02 0. -1.
        2   -1    0    0  501    0  0.00000000000E+00  0.00000000000E+00 -0.20245704383E+03  0.20245704385E+03  0.25500000920E-02 0.  1.
    10030    2    1    2    0    0  0.00000000000E+00  0.00000000000E+00  0.24172536355E+03  0.64663945123E+03  0.59975947555E+03 0.  0.
        2    1    3    3  502    0  0.26042023221E+03  0.12993571052E+03  0.19880340257E+03  0.35245535759E+03  0.25500000920E-02 0. -1.
       -2    1    3    3    0  502 -0.26042023221E+03 -0.12993571052E+03  0.42921960974E+02  0.29418409364E+03  0.25500000920E-02 0.  1.
</event>
<event>
 5   0  0.2179625E-02  0.6005122E+03  0.7818609E-02  0.9904344E-01
        2   -1    0    0  501    0  0.00000000000E+00  0.00000000000E+00  0.17032876631E+03  0.17032876633E+03  0.25500000920E-02 0. -1.
       -2   -1    0    0    0  501  0.00000000000E+00  0.00000000000E+00 -0.52929237684E+03  0.52929237684E+03  0.25500000920E-02 0.  1.
    10030    2    1    2    0    0  0.00000000000E+00  0.00000000000E+00 -0.35896361052E+03  0.69962114318E+03  0.60051217332E+03 0.  0.
        1    1    3    3  502    0 -0.14387930979E+03 -0.23706744751E+03 -0.45368020377E+02  0.28099908853E+03  0.50400001928E-02 0.  1.
       -1    1    3    3    0  502  0.14387930979E+03  0.23706744751E+03 -0.31359559015E+03  0.41862205465E+03  0.50400001928E-02 0. -1.
</event>
<event>
 5   0  0.1332555E-02  0.5994216E+03  0.7818609E-02  0.9906607E-01
        1   -1    0    0  501    0  0.00000000000E+00  0.00000000000E+00  0.18725681737E+03  0.18725681744E+03  0.50400001928E-02 0. -1.
       -1   -1    0    0    0  501  0.00000000000E+00  0.00000000000E+00 -0.47969712419E+03  0.47969712422E+03  0.50400001928E-02 0.  1.
    10030    2    1    2    0    0  0.00000000000E+00  0.00000000000E+00 -0.29244030682E+03  0.66695394166E+03  0.59942157723E+03 0.  0.
        2    1    3    3  502    0  0.10875260778E+03 -0.16696278231E+03  0.10288423467E+03  0.22425179180E+03  0.25500000920E-02 0. -1.
       -2    1    3    3    0  502 -0.10875260778E+03  0.16696278231E+03 -0.39532454149E+03  0.44270214986E+03  0.25500000920E-02 0.  1.
</event>
<event>
 5   0  0.1303808E-02  0.5983607E+03  0.7818609E-02  0.9908813E-01
        1   -1    0    0  501    0  0.00000000000E+00  0.00000000000E+00  0.17192964106E+03  0.17192964113E+03  0.50400001928E-02 0. -1.
       -1   -1    0    0    0  501  0.00000000000E+00  0.00000000000E+00 -0.52061341649E+03  0.52061341651E+03  0.50400001928E-02 0.  1.
    10030    2    1    2    0    0  0.00000000000E+00  0.00000000000E+00 -0.34868377543E+03  0.69254305765E+03  0.59836068675E+03 0.  0.
        4    1    3    3  502    0 -0.17591141953E+03  0.51924568734E+01  0.10568085475E+03  0.20528479021E+03  0.12699999809E+01 0. -1.
       -4    1    3    3    0  502  0.17591141953E+03 -0.51924568734E+01 -0.45436463018E+03  0.48725826744E+03  0.12699999809E+01 0.  1.
</event>
<event>
 5   0  0.2126207E-02  0.6186445E+03  0.7818609E-02  0.9867462E-01
        2   -1    0    0  501    0  0.00000000000E+00  0.00000000000E+00  0.13861204019E+04  0.13861204019E+04  0.25500000920E-02 0.  1.
       -2   -1    0    0    0  501  0.00000000000E+00  0.00000000000E+00 -0.69027366287E+02  0.69027366334E+02  0.25500000920E-02 0. -1.
    10030    2    1    2    0    0  0.00000000000E+00  0.00000000000E+00  0.13170930356E+04  0.14551477682E+04  0.61864445600E+03 0.  0.
        5    1    3    3  502    0  0.16408348697E+03  0.50397445223E+02  0.12637175037E+04  0.12753302758E+04  0.46999998093E+01 0.  1.
       -5    1    3    3    0  502 -0.16408348697E+03 -0.50397445223E+02  0.53375531892E+02  0.17981749243E+03  0.46999998093E+01 0. -1.
</event>
<event>
 5   0  0.1250390E-02  0.5991439E+03  0.7818609E-02  0.9907184E-01
       -1   -1    0    0    0  501  0.00000000000E+00  0.00000000000E+00  0.40915802406E+03  0.40915802409E+03  0.50400001928E-02 0. -1.
        1   -1    0    0  501    0  0.00000000000E+00  0.00000000000E+00 -0.21933663630E+03  0.21933663636E+03  0.50400001928E-02 0.  1.
    10030    2    1    2    0    0  0.00000000000E+00  0.00000000000E+00  0.18982138776E+03  0.62849466045E+03  0.59914387167E+03 0.  0.
        3    1    3    3  502    0 -0.76337501694E+02 -0.28258033119E+03  0.28035953344E+02  0.29404945608E+03  0.10100000352E+00 0.  1.
       -3    1    3    3    0  502  0.76337501694E+02  0.28258033119E+03  0.16178543442E+03  0.33444520437E+03  0.10100000352E+00 0. -1.
</event>
<event>
 5   0  0.1276705E-02  0.6051917E+03  0.7818609E-02  0.9894693E-01
        1   -1    0    0  501    0  0.00000000000E+00  0.00000000000E+00  0.16027854996E+04  0.16027854997E+04  0.50400001928E-02 0.  1.
       -1   -1    0    0    0  501  0.00000000000E+00  0.00000000000E+00 -0.57128190071E+02  0.57128190293E+02  0.50400001928E-02 0. -1.
    10030    2    1    2    0    0  0.00000000000E+00  0.00000000000E+00  0.15456573096E+04  0.16599136899E+04  0.60519165512E+03 0.  0.
        1    1    3    3  502    0 -0.79314189053E+02  0.29068118371E+03  0.84932957436E+03  0.90119199789E+03  0.50400001928E-02 0.  1.
       -1    1    3    3    0  502  0.79314189053E+02 -0.29068118371E+03  0.69632773521E+03  0.75872169206E+03  0.50400001928E-02 0. -1.
</event>
<event>
 5   0  0.2092587E-02  0.6012876E+03  0.7818609E-02  0.9902738E-01
       -2   -1    0    0    0  501  0.00000000000E+00  0.00000000000E+00  0.47834132227E+02  0.47834132295E+02  0.25500000920E-02 0.  1.
        2   -1    0    0  501    0  0.00000000000E+00  0.00000000000E+00 -0.18895860513E+04  0.18895860513E+04  0.25500000920E-02 0. -1.
    10030    2    1    2    0    0  0.00000000000E+00  0.00000000000E+00 -0.18417519190E+04  0.19374201836E+04  0.60128764863E+03 0.  0.
        3    1    3    3  502    0  0.11926565400E+03 -0.20475728262E+03 -0.15170711757E+04  0.15354656634E+04  0.10100000352E+00 0. -1.
       -3    1    3    3    0  502 -0.11926565400E+03  0.20475728262E+03 -0.32468074331E+03  0.40195452018E+03  0.10100000352E+00 0.  1.
</event>
<event>
 5   0  0.2126207E-02  0.5997966E+03  0.7818609E-02  0.9905828E-01
        2   -1    0    0  501    0  0.00000000000E+00  0.00000000000E+00  0.41177894796E+03  0.41177894797E+03  0.25500000920E-02 0.  1.
       -2   -1    0    0    0  501  0.00000000000E+00  0.00000000000E+00 -0.21841569440E+03  0.21841569442E+03  0.25500000920E-02 0. -1.
    10030    2    1    2    0    0  0.00000000000E+00  0.00000000000E+00  0.19336325356E+03  0.63019464239E+03  0.59979658174E+03 0.  0.
        5    1    3    3  502    0  0.19251869761E+03  0.13053036898E+03 -0.10215886440E+03  0.25408689405E+03  0.46999998093E+01 0. -1.
       -5    1    3    3    0  502 -0.19251869761E+03 -0.13053036898E+03  0.29552211796E+03  0.37610774833E+03  0.46999998093E+01 0.  1.
</event>
<event>
 5   0  0.1337051E-02  0.5985073E+03  0.7818609E-02  0.9908508E-01
       -1   -1    0    0    0  501  0.00000000000E+00  0.00000000000E+00  0.21318606333E+03  0.21318606339E+03  0.50400001928E-02 0.  1.
        1   -1    0    0  501    0  0.00000000000E+00  0.00000000000E+00 -0.42006851024E+03  0.42006851027E+03  0.50400001928E-02 0. -1.
    10030    2    1    2    0    0  0.00000000000E+00  0.00000000000E+00 -0.20688244692E+03  0.63325457366E+03  0.59850731677E+03 0.  0.
        5    1    3    3  502    0  0.14341318091E+03 -0.66714346651E+02 -0.37218032831E+03  0.40442357904E+03  0.46999998093E+01 0. -1.
       -5    1    3    3    0  502 -0.14341318091E+03  0.66714346651E+02  0.16529788139E+03  0.22883099462E+03  0.46999998093E+01 0.  1.
</event>
<event>
 5   0  0.1332555E-02  0.5995767E+03  0.7818609E-02  0.9906285E-01
       -1   -1    0    0    0  501  0.00000000000E+00  0.00000000000E+00  0.46838918066E+03  0.46838918069E+03  0.50400001928E-02 0. -1.
        1   -1    0    0  501    0  0.00000000000E+00  0.00000000000E+00 -0.19187687171E+03  0.19187687178E+03  0.50400001928E-02 0.  1.
    10030    2    1    2    0    0  0.00000000000E+00  0.00000000000E+00  0.27651230895E+03  0.66026605246E+03  0.59957668653E+03 0.  0.
        2    1    3    3  502    0 -0.44044831083E+02  0.21422338437E+03  0.36405049343E+03  0.42469326264E+03  0.25500000920E-02 0. -1.
       -2    1    3    3    0  502  0.44044831083E+02 -0.21422338437E+03 -0.87538184484E+02  0.23557278982E+03  0.25500000920E-02 0.  1.
</event>
<event>
 5   0  0.2142838E-02  0.6002164E+03  0.7818609E-02  0.9904957E-01
        2   -1    0    0  501    0  0.00000000000E+00  0.00000000000E+00  0.36467142578E+02  0.36467142667E+02  0.25500000920E-02 0. -1.
       -2   -1    0    0    0  501  0.00000000000E+00  0.00000000000E+00 -0.24697554416E+04  0.24697554416E+04  0.25500000920E-02 0.  1.
    10030    2    1    2    0    0  0.00000000000E+00  0.00000000000E+00 -0.24332882991E+04  0.25062225843E+04  0.60021637411E+03 0.  0.
        4    1    3    3  502    0  0.17968791554E+03  0.17862847466E+02 -0.22175225535E+04  0.22248628534E+04  0.12699999809E+01 0.  1.
       -4    1    3    3    0  502 -0.17968791554E+03 -0.17862847466E+02 -0.21576574556E+03  0.28135973089E+03  0.12699999809E+01 0. -1.
</event>
<event>
 5   0  0.2126207E-02  0.6014253E+03  0.7818609E-02  0.9902453E-01
        2   -1    0    0  501    0  0.00000000000E+00  0.00000000000E+00  0.75287550596E+03  0.75287550596E+03  0.25500000920E-02 0. -1.
       -2   -1    0    0    0  501  0.00000000000E+00  0.00000000000E+00 -0.12011031057E+03  0.12011031059E+03  0.25500000920E-02 0.  1.
    10030    2    1    2    0    0  0.00000000000E+00  0.00000000000E+00  0.63276519539E+03  0.87298581655E+03  0.60142534317E+03 0.  0.
        5    1    3    3  502    0  0.21645849762E+03  0.12709110989E+03  0.55665145936E+03  0.61064668067E+03  0.46999998093E+01 0. -1.
       -5    1    3    3    0  502 -0.21645849762E+03 -0.12709110989E+03  0.76113736027E+02  0.26233913588E+03  0.46999998093E+01 0.  1.
</event>
<event>
 5   0  0.1303808E-02  0.6005769E+03  0.7818609E-02  0.9904210E-01
       -1   -1    0    0    0  501  0.00000000000E+00  0.00000000000E+00  0.72141981893E+02  0.72141982069E+02  0.50400001928E-02 0. -1.
        1   -1    0    0  501    0  0.00000000000E+00  0.00000000000E+00 -0.12499402424E+04  0.12499402424E+04  0.50400001928E-02 0.  1.
    10030    2    1    2    0    0  0.00000000000E+00  0.00000000000E+00 -0.11777982605E+04  0.13220822244E+04  0.60057694413E+03 0.  0.
        4    1    3    3  502    0 -0.47256102056E+02  0.22907837091E+03 -0.17435721531E+03  0.29173976525E+03  0.12699999809E+01 0. -1.
       -4    1    3    3    0  502  0.47256102056E+02 -0.22907837091E+03 -0.10034410452E+04  0.10303424592E+04  0.12699999809E+01 0.  1.
</event>
<event>
 5   0  0.2141800E-02  0.5974216E+03  0.7818609E-02  0.9910770E-01
        2   -1    0    0  501    0  0.00000000000E+00  0.00000000000E+00  0.16640508367E+03  0.16640508369E+03  0.25500000920E-02 0. -1.
       -2   -1    0    0    0  501  0.00000000000E+00  0.00000000000E+00 -0.53621044862E+03  0.53621044863E+03  0.25500000920E-02 0.  1.
    10030    2    1    2    0    0  0.00000000000E+00  0.00000000000E+00 -0.36980536496E+03  0.70261553231E+03  0.59742160850E+03 0.  0.
        2    1    3    3  502    0 -0.25491532283E+03 -0.14410069413E+03 -0.11551085312E+03  0.31478498862E+03  0.25500000920E-02 0.  1.
       -2    1    3    3    0  502  0.25491532283E+03  0.14410069413E+03 -0.25429451184E+03  0.38783054370E+03  0.25500000920E-02 0. -1.
</event>
<event>
 5   0  0.8551000E-03  0.5992082E+03  0.7818609E-02  0.9907050E-01
       -3   -1    0    0    0  501  0.00000000000E+00  0.00000000000E+00  0.31451233941E+03  0.31451235563E+03  0.10100000352E+00 0. -1.
        3   -1    0    0  501    0  0.00000000000E+00  0.00000000000E+00 -0.28540253074E+03  0.28540254861E+03  0.10100000352E+00 0.  1.
    10030    2    1    2    0    0  0.00000000000E+00  0.00000000000E+00  0.29109808669E+02  0.59991490424E+03  0.59920823706E+03 0.  0.
        3    1    3    3  502    0 -0.86594324088E+02 -0.24315751123E+03  0.16684762770E+03  0.30734718691E+03  0.10100000352E+00 0. -1.
       -3    1    3    3    0  502  0.86594324088E+02  0.24315751123E+03 -0.13773781903E+03  0.29256771733E+03  0.10100000352E+00 0.  1.
</event>
<event>
 5   0  0.1332555E-02  0.6020774E+03  0.7818609E-02  0.9901105E-01
        1   -1    0    0  501    0  0.00000000000E+00  0.00000000000E+00  0.51899243955E+03  0.51899243958E+03  0.50400001928E-02 0. -1.
       -1   -1    0    0    0  501  0.00000000000E+00  0.00000000000E+00 -0.17461584867E+03  0.17461584874E+03  0.50400001928E-02 0.  1.
    10030    2    1    2    0    0  0.00000000000E+00  0.00000000000E+00  0.34437659088E+03  0.69360828832E+03  0.60207742133E+03 0.  0.
        2    1    3    3  502    0  0.16854550790E+03 -0.22294956559E+03  0.30104119723E+03  0.41077962397E+03  0.25500000920E-02 0. -1.
       -2    1    3    3    0  502 -0.16854550790E+03  0.22294956559E+03  0.43335393657E+02  0.28282866435E+03  0.25500000920E-02 0.  1.
</event>
<event>
 5   0  0.2179625E-02  0.5992777E+03  0.7818609E-02  0.9906906E-01
       -2   -1    0    0    0  501  0.00000000000E+00  0.00000000000E+00  0.80010097471E+03  0.80010097471E+03  0.25500000920E-02 0.  1.
        2   -1    0    0  501    0  0.00000000000E+00  0.00000000000E+00 -0.11221514012E+03  0.11221514015E+03  0.25500000920E-02 0. -1.
    10030    2    1    2    0    0  0.00000000000E+00  0.00000000000E+00  0.68788583459E+03  0.91231611486E+03  0.59927770858E+03 0.  0.
        1    1    3    3  502    0  0.27242114087E+03 -0.98548101641E+02  0.22742087407E+03  0.36830050274E+03  0.50400001928E-02 0. -1.
       -1    1    3    3    0  502 -0.27242114087E+03  0.98548101641E+02  0.46046496052E+03  0.54401561212E+03  0.50400001928E-02 0.  1.
</event>
<event>
 5   0  0.1276705E-02  0.6018433E+03  0.7818609E-02  0.9901589E-01
       -1   -1    0    0    0  501  0.00000000000E+00  0.00000000000E+00  0.37185696030E+03  0.37185696034E+03  0.50400001928E-02 0.  1.
        1   -1    0    0  501    0  0.00000000000E+00  0.00000000000E+00 -0.24351792476E+03  0.24351792481E+03  0.50400001928E-02 0. -1.
    10030    2    1    2    0    0  0.00000000000E+00  0.00000000000E+00  0.12833903554E+03  0.61537488515E+03  0.60184328627E+03 0.  0.
        1    1    3    3  502    0 -0.13115971604E+03 -0.42374302608E+02 -0.20934318540E+03  0.25064521127E+03  0.50400001928E-02 0. -1.
       -1    1    3    3    0  502  0.13115971604E+03  0.42374302608E+02  0.33768222095E+03  0.36472967387E+03  0.50400001928E-02 0.  1.
</event>
<event>
 5   0  0.1250390E-02  0.5996151E+03  0.7818609E-02  0.9906205E-01
       -1   -1    0    0    0  501  0.00000000000E+00  0.00000000000E+00  0.30387123802E+03  0.30387123807E+03  0.50400001928E-02 0. -1.
        1   -1    0    0  501    0  0.00000000000E+00  0.00000000000E+00 -0.29579821019E+03  0.29579821023E+03  0.50400001928E-02 0.  1.
    10030    2    1    2    0    0  0.00000000000E+00  0.00000000000E+00  0.80730278337E+01  0.59966944830E+03  0.59961510442E+03 0.  0.
        3    1    3    3  502    0  0.62175133002E+02  0.97083912370E+02 -0.27274392095E+03  0.29610857775E+03  0.10100000352E+00 0.  1.
       -3    1    3    3    0  502 -0.62175133002E+02 -0.97083912370E+02  0.28081694878E+03  0.30356087055E+03  0.10100000352E+00 0. -1.
</event>
<event>
 5   0  0.2142838E-02  0.6007129E+03  0.7818609E-02  0.9903928E-01
        2   -1    0    0  501    0  0.00000000000E+00  0.00000000000E+00  0.61748733723E+03  0.61748733724E+03  0.25500000920E-02 0.  1.
       -2   -1    0    0    0  501  0.00000000000E+00  0.00000000000E+00 -0.14609855871E+03  0.14609855873E+03  0.25500000920E-02 0. -1.
    10030    2    1    2    0    0  0.00000000000E+00  0.00000000000E+00  0.47138877852E+03  0.76358589597E+03  0.60071294310E+03 0.  0.
        4    1    3    3  502    0  0.11459200166E+03  0.10884492118E+03 -0.88964594723E+02  0.18136939026E+03  0.12699999809E+01 0. -1.
       -4    1    3    3    0  502 -0.11459200166E+03 -0.10884492118E+03  0.56035337325E+03  0.58221650571E+03  0.12699999809E+01 0.  1.
</event>
<event>
 5   0  0.2179625E-02  0.5993439E+03  0.7818609E-02  0.9906768E-01
        2   -1    0    0  501    0  0.00000000000E+00  0.00000000000E+00  0.93080091754E+03  0.93080091755E+03  0.25500000920E-02 0. -1.
       -2   -1    0    0    0  501  0.00000000000E+00  0.00000000000E+00 -0.96479570914E+02  0.96479570948E+02  0.25500000920E-02 0.  1.
    10030    2    1    2    0    0  0.00000000000E+00  0.00000000000E+00  0.83432134663E+03  0.10272804885E+04  0.59934388510E+03 0.  0.
        1    1    3    3  502    0  0.15956492838E+03  0.14958696907E+03  0.66035485893E+02  0.22846862609E+03  0.50400001928E-02 0.  1.
       -1    1    3    3    0  502 -0.15956492838E+03 -0.14958696907E+03  0.76828586074E+03  0.79881186240E+03  0.50400001928E-02 0. -1.
</event>
<event>
 5   0  0.8551000E-03  0.6009773E+03  0.7818609E-02  0.9903381E-01
        4   -1    0    0  501    0  0.00000000000E+00  0.00000000000E+00  0.24071256972E+03  0.24071591996E+03  0.12699999809E+01 0.  1.
       -4   -1    0    0    0  501  0.00000000000E+00  0.00000000000E+00 -0.37510182259E+03  0.37510397254E+03  0.12699999809E+01 0. -1.
    10030    2    1    2    0    0  0.00000000000E+00  0.00000000000E+00 -0.13438925287E+03  0.61581989250E+03  0.60097726139E+03 0.  0.
        2    1    3    3  502    0 -0.24466735806E+03  0.10910132468E+03 -0.20667474632E+03  0.33834843862E+03  0.25500000920E-02 0. -1.
       -2    1    3    3    0  502  0.24466735806E+03 -0.10910132468E+03  0.72285493447E+02  0.27747145388E+03  0.25500000920E-02 0.  1.
</event>
<event>
 5   0  0.1303808E-02  0.6005752E+03  0.7818609E-02  0.9904213E-01
       -1   -1    0    0    0  501  0.00000000000E+00  0.00000000000E+00  0.77392217951E+02  0.77392218116E+02  0.50400001928E-02 0. -1.
        1   -1    0    0  501    0  0.00000000000E+00  0.00000000000E+00 -0.11651383699E+04  0.11651383699E+04  0.50400001928E-02 0.  1.
    10030    2    1    2    0    0  0.00000000000E+00  0.00000000000E+00 -0.10877461519E+04  0.12425305880E+04  0.60057520020E+03 0.  0.
        4    1    3    3  502    0  0.16927984839E+03  0.20332693165E+03 -0.83772636336E+03  0.87851270962E+03  0.12699999809E+01 0.  1.
       -4    1    3    3    0  502 -0.16927984839E+03 -0.20332693165E+03 -0.25001978856E+03  0.36401787837E+03  0.12699999809E+01 0. -1.
</event>
<event>
 5   0  0.1337051E-02  0.5970853E+03  0.7818609E-02  0.9911472E-01
        1   -1    0    0  501    0  0.00000000000E+00  0.00000000000E+00  0.89127209386E+03  0.89127209387E+03  0.50400001928E-02 0.  1.
       -1   -1    0    0    0  501  0.00000000000E+00  0.00000000000E+00 -0.10000056438E+03  0.10000056450E+03  0.50400001928E-02 0. -1.
    10030    2    1    2    0    0  0.00000000000E+00  0.00000000000E+00  0.79127152948E+03  0.99127265837E+03  0.59708529531E+03 0.  0.
        5    1    3    3  502    0  0.20370251792E+03  0.13564013262E+03  0.11188155600E+03  0.26913292990E+03  0.46999998093E+01 0. -1.
       -5    1    3    3    0  502 -0.20370251792E+03 -0.13564013262E+03  0.67938997348E+03  0.72213972848E+03  0.46999998093E+01 0.  1.
</event>
<event>
 5   0  0.2141800E-02  0.5999155E+03  0.7818609E-02  0.9905581E-01
        2   -1    0    0  501    0  0.00000000000E+00  0.00000000000E+00  0.77148840376E+03  0.77148840376E+03  0.25500000920E-02 0. -1.
       -2   -1    0    0    0  501  0.00000000000E+00  0.00000000000E+00 -0.11662474354E+03  0.11662474357E+03  0.25500000920E-02 0.  1.
    10030    2    1    2    0    0  0.00000000000E+00  0.00000000000E+00  0.65486366022E+03  0.88811314733E+03  0.59991545153E+03 0.  0.
        2    1    3    3  502    0 -0.34406470395E+01 -0.76215505610E+02  0.75688481204E+03  0.76072022455E+03  0.25500000920E-02 0. -1.
       -2    1    3    3    0  502  0.34406470395E+01  0.76215505610E+02 -0.10202115182E+03  0.12739292277E+03  0.25500000920E-02 0.  1.
</event>
<event>
 5   0  0.1303808E-02  0.5717923E+03  0.7818609E-02  0.9965720E-01
        1   -1    0    0  501    0  0.00000000000E+00  0.00000000000E+00  0.61870547130E+03  0.61870547132E+03  0.50400001928E-02 0. -1.
       -1   -1    0    0    0  501  0.00000000000E+00  0.00000000000E+00 -0.13210907802E+03  0.13210907812E+03  0.50400001928E-02 0.  1.
    10030    2    1    2    0    0  0.00000000000E+00  0.00000000000E+00  0.48659639327E+03  0.75081454943E+03  0.57179230294E+03 0.  0.
        4    1    3    3  502    0  0.24748201750E+03 -0.11254538131E+03  0.35942451179E+03  0.45066773172E+03  0.12699999809E+01 0. -1.
       -4    1    3    3    0  502 -0.24748201750E+03  0.11254538131E+03  0.12717188148E+03  0.30014681771E+03  0.12699999809E+01 0.  1.
</event>
<event>
 5   0  0.2126207E-02  0.5994255E+03  0.7818609E-02  0.9906599E-01
       -2   -1    0    0    0  501  0.00000000000E+00  0.00000000000E+00  0.70101260671E+02  0.70101260717E+02  0.25500000920E-02 0. -1.
        2   -1    0    0  501    0  0.00000000000E+00  0.00000000000E+00 -0.12813997020E+04  0.12813997020E+04  0.25500000920E-02 0.  1.
    10030    2    1    2    0    0  0.00000000000E+00  0.00000000000E+00 -0.12112984413E+04  0.13515009627E+04  0.59942550684E+03 0.  0.
        5    1    3    3  502    0  0.27132849415E+03 -0.91487011554E+02 -0.80498746421E+03  0.85440969830E+03  0.46999998093E+01 0.  1.
       -5    1    3    3    0  502 -0.27132849415E+03  0.91487011554E+02 -0.40631097707E+03  0.49709126437E+03  0.46999998093E+01 0. -1.
</event>
<event>
 5   0  0.1337051E-02  0.6005858E+03  0.7818609E-02  0.9904191E-01
       -1   -1    0    0    0  501  0.00000000000E+00  0.00000000000E+00  0.45901196290E+03  0.45901196293E+03  0.50400001928E-02 0.  1.
        1   -1    0    0  501    0  0.00000000000E+00  0.00000000000E+00 -0.19645638043E+03  0.19645638050E+03  0.50400001928E-02 0. -1.
    10030    2    1    2    0    0  0.00000000000E+00  0.00000000000E+00  0.26255558246E+03  0.65546834343E+03  0.60058581015E+03 0.  0.
        5    1    3    3  502    0 -0.24649357089E+03  0.15931223897E+03  0.62129749852E+02  0.30003610748E+03  0.46999998093E+01 0.  1.
       -5    1    3    3    0  502  0.24649357089E+03 -0.15931223897E+03  0.20042583261E+03  0.35543223595E+03  0.46999998093E+01 0. -1.
</event>
<event>
 5   0  0.1303808E-02  0.6001027E+03  0.7818609E-02  0.9905193E-01
        1   -1    0    0  501    0  0.00000000000E+00  0.00000000000E+00  0.46341304264E+03  0.46341304267E+03  0.50400001928E-02 0. -1.
       -1   -1    0    0    0  501  0.00000000000E+00  0.00000000000E+00 -0.19427766060E+03  0.19427766067E+03  0.50400001928E-02 0.  1.
    10030    2    1    2    0    0  0.00000000000E+00  0.00000000000E+00  0.26913538204E+03  0.65769070334E+03  0.60010266404E+03 0.  0.
        4    1    3    3  502    0 -0.29613028086E+03 -0.26840073820E+02  0.90515185293E+02  0.31081850729E+03  0.12699999809E+01 0.  1.
       -4    1    3    3    0  502  0.29613028086E+03  0.26840073820E+02  0.17862019674E+03  0.34687219605E+03  0.12699999809E+01 0. -1.
</event>
<event>
 5   0  0.2141800E-02  0.6000162E+03  0.7818609E-02  0.9905372E-01
       -2   -1    0    0    0  501  0.00000000000E+00  0.00000000000E+00  0.22161589121E+03  0.22161589122E+03  0.25500000920E-02 0. -1.
        2   -1    0    0  501    0  0.00000000000E+00  0.00000000000E+00 -0.40612999278E+03  0.40612999279E+03  0.25500000920E-02 0.  1.
    10030    2    1    2    0    0  0.00000000000E+00  0.00000000000E+00 -0.18451410158E+03  0.62774588401E+03  0.60001620079E+03 0.  0.
        2    1    3    3  502    0  0.17553586948E+03 -0.23829127801E+03 -0.40904142525E+02  0.29877872001E+03  0.25500000920E-02 0. -1.
       -2    1    3    3    0  502 -0.17553586948E+03  0.23829127801E+03 -0.14360995905E+03  0.32896716401E+03  0.25500000920E-02 0.  1.
</event>
<event>
 5   0  0.1337051E-02  0.5989963E+03  0.7818609E-02  0.9907491E-01
        1   -1    0    0  501    0  0.00000000000E+00  0.00000000000E+00  0.66727371531E+03  0.66727371533E+03  0.50400001928E-02 0. -1.
       -1   -1    0    0    0  501  0.00000000000E+00  0.00000000000E+00 -0.13442632515E+03  0.13442632524E+03  0.50400001928E-02 0.  1.
    10030    2    1    2    0    0  0.00000000000E+00  0.00000000000E+00  0.53284739016E+03  0.80170004057E+03  0.59899633876E+03 0.  0.
        5    1    3    3  502    0  0.26525859970E+02  0.13669238363E+03  0.62126183240E+03  0.63669206324E+03  0.46999998093E+01 0. -1.
       -5    1    3    3    0  502 -0.26525859970E+02 -0.13669238363E+03 -0.88414442240E+02  0.16500797733E+03  0.46999998093E+01 0.  1.
</event>
<event>
 5   0  0.2179625E-02  0.5843101E+03  0.7818609E-02  0.9938503E-01
       -2   -1    0    0    0  501  0.00000000000E+00  0.00000000000E+00  0.13295681084E+03  0.13295681087E+03  0.25500000920E-02 0.  1.
        2   -1    0    0  501    0  0.00000000000E+00  0.00000000000E+00 -0.64197221638E+03  0.64197221638E+03  0.25500000920E-02 0. -1.
    10030    2    1    2    0    0  0.00000000000E+00  0.00000000000E+00 -0.50901540553E+03  0.77492902725E+03  0.58431011818E+03 0.  0.
        1    1    3    3  502    0 -0.81770088640E+02 -0.20413381275E+03  0.58932700836E+00  0.21990295186E+03  0.50400001928E-02 0. -1.
       -1    1    3    3    0  502  0.81770088640E+02  0.20413381275E+03 -0.50960473254E+03  0.55502607539E+03  0.50400001928E-02 0.  1.
</event>
<event>
 5   0  0.1276705E-02  0.6011285E+03  0.7818609E-02  0.9903068E-01
       -1   -1    0    0    0  501  0.00000000000E+00  0.00000000000E+00  0.17450591337E+03  0.17450591344E+03  0.50400001928E-02 0. -1.
        1   -1    0    0  501    0  0.00000000000E+00  0.00000000000E+00 -0.51768368161E+03  0.51768368163E+03  0.50400001928E-02 0.  1.
    10030    2    1    2    0    0  0.00000000000E+00  0.00000000000E+00 -0.34317776823E+03  0.69218959507E+03  0.60112848454E+03 0.  0.
        1    1    3    3  502    0 -0.23629749642E+03 -0.18304945876E+03 -0.13526231302E+03  0.32808459963E+03  0.50400001928E-02 0.  1.
       -1    1    3    3    0  502  0.23629749642E+03  0.18304945876E+03 -0.20791545522E+03  0.36410499545E+03  0.50400001928E-02 0. -1.
</event>
<event>
 5   0  0.1332555E-02  0.5948770E+03  0.7818609E-02  0.9916092E-01
       -1   -1    0    0    0  501  0.00000000000E+00  0.00000000000E+00  0.21599116776E+03  0.21599116782E+03  0.50400001928E-02 0.  1.
        1   -1    0    0  501    0  0.00000000000E+00  0.00000000000E+00 -0.40959851993E+03  0.40959851996E+03  0.50400001928E-02 0. -1.
    10030    2    1    2    0    0  0.00000000000E+00  0.00000000000E+00 -0.19360735217E+03  0.62558968778E+03  0.59487700463E+03 0.  0.
        2    1    3    3  502    0  0.26774106464E+03 -0.59247740802E+02 -0.21796521522E+03  0.35029188905E+03  0.25500000920E-02 0. -1.
       -2    1    3    3    0  502 -0.26774106464E+03  0.59247740802E+02  0.24357863047E+02  0.27529779873E+03  0.25500000920E-02 0.  1.
</event>
<event>
 5   0  0.2142838E-02  0.6002329E+03  0.7818609E-02  0.9904923E-01
        2   -1    0    0  501    0  0.00000000000E+00  0.00000000000E+00  0.16620361106E+04  0.16620361106E+04  0.25500000920E-02 0. -1.
       -2   -1    0    0    0  501  0.00000000000E+00  0.00000000000E+00 -0.54192496690E+02  0.54192496750E+02  0.25500000920E-02 0.  1.
    10030    2    1    2    0    0  0.00000000000E+00  0.00000000000E+00  0.16078436139E+04  0.17162286073E+04  0.60023290971E+03 0.  0.
        4    1    3    3  502    0  0.95091436272E+02  0.20299069262E+03  0.23335090381E+03  0.32357666751E+03  0.12699999809E+01 0.  1.
       -4    1    3    3    0  502 -0.95091436272E+02 -0.20299069262E+03  0.13744927101E+04  0.13926519398E+04  0.12699999809E+01 0. -1.
</event>
<event>
 5   0  0.2141800E-02  0.6006380E+03  0.7818609E-02  0.9904083E-01
       -2   -1    0    0    0  501  0.00000000000E+00  0.00000000000E+00  0.39899349947E+03  0.39899349948E+03  0.25500000920E-02 0. -1.
        2   -1    0    0  501    0  0.00000000000E+00  0.00000000000E+00 -0.22604753001E+03  0.22604753002E+03  0.25500000920E-02 0.  1.
    10030    2    1    2    0    0  0.00000000000E+00  0.00000000000E+00  0.17294596946E+03  0.62504102950E+03  0.60063797766E+03 0.  0.
        2    1    3    3  502    0 -0.17613893056E+03  0.10632203381E+03  0.31413577502E+03  0.37551375858E+03  0.25500000920E-02 0. -1.
       -2    1    3    3    0  502  0.17613893056E+03 -0.10632203381E+03 -0.14118980555E+03  0.24952727092E+03  0.25500000920E-02 0.  1.
</event>
<event>
 5   0  0.2142838E-02  0.5992272E+03  0.7818609E-02  0.9907011E-01
        2   -1    0    0  501    0  0.00000000000E+00  0.00000000000E+00  0.21259934574E+04  0.21259934574E+04  0.25500000920E-02 0.  1.
       -2   -1    0    0    0  501  0.00000000000E+00  0.00000000000E+00 -0.42224165410E+02  0.42224165487E+02  0.25500000920E-02 0. -1.
    10030    2    1    2    0    0  0.00000000000E+00  0.00000000000E+00  0.20837692920E+04  0.21682176229E+04  0.59922716724E+03 0.  0.
        4    1    3    3  502    0  0.21248956121E+03 -0.10579088799E+03  0.17033926990E+04  0.17198522685E+04  0.12699999809E+01 0.  1.
       -4    1    3    3    0  502 -0.21248956121E+03  0.10579088799E+03  0.38037659294E+03  0.44836535432E+03  0.12699999809E+01 0. -1.
</event>
<event>
 5   0  0.8551000E-03  0.6006916E+03  0.7818609E-02  0.9903972E-01
       -4   -1    0    0    0  501  0.00000000000E+00  0.00000000000E+00  0.13774237260E+03  0.13774822725E+03  0.12699999809E+01 0.  1.
        4   -1    0    0  501    0  0.00000000000E+00  0.00000000000E+00 -0.65488046228E+03  0.65488169372E+03  0.12699999809E+01 0. -1.
    10030    2    1    2    0    0  0.00000000000E+00  0.00000000000E+00 -0.51713808968E+03  0.79262992097E+03  0.60069159127E+03 0.  0.
        5    1    3    3  502    0 -0.83132591145E+02 -0.27231689426E+03 -0.13256965956E+03  0.31410877613E+03  0.46999998093E+01 0.  1.
       -5    1    3    3    0  502  0.83132591145E+02  0.27231689426E+03 -0.38456843012E+03  0.47852114484E+03  0.46999998093E+01 0. -1.
</event>
<event>
 5   0  0.2179625E-02  0.5966116E+03  0.7818609E-02  0.9912461E-01
        2   -1    0    0  501    0  0.00000000000E+00  0.00000000000E+00  0.66922184592E+03  0.66922184592E+03  0.25500000920E-02 0. -1.
       -2   -1    0    0    0  501  0.00000000000E+00  0.00000000000E+00 -0.13296989546E+03  0.13296989548E+03  0.25500000920E-02 0.  1.
    10030    2    1    2    0    0  0.00000000000E+00  0.00000000000E+00  0.53625195046E+03  0.80219174141E+03  0.59661162879E+03 0.  0.
        1    1    3    3  502    0  0.28244752701E+03 -0.91440184795E+02  0.30729101464E+03  0.42727705369E+03  0.50400001928E-02 0.  1.
       -1    1    3    3    0  502 -0.28244752701E+03  0.91440184795E+02  0.22896093582E+03  0.37491468772E+03  0.50400001928E-02 0. -1.
</event>
<event>
 5   0  0.1303808E-02  0.5995111E+03  0.7818609E-02  0.9906421E-01
        1   -1    0    0  501    0  0.00000000000E+00  0.00000000000E+00  0.23088996188E+03  0.23088996193E+03  0.50400001928E-02 0.  1.
       -1   -1    0    0    0  501  0.00000000000E+00  0.00000000000E+00 -0.38916106184E+03  0.38916106188E+03  0.50400001928E-02 0. -1.
    10030    2    1    2    0    0  0.00000000000E+00  0.00000000000E+00 -0.15827109997E+03  0.62005102381E+03  0.59951107666E+03 0.  0.
        4    1    3    3  502    0 -0.15440709579E+03 -0.20310940698E+03  0.83598098384E+02  0.26848694082E+03  0.12699999809E+01 0.  1.
       -4    1    3    3    0  502  0.15440709579E+03  0.20310940698E+03 -0.24186919835E+03  0.35156408299E+03  0.12699999809E+01 0. -1.
</event>
<event>
 5   0  0.1332555E-02  0.5991887E+03  0.7818609E-02  0.9907091E-01
        1   -1    0    0  501    0  0.00000000000E+00  0.00000000000E+00  0.92873288219E+03  0.92873288220E+03  0.50400001928E-02 0. -1.
       -1   -1    0    0    0  501  0.00000000000E+00  0.00000000000E+00 -0.96644353496E+02  0.96644353628E+02  0.50400001928E-02 0.  1.
    10030    2    1    2    0    0  0.00000000000E+00  0.00000000000E+00  0.83208852869E+03  0.10253772358E+04  0.59918874837E+03 0.  0.
        2    1    3    3  502    0  0.44437091568E+02 -0.12415239655E+03  0.87640073988E+03  0.88626560891E+03  0.25500000920E-02 0. -1.
       -2    1    3    3    0  502 -0.44437091568E+02  0.12415239655E+03 -0.44312211188E+02  0.13911162691E+03  0.25500000920E-02 0.  1.
</event>
<event>
 5   0  0.1276705E-02  0.6016782E+03  0.7818609E-02  0.9901930E-01
       -1   -1    0    0    0  501  0.00000000000E+00  0.00000000000E+00  0.22474822461E+03  0.22474822467E+03  0.50400001928E-02 0.  1.
        1   -1    0    0  501    0  0.00000000000E+00  0.00000000000E+00 -0.40269130064E+03  0.40269130067E+03  0.50400001928E-02 0. -1.
    10030    2    1    2    0    0  0.00000000000E+00  0.00000000000E+00 -0.17794307602E+03  0.62743952534E+03  0.60167816950E+03 0.  0.
        1    1    3    3  502    0  0.22445472909E+03 -0.14403751158E+03  0.56191366215E+02  0.27255127924E+03  0.50400001928E-02 0.  1.
       -1    1    3    3    0  502 -0.22445472909E+03  0.14403751158E+03 -0.23413444224E+03  0.35488824610E+03  0.50400001928E-02 0. -1.
</event>
<event>
 5   0  0.2179625E-02  0.6006561E+03  0.7818609E-02  0.9904046E-01
        2   -1    0    0  501    0  0.00000000000E+00  0.00000000000E+00  0.52058359574E+03  0.52058359575E+03  0.25500000920E-02 0. -1.
       -2   -1    0    0    0  501  0.00000000000E+00  0.00000000000E+00 -0.17326117390E+03  0.17326117391E+03  0.25500000920E-02 0.  1.
    10030    2    1    2    0    0  0.00000000000E+00  0.00000000000E+00  0.34732242185E+03  0.69384476966E+03  0.60065605772E+03 0.  0.
        1    1    3    3  502    0 -0.29515354456E+03  0.48769612974E+02  0.14303712679E+03  0.33159268641E+03  0.50400001928E-02 0. -1.
       -1    1    3    3    0  502  0.29515354456E+03 -0.48769612974E+02  0.20428529506E+03  0.36225208325E+03  0.50400001928E-02 0.  1.
</event>
<event>
 5   0  0.1276705E-02  0.5990373E+03  0.7818609E-02  0.9907405E-01
       -1   -1    0    0    0  501  0.00000000000E+00  0.00000000000E+00  0.25135343699E+03  0.25135343704E+03  0.50400001928E-02 0. -1.
        1   -1    0    0  501    0  0.00000000000E+00  0.00000000000E+00 -0.35691338815E+03  0.35691338818E+03  0.50400001928E-02 0.  1.
    10030    2    1    2    0    0  0.00000000000E+00  0.00000000000E+00 -0.10555995116E+03  0.60826682522E+03  0.59903725041E+03 0.  0.
        1    1    3    3  502    0 -0.14364128038E+03 -0.73744923151E+02 -0.30893703416E+03  0.34858746710E+03  0.50400001928E-02 0.  1.
       -1    1    3    3    0  502  0.14364128038E+03  0.73744923151E+02  0.20337708300E+03  0.25967935812E+03  0.50400001928E-02 0. -1.
</event>
<event>
 5   0  0.1337051E-02  0.5985877E+03  0.7818609E-02  0.9908340E-01
        1   -1    0    0  501    0  0.00000000000E+00  0.00000000000E+00  0.10817941865E+03  0.10817941877E+03  0.50400001928E-02 0. -1.
       -1   -1    0    0    0  501  0.00000000000E+00  0.00000000000E+00 -0.82803939935E+03  0.82803939937E+03  0.50400001928E-02 0.  1.
    10030    2    1    2    0    0  0.00000000000E+00  0.00000000000E+00 -0.71985998070E+03  0.93621881814E+03  0.59858774096E+03 0.  0.
        5    1    3    3  502    0 -0.25861439983E+03 -0.73082155886E+01 -0.12469874164E+03  0.28723976741E+03  0.46999998093E+01 0. -1.
       -5    1    3    3    0  502  0.25861439983E+03  0.73082155886E+01 -0.59516123906E+03  0.64897905073E+03  0.46999998093E+01 0.  1.
</event>
<event>
 5   0  0.1250390E-02  0.6070726E+03  0.7818609E-02  0.9890840E-01
       -1   -1    0    0    0  501  0.00000000000E+00  0.00000000000E+00  0.61151547651E+02  0.61151547859E+02  0.50400001928E-02 0.  1.
        1   -1    0    0  501    0  0.00000000000E+00  0.00000000000E+00 -0.15066550478E+04  0.15066550478E+04  0.50400001928E-02 0. -1.
    10030    2    1    2    0    0  0.00000000000E+00  0.00000000000E+00 -0.14455035002E+04  0.15678065957E+04  0.60707260890E+03 0.  0.
        3    1    3    3  502    0 -0.82294671868E+02  0.28972280134E+03 -0.62534531550E+03  0.69409544621E+03  0.10100000352E+00 0. -1.
       -3    1    3    3    0  502  0.82294671868E+02 -0.28972280134E+03 -0.82015818468E+03  0.87371114949E+03  0.10100000352E+00 0.  1.
</event>
<event>
 5   0  0.2141800E-02  0.6004637E+03  0.7818609E-02  0.9904444E-01
        2   -1    0    0  501    0  0.00000000000E+00  0.00000000000E+00  0.51438734913E+03  0.51438734913E+03  0.25500000920E-02 0.  1.
       -2   -1    0    0    0  501  0.00000000000E+00  0.00000000000E+00 -0.17523597665E+03  0.17523597667E+03  0.25500000920E-02 0. -1.
    10030    2    1    2    0    0  0.00000000000E+00  0.00000000000E+00  0.33915137247E+03  0.68962332580E+03  0.60046371917E+03 0.  0.
        2    1    3    3  502    0  0.21834610523E+03 -0.17769956815E+03  0.28940953498E+03  0.40374501499E+03  0.25500000920E-02 0.  1.
       -2    1    3    3    0  502 -0.21834610523E+03  0.17769956815E+03  0.49741837496E+02  0.28587831081E+03  0.25500000920E-02 0. -1.
</event>
<event>
 5   0  0.2141800E-02  0.5988606E+03  0.7818609E-02  0.9907773E-01
        2   -1    0    0  501    0  0.00000000000E+00  0.00000000000E+00  0.25435615307E+03  0.25435615308E+03  0.25500000920E-02 0.  1.
       -2   -1    0    0    0  501  0.00000000000E+00  0.00000000000E+00 -0.35249194564E+03  0.35249194565E+03  0.25500000920E-02 0. -1.
    10030    2    1    2    0    0  0.00000000000E+00  0.00000000000E+00 -0.98135792569E+02  0.60684809873E+03  0.59886056904E+03 0.  0.
        2    1    3    3  502    0 -0.13528027562E+03  0.24477874481E+03 -0.15745767437E+03  0.32095218664E+03  0.25500000920E-02 0. -1.
       -2    1    3    3    0  502  0.13528027562E+03 -0.24477874481E+03  0.59321881803E+02  0.28589591209E+03  0.25500000920E-02 0.  1.
</event>
<event>
 5   0  0.8551000E-03  0.5994397E+03  0.7818609E-02  0.9906569E-01
       -3   -1    0    0    0  501  0.00000000000E+00  0.00000000000E+00  0.16645281920E+03  0.16645284984E+03  0.10100000352E+00 0. -1.
        3   -1    0    0  501    0  0.00000000000E+00  0.00000000000E+00 -0.53968429782E+03  0.53968430727E+03  0.10100000352E+00 0.  1.
    10030    2    1    2    0    0  0.00000000000E+00  0.00000000000E+00 -0.37323147862E+03  0.70613715711E+03  0.59943969506E+03 0.  0.
        3    1    3    3  502    0  0.88499849160E+02  0.15179392241E+03 -0.47264881649E+03  0.50425244879E+03  0.10100000352E+00 0.  1.
       -3    1    3    3    0  502 -0.88499849160E+02 -0.15179392241E+03  0.99417337864E+02  0.20188470832E+03  0.10100000352E+00 0. -1.
</event>
<event>
 5   0  0.2142838E-02  0.5977855E+03  0.7818609E-02  0.9910011E-01
       -2   -1    0    0    0  501  0.00000000000E+00  0.00000000000E+00  0.34800288920E+03  0.34800288921E+03  0.25500000920E-02 0. -1.
        2   -1    0    0  501    0  0.00000000000E+00  0.00000000000E+00 -0.25671302807E+03  0.25671302808E+03  0.25500000920E-02 0.  1.
    10030    2    1    2    0    0  0.00000000000E+00  0.00000000000E+00  0.91289861126E+02  0.60471591729E+03  0.59778549822E+03 0.  0.
        4    1    3    3  502    0  0.53216920100E+02 -0.18345253801E+03 -0.18690804384E+03  0.26725101317E+03  0.12699999809E+01 0.  1.
       -4    1    3    3    0  502 -0.53216920100E+02  0.18345253801E+03  0.27819790496E+03  0.33746490412E+03  0.12699999809E+01 0. -1.
</event>
<event>
 5   0  0.8551000E-03  0.5971939E+03  0.7818609E-02  0.9911245E-01
       -3   -1    0    0    0  501  0.00000000000E+00  0.00000000000E+00  0.10643839868E+04  0.10643839915E+04  0.10100000352E+00 0. -1.
        3   -1    0    0  501    0  0.00000000000E+00  0.00000000000E+00 -0.83766844111E+02  0.83766905001E+02  0.10100000352E+00 0.  1.
    10030    2    1    2    0    0  0.00000000000E+00  0.00000000000E+00  0.98061714264E+03  0.11481508965E+04  0.59719385529E+03 0.  0.
        3    1    3    3  502    0 -0.18397298446E+03  0.18762856113E+02  0.39580146886E+02  0.18911557845E+03  0.10100000352E+00 0.  1.
       -3    1    3    3    0  502  0.18397298446E+03 -0.18762856113E+02  0.94103699576E+03  0.95903531810E+03  0.10100000352E+00 0. -1.
</event>
<event>
 5   0  0.1337051E-02  0.6026575E+03  0.7818609E-02  0.9899908E-01
        1   -1    0    0  501    0  0.00000000000E+00  0.00000000000E+00  0.21087925685E+03  0.21087925691E+03  0.50400001928E-02 0.  1.
       -1   -1    0    0    0  501  0.00000000000E+00  0.00000000000E+00 -0.43057350300E+03  0.43057350303E+03  0.50400001928E-02 0. -1.
    10030    2    1    2    0    0  0.00000000000E+00  0.00000000000E+00 -0.21969424616E+03  0.64145275994E+03  0.60265751588E+03 0.  0.
        5    1    3    3  502    0  0.29403260442E+03  0.54301188525E+02 -0.70405813728E+02  0.30721793591E+03  0.46999998093E+01 0.  1.
       -5    1    3    3    0  502 -0.29403260442E+03 -0.54301188525E+02 -0.14928843243E+03  0.33423482403E+03  0.46999998093E+01 0. -1.
</event>
<event>
 5   0  0.1276705E-02  0.6002771E+03  0.7818609E-02  0.9904831E-01
        1   -1    0    0  501    0  0.00000000000E+00  0.00000000000E+00  0.66219731462E+03  0.66219731464E+03  0.50400001928E-02 0. -1.
       -1   -1    0    0    0  501  0.00000000000E+00  0.00000000000E+00 -0.13603670373E+03  0.13603670382E+03  0.50400001928E-02 0.  1.
    10030    2    1    2    0    0  0.00000000000E+00  0.00000000000E+00  0.52616061089E+03  0.79823401846E+03  0.60027706917E+03 0.  0.
        1    1    3    3  502    0 -0.22187386130E+03  0.17743133299E+03  0.13433730762E+03  0.31425531101E+03  0.50400001928E-02 0.  1.
       -1    1    3    3    0  502  0.22187386130E+03 -0.17743133299E+03  0.39182330327E+03  0.48397870745E+03  0.50400001928E-02 0. -1.
</event>
<event>
 5   0  0.1332555E-02  0.5993186E+03  0.7818609E-02  0.9906821E-01
        1   -1    0    0  501    0  0.00000000000E+00  0.00000000000E+00  0.47304398346E+03  0.47304398349E+03  0.50400001928E-02 0. -1.
       -1   -1    0    0    0  501  0.00000000000E+00  0.00000000000E+00 -0.18982523689E+03  0.18982523695E+03  0.50400001928E-02 0.  1.
    10030    2    1    2    0    0  0.00000000000E+00  0.00000000000E+00  0.28321874658E+03  0.66286922044E+03  0.59931856721E+03 0.  0.
        2    1    3    3  502    0  0.23964532419E+03 -0.17156344760E+03  0.20149690632E+03  0.35702226993E+03  0.25500000920E-02 0.  1.
       -2    1    3    3    0  502 -0.23964532419E+03  0.17156344760E+03  0.81721840255E+02  0.30584695052E+03  0.25500000920E-02 0. -1.
</event>
<event>
 5   0  0.2126207E-02  0.5984649E+03  0.7818609E-02  0.9908596E-01
       -2   -1    0    0    0  501  0.00000000000E+00  0.00000000000E+00  0.52048264492E+02  0.52048264554E+02  0.25500000920E-02 0.  1.
        2   -1    0    0  501    0  0.00000000000E+00  0.00000000000E+00 -0.17203277313E+04  0.17203277313E+04  0.25500000920E-02 0. -1.
    10030    2    1    2    0    0  0.00000000000E+00  0.00000000000E+00 -0.16682794668E+04  0.17723759958E+04  0.59846494576E+03 0.  0.
        5    1    3    3  502    0 -0.20257592507E+03  0.21083674163E+03 -0.10221179237E+04  0.10631257109E+04  0.46999998093E+01 0.  1.
       -5    1    3    3    0  502  0.20257592507E+03 -0.21083674163E+03 -0.64616154301E+03  0.70925028495E+03  0.46999998093E+01 0. -1.
</event>
<event>
 5   0  0.1250390E-02  0.5986185E+03  0.7818609E-02  0.9908276E-01
       -1   -1    0    0    0  501  0.00000000000E+00  0.00000000000E+00  0.67415764641E+02  0.67415764829E+02  0.50400001928E-02 0. -1.
        1   -1    0    0  501    0  0.00000000000E+00  0.00000000000E+00 -0.13288586332E+04  0.13288586332E+04  0.50400001928E-02 0.  1.
    10030    2    1    2    0    0  0.00000000000E+00  0.00000000000E+00 -0.12614428685E+04  0.13962743980E+04  0.59861847948E+03 0.  0.
        3    1    3    3  502    0  0.83364762611E+02 -0.27483522380E+03 -0.43415527389E+03  0.52055249105E+03  0.10100000352E+00 0. -1.
       -3    1    3    3    0  502 -0.83364762611E+02  0.27483522380E+03 -0.82728759464E+03  0.87572190696E+03  0.10100000352E+00 0.  1.
</event>
<event>
 5   0  0.1332555E-02  0.5992315E+03  0.7818609E-02  0.9907002E-01
       -1   -1    0    0    0  501  0.00000000000E+00  0.00000000000E+00  0.53696759668E+02  0.53696759905E+02  0.50400001928E-02 0. -1.
        1   -1    0    0  501    0  0.00000000000E+00  0.00000000000E+00 -0.16717880125E+04  0.16717880126E+04  0.50400001928E-02 0.  1.
    10030    2    1    2    0    0  0.00000000000E+00  0.00000000000E+00 -0.16180912529E+04  0.17254847725E+04  0.59923150564E+03 0.  0.
        2    1    3    3  502    0 -0.27375379457E+03  0.10821547175E+03 -0.96983063773E+03  0.10135201992E+04  0.25500000920E-02 0.  1.
       -2    1    3    3    0  502  0.27375379457E+03 -0.10821547175E+03 -0.64826061515E+03  0.71196457323E+03  0.25500000920E-02 0. -1.
</event>
<event>
 5   0  0.2092587E-02  0.5993283E+03  0.7818609E-02  0.9906801E-01
       -2   -1    0    0    0  501  0.00000000000E+00  0.00000000000E+00  0.10818658679E+03  0.10818658682E+03  0.25500000920E-02 0. -1.
        2   -1    0    0  501    0  0.00000000000E+00  0.00000000000E+00 -0.83003464711E+03  0.83003464712E+03  0.25500000920E-02 0.  1.
    10030    2    1    2    0    0  0.00000000000E+00  0.00000000000E+00 -0.72184806032E+03  0.93822123394E+03  0.59932834208E+03 0.  0.
        3    1    3    3  502    0  0.12418877574E+02 -0.12213230336E+03 -0.78886350130E+03  0.79835841696E+03  0.10100000352E+00 0.  1.
       -3    1    3    3    0  502 -0.12418877574E+02  0.12213230336E+03  0.67015440977E+02  0.13986281698E+03  0.10100000352E+00 0. -1.
</event>
<event>
 5   0  0.1250390E-02  0.5935240E+03  0.7818609E-02  0.9918934E-01
        1   -1    0    0  501    0  0.00000000000E+00  0.00000000000E+00  0.33945023707E+03  0.33945023711E+03  0.50400001928E-02 0.  1.
       -1   -1    0    0    0  501  0.00000000000E+00  0.00000000000E+00 -0.25944207055E+03  0.25944207060E+03  0.50400001928E-02 0. -1.
    10030    2    1    2    0    0  0.00000000000E+00  0.00000000000E+00  0.80008166526E+02  0.59889230771E+03  0.59352395867E+03 0.  0.
        3    1    3    3  502    0  0.42937653169E+02 -0.18777254929E+02  0.33569285958E+03  0.33894827560E+03  0.10100000352E+00 0.  1.
       -3    1    3    3    0  502 -0.42937653169E+02  0.18777254929E+02 -0.25568469305E+03  0.25994403210E+03  0.10100000352E+00 0. -1.
</event>
<event>
 5   0  0.1250390E-02  0.5764791E+03  0.7818609E-02  0.9955443E-01
       -1   -1    0    0    0  501  0.00000000000E+00  0.00000000000E+00  0.48631208737E+03  0.48631208739E+03  0.50400001928E-02 0.  1.
        1   -1    0    0  501    0  0.00000000000E+00  0.00000000000E+00 -0.17084096578E+03  0.17084096585E+03  0.50400001928E-02 0. -1.
    10030    2    1    2    0    0  0.00000000000E+00  0.00000000000E+00  0.31547112159E+03  0.65715305324E+03  0.57647906018E+03 0.  0.
        3    1    3    3  502    0 -0.56870865682E+02 -0.15812176563E+03  0.42469938686E+03  0.45673446063E+03  0.10100000352E+00 0.  1.
       -3    1    3    3    0  502  0.56870865682E+02  0.15812176563E+03 -0.10922826527E+03  0.20041859261E+03  0.10100000352E+00 0. -1.
</event>
<event>
 5   0  0.1276705E-02  0.5960131E+03  0.7818609E-02  0.9913712E-01
       -1   -1    0    0    0  501  0.00000000000E+00  0.00000000000E+00  0.19752521718E+03  0.19752521724E+03  0.50400001928E-02 0.  1.
        1   -1    0    0  501    0  0.00000000000E+00  0.00000000000E+00 -0.44960284847E+03  0.44960284850E+03  0.50400001928E-02 0. -1.
    10030    2    1    2    0    0  0.00000000000E+00  0.00000000000E+00 -0.25207763129E+03  0.64712806574E+03  0.59601308817E+03 0.  0.
        1    1    3    3  502    0  0.54441535947E+02  0.18953497237E+03  0.11655178042E+03  0.22906702978E+03  0.50400001928E-02 0.  1.
       -1    1    3    3    0  502 -0.54441535947E+02 -0.18953497237E+03 -0.36862941171E+03  0.41806103596E+03  0.50400001928E-02 0. -1.
</event>
<event>
 5   0  0.8551000E-03  0.6141003E+03  0.7818609E-02  0.9876577E-01
       -4   -1    0    0    0  501  0.00000000000E+00  0.00000000000E+00  0.21074135094E+03  0.21074517764E+03  0.12699999809E+01 0.  1.
        4   -1    0    0  501    0  0.00000000000E+00  0.00000000000E+00 -0.44736334702E+03  0.44736514969E+03  0.12699999809E+01 0. -1.
    10030    2    1    2    0    0  0.00000000000E+00  0.00000000000E+00 -0.23662199608E+03  0.65811032733E+03  0.61410034515E+03 0.  0.
        4    1    3    3  502    0 -0.23587383027E+03 -0.19653974181E+03 -0.12230094375E+03  0.33048973911E+03  0.12699999809E+01 0. -1.
       -4    1    3    3    0  502  0.23587383027E+03  0.19653974181E+03 -0.11432105232E+03  0.32762058821E+03  0.12699999809E+01 0.  1.
</event>
<event>
 5   0  0.1303808E-02  0.6007513E+03  0.7818609E-02  0.9903849E-01
        1   -1    0    0  501    0  0.00000000000E+00  0.00000000000E+00  0.36411037704E+03  0.36411037708E+03  0.50400001928E-02 0.  1.
       -1   -1    0    0    0  501  0.00000000000E+00  0.00000000000E+00 -0.24779721043E+03  0.24779721048E+03  0.50400001928E-02 0. -1.
    10030    2    1    2    0    0  0.00000000000E+00  0.00000000000E+00  0.11631316661E+03  0.61190758755E+03  0.60075131542E+03 0.  0.
        4    1    3    3  502    0 -0.78164176116E+02  0.66500120252E+02 -0.22938358416E+03  0.25129732589E+03  0.12699999809E+01 0. -1.
       -4    1    3    3    0  502  0.78164176116E+02 -0.66500120252E+02  0.34569675077E+03  0.36061026166E+03  0.12699999809E+01 0.  1.
</event>
<event>
 5   0  0.1332555E-02  0.6005154E+03  0.7818609E-02  0.9904337E-01
       -1   -1    0    0    0  501  0.00000000000E+00  0.00000000000E+00  0.97346307598E+02  0.97346307728E+02  0.50400001928E-02 0. -1.
        1   -1    0    0  501    0  0.00000000000E+00  0.00000000000E+00 -0.92612343225E+03  0.92612343227E+03  0.50400001928E-02 0.  1.
    10030    2    1    2    0    0  0.00000000000E+00  0.00000000000E+00 -0.82877712465E+03  0.10234697400E+04  0.60051543388E+03 0.  0.
        2    1    3    3  502    0 -0.96537461046E+00 -0.28945734395E+03 -0.27838210011E+03  0.40160064689E+03  0.25500000920E-02 0. -1.
       -2    1    3    3    0  502  0.96537461046E+00  0.28945734395E+03 -0.55039502454E+03  0.62186909311E+03  0.25500000920E-02 0.  1.
</event>
<event>
 5   0  0.2092587E-02  0.6033918E+03  0.7818609E-02  0.9898394E-01
        2   -1    0    0  501    0  0.00000000000E+00  0.00000000000E+00  0.75406426745E+03  0.75406426746E+03  0.25500000920E-02 0. -1.
       -2   -1    0    0    0  501  0.00000000000E+00  0.00000000000E+00 -0.12070646275E+03  0.12070646278E+03  0.25500000920E-02 0.  1.
    10030    2    1    2    0    0  0.00000000000E+00  0.00000000000E+00  0.63335780470E+03  0.87477073024E+03  0.60339184756E+03 0.  0.
        3    1    3    3  502    0 -0.15999343653E+03 -0.15580168467E+03  0.22595139309E+02  0.22446072084E+03  0.10100000352E+00 0.  1.
       -3    1    3    3    0  502  0.15999343653E+03  0.15580168467E+03  0.61076266539E+03  0.65031000939E+03  0.10100000352E+00 0. -1.
</event>
<event>
 5   0  0.2142838E-02  0.6001683E+03  0.7818609E-02  0.9905057E-01
        2   -1    0    0  501    0  0.00000000000E+00  0.00000000000E+00  0.76945184318E+03  0.76945184319E+03  0.25500000920E-02 0. -1.
       -2   -1    0    0    0  501  0.00000000000E+00  0.00000000000E+00 -0.11703199621E+03  0.11703199623E+03  0.25500000920E-02 0.  1.
    10030    2    1    2    0    0  0.00000000000E+00  0.00000000000E+00  0.65241984698E+03  0.88648383942E+03  0.60016826043E+03 0.  0.
        4    1    3    3  502    0 -0.30194772159E+02  0.74302892874E+02 -0.10090336651E+03  0.12890208078E+03  0.12699999809E+01 0.  1.
       -4    1    3    3    0  502  0.30194772159E+02 -0.74302892874E+02  0.75332321349E+03  0.75758175865E+03  0.12699999809E+01 0. -1.
</event>
<event>
 5   0  0.2142838E-02  0.5988778E+03  0.7818609E-02  0.9907737E-01
        2   -1    0    0  501    0  0.00000000000E+00  0.00000000000E+00  0.17452791086E+04  0.17452791086E+04  0.25500000920E-02 0. -1.
       -2   -1    0    0    0  501  0.00000000000E+00  0.00000000000E+00 -0.51374962339E+02  0.51374962403E+02  0.25500000920E-02 0.  1.
    10030    2    1    2    0    0  0.00000000000E+00  0.00000000000E+00  0.16939041463E+04  0.17966540710E+04  0.59887777897E+03 0.  0.
        4    1    3    3  502    0  0.63415634058E+02 -0.51720550469E+02  0.17110739010E+04  0.17130300831E+04  0.12699999809E+01 0. -1.
       -4    1    3    3    0  502 -0.63415634058E+02  0.51720550469E+02 -0.17169754706E+02  0.83623987949E+02  0.12699999809E+01 0.  1.
</event>
<event>
 5   0  0.1337051E-02  0.6012448E+03  0.7818609E-02  0.9902827E-01
        1   -1    0    0  501    0  0.00000000000E+00  0.00000000000E+00  0.50977165143E+03  0.50977165146E+03  0.50400001928E-02 0.  1.
       -1   -1    0    0    0  501  0.00000000000E+00  0.00000000000E+00 -0.17728293464E+03  0.17728293472E+03  0.50400001928E-02 0. -1.
    10030    2    1    2    0    0  0.00000000000E+00  0.00000000000E+00  0.33248871679E+03  0.68705458617E+03  0.60124475681E+03 0.  0.
        5    1    3    3  502    0  0.16332387738E+03 -0.25200499475E+03  0.18116629466E+03  0.35074851763E+03  0.46999998093E+01 0.  1.
       -5    1    3    3    0  502 -0.16332387738E+03  0.25200499475E+03  0.15132242213E+03  0.33630606854E+03  0.46999998093E+01 0. -1.
</event>
<event>
 5   0  0.1250390E-02  0.5999733E+03  0.7818609E-02  0.9905462E-01
        1   -1    0    0  501    0  0.00000000000E+00  0.00000000000E+00  0.12686525866E+03  0.12686525876E+03  0.50400001928E-02 0.  1.
       -1   -1    0    0    0  501  0.00000000000E+00  0.00000000000E+00 -0.70935082258E+03  0.70935082260E+03  0.50400001928E-02 0. -1.
    10030    2    1    2    0    0  0.00000000000E+00  0.00000000000E+00 -0.58248556392E+03  0.83621608137E+03  0.59997325154E+03 0.  0.
        3    1    3    3  502    0 -0.17424049414E+03  0.21791246629E+02  0.47750435175E+02  0.18197451055E+03  0.10100000352E+00 0.  1.
       -3    1    3    3    0  502  0.17424049414E+03 -0.21791246629E+02 -0.63023599909E+03  0.65424157082E+03  0.10100000352E+00 0. -1.
</event>
<event>
 5   0  0.2142838E-02  0.6020305E+03  0.7818609E-02  0.9901202E-01
        2   -1    0    0  501    0  0.00000000000E+00  0.00000000000E+00  0.11841983690E+04  0.11841983690E+04  0.25500000920E-02 0. -1.
       -2   -1    0    0    0  501  0.00000000000E+00  0.00000000000E+00 -0.76516041470E+02  0.76516041513E+02  0.25500000920E-02 0.  1.
    10030    2    1    2    0    0  0.00000000000E+00  0.00000000000E+00  0.11076823275E+04  0.12607144105E+04  0.60203046945E+03 0.  0.
        4    1    3    3  502    0 -0.20949600606E+01  0.87636394801E+02  0.11568705143E+04  0.11601877117E+04  0.12699999809E+01 0. -1.
       -4    1    3    3    0  502  0.20949600606E+01 -0.87636394801E+02 -0.49188186810E+02  0.10052669881E+03  0.12699999809E+01 0.  1.
</event>
<event>
 5   0  0.8551000E-03  0.5991715E+03  0.7818609E-02  0.9907126E-01
       -3   -1    0    0    0  501  0.00000000000E+00  0.00000000000E+00  0.13129759957E+03  0.13129763841E+03  0.10100000352E+00 0.  1.
        3   -1    0    0  501    0  0.00000000000E+00  0.00000000000E+00 -0.68357390224E+03  0.68357390970E+03  0.10100000352E+00 0. -1.
    10030    2    1    2    0    0  0.00000000000E+00  0.00000000000E+00 -0.55227630267E+03  0.81487154811E+03  0.59917153256E+03 0.  0.
        3    1    3    3  502    0  0.26841923084E+03  0.64985493898E+02 -0.11824006735E+03  0.30042090745E+03  0.10100000352E+00 0.  1.
       -3    1    3    3    0  502 -0.26841923084E+03 -0.64985493898E+02 -0.43403623532E+03  0.51445064066E+03  0.10100000352E+00 0. -1.
</event>
<event>
 5   0  0.2126207E-02  0.6001889E+03  0.7818609E-02  0.9905014E-01
        2   -1    0    0  501    0  0.00000000000E+00  0.00000000000E+00  0.23415139538E+03  0.23415139539E+03  0.25500000920E-02 0. -1.
       -2   -1    0    0    0  501  0.00000000000E+00  0.00000000000E+00 -0.38460877412E+03  0.38460877413E+03  0.25500000920E-02 0.  1.
    10030    2    1    2    0    0  0.00000000000E+00  0.00000000000E+00 -0.15045737875E+03  0.61876016952E+03  0.60018890740E+03 0.  0.
        5    1    3    3  502    0 -0.23736729475E+03 -0.13397088978E+03 -0.20458282821E+03  0.34083376523E+03  0.46999998093E+01 0.  1.
       -5    1    3    3    0  502  0.23736729475E+03  0.13397088978E+03  0.54125449464E+02  0.27792640429E+03  0.46999998093E+01 0. -1.
</event>
<event>
 5   0  0.1337051E-02  0.6008228E+03  0.7818609E-02  0.9903700E-01
       -1   -1    0    0    0  501  0.00000000000E+00  0.00000000000E+00  0.70223867863E+02  0.70223868043E+02  0.50400001928E-02 0. -1.
        1   -1    0    0  501    0  0.00000000000E+00  0.00000000000E+00 -0.12851331443E+04  0.12851331443E+04  0.50400001928E-02 0.  1.
    10030    2    1    2    0    0  0.00000000000E+00  0.00000000000E+00 -0.12149092765E+04  0.13553570124E+04  0.60082283659E+03 0.  0.
        5    1    3    3  502    0 -0.26039515707E+03  0.10381958955E+03 -0.85084221925E+03  0.89584525285E+03  0.46999998093E+01 0.  1.
       -5    1    3    3    0  502  0.26039515707E+03 -0.10381958955E+03 -0.36406705722E+03  0.45951175953E+03  0.46999998093E+01 0. -1.
</event>
<event>
 5   0  0.1250390E-02  0.5836065E+03  0.7818609E-02  0.9940013E-01
       -1   -1    0    0    0  501  0.00000000000E+00  0.00000000000E+00  0.57419751421E+03  0.57419751423E+03  0.50400001928E-02 0. -1.
        1   -1    0    0  501    0  0.00000000000E+00  0.00000000000E+00 -0.14829240285E+03  0.14829240293E+03  0.50400001928E-02 0.  1.
    10030    2    1    2    0    0  0.00000000000E+00  0.00000000000E+00  0.42590511136E+03  0.72248991716E+03  0.58360647402E+03 0.  0.
        3    1    3    3  502    0  0.85993784876E+02 -0.76109888172E+02 -0.11914196593E+03  0.16547647676E+03  0.10100000352E+00 0.  1.
       -3    1    3    3    0  502 -0.85993784876E+02  0.76109888172E+02  0.54504707730E+03  0.55701344040E+03  0.10100000352E+00 0. -1.
</event>
<event>
 5   0  0.2141800E-02  0.6048958E+03  0.7818609E-02  0.9895301E-01
        2   -1    0    0  501    0  0.00000000000E+00  0.00000000000E+00  0.47423652839E+03  0.47423652840E+03  0.25500000920E-02 0. -1.
       -2   -1    0    0    0  501  0.00000000000E+00  0.00000000000E+00 -0.19288841221E+03  0.19288841222E+03  0.25500000920E-02 0.  1.
    10030    2    1    2    0    0  0.00000000000E+00  0.00000000000E+00  0.28134811619E+03  0.66712494062E+03  0.60489579592E+03 0.  0.
        2    1    3    3  502    0  0.11101511671E+03 -0.21540217029E+03 -0.58919894761E+02  0.24938725932E+03  0.25500000920E-02 0.  1.
       -2    1    3    3    0  502 -0.11101511671E+03  0.21540217029E+03  0.34026801095E+03  0.41773768131E+03  0.25500000920E-02 0. -1.
</event>
<event>
 5   0  0.2126207E-02  0.6254830E+03  0.7818609E-02  0.9853903E-01
        2   -1    0    0  501    0  0.00000000000E+00  0.00000000000E+00  0.48835852981E+03  0.48835852982E+03  0.25500000920E-02 0. -1.
       -2   -1    0    0    0  501  0.00000000000E+00  0.00000000000E+00 -0.20027755730E+03  0.20027755731E+03  0.25500000920E-02 0.  1.
    10030    2    1    2    0    0  0.00000000000E+00  0.00000000000E+00  0.28808097252E+03  0.68863608713E+03  0.62548302437E+03 0.  0.
        5    1    3    3  502    0  0.24117969094E+03  0.11125254832E+03 -0.37670387062E+02  0.26830192114E+03  0.46999998093E+01 0. -1.
       -5    1    3    3    0  502 -0.24117969094E+03 -0.11125254832E+03  0.32575135958E+03  0.42033416599E+03  0.46999998093E+01 0.  1.
</event>
<event>
 5   0  0.2179625E-02  0.6007157E+03  0.7818609E-02  0.9903922E-01
        2   -1    0    0  501    0  0.00000000000E+00  0.00000000000E+00  0.74346421042E+03  0.74346421042E+03  0.25500000920E-02 0. -1.
       -2   -1    0    0    0  501  0.00000000000E+00  0.00000000000E+00 -0.12134389332E+03  0.12134389335E+03  0.25500000920E-02 0.  1.
    10030    2    1    2    0    0  0.00000000000E+00  0.00000000000E+00  0.62212031710E+03  0.86480810377E+03  0.60071571263E+03 0.  0.
        1    1    3    3  502    0  0.12361056472E+02 -0.17903934969E+03  0.65778966539E+03  0.68183218490E+03  0.50400001928E-02 0. -1.
       -1    1    3    3    0  502 -0.12361056472E+02  0.17903934969E+03 -0.35669348291E+02  0.18297591887E+03  0.50400001928E-02 0.  1.
</event>
<event>
 5   0  0.2142838E-02  0.5993135E+03  0.7818609E-02  0.9906831E-01
       -2   -1    0    0    0  501  0.00000000000E+00  0.00000000000E+00  0.38917994002E+03  0.38917994002E+03  0.25500000920E-02 0.  1.
        2   -1    0    0  501    0  0.00000000000E+00  0.00000000000E+00 -0.23072664256E+03  0.23072664257E+03  0.25500000920E-02 0. -1.
    10030    2    1    2    0    0  0.00000000000E+00  0.00000000000E+00  0.15845329746E+03  0.61990658259E+03  0.59931354371E+03 0.  0.
        4    1    3    3  502    0 -0.50930993811E+02 -0.14239539231E+03  0.34680878193E+03  0.37834951830E+03  0.12699999809E+01 0.  1.
       -4    1    3    3    0  502  0.50930993811E+02  0.14239539231E+03 -0.18835548447E+03  0.24155706429E+03  0.12699999809E+01 0. -1.
</event>
<event>
 5   0  0.2126207E-02  0.5991192E+03  0.7818609E-02  0.9907235E-01
       -2   -1    0    0    0  501  0.00000000000E+00  0.00000000000E+00  0.44156298800E+02  0.44156298874E+02  0.25500000920E-02 0. -1.
        2   -1    0    0  501    0  0.00000000000E+00  0.00000000000E+00 -0.20322346417E+04  0.20322346417E+04  0.25500000920E-02 0.  1.
    10030    2    1    2    0    0  0.00000000000E+00  0.00000000000E+00 -0.19880783429E+04  0.20763909405E+04  0.59911922068E+03 0.  0.
        5    1    3    3  502    0  0.80967356079E+02  0.28111345760E+03 -0.12168563192E+04  0.12515358087E+04  0.46999998093E+01 0.  1.
       -5    1    3    3    0  502 -0.80967356079E+02 -0.28111345760E+03 -0.77122202366E+03  0.82485513187E+03  0.46999998093E+01 0. -1.
</event>
<event>
 5   0  0.2092587E-02  0.6032912E+03  0.7818609E-02  0.9898601E-01
       -2   -1    0    0    0  501  0.00000000000E+00  0.00000000000E+00  0.13371675408E+03  0.13371675410E+03  0.25500000920E-02 0.  1.
        2   -1    0    0  501    0  0.00000000000E+00  0.00000000000E+00 -0.68046865375E+03  0.68046865375E+03  0.25500000920E-02 0. -1.
    10030    2    1    2    0    0  0.00000000000E+00  0.00000000000E+00 -0.54675189967E+03  0.81418540786E+03  0.60329117230E+03 0.  0.
        3    1    3    3  502    0 -0.21829991561E+03 -0.66394875543E+02 -0.53964540362E+03  0.58590127538E+03  0.10100000352E+00 0. -1.
       -3    1    3    3    0  502  0.21829991561E+03  0.66394875543E+02 -0.71064960562E+01  0.22828413247E+03  0.10100000352E+00 0.  1.
</event>
<event>
 5   0  0.1332555E-02  0.6113735E+03  0.7818609E-02  0.9882087E-01
        1   -1    0    0  501    0  0.00000000000E+00  0.00000000000E+00  0.78825270972E+03  0.78825270973E+03  0.50400001928E-02 0.  1.
       -1   -1    0    0    0  501  0.00000000000E+00  0.00000000000E+00 -0.11854623298E+03  0.11854623309E+03  0.50400001928E-02 0. -1.
    10030    2    1    2    0    0  0.00000000000E+00  0.00000000000E+00  0.66970647674E+03  0.90679894282E+03  0.61137350099E+03 0.  0.
        2    1    3    3  502    0 -0.25454187431E+03 -0.91540204826E+02  0.12366695735E+03  0.29743014511E+03  0.25500000920E-02 0. -1.
       -2    1    3    3    0  502  0.25454187431E+03  0.91540204826E+02  0.54603951939E+03  0.60936879771E+03  0.25500000920E-02 0.  1.
</event>
<event>
 5   0  0.2126207E-02  0.5984646E+03  0.7818609E-02  0.9908597E-01
        2   -1    0    0  501    0  0.00000000000E+00  0.00000000000E+00  0.10674526705E+04  0.10674526705E+04  0.25500000920E-02 0.  1.
       -2   -1    0    0    0  501  0.00000000000E+00  0.00000000000E+00 -0.83881909699E+02  0.83881909738E+02  0.25500000920E-02 0. -1.
    10030    2    1    2    0    0  0.00000000000E+00  0.00000000000E+00  0.98357076079E+03  0.11513345802E+04  0.59846459724E+03 0.  0.
        5    1    3    3  502    0  0.53904620925E+02 -0.22881615748E+03  0.84784867275E+03  0.87984771635E+03  0.46999998093E+01 0.  1.
       -5    1    3    3    0  502 -0.53904620925E+02  0.22881615748E+03  0.13572208804E+03  0.27148686388E+03  0.46999998093E+01 0. -1.
</event>
<event>
 5   0  0.1337051E-02  0.6002473E+03  0.7818609E-02  0.9904893E-01
        1   -1    0    0  501    0  0.00000000000E+00  0.00000000000E+00  0.18047332975E+03  0.18047332982E+03  0.50400001928E-02 0.  1.
       -1   -1    0    0    0  501  0.00000000000E+00  0.00000000000E+00 -0.49909989353E+03  0.49909989356E+03  0.50400001928E-02 0. -1.
    10030    2    1    2    0    0  0.00000000000E+00  0.00000000000E+00 -0.31862656378E+03  0.67957322338E+03  0.60024734801E+03 0.  0.
        5    1    3    3  502    0  0.12845264934E+03 -0.11913292954E+02 -0.46606286103E+03  0.48361005997E+03  0.46999998093E+01 0. -1.
       -5    1    3    3    0  502 -0.12845264934E+03  0.11913292954E+02  0.14743629725E+03  0.19596316342E+03  0.46999998093E+01 0.  1.
</event>
<event>
 5   0  0.1337051E-02  0.6009799E+03  0.7818609E-02  0.9903375E-01
        1   -1    0    0  501    0  0.00000000000E+00  0.00000000000E+00  0.67162261850E+03  0.67162261852E+03  0.50400001928E-02 0. -1.
       -1   -1    0    0    0  501  0.00000000000E+00  0.00000000000E+00 -0.13444186809E+03  0.13444186819E+03  0.50400001928E-02 0.  1.
    10030    2    1    2    0    0  0.00000000000E+00  0.00000000000E+00  0.53718075041E+03  0.80606448671E+03  0.60097986499E+03 0.  0.
        5    1    3    3  502    0  0.28507528446E+03  0.85910011692E+02  0.21454511311E+03  0.36701518154E+03  0.46999998093E+01 0.  1.
       -5    1    3    3    0  502 -0.28507528446E+03 -0.85910011692E+02  0.32263563729E+03  0.43904930517E+03  0.46999998093E+01 0. -1.
</event>
<event>
 5   0  0.1337051E-02  0.5994338E+03  0.7818609E-02  0.9906582E-01
        1   -1    0    0  501    0  0.00000000000E+00  0.00000000000E+00  0.36551370061E+03  0.36551370065E+03  0.50400001928E-02 0.  1.
       -1   -1    0    0    0  501  0.00000000000E+00  0.00000000000E+00 -0.24576426396E+03  0.24576426401E+03  0.50400001928E-02 0. -1.
    10030    2    1    2    0    0  0.00000000000E+00  0.00000000000E+00  0.11974943665E+03  0.61127796466E+03  0.59943375155E+03 0.  0.
        5    1    3    3  502    0 -0.11384720963E+02  0.26942562990E+03  0.19318001518E+03  0.33175350816E+03  0.46999998093E+01 0. -1.
       -5    1    3    3    0  502  0.11384720963E+02 -0.26942562990E+03 -0.73430578522E+02  0.27952445649E+03  0.46999998093E+01 0.  1.
</event>
<event>
 5   0  0.1303808E-02  0.5980901E+03  0.7818609E-02  0.9909376E-01
        1   -1    0    0  501    0  0.00000000000E+00  0.00000000000E+00  0.41272736651E+03  0.41272736654E+03  0.50400001928E-02 0. -1.
       -1   -1    0    0    0  501  0.00000000000E+00  0.00000000000E+00 -0.21667559978E+03  0.21667559984E+03  0.50400001928E-02 0.  1.
    10030    2    1    2    0    0  0.00000000000E+00  0.00000000000E+00  0.19605176673E+03  0.62940296638E+03  0.59809012603E+03 0.  0.
        4    1    3    3  502    0  0.24760222143E+03 -0.82997563445E+02 -0.55310834509E+02  0.26693886362E+03  0.12699999809E+01 0.  1.
       -4    1    3    3    0  502 -0.24760222143E+03  0.82997563445E+02  0.25136260124E+03  0.36246410277E+03  0.12699999809E+01 0. -1.
</event>
<event>
 5   0  0.2092587E-02  0.5995427E+03  0.7818609E-02  0.9906355E-01
        2   -1    0    0  501    0  0.00000000000E+00  0.00000000000E+00  0.73030407686E+03  0.73030407687E+03  0.25500000920E-02 0. -1.
       -2   -1    0    0    0  501  0.00000000000E+00  0.00000000000E+00 -0.12304856978E+03  0.12304856980E+03  0.25500000920E-02 0.  1.
    10030    2    1    2    0    0  0.00000000000E+00  0.00000000000E+00  0.60725550709E+03  0.85335264667E+03  0.59954273300E+03 0.  0.
        3    1    3    3  502    0  0.27013532244E+03  0.22982832063E+02  0.48569035227E+03  0.55623415168E+03  0.10100000352E+00 0. -1.
       -3    1    3    3    0  502 -0.27013532244E+03 -0.22982832063E+02  0.12156515481E+03  0.29711849499E+03  0.10100000352E+00 0.  1.
</event>
<event>
 5   0  0.8551000E-03  0.5973734E+03  0.7818609E-02  0.9910870E-01
        4   -1    0    0  501    0  0.00000000000E+00  0.00000000000E+00  0.77895419818E+03  0.77895523348E+03  0.12699999809E+01 0. -1.
       -4   -1    0    0    0  501  0.00000000000E+00  0.00000000000E+00 -0.11452553997E+03  0.11453258142E+03  0.12699999809E+01 0.  1.
    10030    2    1    2    0    0  0.00000000000E+00  0.00000000000E+00  0.66442865821E+03  0.89348781490E+03  0.59737344561E+03 0.  0.
        2    1    3    3  502    0  0.80606936942E+01 -0.14113790411E+03 -0.61323385906E+02  0.15409555615E+03  0.25500000920E-02 0.  1.
       -2    1    3    3    0  502 -0.80606936942E+01  0.14113790411E+03  0.72575204411E+03  0.73939225875E+03  0.25500000920E-02 0. -1.
</event>
<event>
 5   0  0.1303808E-02  0.5996149E+03  0.7818609E-02  0.9906205E-01
       -1   -1    0    0    0  501  0.00000000000E+00  0.00000000000E+00  0.23866183918E+03  0.23866183923E+03  0.50400001928E-02 0.  1.
        1   -1    0    0  501    0  0.00000000000E+00  0.00000000000E+00 -0.37661869165E+03  0.37661869168E+03  0.50400001928E-02 0. -1.
    10030    2    1    2    0    0  0.00000000000E+00  0.00000000000E+00 -0.13795685247E+03  0.61528053091E+03  0.59961490857E+03 0.  0.
        4    1    3    3  502    0 -0.16830893672E+03  0.22772133910E+03 -0.17002966063E+03  0.33029775181E+03  0.12699999809E+01 0.  1.
       -4    1    3    3    0  502  0.16830893672E+03 -0.22772133910E+03  0.32072808157E+02  0.28498277910E+03  0.12699999809E+01 0. -1.
</event>
<event>
 5   0  0.2141800E-02  0.6020593E+03  0.7818609E-02  0.9901143E-01
       -2   -1    0    0    0  501  0.00000000000E+00  0.00000000000E+00  0.55672343170E+03  0.55672343171E+03  0.25500000920E-02 0. -1.
        2   -1    0    0  501    0  0.00000000000E+00  0.00000000000E+00 -0.16277175008E+03  0.16277175010E+03  0.25500000920E-02 0.  1.
    10030    2    1    2    0    0  0.00000000000E+00  0.00000000000E+00  0.39395168163E+03  0.71949518181E+03  0.60205929043E+03 0.  0.
        2    1    3    3  502    0 -0.22184682085E+03  0.10962238816E+02  0.43978915046E+03  0.49269735078E+03  0.25500000920E-02 0. -1.
       -2    1    3    3    0  502  0.22184682085E+03 -0.10962238816E+02 -0.45837468832E+02  0.22679783102E+03  0.25500000920E-02 0.  1.
</event>
<event>
 5   0  0.2141800E-02  0.6014948E+03  0.7818609E-02  0.9902310E-01
       -2   -1    0    0    0  501  0.00000000000E+00  0.00000000000E+00  0.38994179804E+03  0.38994179805E+03  0.25500000920E-02 0. -1.
        2   -1    0    0  501    0  0.00000000000E+00  0.00000000000E+00 -0.23195509130E+03  0.23195509131E+03  0.25500000920E-02 0.  1.
    10030    2    1    2    0    0  0.00000000000E+00  0.00000000000E+00  0.15798670674E+03  0.62189688936E+03  0.60149475599E+03 0.  0.
        2    1    3    3  502    0  0.10541707671E+02  0.25311163650E+03 -0.88592000009E+02  0.26837505586E+03  0.25500000920E-02 0.  1.
       -2    1    3    3    0  502 -0.10541707671E+02 -0.25311163650E+03  0.24657870675E+03  0.35352183350E+03  0.25500000920E-02 0. -1.
</event>
<event>
 5   0  0.1303808E-02  0.6012141E+03  0.7818609E-02  0.9902890E-01
       -1   -1    0    0    0  501  0.00000000000E+00  0.00000000000E+00  0.41945007352E+03  0.41945007355E+03  0.50400001928E-02 0. -1.
        1   -1    0    0  501    0  0.00000000000E+00  0.00000000000E+00 -0.21543591346E+03  0.21543591352E+03  0.50400001928E-02 0.  1.
    10030    2    1    2    0    0  0.00000000000E+00  0.00000000000E+00  0.20401416006E+03  0.63488598707E+03  0.60121413745E+03 0.  0.
        4    1    3    3  502    0 -0.47600979242E+02 -0.10880444089E+03 -0.18960892906E+03  0.22373515250E+03  0.12699999809E+01 0.  1.
       -4    1    3    3    0  502  0.47600979242E+02  0.10880444089E+03  0.39362308912E+03  0.41115083457E+03  0.12699999809E+01 0. -1.
</event>
<event>
 5   0  0.2126207E-02  0.6003148E+03  0.7818609E-02  0.9904753E-01
       -2   -1    0    0    0  501  0.00000000000E+00  0.00000000000E+00  0.47658134147E+03  0.47658134148E+03  0.25500000920E-02 0.  1.
        2   -1    0    0  501    0  0.00000000000E+00  0.00000000000E+00 -0.18904319554E+03  0.18904319556E+03  0.25500000920E-02 0. -1.
    10030    2    1    2    0    0  0.00000000000E+00  0.00000000000E+00  0.28753814593E+03  0.66562453704E+03  0.60031478321E+03 0.  0.
        5    1    3    3  502    0  0.20120825225E+03 -0.22197187333E+03  0.12405573944E+03  0.32429645359E+03  0.46999998093E+01 0.  1.
       -5    1    3    3    0  502 -0.20120825225E+03  0.22197187333E+03  0.16348240649E+03  0.34132808345E+03  0.46999998093E+01 0. -1.
</event>
<event>
 5   0  0.8551000E-03  0.6350662E+03  0.7818609E-02  0.9835212E-01
        3   -1    0    0  501    0  0.00000000000E+00  0.00000000000E+00  0.45025018037E+03  0.45025019170E+03  0.10100000352E+00 0.  1.
       -3   -1    0    0    0  501  0.00000000000E+00  0.00000000000E+00 -0.22393605140E+03  0.22393607417E+03  0.10100000352E+00 0. -1.
    10030    2    1    2    0    0  0.00000000000E+00  0.00000000000E+00  0.22631412898E+03  0.67418626588E+03  0.63506616673E+03 0.  0.
        5    1    3    3  502    0  0.16142931747E+03  0.37098406025E+02  0.40071050273E+03  0.43362047146E+03  0.46999998093E+01 0.  1.
       -5    1    3    3    0  502 -0.16142931747E+03 -0.37098406025E+02 -0.17439637376E+03  0.24056579442E+03  0.46999998093E+01 0. -1.
</event>
<event>
 5   0  0.1250390E-02  0.6007509E+03  0.7818609E-02  0.9903849E-01
       -1   -1    0    0    0  501  0.00000000000E+00  0.00000000000E+00  0.70081027625E+02  0.70081027806E+02  0.50400001928E-02 0.  1.
        1   -1    0    0  501    0  0.00000000000E+00  0.00000000000E+00 -0.12874440408E+04  0.12874440408E+04  0.50400001928E-02 0. -1.
    10030    2    1    2    0    0  0.00000000000E+00  0.00000000000E+00 -0.12173630131E+04  0.13575250686E+04  0.60075086855E+03 0.  0.
        3    1    3    3  502    0  0.16150645218E+03  0.50483262065E+02 -0.11694935842E+04  0.11816717596E+04  0.10100000352E+00 0. -1.
       -3    1    3    3    0  502 -0.16150645218E+03 -0.50483262065E+02 -0.47869428974E+02  0.17585330897E+03  0.10100000352E+00 0.  1.
</event>
<event>
 5   0  0.2142838E-02  0.5985129E+03  0.7818609E-02  0.9908496E-01
       -2   -1    0    0    0  501  0.00000000000E+00  0.00000000000E+00  0.24346386859E+03  0.24346386861E+03  0.25500000920E-02 0.  1.
        2   -1    0    0  501    0  0.00000000000E+00  0.00000000000E+00 -0.36783457375E+03  0.36783457376E+03  0.25500000920E-02 0. -1.
    10030    2    1    2    0    0  0.00000000000E+00  0.00000000000E+00 -0.12437070515E+03  0.61129844237E+03  0.59851291827E+03 0.  0.
        4    1    3    3  502    0  0.11775295176E+03  0.17574374264E+03  0.15399915020E+03  0.26166576369E+03  0.12699999809E+01 0.  1.
       -4    1    3    3    0  502 -0.11775295176E+03 -0.17574374264E+03 -0.27836985535E+03  0.34963267867E+03  0.12699999809E+01 0. -1.
</event>
<event>
 5   0  0.8551000E-03  0.5997964E+03  0.7818609E-02  0.9905828E-01
        3   -1    0    0  501    0  0.00000000000E+00  0.00000000000E+00  0.85620846034E+03  0.85620846630E+03  0.10100000352E+00 0. -1.
       -3   -1    0    0    0  501  0.00000000000E+00  0.00000000000E+00 -0.10504324668E+03  0.10504329524E+03  0.10100000352E+00 0.  1.
    10030    2    1    2    0    0  0.00000000000E+00  0.00000000000E+00  0.75116521366E+03  0.96125176153E+03  0.59979644117E+03 0.  0.
        2    1    3    3  502    0 -0.18949112349E+03 -0.18391901033E+03  0.60339212964E+03  0.65864645323E+03  0.25500000920E-02 0. -1.
       -2    1    3    3    0  502  0.18949112349E+03  0.18391901033E+03  0.14777308402E+03  0.30260530830E+03  0.25500000920E-02 0.  1.
</event>
<event>
 5   0  0.8551000E-03  0.5980947E+03  0.7818609E-02  0.9909367E-01
       -4   -1    0    0    0  501  0.00000000000E+00  0.00000000000E+00  0.49209860627E+03  0.49210024506E+03  0.12699999809E+01 0.  1.
        4   -1    0    0  501    0  0.00000000000E+00  0.00000000000E+00 -0.18172629279E+03  0.18173073045E+03  0.12699999809E+01 0. -1.
    10030    2    1    2    0    0  0.00000000000E+00  0.00000000000E+00  0.31037231348E+03  0.67383097551E+03  0.59809465019E+03 0.  0.
        2    1    3    3  502    0 -0.10248186032E+03 -0.27952930063E+03  0.12351722882E+03  0.32232850856E+03  0.25500000920E-02 0. -1.
       -2    1    3    3    0  502  0.10248186032E+03  0.27952930063E+03  0.18685508466E+03  0.35150246696E+03  0.25500000920E-02 0.  1.
</event>
<event>
 5   0  0.1276705E-02  0.5997131E+03  0.7818609E-02  0.9906001E-01
       -1   -1    0    0    0  501  0.00000000000E+00  0.00000000000E+00  0.15364695596E+03  0.15364695604E+03  0.50400001928E-02 0. -1.
        1   -1    0    0  501    0  0.00000000000E+00  0.00000000000E+00 -0.58519842696E+03  0.58519842698E+03  0.50400001928E-02 0.  1.
    10030    2    1    2    0    0  0.00000000000E+00  0.00000000000E+00 -0.43155147100E+03  0.73884538302E+03  0.59971312132E+03 0.  0.
        1    1    3    3  502    0  0.26412757509E+03 -0.23425760595E+02 -0.38826344423E+03  0.47017086717E+03  0.50400001928E-02 0.  1.
       -1    1    3    3    0  502 -0.26412757509E+03  0.23425760595E+02 -0.43288026768E+02  0.26867451585E+03  0.50400001928E-02 0. -1.
</event>
<event>
 5   0  0.1276705E-02  0.6022645E+03  0.7818609E-02  0.9900719E-01
        1   -1    0    0  501    0  0.00000000000E+00  0.00000000000E+00  0.33769050952E+03  0.33769050956E+03  0.50400001928E-02 0.  1.
       -1   -1    0    0    0  501  0.00000000000E+00  0.00000000000E+00 -0.26853174163E+03  0.26853174168E+03  0.50400001928E-02 0. -1.
    10030    2    1    2    0    0  0.00000000000E+00  0.00000000000E+00  0.69158767885E+02  0.60622225124E+03  0.60226446244E+03 0.  0.
        1    1    3    3  502    0 -0.70985166008E+02  0.28088501174E+03 -0.48090335294E+02  0.29368003675E+03  0.50400001928E-02 0. -1.
       -1    1    3    3    0  502  0.70985166008E+02 -0.28088501174E+03  0.11724910318E+03  0.31254221448E+03  0.50400001928E-02 0.  1.
</event>
<event>
 5   0  0.1250390E-02  0.6002074E+03  0.7818609E-02  0.9904976E-01
        1   -1    0    0  501    0  0.00000000000E+00  0.00000000000E+00  0.27057595130E+03  0.27057595135E+03  0.50400001928E-02 0.  1.
       -1   -1    0    0    0  501  0.00000000000E+00  0.00000000000E+00 -0.33285384411E+03  0.33285384415E+03  0.50400001928E-02 0. -1.
    10030    2    1    2    0    0  0.00000000000E+00  0.00000000000E+00 -0.62277892810E+02  0.60342979550E+03  0.60020744927E+03 0.  0.
        3    1    3    3  502    0 -0.14226424271E+03 -0.17966828223E+03  0.16365997731E+03  0.28161037759E+03  0.10100000352E+00 0.  1.
       -3    1    3    3    0  502  0.14226424271E+03  0.17966828223E+03 -0.22593787011E+03  0.32181941791E+03  0.10100000352E+00 0. -1.
</event>
<event>
 5   0  0.2142838E-02  0.6010682E+03  0.7818609E-02  0.9903192E-01
       -2   -1    0    0    0  501  0.00000000000E+00  0.00000000000E+00  0.14863513894E+03  0.14863513896E+03  0.25500000920E-02 0. -1.
        2   -1    0    0  501    0  0.00000000000E+00  0.00000000000E+00 -0.60766750598E+03  0.60766750599E+03  0.25500000920E-02 0.  1.
    10030    2    1    2    0    0  0.00000000000E+00  0.00000000000E+00 -0.45903236704E+03  0.75630264495E+03  0.60106819643E+03 0.  0.
        4    1    3    3  502    0 -0.15689342366E+03  0.42859049142E+02 -0.54750296238E+03  0.57115107564E+03  0.12699999809E+01 0.  1.
       -4    1    3    3    0  502  0.15689342366E+03 -0.42859049142E+02  0.88470595339E+02  0.18515156932E+03  0.12699999809E+01 0. -1.
</event>
<event>
 5   0  0.2179625E-02  0.5992612E+03  0.7818609E-02  0.9906940E-01
        2   -1    0    0  501    0  0.00000000000E+00  0.00000000000E+00  0.55712596346E+03  0.55712596347E+03  0.25500000920E-02 0. -1.
       -2   -1    0    0    0  501  0.00000000000E+00  0.00000000000E+00 -0.16114575842E+03  0.16114575844E+03  0.25500000920E-02 0.  1.
    10030    2    1    2    0    0  0.00000000000E+00  0.00000000000E+00  0.39598020504E+03  0.71827172191E+03  0.59926116486E+03 0.  0.
        1    1    3    3  502    0  0.19856017616E+03 -0.62497198162E+02 -0.60324443567E+02  0.21672812888E+03  0.50400001928E-02 0. -1.
       -1    1    3    3    0  502 -0.19856017616E+03  0.62497198162E+02  0.45630464861E+03  0.50154359302E+03  0.50400001928E-02 0.  1.
</event>
<event>
 5   0  0.8551000E-03  0.6000624E+03  0.7818609E-02  0.9905277E-01
       -4   -1    0    0    0  501  0.00000000000E+00  0.00000000000E+00  0.17856824178E+03  0.17857275792E+03  0.12699999809E+01 0.  1.
        4   -1    0    0  501    0  0.00000000000E+00  0.00000000000E+00 -0.50410216857E+03  0.50410376834E+03  0.12699999809E+01 0. -1.
    10030    2    1    2    0    0  0.00000000000E+00  0.00000000000E+00 -0.32553392679E+03  0.68267652626E+03  0.60006241510E+03 0.  0.
        2    1    3    3  502    0  0.11344402116E+03  0.19292109592E+03  0.64570823137E+02  0.23293236442E+03  0.25500000920E-02 0.  1.
       -2    1    3    3    0  502 -0.11344402116E+03 -0.19292109592E+03 -0.39010474993E+03  0.44974416184E+03  0.25500000920E-02 0. -1.
</event>
<event>
 5   0  0.1332555E-02  0.5906439E+03  0.7818609E-02  0.9925009E-01
       -1   -1    0    0    0  501  0.00000000000E+00  0.00000000000E+00  0.99415176136E+02  0.99415176263E+02  0.50400001928E-02 0.  1.
        1   -1    0    0  501    0  0.00000000000E+00  0.00000000000E+00 -0.87728121757E+03  0.87728121758E+03  0.50400001928E-02 0. -1.
    10030    2    1    2    0    0  0.00000000000E+00  0.00000000000E+00 -0.77786604143E+03  0.97669639384E+03  0.59064394294E+03 0.  0.
        2    1    3    3  502    0 -0.10887458903E+03  0.99175005638E+02  0.34358621782E+02  0.15122788359E+03  0.25500000920E-02 0.  1.
       -2    1    3    3    0  502  0.10887458903E+03 -0.99175005638E+02 -0.81222466321E+03  0.82546851025E+03  0.25500000920E-02 0. -1.
</event>
<event>
 5   0  0.8551000E-03  0.5999612E+03  0.7818609E-02  0.9905487E-01
        3   -1    0    0  501    0  0.00000000000E+00  0.00000000000E+00  0.56435804376E+03  0.56435805280E+03  0.10100000352E+00 0.  1.
       -3   -1    0    0    0  501  0.00000000000E+00  0.00000000000E+00 -0.15945256582E+03  0.15945259780E+03  0.10100000352E+00 0. -1.
    10030    2    1    2    0    0  0.00000000000E+00  0.00000000000E+00  0.40490547794E+03  0.72381065060E+03  0.59996117529E+03 0.  0.
        3    1    3    3  502    0 -0.17453174770E+03  0.16755932886E+03  0.41640567195E+03  0.48159231044E+03  0.10100000352E+00 0.  1.
       -3    1    3    3    0  502  0.17453174770E+03 -0.16755932886E+03 -0.11500194009E+02  0.24221834016E+03  0.10100000352E+00 0. -1.
</event>
<event>
 5   0  0.1337051E-02  0.5990906E+03  0.7818609E-02  0.9907295E-01
       -1   -1    0    0    0  501  0.00000000000E+00  0.00000000000E+00  0.61559362476E+02  0.61559362682E+02  0.50400001928E-02 0.  1.
        1   -1    0    0  501    0  0.00000000000E+00  0.00000000000E+00 -0.14575749632E+04  0.14575749632E+04  0.50400001928E-02 0. -1.
    10030    2    1    2    0    0  0.00000000000E+00  0.00000000000E+00 -0.13960156007E+04  0.15191343259E+04  0.59909059635E+03 0.  0.
        5    1    3    3  502    0 -0.10890088680E+03 -0.27332234493E+03 -0.84011726548E+03  0.89015932121E+03  0.46999998093E+01 0.  1.
       -5    1    3    3    0  502  0.10890088680E+03  0.27332234493E+03 -0.55589833524E+03  0.62897500467E+03  0.46999998093E+01 0. -1.
</event>
<event>
 5   0  0.2142838E-02  0.5924639E+03  0.7818609E-02  0.9921166E-01
        2   -1    0    0  501    0  0.00000000000E+00  0.00000000000E+00  0.59298115216E+03  0.59298115216E+03  0.25500000920E-02 0.  1.
       -2   -1    0    0    0  501  0.00000000000E+00  0.00000000000E+00 -0.14798676637E+03  0.14798676639E+03  0.25500000920E-02 0. -1.
    10030    2    1    2    0    0  0.00000000000E+00  0.00000000000E+00  0.44499438579E+03  0.74096791855E+03  0.59246388324E+03 0.  0.
        4    1    3    3  502    0  0.14186932661E+03  0.19196484447E+03  0.44189481639E+03  0.50224500893E+03  0.12699999809E+01 0.  1.
       -4    1    3    3    0  502 -0.14186932661E+03 -0.19196484447E+03  0.30995694002E+01  0.23872290962E+03  0.12699999809E+01 0. -1.
</event>
<event>
 5   0  0.1250390E-02  0.6021801E+03  0.7818609E-02  0.9900893E-01
        1   -1    0    0  501    0  0.00000000000E+00  0.00000000000E+00  0.50684174675E+03  0.50684174678E+03  0.50400001928E-02 0.  1.
       -1   -1    0    0    0  501  0.00000000000E+00  0.00000000000E+00 -0.17886295045E+03  0.17886295053E+03  0.50400001928E-02 0. -1.
    10030    2    1    2    0    0  0.00000000000E+00  0.00000000000E+00  0.32797879630E+03  0.68570469730E+03  0.60218007363E+03 0.  0.
        3    1    3    3  502    0  0.22889926305E+03 -0.18553050874E+03  0.23454087323E+03  0.37659776117E+03  0.10100000352E+00 0.  1.
       -3    1    3    3    0  502 -0.22889926305E+03  0.18553050874E+03  0.93437923066E+02  0.30910693613E+03  0.10100000352E+00 0. -1.
</event>
<event>
 5   0  0.2142838E-02  0.6015652E+03  0.7818609E-02  0.9902164E-01
       -2   -1    0    0    0  501  0.00000000000E+00  0.00000000000E+00  0.98547040203E+02  0.98547040236E+02  0.25500000920E-02 0.  1.
        2   -1    0    0  501    0  0.00000000000E+00  0.00000000000E+00 -0.91804063282E+03  0.91804063283E+03  0.25500000920E-02 0. -1.
    10030    2    1    2    0    0  0.00000000000E+00  0.00000000000E+00 -0.81949359262E+03  0.10165876731E+04  0.60156524890E+03 0.  0.
        4    1    3    3  502    0 -0.25247182241E+03 -0.10814818200E+03 -0.20256616206E+03  0.34128098876E+03  0.12699999809E+01 0.  1.
       -4    1    3    3    0  502  0.25247182241E+03  0.10814818200E+03 -0.61692743056E+03  0.67530668430E+03  0.12699999809E+01 0. -1.
</event>
<event>
 5   0  0.1276705E-02  0.6012705E+03  0.7818609E-02  0.9902774E-01
       -1   -1    0    0    0  501  0.00000000000E+00  0.00000000000E+00  0.11123070469E+03  0.11123070480E+03  0.50400001928E-02 0. -1.
        1   -1    0    0  501    0  0.00000000000E+00  0.00000000000E+00 -0.81255946656E+03  0.81255946658E+03  0.50400001928E-02 0.  1.
    10030    2    1    2    0    0  0.00000000000E+00  0.00000000000E+00 -0.70132876187E+03  0.92379017138E+03  0.60127052855E+03 0.  0.
        1    1    3    3  502    0 -0.19461127116E+03  0.97406956849E+01 -0.70240577841E+03  0.72893230522E+03  0.50400001928E-02 0.  1.
       -1    1    3    3    0  502  0.19461127116E+03 -0.97406956849E+01  0.10770165396E+01  0.19485786616E+03  0.50400001928E-02 0. -1.
</event>
<event>
 5   0  0.1276705E-02  0.5985634E+03  0.7818609E-02  0.9908391E-01
       -1   -1    0    0    0  501  0.00000000000E+00  0.00000000000E+00  0.46316658240E+03  0.46316658243E+03  0.50400001928E-02 0.  1.
        1   -1    0    0  501    0  0.00000000000E+00  0.00000000000E+00 -0.19338516539E+03  0.19338516545E+03  0.50400001928E-02 0. -1.
    10030    2    1    2    0    0  0.00000000000E+00  0.00000000000E+00  0.26978141701E+03  0.65655174788E+03  0.59856343413E+03 0.  0.
        1    1    3    3  502    0 -0.10331842456E+03 -0.25485339647E+03  0.53632806864E+01  0.27505220477E+03  0.50400001928E-02 0. -1.
       -1    1    3    3    0  502  0.10331842456E+03  0.25485339647E+03  0.26441813632E+03  0.38149954310E+03  0.50400001928E-02 0.  1.
</event>
<event>
 5   0  0.2142838E-02  0.5992796E+03  0.7818609E-02  0.9906902E-01
        2   -1    0    0  501    0  0.00000000000E+00  0.00000000000E+00  0.47194416591E+03  0.47194416591E+03  0.25500000920E-02 0.  1.
       -2   -1    0    0    0  501  0.00000000000E+00  0.00000000000E+00 -0.19024285456E+03  0.19024285458E+03  0.25500000920E-02 0. -1.
    10030    2    1    2    0    0  0.00000000000E+00  0.00000000000E+00  0.28170131134E+03  0.66218702049E+03  0.59927958525E+03 0.  0.
        4    1    3    3  502    0  0.33926442330E+02  0.65902214309E+02 -0.17994966556E+03  0.19462168526E+03  0.12699999809E+01 0. -1.
       -4    1    3    3    0  502 -0.33926442330E+02 -0.65902214309E+02  0.46165097690E+03  0.46756533523E+03  0.12699999809E+01 0.  1.
</event>
<event>
 5   0  0.2179625E-02  0.5856890E+03  0.7818609E-02  0.9935550E-01
        2   -1    0    0  501    0  0.00000000000E+00  0.00000000000E+00  0.10278116278E+04  0.10278116278E+04  0.25500000920E-02 0. -1.
       -2   -1    0    0    0  501  0.00000000000E+00  0.00000000000E+00 -0.83437375131E+02  0.83437375170E+02  0.25500000920E-02 0.  1.
    10030    2    1    2    0    0  0.00000000000E+00  0.00000000000E+00  0.94437425271E+03  0.11112490030E+04  0.58568901093E+03 0.  0.
        1    1    3    3  502    0 -0.67696650567E+02  0.95890207515E+02 -0.36851384878E+02  0.12302761067E+03  0.50400001928E-02 0.  1.
       -1    1    3    3    0  502  0.67696650567E+02 -0.95890207515E+02  0.98122563759E+03  0.98822139235E+03  0.50400001928E-02 0. -1.
</event>
<event>
 5   0  0.2142838E-02  0.5976650E+03  0.7818609E-02  0.9910262E-01
       -2   -1    0    0    0  501  0.00000000000E+00  0.00000000000E+00  0.41581123804E+03  0.41581123805E+03  0.25500000920E-02 0. -1.
        2   -1    0    0  501    0  0.00000000000E+00  0.00000000000E+00 -0.21476297251E+03  0.21476297252E+03  0.25500000920E-02 0.  1.
    10030    2    1    2    0    0  0.00000000000E+00  0.00000000000E+00  0.20104826554E+03  0.63057421057E+03  0.59766498137E+03 0.  0.
        4    1    3    3  502    0 -0.20124341093E+03  0.38136749336E+01  0.33356123205E+03  0.38958716994E+03  0.12699999809E+01 0. -1.
       -4    1    3    3    0  502  0.20124341093E+03 -0.38136749336E+01 -0.13251296651E+03  0.24098704063E+03  0.12699999809E+01 0.  1.
</event>
<event>
 5   0  0.2142838E-02  0.5956504E+03  0.7818609E-02  0.9914471E-01
        2   -1    0    0  501    0  0.00000000000E+00  0.00000000000E+00  0.20428615977E+03  0.20428615979E+03  0.25500000920E-02 0. -1.
       -2   -1    0    0    0  501  0.00000000000E+00  0.00000000000E+00 -0.43419418417E+03  0.43419418418E+03  0.25500000920E-02 0.  1.
    10030    2    1    2    0    0  0.00000000000E+00  0.00000000000E+00 -0.22990802440E+03  0.63848034397E+03  0.59565044275E+03 0.  0.
        4    1    3    3  502    0  0.19981633080E+03 -0.13599896276E+03  0.71557251590E+02  0.25208002118E+03  0.12699999809E+01 0. -1.
       -4    1    3    3    0  502 -0.19981633080E+03  0.13599896276E+03 -0.30146527599E+03  0.38640032279E+03  0.12699999809E+01 0.  1.
</event>
<event>
 5   0  0.1276705E-02  0.5992344E+03  0.7818609E-02  0.9906996E-01
       -1   -1    0    0    0  501  0.00000000000E+00  0.00000000000E+00  0.15657902341E+03  0.15657902349E+03  0.50400001928E-02 0. -1.
        1   -1    0    0  501    0  0.00000000000E+00  0.00000000000E+00 -0.57332368240E+03  0.57332368242E+03  0.50400001928E-02 0.  1.
    10030    2    1    2    0    0  0.00000000000E+00  0.00000000000E+00 -0.41674465899E+03  0.72990270592E+03  0.59923438595E+03 0.  0.
        1    1    3    3  502    0 -0.21728233018E+03 -0.15028439212E+03 -0.36227167909E+02  0.26666349064E+03  0.50400001928E-02 0. -1.
       -1    1    3    3    0  502  0.21728233018E+03  0.15028439212E+03 -0.38051749108E+03  0.46323921527E+03  0.50400001928E-02 0.  1.
</event>
<event>
 5   0  0.1250390E-02  0.6011872E+03  0.7818609E-02  0.9902946E-01
       -1   -1    0    0    0  501  0.00000000000E+00  0.00000000000E+00  0.32099297292E+03  0.32099297296E+03  0.50400001928E-02 0. -1.
        1   -1    0    0  501    0  0.00000000000E+00  0.00000000000E+00 -0.28149063949E+03  0.28149063954E+03  0.50400001928E-02 0.  1.
    10030    2    1    2    0    0  0.00000000000E+00  0.00000000000E+00  0.39502333427E+02  0.60248361249E+03  0.60118721624E+03 0.  0.
        3    1    3    3  502    0  0.17968801270E+03 -0.12485737768E+03  0.22630082743E+03  0.31478440458E+03  0.10100000352E+00 0. -1.
       -3    1    3    3    0  502 -0.17968801270E+03  0.12485737768E+03 -0.18679849400E+03  0.28769920791E+03  0.10100000352E+00 0.  1.
</event>
<event>
 5   0  0.2141800E-02  0.6049902E+03  0.7818609E-02  0.9895107E-01
        2   -1    0    0  501    0  0.00000000000E+00  0.00000000000E+00  0.76483997586E+03  0.76483997587E+03  0.25500000920E-02 0.  1.
       -2   -1    0    0    0  501  0.00000000000E+00  0.00000000000E+00 -0.11963715961E+03  0.11963715964E+03  0.25500000920E-02 0. -1.
    10030    2    1    2    0    0  0.00000000000E+00  0.00000000000E+00  0.64520281625E+03  0.88447713550E+03  0.60499018928E+03 0.  0.
        2    1    3    3  502    0  0.10582286464E+01  0.39843279988E+02  0.76098427151E+03  0.76202734091E+03  0.25500000920E-02 0.  1.
       -2    1    3    3    0  502 -0.10582286464E+01 -0.39843279988E+02 -0.11578145526E+03  0.12244979459E+03  0.25500000920E-02 0. -1.
</event>
<event>
 5   0  0.8551000E-03  0.5979840E+03  0.7818609E-02  0.9909597E-01
       -3   -1    0    0    0  501  0.00000000000E+00  0.00000000000E+00  0.88956612728E+02  0.88956670065E+02  0.10100000352E+00 0. -1.
        3   -1    0    0  501    0  0.00000000000E+00  0.00000000000E+00 -0.10049414818E+04  0.10049414869E+04  0.10100000352E+00 0.  1.
    10030    2    1    2    0    0  0.00000000000E+00  0.00000000000E+00 -0.91598486911E+03  0.10938981570E+04  0.59798402771E+03 0.  0.
        1    1    3    3  502    0 -0.42145917052E+02 -0.27277481944E+03 -0.66827433448E+03  0.72303040503E+03  0.50400001928E-02 0.  1.
       -1    1    3    3    0  502  0.42145917052E+02  0.27277481944E+03 -0.24771053463E+03  0.37086775195E+03  0.50400001928E-02 0. -1.
</event>
<event>
 5   0  0.1332555E-02  0.6010301E+03  0.7818609E-02  0.9903271E-01
        1   -1    0    0  501    0  0.00000000000E+00  0.00000000000E+00  0.33193371277E+03  0.33193371280E+03  0.50400001928E-02 0.  1.
       -1   -1    0    0    0  501  0.00000000000E+00  0.00000000000E+00 -0.27207023631E+03  0.27207023635E+03  0.50400001928E-02 0. -1.
    10030    2    1    2    0    0  0.00000000000E+00  0.00000000000E+00  0.59863476458E+02  0.60400394916E+03  0.60103006147E+03 0.  0.
        2    1    3    3  502    0 -0.17178406642E+03  0.96880236961E+02  0.25779965050E+03  0.32458620672E+03  0.25500000920E-02 0.  1.
       -2    1    3    3    0  502  0.17178406642E+03 -0.96880236961E+02 -0.19793617404E+03  0.27941774244E+03  0.25500000920E-02 0. -1.
</event>
<event>
 5   0  0.1332555E-02  0.6008317E+03  0.7818609E-02  0.9903682E-01
        1   -1    0    0  501    0  0.00000000000E+00  0.00000000000E+00  0.65853505316E+03  0.65853505318E+03  0.50400001928E-02 0. -1.
       -1   -1    0    0    0  501  0.00000000000E+00  0.00000000000E+00 -0.13704612920E+03  0.13704612930E+03  0.50400001928E-02 0.  1.
    10030    2    1    2    0    0  0.00000000000E+00  0.00000000000E+00  0.52148892396E+03  0.79558118248E+03  0.60083169033E+03 0.  0.
        2    1    3    3  502    0  0.51152146225E+02 -0.17258040024E+03 -0.57734051604E+02  0.18903374654E+03  0.25500000920E-02 0.  1.
       -2    1    3    3    0  502 -0.51152146225E+02  0.17258040024E+03  0.57922297556E+03  0.60654743593E+03  0.25500000920E-02 0. -1.
</event>
<event>
 5   0  0.1303808E-02  0.5861335E+03  0.7818609E-02  0.9934600E-01
       -1   -1    0    0    0  501  0.00000000000E+00  0.00000000000E+00  0.11257375696E+03  0.11257375707E+03  0.50400001928E-02 0. -1.
        1   -1    0    0  501    0  0.00000000000E+00  0.00000000000E+00 -0.76294965890E+03  0.76294965892E+03  0.50400001928E-02 0.  1.
    10030    2    1    2    0    0  0.00000000000E+00  0.00000000000E+00 -0.65037590194E+03  0.87552341599E+03  0.58613346443E+03 0.  0.
        4    1    3    3  502    0  0.12842906118E+02  0.28002899999E+03 -0.19751739828E+03  0.34292261022E+03  0.12699999809E+01 0. -1.
       -4    1    3    3    0  502 -0.12842906118E+02 -0.28002899999E+03 -0.45285850366E+03  0.53260080577E+03  0.12699999809E+01 0.  1.
</event>
<event>
 5   0  0.2141800E-02  0.6009335E+03  0.7818609E-02  0.9903471E-01
       -2   -1    0    0    0  501  0.00000000000E+00  0.00000000000E+00  0.74363133872E+02  0.74363133915E+02  0.25500000920E-02 0. -1.
        2   -1    0    0  501    0  0.00000000000E+00  0.00000000000E+00 -0.12140459285E+04  0.12140459285E+04  0.25500000920E-02 0.  1.
    10030    2    1    2    0    0  0.00000000000E+00  0.00000000000E+00 -0.11396827946E+04  0.12884090624E+04  0.60093347363E+03 0.  0.
        2    1    3    3  502    0  0.85787484196E+01 -0.64560551768E+02  0.59047666782E+02  0.87910674710E+02  0.25500000920E-02 0. -1.
       -2    1    3    3    0  502 -0.85787484196E+01  0.64560551768E+02 -0.11987304614E+04  0.12004983877E+04  0.25500000920E-02 0.  1.
</event>
<event>
 5   0  0.1276705E-02  0.5999238E+03  0.7818609E-02  0.9905564E-01
        1   -1    0    0  501    0  0.00000000000E+00  0.00000000000E+00  0.42864155041E+03  0.42864155044E+03  0.50400001928E-02 0. -1.
       -1   -1    0    0    0  501  0.00000000000E+00  0.00000000000E+00 -0.20991229325E+03  0.20991229331E+03  0.50400001928E-02 0.  1.
    10030    2    1    2    0    0  0.00000000000E+00  0.00000000000E+00  0.21872925716E+03  0.63855384375E+03  0.59992376469E+03 0.  0.
        1    1    3    3  502    0  0.25978877054E+03 -0.42119910194E+02 -0.43822144987E+02  0.26680455871E+03  0.50400001928E-02 0. -1.
       -1    1    3    3    0  502 -0.25978877054E+03  0.42119910194E+02  0.26255140215E+03  0.37174928504E+03  0.50400001928E-02 0.  1.
</event>
<event>
 5   0  0.2141800E-02  0.6001504E+03  0.7818609E-02  0.9905094E-01
        2   -1    0    0  501    0  0.00000000000E+00  0.00000000000E+00  0.13539027309E+04  0.13539027309E+04  0.25500000920E-02 0. -1.
       -2   -1    0    0    0  501  0.00000000000E+00  0.00000000000E+00 -0.66507831325E+02  0.66507831374E+02  0.25500000920E-02 0.  1.
    10030    2    1    2    0    0  0.00000000000E+00  0.00000000000E+00  0.12873948995E+04  0.14204105622E+04  0.60015042944E+03 0.  0.
        2    1    3    3  502    0 -0.14387648495E+02  0.29955061772E+03  0.61915182592E+03  0.68795825495E+03  0.25500000920E-02 0. -1.
       -2    1    3    3    0  502  0.14387648495E+02 -0.29955061772E+03  0.66824307360E+03  0.73245230727E+03  0.25500000920E-02 0.  1.
</event>
<event>
 5   0  0.2141800E-02  0.6020989E+03  0.7818609E-02  0.9901061E-01
       -2   -1    0    0    0  501  0.00000000000E+00  0.00000000000E+00  0.90095465703E+02  0.90095465739E+02  0.25500000920E-02 0. -1.
        2   -1    0    0  501    0  0.00000000000E+00  0.00000000000E+00 -0.10059416545E+04  0.10059416545E+04  0.25500000920E-02 0.  1.
    10030    2    1    2    0    0  0.00000000000E+00  0.00000000000E+00 -0.91584618878E+03  0.10960371202E+04  0.60209893490E+03 0.  0.
        2    1    3    3  502    0  0.27273331705E+03  0.73255645647E+02 -0.64780798647E+03  0.70668595514E+03  0.25500000920E-02 0.  1.
       -2    1    3    3    0  502 -0.27273331705E+03 -0.73255645647E+02 -0.26803820232E+03  0.38935116509E+03  0.25500000920E-02 0. -1.
</event>
<event>
 5   0  0.2141800E-02  0.6003107E+03  0.7818609E-02  0.9904762E-01
        2   -1    0    0  501    0  0.00000000000E+00  0.00000000000E+00  0.13271184183E+04  0.13271184183E+04  0.25500000920E-02 0.  1.
       -2   -1    0    0    0  501  0.00000000000E+00  0.00000000000E+00 -0.67886362000E+02  0.67886362048E+02  0.25500000920E-02 0. -1.
    10030    2    1    2    0    0  0.00000000000E+00  0.00000000000E+00  0.12592320563E+04  0.13950047803E+04  0.60031072420E+03 0.  0.
        2    1    3    3  502    0 -0.89342695485E+01  0.28239024835E+03  0.86510318179E+03  0.91007010097E+03  0.25500000920E-02 0. -1.
       -2    1    3    3    0  502  0.89342695485E+01 -0.28239024835E+03  0.39412887451E+03  0.48493467937E+03  0.25500000920E-02 0.  1.
</event>
<event>
 5   0  0.2179625E-02  0.6002943E+03  0.7818609E-02  0.9904796E-01
        2   -1    0    0  501    0  0.00000000000E+00  0.00000000000E+00  0.76841329249E+03  0.76841329249E+03  0.25500000920E-02 0. -1.
       -2   -1    0    0    0  501  0.00000000000E+00  0.00000000000E+00 -0.11723941573E+03  0.11723941575E+03  0.25500000920E-02 0.  1.
    10030    2    1    2    0    0  0.00000000000E+00  0.00000000000E+00  0.65117387676E+03  0.88565270825E+03  0.60029434601E+03 0.  0.
        1    1    3    3  502    0 -0.27423460864E+03 -0.37878767753E+01  0.14568108477E+03  0.31055103779E+03  0.50400001928E-02 0.  1.
       -1    1    3    3    0  502  0.27423460864E+03  0.37878767753E+01  0.50549279199E+03  0.57510167046E+03  0.50400001928E-02 0. -1.
</event>
<event>
 5   0  0.1332555E-02  0.6001383E+03  0.7818609E-02  0.9905119E-01
       -1   -1    0    0    0  501  0.00000000000E+00  0.00000000000E+00  0.42749002872E+02  0.42749003169E+02  0.50400001928E-02 0.  1.
        1   -1    0    0  501    0  0.00000000000E+00  0.00000000000E+00 -0.21062829408E+04  0.21062829409E+04  0.50400001928E-02 0. -1.
    10030    2    1    2    0    0  0.00000000000E+00  0.00000000000E+00 -0.20635339380E+04  0.21490319440E+04  0.60013830344E+03 0.  0.
        2    1    3    3  502    0 -0.92832423545E+01 -0.24119616416E+03 -0.16701283566E+04  0.16874805172E+04  0.25500000920E-02 0. -1.
       -2    1    3    3    0  502  0.92832423545E+01  0.24119616416E+03 -0.39340558134E+03  0.46155142685E+03  0.25500000920E-02 0.  1.
</event>
<event>
 5   0  0.2142838E-02  0.6008957E+03  0.7818609E-02  0.9903549E-01
       -2   -1    0    0    0  501  0.00000000000E+00  0.00000000000E+00  0.92922144662E+02  0.92922144697E+02  0.25500000920E-02 0. -1.
        2   -1    0    0  501    0  0.00000000000E+00  0.00000000000E+00 -0.97144680874E+03  0.97144680874E+03  0.25500000920E-02 0.  1.
    10030    2    1    2    0    0  0.00000000000E+00  0.00000000000E+00 -0.87852466408E+03  0.10643689534E+04  0.60089573443E+03 0.  0.
        4    1    3    3  502    0 -0.68688086731E+02  0.28810018981E+03 -0.52866555792E+03  0.60597743989E+03  0.12699999809E+01 0.  1.
       -4    1    3    3    0  502  0.68688086731E+02 -0.28810018981E+03 -0.34985910616E+03  0.45839151355E+03  0.12699999809E+01 0. -1.
</event>
<event>
 5   0  0.2126207E-02  0.5997581E+03  0.7818609E-02  0.9905908E-01
       -2   -1    0    0    0  501  0.00000000000E+00  0.00000000000E+00  0.46108614212E+03  0.46108614213E+03  0.25500000920E-02 0. -1.
        2   -1    0    0  501    0  0.00000000000E+00  0.00000000000E+00 -0.19503390257E+03  0.19503390259E+03  0.25500000920E-02 0.  1.
    10030    2    1    2    0    0  0.00000000000E+00  0.00000000000E+00  0.26605223955E+03  0.65612004472E+03  0.59975805031E+03 0.  0.
        5    1    3    3  502    0 -0.14419780085E+03 -0.15224417718E+03  0.36748925230E+03  0.42313323648E+03  0.46999998093E+01 0. -1.
       -5    1    3    3    0  502  0.14419780085E+03  0.15224417718E+03 -0.10143701275E+03  0.23298680824E+03  0.46999998093E+01 0.  1.
</event>
<event>
 5   0  0.1250390E-02  0.6004732E+03  0.7818609E-02  0.9904425E-01
        1   -1    0    0  501    0  0.00000000000E+00  0.00000000000E+00  0.11255544264E+04  0.11255544264E+04  0.50400001928E-02 0.  1.
       -1   -1    0    0    0  501  0.00000000000E+00  0.00000000000E+00 -0.80086772202E+02  0.80086772361E+02  0.50400001928E-02 0. -1.
    10030    2    1    2    0    0  0.00000000000E+00  0.00000000000E+00  0.10454676542E+04  0.12056411988E+04  0.60047321689E+03 0.  0.
        3    1    3    3  502    0 -0.26616386532E+03 -0.10955447198E+03  0.69424225329E+03  0.75154354630E+03  0.10100000352E+00 0.  1.
       -3    1    3    3    0  502  0.26616386532E+03  0.10955447198E+03  0.35122540090E+03  0.45409765246E+03  0.10100000352E+00 0. -1.
</event>
<event>
 5   0  0.2126207E-02  0.6014560E+03  0.7818609E-02  0.9902390E-01
        2   -1    0    0  501    0  0.00000000000E+00  0.00000000000E+00  0.10394135466E+04  0.10394135466E+04  0.25500000920E-02 0. -1.
       -2   -1    0    0    0  501  0.00000000000E+00  0.00000000000E+00 -0.87008020937E+02  0.87008020974E+02  0.25500000920E-02 0.  1.
    10030    2    1    2    0    0  0.00000000000E+00  0.00000000000E+00  0.95240552567E+03  0.11264215676E+04  0.60145595233E+03 0.  0.
        5    1    3    3  502    0 -0.36706596348E+02 -0.23148917623E+03  0.12343191763E+03  0.26493799504E+03  0.46999998093E+01 0.  1.
       -5    1    3    3    0  502  0.36706596348E+02  0.23148917623E+03  0.82897360804E+03  0.86148357254E+03  0.46999998093E+01 0. -1.
</event>
<event>
 5   0  0.1250390E-02  0.6024308E+03  0.7818609E-02  0.9900376E-01
       -1   -1    0    0    0  501  0.00000000000E+00  0.00000000000E+00  0.24622199066E+03  0.24622199071E+03  0.50400001928E-02 0.  1.
        1   -1    0    0  501    0  0.00000000000E+00  0.00000000000E+00 -0.36849153396E+03  0.36849153400E+03  0.50400001928E-02 0. -1.
    10030    2    1    2    0    0  0.00000000000E+00  0.00000000000E+00 -0.12226954330E+03  0.61471352471E+03  0.60243080618E+03 0.  0.
        3    1    3    3  502    0  0.68578419416E+02  0.15637583897E+03  0.19206619538E+03  0.25699384474E+03  0.10100000352E+00 0.  1.
       -3    1    3    3    0  502 -0.68578419416E+02 -0.15637583897E+03 -0.31433573868E+03  0.35771967997E+03  0.10100000352E+00 0. -1.
</event>
<event>
 5   0  0.2126207E-02  0.5986781E+03  0.7818609E-02  0.9908152E-01
       -2   -1    0    0    0  501  0.00000000000E+00  0.00000000000E+00  0.89931198390E+02  0.89931198426E+02  0.25500000920E-02 0.  1.
        2   -1    0    0  501    0  0.00000000000E+00  0.00000000000E+00 -0.99636013250E+03  0.99636013250E+03  0.25500000920E-02 0. -1.
    10030    2    1    2    0    0  0.00000000000E+00  0.00000000000E+00 -0.90642893411E+03  0.10862913309E+04  0.59867807966E+03 0.  0.
        5    1    3    3  502    0 -0.68736801610E+02  0.23526660353E+03 -0.76489730935E+03  0.80322170444E+03  0.46999998093E+01 0. -1.
       -5    1    3    3    0  502  0.68736801610E+02 -0.23526660353E+03 -0.14153162476E+03  0.28306962649E+03  0.46999998093E+01 0.  1.
</event>
<event>
 5   0  0.2141800E-02  0.6003273E+03  0.7818609E-02  0.9904727E-01
       -2   -1    0    0    0  501  0.00000000000E+00  0.00000000000E+00  0.16312390165E+03  0.16312390167E+03  0.25500000920E-02 0.  1.
        2   -1    0    0  501    0  0.00000000000E+00  0.00000000000E+00 -0.55233000120E+03  0.55233000120E+03  0.25500000920E-02 0. -1.
    10030    2    1    2    0    0  0.00000000000E+00  0.00000000000E+00 -0.38920609955E+03  0.71545390287E+03  0.60032732672E+03 0.  0.
        2    1    3    3  502    0 -0.24829342408E+03 -0.16859160111E+03 -0.20061794938E+03  0.36099904990E+03  0.25500000920E-02 0.  1.
       -2    1    3    3    0  502  0.24829342408E+03  0.16859160111E+03 -0.18858815016E+03  0.35445485297E+03  0.25500000920E-02 0. -1.
</event>
<event>
 5   0  0.1276705E-02  0.5987581E+03  0.7818609E-02  0.9907986E-01
        1   -1    0    0  501    0  0.00000000000E+00  0.00000000000E+00  0.48874599867E+03  0.48874599869E+03  0.50400001928E-02 0.  1.
       -1   -1    0    0    0  501  0.00000000000E+00  0.00000000000E+00 -0.18338321323E+03  0.18338321330E+03  0.50400001928E-02 0. -1.
    10030    2    1    2    0    0  0.00000000000E+00  0.00000000000E+00  0.30536278544E+03  0.67212921200E+03  0.59875808712E+03 0.  0.
        1    1    3    3  502    0  0.25929931099E+03 -0.14079304186E+03  0.95785188483E+02  0.31021543430E+03  0.50400001928E-02 0. -1.
       -1    1    3    3    0  502 -0.25929931099E+03  0.14079304186E+03  0.20957759695E+03  0.36191377770E+03  0.50400001928E-02 0.  1.
</event>
<event>
 5   0  0.1276705E-02  0.6065967E+03  0.7818609E-02  0.9891814E-01
       -1   -1    0    0    0  501  0.00000000000E+00  0.00000000000E+00  0.53225651212E+03  0.53225651214E+03  0.50400001928E-02 0. -1.
        1   -1    0    0  501    0  0.00000000000E+00  0.00000000000E+00 -0.17282999463E+03  0.17282999470E+03  0.50400001928E-02 0.  1.
    10030    2    1    2    0    0  0.00000000000E+00  0.00000000000E+00  0.35942651749E+03  0.70508650685E+03  0.60659670347E+03 0.  0.
        1    1    3    3  502    0 -0.25876523746E+03 -0.13880356988E+03  0.26796123581E+03  0.39752874494E+03  0.50400001928E-02 0. -1.
       -1    1    3    3    0  502  0.25876523746E+03  0.13880356988E+03  0.91465281682E+02  0.30755776191E+03  0.50400001928E-02 0.  1.
</event>
<event>
 5   0  0.2142838E-02  0.6011388E+03  0.7818609E-02  0.9903046E-01
        2   -1    0    0  501    0  0.00000000000E+00  0.00000000000E+00  0.30358308662E+03  0.30358308663E+03  0.25500000920E-02 0.  1.
       -2   -1    0    0    0  501  0.00000000000E+00  0.00000000000E+00 -0.29758562731E+03  0.29758562732E+03  0.25500000920E-02 0. -1.
    10030    2    1    2    0    0  0.00000000000E+00  0.00000000000E+00  0.59974593106E+01  0.60116871395E+03  0.60113879688E+03 0.  0.
        4    1    3    3  502    0 -0.27261166677E+03  0.61441181724E+02  0.11367587211E+03  0.30168850901E+03  0.12699999809E+01 0. -1.
       -4    1    3    3    0  502  0.27261166677E+03 -0.61441181724E+02 -0.10767841280E+03  0.29948020494E+03  0.12699999809E+01 0.  1.
</event>
<event>
 5   0  0.2142838E-02  0.6030695E+03  0.7818609E-02  0.9899058E-01
       -2   -1    0    0    0  501  0.00000000000E+00  0.00000000000E+00  0.71240269605E+02  0.71240269651E+02  0.25500000920E-02 0. -1.
        2   -1    0    0  501    0  0.00000000000E+00  0.00000000000E+00 -0.12762894525E+04  0.12762894525E+04  0.25500000920E-02 0.  1.
    10030    2    1    2    0    0  0.00000000000E+00  0.00000000000E+00 -0.12050491828E+04  0.13475297221E+04  0.60306949755E+03 0.  0.
        4    1    3    3  502    0  0.17434001596E+03  0.23954555015E+03 -0.47721427042E+03  0.56170417887E+03  0.12699999809E+01 0. -1.
       -4    1    3    3    0  502 -0.17434001596E+03 -0.23954555015E+03 -0.72783491243E+03  0.78582554324E+03  0.12699999809E+01 0.  1.
</event>
<event>
 5   0  0.2179625E-02  0.5934683E+03  0.7818609E-02  0.9919051E-01
       -2   -1    0    0    0  501  0.00000000000E+00  0.00000000000E+00  0.61780836093E+02  0.61780836146E+02  0.25500000920E-02 0. -1.
        2   -1    0    0  501    0  0.00000000000E+00  0.00000000000E+00 -0.14252179319E+04  0.14252179319E+04  0.25500000920E-02 0.  1.
    10030    2    1    2    0    0  0.00000000000E+00  0.00000000000E+00 -0.13634370958E+04  0.14869987680E+04  0.59346829903E+03 0.  0.
        1    1    3    3  502    0 -0.24668544996E+03  0.86866207487E+02 -0.10329660262E+04  0.10655600689E+04  0.50400001928E-02 0. -1.
       -1    1    3    3    0  502  0.24668544996E+03 -0.86866207487E+02 -0.33047106959E+03  0.42143869908E+03  0.50400001928E-02 0.  1.
</event>
<event>
 5   0  0.2126207E-02  0.5999262E+03  0.7818609E-02  0.9905559E-01
        2   -1    0    0  501    0  0.00000000000E+00  0.00000000000E+00  0.11645996844E+04  0.11645996844E+04  0.25500000920E-02 0.  1.
       -2   -1    0    0    0  501  0.00000000000E+00  0.00000000000E+00 -0.77260762044E+02  0.77260762086E+02  0.25500000920E-02 0. -1.
    10030    2    1    2    0    0  0.00000000000E+00  0.00000000000E+00  0.10873389223E+04  0.12418604465E+04  0.59992619252E+03 0.  0.
        5    1    3    3  502    0 -0.85635191143E+02  0.53313922796E+02 -0.41015618482E+02  0.10899601499E+03  0.46999998093E+01 0. -1.
       -5    1    3    3    0  502  0.85635191143E+02 -0.53313922796E+02  0.11283545408E+04  0.11328644315E+04  0.46999998093E+01 0.  1.
</event>
<event>
 5   0  0.1250390E-02  0.5951591E+03  0.7818609E-02  0.9915501E-01
       -1   -1    0    0    0  501  0.00000000000E+00  0.00000000000E+00  0.53401445995E+03  0.53401445997E+03  0.50400001928E-02 0. -1.
        1   -1    0    0  501    0  0.00000000000E+00  0.00000000000E+00 -0.16582621203E+03  0.16582621211E+03  0.50400001928E-02 0.  1.
    10030    2    1    2    0    0  0.00000000000E+00  0.00000000000E+00  0.36818824792E+03  0.69984067208E+03  0.59515912191E+03 0.  0.
        3    1    3    3  502    0 -0.13125437875E+03 -0.25922713769E+03  0.10855152021E+03  0.31017714873E+03  0.10100000352E+00 0.  1.
       -3    1    3    3    0  502  0.13125437875E+03  0.25922713769E+03  0.25963672770E+03  0.38966352335E+03  0.10100000352E+00 0. -1.
</event>
<event>
 5   0  0.1276705E-02  0.5993369E+03  0.7818609E-02  0.9906783E-01
       -1   -1    0    0    0  501  0.00000000000E+00  0.00000000000E+00  0.12922634822E+03  0.12922634832E+03  0.50400001928E-02 0. -1.
        1   -1    0    0  501    0  0.00000000000E+00  0.00000000000E+00 -0.69491378437E+03  0.69491378438E+03  0.50400001928E-02 0.  1.
    10030    2    1    2    0    0  0.00000000000E+00  0.00000000000E+00 -0.56568743614E+03  0.82414013270E+03  0.59933686932E+03 0.  0.
        1    1    3    3  502    0 -0.24833168629E+03  0.15062345005E+03 -0.18137461553E+03  0.34242196382E+03  0.50400001928E-02 0. -1.
       -1    1    3    3    0  502  0.24833168629E+03 -0.15062345005E+03 -0.38431282061E+03  0.48171816888E+03  0.50400001928E-02 0.  1.
</event>
<event>
 5   0  0.2141800E-02  0.5987768E+03  0.7818609E-02  0.9907947E-01
        2   -1    0    0  501    0  0.00000000000E+00  0.00000000000E+00  0.45857247414E+03  0.45857247415E+03  0.25500000920E-02 0.  1.
       -2   -1    0    0    0  501  0.00000000000E+00  0.00000000000E+00 -0.19546184224E+03  0.19546184226E+03  0.25500000920E-02 0. -1.
    10030    2    1    2    0    0  0.00000000000E+00  0.00000000000E+00  0.26311063190E+03  0.65403431641E+03  0.59877682188E+03 0.  0.
        2    1    3    3  502    0  0.29606532159E+01 -0.66738769064E+02 -0.18721684575E+03  0.19877871139E+03  0.25500000920E-02 0. -1.
       -2    1    3    3    0  502 -0.29606532159E+01  0.66738769064E+02  0.45032747765E+03  0.45525560502E+03  0.25500000920E-02 0.  1.
</event>
<event>
 5   0  0.1337051E-02  0.5981238E+03  0.7818609E-02  0.9909306E-01
       -1   -1    0    0    0  501  0.00000000000E+00  0.00000000000E+00  0.73472928801E+02  0.73472928974E+02  0.50400001928E-02 0. -1.
        1   -1    0    0  501    0  0.00000000000E+00  0.00000000000E+00 -0.12172921579E+04  0.12172921579E+04  0.50400001928E-02 0.  1.
    10030    2    1    2    0    0  0.00000000000E+00  0.00000000000E+00 -0.11438192291E+04  0.12907650869E+04  0.59812380046E+03 0.  0.
        5    1    3    3  502    0  0.22108476959E+03  0.15090567076E+03 -0.85954208880E+03  0.90026978691E+03  0.46999998093E+01 0.  1.
       -5    1    3    3    0  502 -0.22108476959E+03 -0.15090567076E+03 -0.28427714033E+03  0.39049530000E+03  0.46999998093E+01 0. -1.
</event>
<event>
 5   0  0.1276705E-02  0.5993995E+03  0.7818609E-02  0.9906653E-01
        1   -1    0    0  501    0  0.00000000000E+00  0.00000000000E+00  0.28364521927E+04  0.28364521927E+04  0.50400001928E-02 0. -1.
       -1   -1    0    0    0  501  0.00000000000E+00  0.00000000000E+00 -0.31666302556E+02  0.31666302957E+02  0.50400001928E-02 0.  1.
    10030    2    1    2    0    0  0.00000000000E+00  0.00000000000E+00  0.28047858902E+04  0.28681184957E+04  0.59939954588E+03 0.  0.
        1    1    3    3  502    0  0.22195874835E+03 -0.53720688035E+01  0.23656548446E+04  0.23760507968E+04  0.50400001928E-02 0. -1.
       -1    1    3    3    0  502 -0.22195874835E+03  0.53720688035E+01  0.43913104555E+03  0.49206769888E+03  0.50400001928E-02 0.  1.
</event>
<event>
 5   0  0.1332555E-02  0.6000056E+03  0.7818609E-02  0.9905394E-01
        1   -1    0    0  501    0  0.00000000000E+00  0.00000000000E+00  0.40664854131E+03  0.40664854135E+03  0.50400001928E-02 0. -1.
       -1   -1    0    0    0  501  0.00000000000E+00  0.00000000000E+00 -0.22132549336E+03  0.22132549342E+03  0.50400001928E-02 0.  1.
    10030    2    1    2    0    0  0.00000000000E+00  0.00000000000E+00  0.18532304795E+03  0.62797403477E+03  0.60000563017E+03 0.  0.
        2    1    3    3  502    0  0.17886999859E+02  0.69970640226E+02 -0.21209152575E+03  0.22405055358E+03  0.25500000920E-02 0.  1.
       -2    1    3    3    0  502 -0.17886999859E+02 -0.69970640226E+02  0.39741457370E+03  0.40392348119E+03  0.25500000920E-02 0. -1.
</event>
<event>
 5   0  0.2141800E-02  0.6002933E+03  0.7818609E-02  0.9904798E-01
       -2   -1    0    0    0  501  0.00000000000E+00  0.00000000000E+00  0.60581022377E+02  0.60581022431E+02  0.25500000920E-02 0.  1.
        2   -1    0    0  501    0  0.00000000000E+00  0.00000000000E+00 -0.14870665949E+04  0.14870665949E+04  0.25500000920E-02 0. -1.
    10030    2    1    2    0    0  0.00000000000E+00  0.00000000000E+00 -0.14264855725E+04  0.15476476173E+04  0.60029331066E+03 0.  0.
        2    1    3    3  502    0 -0.26974885682E+03  0.26784197464E+01 -0.10525064296E+04  0.10865272220E+04  0.25500000920E-02 0. -1.
       -2    1    3    3    0  502  0.26974885682E+03 -0.26784197464E+01 -0.37397914293E+03  0.46112039539E+03  0.25500000920E-02 0.  1.
</event>
<event>
 5   0  0.2092587E-02  0.6003120E+03  0.7818609E-02  0.9904759E-01
        2   -1    0    0  501    0  0.00000000000E+00  0.00000000000E+00  0.10339570075E+03  0.10339570078E+03  0.25500000920E-02 0. -1.
       -2   -1    0    0    0  501  0.00000000000E+00  0.00000000000E+00 -0.87134793138E+03  0.87134793138E+03  0.25500000920E-02 0.  1.
    10030    2    1    2    0    0  0.00000000000E+00  0.00000000000E+00 -0.76795223063E+03  0.97474363216E+03  0.60031201880E+03 0.  0.
        3    1    3    3  502    0 -0.10910235077E+03 -0.54310918406E+02  0.61412953446E+02  0.13647182806E+03  0.10100000352E+00 0. -1.
       -3    1    3    3    0  502  0.10910235077E+03  0.54310918406E+02 -0.82936518407E+03  0.83827180410E+03  0.10100000352E+00 0.  1.
</event>
<event>
 5   0  0.1337051E-02  0.5999072E+03  0.7818609E-02  0.9905599E-01
       -1   -1    0    0    0  501  0.00000000000E+00  0.00000000000E+00  0.19884431405E+03  0.19884431412E+03  0.50400001928E-02 0. -1.
        1   -1    0    0  501    0  0.00000000000E+00  0.00000000000E+00 -0.45247544865E+03  0.45247544868E+03  0.50400001928E-02 0.  1.
    10030    2    1    2    0    0  0.00000000000E+00  0.00000000000E+00 -0.25363113460E+03  0.65131976279E+03  0.59990722697E+03 0.  0.
        5    1    3    3  502    0  0.21973890222E+03 -0.41965641547E+02 -0.34369440697E+03  0.41011490536E+03  0.46999998093E+01 0.  1.
       -5    1    3    3    0  502 -0.21973890222E+03  0.41965641547E+02  0.90063272371E+02  0.24120485743E+03  0.46999998093E+01 0. -1.
</event>
<event>
 5   0  0.1276705E-02  0.5994536E+03  0.7818609E-02  0.9906540E-01
       -1   -1    0    0    0  501  0.00000000000E+00  0.00000000000E+00  0.54511864220E+02  0.54511864453E+02  0.50400001928E-02 0.  1.
        1   -1    0    0  501    0  0.00000000000E+00  0.00000000000E+00 -0.16480110109E+04  0.16480110109E+04  0.50400001928E-02 0. -1.
    10030    2    1    2    0    0  0.00000000000E+00  0.00000000000E+00 -0.15934991467E+04  0.17025228754E+04  0.59945359341E+03 0.  0.
        1    1    3    3  502    0 -0.68068910342E+02 -0.28242732757E+03 -0.58731892037E+03  0.65524200580E+03  0.50400001928E-02 0. -1.
       -1    1    3    3    0  502  0.68068910342E+02  0.28242732757E+03 -0.10061802263E+04  0.10472808696E+04  0.50400001928E-02 0.  1.
</event>
<event>
 5   0  0.1250390E-02  0.6004612E+03  0.7818609E-02  0.9904450E-01
       -1   -1    0    0    0  501  0.00000000000E+00  0.00000000000E+00  0.67328758799E+02  0.67328758988E+02  0.50400001928E-02 0. -1.
        1   -1    0    0  501    0  0.00000000000E+00  0.00000000000E+00 -0.13387803366E+04  0.13387803366E+04  0.50400001928E-02 0.  1.
    10030    2    1    2    0    0  0.00000000000E+00  0.00000000000E+00 -0.12714515778E+04  0.14061090956E+04  0.60046121775E+03 0.  0.
        3    1    3    3  502    0  0.21004982516E+03 -0.18580782321E+03 -0.88676957443E+03  0.93005686093E+03  0.10100000352E+00 0.  1.
       -3    1    3    3    0  502 -0.21004982516E+03  0.18580782321E+03 -0.38468200336E+03  0.47605223466E+03  0.10100000352E+00 0. -1.
</event>
<event>
 5   0  0.2126207E-02  0.5968448E+03  0.7818609E-02  0.9911974E-01
       -2   -1    0    0    0  501  0.00000000000E+00  0.00000000000E+00  0.57509345252E+02  0.57509345309E+02  0.25500000920E-02 0. -1.
        2   -1    0    0  501    0  0.00000000000E+00  0.00000000000E+00 -0.15485470257E+04  0.15485470257E+04  0.25500000920E-02 0.  1.
    10030    2    1    2    0    0  0.00000000000E+00  0.00000000000E+00 -0.14910376805E+04  0.16060563710E+04  0.59684478917E+03 0.  0.
        5    1    3    3  502    0  0.27361318155E+03 -0.10116647140E+03 -0.57671894912E+03  0.64631699987E+03  0.46999998093E+01 0. -1.
       -5    1    3    3    0  502 -0.27361318155E+03  0.10116647140E+03 -0.91431873136E+03  0.95973937116E+03  0.46999998093E+01 0.  1.
</event>
<event>
 5   0  0.1337051E-02  0.5993855E+03  0.7818609E-02  0.9906682E-01
        1   -1    0    0  501    0  0.00000000000E+00  0.00000000000E+00  0.89500065846E+03  0.89500065847E+03  0.50400001928E-02 0.  1.
       -1   -1    0    0    0  501  0.00000000000E+00  0.00000000000E+00 -0.10035269777E+03  0.10035269790E+03  0.50400001928E-02 0. -1.
    10030    2    1    2    0    0  0.00000000000E+00  0.00000000000E+00  0.79464796069E+03  0.99535335637E+03  0.59938545412E+03 0.  0.
        5    1    3    3  502    0 -0.24353285071E+03 -0.15817571932E+03  0.52009596286E+03  0.59569262892E+03  0.46999998093E+01 0.  1.
       -5    1    3    3    0  502  0.24353285071E+03  0.15817571932E+03  0.27455199783E+03  0.39966072745E+03  0.46999998093E+01 0. -1.
</event>
<event>
 5   0  0.2141800E-02  0.5991331E+03  0.7818609E-02  0.9907206E-01
       -2   -1    0    0    0  501  0.00000000000E+00  0.00000000000E+00  0.44698952645E+03  0.44698952645E+03  0.25500000920E-02 0. -1.
        2   -1    0    0  501    0  0.00000000000E+00  0.00000000000E+00 -0.20076562178E+03  0.20076562180E+03  0.25500000920E-02 0.  1.
    10030    2    1    2    0    0  0.00000000000E+00  0.00000000000E+00  0.24622390466E+03  0.64775514825E+03  0.59913314118E+03 0.  0.
        2    1    3    3  502    0  0.32339748767E+02  0.82251395563E+02  0.43257322041E+03  0.44150961761E+03  0.25500000920E-02 0. -1.
       -2    1    3    3    0  502 -0.32339748767E+02 -0.82251395563E+02 -0.18634931575E+03  0.20624553064E+03  0.25500000920E-02 0.  1.
</event>
<event>
 5   0  0.2141800E-02  0.6018645E+03  0.7818609E-02  0.9901545E-01
        2   -1    0    0  501    0  0.00000000000E+00  0.00000000000E+00  0.34395432392E+03  0.34395432393E+03  0.25500000920E-02 0.  1.
       -2   -1    0    0    0  501  0.00000000000E+00  0.00000000000E+00 -0.26329139551E+03  0.26329139552E+03  0.25500000920E-02 0. -1.
    10030    2    1    2    0    0  0.00000000000E+00  0.00000000000E+00  0.80662928413E+02  0.60724571946E+03  0.60186448290E+03 0.  0.
        2    1    3    3  502    0  0.25705897991E+03 -0.28007397664E+01  0.19816882156E+03  0.32458904039E+03  0.25500000920E-02 0.  1.
       -2    1    3    3    0  502 -0.25705897991E+03  0.28007397664E+01 -0.11750589315E+03  0.28265667907E+03  0.25500000920E-02 0. -1.
</event>
<event>
 5   0  0.2126207E-02  0.6007311E+03  0.7818609E-02  0.9903890E-01
       -2   -1    0    0    0  501  0.00000000000E+00  0.00000000000E+00  0.30210786509E+03  0.30210786510E+03  0.25500000920E-02 0. -1.
        2   -1    0    0  501    0  0.00000000000E+00  0.00000000000E+00 -0.29863329251E+03  0.29863329252E+03  0.25500000920E-02 0.  1.
    10030    2    1    2    0    0  0.00000000000E+00  0.00000000000E+00  0.34745725875E+01  0.60074115762E+03  0.60073110940E+03 0.  0.
        5    1    3    3  502    0  0.19685785550E+03  0.27828466053E+02  0.22684089077E+03  0.30167253524E+03  0.46999998093E+01 0. -1.
       -5    1    3    3    0  502 -0.19685785550E+03 -0.27828466053E+02 -0.22336631818E+03  0.29906862238E+03  0.46999998093E+01 0.  1.
</event>
<event>
 5   0  0.2179625E-02  0.5997397E+03  0.7818609E-02  0.9905946E-01
        2   -1    0    0  501    0  0.00000000000E+00  0.00000000000E+00  0.10212530704E+04  0.10212530704E+04  0.25500000920E-02 0. -1.
       -2   -1    0    0    0  501  0.00000000000E+00  0.00000000000E+00 -0.88050574572E+02  0.88050574609E+02  0.25500000920E-02 0.  1.
    10030    2    1    2    0    0  0.00000000000E+00  0.00000000000E+00  0.93320249584E+03  0.11093036450E+04  0.59973967571E+03 0.  0.
        1    1    3    3  502    0 -0.12977832839E+03  0.27000293264E+03  0.49127310536E+03  0.57540704048E+03  0.50400001928E-02 0.  1.
       -1    1    3    3    0  502  0.12977832839E+03 -0.27000293264E+03  0.44192939047E+03  0.53389660454E+03  0.50400001928E-02 0. -1.
</event>
<event>
 5   0  0.2141800E-02  0.5984246E+03  0.7818609E-02  0.9908680E-01
        2   -1    0    0  501    0  0.00000000000E+00  0.00000000000E+00  0.40067642160E+03  0.40067642161E+03  0.25500000920E-02 0. -1.
       -2   -1    0    0    0  501  0.00000000000E+00  0.00000000000E+00 -0.22344211445E+03  0.22344211446E+03  0.25500000920E-02 0.  1.
    10030    2    1    2    0    0  0.00000000000E+00  0.00000000000E+00  0.17723430716E+03  0.62411853608E+03  0.59842455451E+03 0.  0.
        2    1    3    3  502    0 -0.29437355113E+03  0.37897297288E+02  0.12813870686E+03  0.32328241670E+03  0.25500000920E-02 0. -1.
       -2    1    3    3    0  502  0.29437355113E+03 -0.37897297288E+02  0.49095600296E+02  0.30083611937E+03  0.25500000920E-02 0.  1.
</event>
<event>
 5   0  0.2179625E-02  0.5978555E+03  0.7818609E-02  0.9909865E-01
       -2   -1    0    0    0  501  0.00000000000E+00  0.00000000000E+00  0.11443638467E+03  0.11443638470E+03  0.25500000920E-02 0.  1.
        2   -1    0    0  501    0  0.00000000000E+00  0.00000000000E+00 -0.78085117037E+03  0.78085117037E+03  0.25500000920E-02 0. -1.
    10030    2    1    2    0    0  0.00000000000E+00  0.00000000000E+00 -0.66641478570E+03  0.89528755507E+03  0.59785545048E+03 0.  0.
        1    1    3    3  502    0 -0.14244773877E+03 -0.63398110771E+02 -0.71513437816E+03  0.73193432600E+03  0.50400001928E-02 0. -1.
       -1    1    3    3    0  502  0.14244773877E+03  0.63398110771E+02  0.48719592464E+02  0.16335322907E+03  0.50400001928E-02 0.  1.
</event>
<event>
 5   0  0.1332555E-02  0.5976291E+03  0.7818609E-02  0.9910337E-01
        1   -1    0    0  501    0  0.00000000000E+00  0.00000000000E+00  0.24534422260E+03  0.24534422265E+03  0.50400001928E-02 0. -1.
       -1   -1    0    0    0  501  0.00000000000E+00  0.00000000000E+00 -0.36393818427E+03  0.36393818431E+03  0.50400001928E-02 0.  1.
    10030    2    1    2    0    0  0.00000000000E+00  0.00000000000E+00 -0.11859396168E+03  0.60928240696E+03  0.59762908537E+03 0.  0.
        2    1    3    3  502    0 -0.71614909403E+02  0.70612042301E+02  0.22757093450E+03  0.24880370978E+03  0.25500000920E-02 0. -1.
       -2    1    3    3    0  502  0.71614909403E+02 -0.70612042301E+02 -0.34616489617E+03  0.36047869717E+03  0.25500000920E-02 0.  1.
</event>
<event>
 5   0  0.1303808E-02  0.5981756E+03  0.7818609E-02  0.9909198E-01
        1   -1    0    0  501    0  0.00000000000E+00  0.00000000000E+00  0.88521739858E+03  0.88521739859E+03  0.50400001928E-02 0. -1.
       -1   -1    0    0    0  501  0.00000000000E+00  0.00000000000E+00 -0.10105259900E+03  0.10105259912E+03  0.50400001928E-02 0.  1.
    10030    2    1    2    0    0  0.00000000000E+00  0.00000000000E+00  0.78416479958E+03  0.98626999771E+03  0.59817562262E+03 0.  0.
        4    1    3    3  502    0  0.99004903314E+02  0.27613253659E+03  0.29593115013E+03  0.41668694144E+03  0.12699999809E+01 0.  1.
       -4    1    3    3    0  502 -0.99004903314E+02 -0.27613253659E+03  0.48823364945E+03  0.56958305628E+03  0.12699999809E+01 0. -1.
</event>
<event>
 5   0  0.1303808E-02  0.6000854E+03  0.7818609E-02  0.9905229E-01
       -1   -1    0    0    0  501  0.00000000000E+00  0.00000000000E+00  0.89462687310E+03  0.89462687312E+03  0.50400001928E-02 0.  1.
        1   -1    0    0  501    0  0.00000000000E+00  0.00000000000E+00 -0.10062922292E+03  0.10062922305E+03  0.50400001928E-02 0. -1.
    10030    2    1    2    0    0  0.00000000000E+00  0.00000000000E+00  0.79399765018E+03  0.99525609617E+03  0.60008535099E+03 0.  0.
        4    1    3    3  502    0 -0.14476370498E+03 -0.29659019733E+01 -0.38845020707E+02  0.14991956306E+03  0.12699999809E+01 0. -1.
       -4    1    3    3    0  502  0.14476370498E+03  0.29659019733E+01  0.83284267089E+03  0.84533653311E+03  0.12699999809E+01 0.  1.
</event>
<event>
 5   0  0.2142838E-02  0.6004447E+03  0.7818609E-02  0.9904484E-01
       -2   -1    0    0    0  501  0.00000000000E+00  0.00000000000E+00  0.30089645773E+03  0.30089645774E+03  0.25500000920E-02 0. -1.
        2   -1    0    0  501    0  0.00000000000E+00  0.00000000000E+00 -0.29954973979E+03  0.29954973980E+03  0.25500000920E-02 0.  1.
    10030    2    1    2    0    0  0.00000000000E+00  0.00000000000E+00  0.13467179456E+01  0.60044619754E+03  0.60044468728E+03 0.  0.
        4    1    3    3  502    0  0.11594911863E+03  0.19222998352E+03 -0.19866423892E+03  0.29977601205E+03  0.12699999809E+01 0.  1.
       -4    1    3    3    0  502 -0.11594911863E+03 -0.19222998352E+03  0.20001095687E+03  0.30067018549E+03  0.12699999809E+01 0. -1.
</event>
<event>
 5   0  0.1337051E-02  0.6005416E+03  0.7818609E-02  0.9904283E-01
       -1   -1    0    0    0  501  0.00000000000E+00  0.00000000000E+00  0.25912481808E+03  0.25912481813E+03  0.50400001928E-02 0. -1.
        1   -1    0    0  501    0  0.00000000000E+00  0.00000000000E+00 -0.34795033787E+03  0.34795033790E+03  0.50400001928E-02 0.  1.
    10030    2    1    2    0    0  0.00000000000E+00  0.00000000000E+00 -0.88825519789E+02  0.60707515603E+03  0.60054164893E+03 0.  0.
        5    1    3    3  502    0  0.23647469953E+03 -0.18124512175E+03 -0.81834420800E+02  0.30901300960E+03  0.46999998093E+01 0.  1.
       -5    1    3    3    0  502 -0.23647469953E+03  0.18124512175E+03 -0.69910989895E+01  0.29806214643E+03  0.46999998093E+01 0. -1.
</event>
<event>
 5   0  0.1332555E-02  0.6004539E+03  0.7818609E-02  0.9904465E-01
        1   -1    0    0  501    0  0.00000000000E+00  0.00000000000E+00  0.88066864096E+03  0.88066864098E+03  0.50400001928E-02 0. -1.
       -1   -1    0    0    0  501  0.00000000000E+00  0.00000000000E+00 -0.10234975515E+03  0.10234975528E+03  0.50400001928E-02 0.  1.
    10030    2    1    2    0    0  0.00000000000E+00  0.00000000000E+00  0.77831888581E+03  0.98301839625E+03  0.60045389445E+03 0.  0.
        2    1    3    3  502    0 -0.75882374644E+02  0.28398507870E+03  0.28916658034E+03  0.41233841793E+03  0.25500000920E-02 0.  1.
       -2    1    3    3    0  502  0.75882374644E+02 -0.28398507870E+03  0.48915230547E+03  0.57067997833E+03  0.25500000920E-02 0. -1.
</event>
<event>
 5   0  0.1303808E-02  0.6029081E+03  0.7818609E-02  0.9899391E-01
        1   -1    0    0  501    0  0.00000000000E+00  0.00000000000E+00  0.84585406756E+03  0.84585406758E+03  0.50400001928E-02 0. -1.
       -1   -1    0    0    0  501  0.00000000000E+00  0.00000000000E+00 -0.10743524749E+03  0.10743524761E+03  0.50400001928E-02 0.  1.
    10030    2    1    2    0    0  0.00000000000E+00  0.00000000000E+00  0.73841882007E+03  0.95328931518E+03  0.60290808969E+03 0.  0.
        4    1    3    3  502    0  0.25404788099E+03 -0.73963474580E+02  0.59758603784E+03  0.65354541306E+03  0.12699999809E+01 0. -1.
       -4    1    3    3    0  502 -0.25404788099E+03  0.73963474580E+02  0.14083278223E+03  0.29974390212E+03  0.12699999809E+01 0.  1.
</event>
<event>
 5   0  0.1303808E-02  0.5974565E+03  0.7818609E-02  0.9910697E-01
        1   -1    0    0  501    0  0.00000000000E+00  0.00000000000E+00  0.95366059255E+03  0.95366059256E+03  0.50400001928E-02 0. -1.
       -1   -1    0    0    0  501  0.00000000000E+00  0.00000000000E+00 -0.93574765717E+02  0.93574765852E+02  0.50400001928E-02 0.  1.
    10030    2    1    2    0    0  0.00000000000E+00  0.00000000000E+00  0.86008582683E+03  0.10472353584E+04  0.59745649749E+03 0.  0.
        4    1    3    3  502    0  0.13645264762E+03 -0.81106493035E+02 -0.13526425491E+02  0.15931781238E+03  0.12699999809E+01 0.  1.
       -4    1    3    3    0  502 -0.13645264762E+03  0.81106493035E+02  0.87361225232E+03  0.88791754604E+03  0.12699999809E+01 0. -1.
</event>
<event>
 5   0  0.2092587E-02  0.5993838E+03  0.7818609E-02  0.9906685E-01
        2   -1    0    0  501    0  0.00000000000E+00  0.00000000000E+00  0.25167395800E+04  0.25167395800E+04  0.25500000920E-02 0. -1.
       -2   -1    0    0    0  501  0.00000000000E+00  0.00000000000E+00 -0.35687137193E+02  0.35687137284E+02  0.25500000920E-02 0.  1.
    10030    2    1    2    0    0  0.00000000000E+00  0.00000000000E+00  0.24810524428E+04  0.25524267173E+04  0.59938378620E+03 0.  0.
        3    1    3    3  502    0 -0.12449249373E+03 -0.26438903132E+03  0.95756468693E+03  0.10011643625E+04  0.10100000352E+00 0. -1.
       -3    1    3    3    0  502  0.12449249373E+03  0.26438903132E+03  0.15234877559E+04  0.15512623548E+04  0.10100000352E+00 0.  1.
</event>
<event>
 5   0  0.1332555E-02  0.5928896E+03  0.7818609E-02  0.9920269E-01
       -1   -1    0    0    0  501  0.00000000000E+00  0.00000000000E+00  0.27667549217E+03  0.27667549221E+03  0.50400001928E-02 0. -1.
        1   -1    0    0  501    0  0.00000000000E+00  0.00000000000E+00 -0.31762666883E+03  0.31762666887E+03  0.50400001928E-02 0.  1.
    10030    2    1    2    0    0  0.00000000000E+00  0.00000000000E+00 -0.40951176667E+02  0.59430216109E+03  0.59288958483E+03 0.  0.
        2    1    3    3  502    0 -0.52005434235E+02 -0.29176488935E+03 -0.27434686126E+02  0.29763060638E+03  0.25500000920E-02 0. -1.
       -2    1    3    3    0  502  0.52005434235E+02  0.29176488935E+03 -0.13516490541E+02  0.29667155470E+03  0.25500000920E-02 0.  1.
</event>
<event>
 5   0  0.2092587E-02  0.5922837E+03  0.7818609E-02  0.9921545E-01
       -2   -1    0    0    0  501  0.00000000000E+00  0.00000000000E+00  0.10326041551E+03  0.10326041554E+03  0.25500000920E-02 0. -1.
        2   -1    0    0  501    0  0.00000000000E+00  0.00000000000E+00 -0.84930904701E+03  0.84930904702E+03  0.25500000920E-02 0.  1.
    10030    2    1    2    0    0  0.00000000000E+00  0.00000000000E+00 -0.74604863150E+03  0.95256946256E+03  0.59228373304E+03 0.  0.
        3    1    3    3  502    0 -0.69435165117E+02  0.22571221886E+03 -0.85625489633E+02  0.25119510858E+03  0.10100000352E+00 0. -1.
       -3    1    3    3    0  502  0.69435165117E+02 -0.22571221886E+03 -0.66042314187E+03  0.70137435398E+03  0.10100000352E+00 0.  1.
</event>
<event>
 5   0  0.1337051E-02  0.5998685E+03  0.7818609E-02  0.9905679E-01
        1   -1    0    0  501    0  0.00000000000E+00  0.00000000000E+00  0.20175114224E+04  0.20175114224E+04  0.50400001928E-02 0.  1.
       -1   -1    0    0    0  501  0.00000000000E+00  0.00000000000E+00 -0.44589858597E+02  0.44589858882E+02  0.50400001928E-02 0. -1.
    10030    2    1    2    0    0  0.00000000000E+00  0.00000000000E+00  0.19729215638E+04  0.20621012813E+04  0.59986848340E+03 0.  0.
        5    1    3    3  502    0 -0.89174369168E+02 -0.84989142597E+02  0.19263961572E+04  0.19303366201E+04  0.46999998093E+01 0.  1.
       -5    1    3    3    0  502  0.89174369168E+02  0.84989142597E+02  0.46525406598E+02  0.13176466117E+03  0.46999998093E+01 0. -1.
</event>
<event>
 5   0  0.2092587E-02  0.6000434E+03  0.7818609E-02  0.9905316E-01
       -2   -1    0    0    0  501  0.00000000000E+00  0.00000000000E+00  0.57651246850E+02  0.57651246907E+02  0.25500000920E-02 0.  1.
        2   -1    0    0  501    0  0.00000000000E+00  0.00000000000E+00 -0.15613367367E+04  0.15613367367E+04  0.25500000920E-02 0. -1.
    10030    2    1    2    0    0  0.00000000000E+00  0.00000000000E+00 -0.15036854898E+04  0.16189879836E+04  0.60004336400E+03 0.  0.
        3    1    3    3  502    0 -0.28791911102E+01 -0.26504260811E+03 -0.11310903690E+04  0.11617320289E+04  0.10100000352E+00 0.  1.
       -3    1    3    3    0  502  0.28791911102E+01  0.26504260811E+03 -0.37259512081E+03  0.45725595470E+03  0.10100000352E+00 0. -1.
</event>
<event>
 5   0  0.1276705E-02  0.6035228E+03  0.7818609E-02  0.9898124E-01
       -1   -1    0    0    0  501  0.00000000000E+00  0.00000000000E+00  0.47448899687E+03  0.47448899690E+03  0.50400001928E-02 0.  1.
        1   -1    0    0  501    0  0.00000000000E+00  0.00000000000E+00 -0.19191158379E+03  0.19191158386E+03  0.50400001928E-02 0. -1.
    10030    2    1    2    0    0  0.00000000000E+00  0.00000000000E+00  0.28257741308E+03  0.66640058076E+03  0.60352277476E+03 0.  0.
        1    1    3    3  502    0 -0.44298395943E+02 -0.29789521511E+03  0.16212323469E+03  0.34203486711E+03  0.50400001928E-02 0.  1.
       -1    1    3    3    0  502  0.44298395943E+02  0.29789521511E+03  0.12045417839E+03  0.32436571364E+03  0.50400001928E-02 0. -1.
</event>
<event>
 5   0  0.1337051E-02  0.5988424E+03  0.7818609E-02  0.9907811E-01
       -1   -1    0    0    0  501  0.00000000000E+00  0.00000000000E+00  0.23307182916E+03  0.23307182921E+03  0.50400001928E-02 0.  1.
        1   -1    0    0  501    0  0.00000000000E+00  0.00000000000E+00 -0.38465848499E+03  0.38465848502E+03  0.50400001928E-02 0. -1.
    10030    2    1    2    0    0  0.00000000000E+00  0.00000000000E+00 -0.15158665583E+03  0.61773031423E+03  0.59884240573E+03 0.  0.
        5    1    3    3  502    0  0.20356576652E+03  0.17254730798E+03 -0.21579195497E+03  0.34321983133E+03  0.46999998093E+01 0. -1.
       -5    1    3    3    0  502 -0.20356576652E+03 -0.17254730798E+03  0.64205299134E+02  0.27451048290E+03  0.46999998093E+01 0.  1.
</event>
<event>
 5   0  0.2126207E-02  0.5994654E+03  0.7818609E-02  0.9906516E-01
       -2   -1    0    0    0  501  0.00000000000E+00  0.00000000000E+00  0.59548872768E+03  0.59548872769E+03  0.25500000920E-02 0.  1.
        2   -1    0    0  501    0  0.00000000000E+00  0.00000000000E+00 -0.15086714240E+03  0.15086714242E+03  0.25500000920E-02 0. -1.
    10030    2    1    2    0    0  0.00000000000E+00  0.00000000000E+00  0.44462158528E+03  0.74635587011E+03  0.59946537077E+03 0.  0.
        5    1    3    3  502    0  0.26977614060E+03  0.29388678224E+02  0.63967233456E+02  0.27884898673E+03  0.46999998093E+01 0. -1.
       -5    1    3    3    0  502 -0.26977614060E+03 -0.29388678224E+02  0.38065435183E+03  0.46750688338E+03  0.46999998093E+01 0.  1.
</event>
<event>
 5   0  0.1276705E-02  0.5961293E+03  0.7818609E-02  0.9913469E-01
       -1   -1    0    0    0  501  0.00000000000E+00  0.00000000000E+00  0.85940262266E+02  0.85940262414E+02  0.50400001928E-02 0. -1.
        1   -1    0    0  501    0  0.00000000000E+00  0.00000000000E+00 -0.10337708961E+04  0.10337708962E+04  0.50400001928E-02 0.  1.
    10030    2    1    2    0    0  0.00000000000E+00  0.00000000000E+00 -0.94783063388E+03  0.11197111586E+04  0.59612932163E+03 0.  0.
        1    1    3    3  502    0 -0.23314730332E+03 -0.49721988998E+02 -0.13784821443E+03  0.27537623623E+03  0.50400001928E-02 0. -1.
       -1    1    3    3    0  502  0.23314730332E+03  0.49721988998E+02 -0.80998241945E+03  0.84433492234E+03  0.50400001928E-02 0.  1.
</event>
<event>
 5   0  0.1332555E-02  0.6007176E+03  0.7818609E-02  0.9903918E-01
       -1   -1    0    0    0  501  0.00000000000E+00  0.00000000000E+00  0.25984647130E+03  0.25984647135E+03  0.50400001928E-02 0. -1.
        1   -1    0    0  501    0  0.00000000000E+00  0.00000000000E+00 -0.34718735720E+03  0.34718735724E+03  0.50400001928E-02 0.  1.
    10030    2    1    2    0    0  0.00000000000E+00  0.00000000000E+00 -0.87340885898E+02  0.60703382858E+03  0.60071760312E+03 0.  0.
        2    1    3    3  502    0 -0.30780883287E+02  0.15600812116E+03 -0.30116216628E+03  0.34056518766E+03  0.25500000920E-02 0.  1.
       -2    1    3    3    0  502  0.30780883287E+02 -0.15600812116E+03  0.21382128038E+03  0.26646864092E+03  0.25500000920E-02 0. -1.
</event>
<event>
 5   0  0.2141800E-02  0.5992265E+03  0.7818609E-02  0.9907012E-01
        2   -1    0    0  501    0  0.00000000000E+00  0.00000000000E+00  0.47672578442E+03  0.47672578443E+03  0.25500000920E-02 0.  1.
       -2   -1    0    0    0  501  0.00000000000E+00  0.00000000000E+00 -0.18830133984E+03  0.18830133986E+03  0.25500000920E-02 0. -1.
    10030    2    1    2    0    0  0.00000000000E+00  0.00000000000E+00  0.28842444458E+03  0.66502712429E+03  0.59922651461E+03 0.  0.
        2    1    3    3  502    0 -0.29637804606E+03 -0.43876262191E+02  0.14227995051E+03  0.33167552954E+03  0.25500000920E-02 0. -1.
       -2    1    3    3    0  502  0.29637804606E+03  0.43876262191E+02  0.14614449407E+03  0.33335159475E+03  0.25500000920E-02 0.  1.
</event>
<event>
 5   0  0.2141800E-02  0.6007542E+03  0.7818609E-02  0.9903843E-01
       -2   -1    0    0    0  501  0.00000000000E+00  0.00000000000E+00  0.13753029424E+03  0.13753029427E+03  0.25500000920E-02 0.  1.
        2   -1    0    0  501    0  0.00000000000E+00  0.00000000000E+00 -0.65604740947E+03  0.65604740948E+03  0.25500000920E-02 0. -1.
    10030    2    1    2    0    0  0.00000000000E+00  0.00000000000E+00 -0.51851711523E+03  0.79357770375E+03  0.60075417027E+03 0.  0.
        2    1    3    3  502    0  0.21267681991E+03  0.20682145219E+03 -0.19702071606E+03  0.35612316040E+03  0.25500000920E-02 0. -1.
       -2    1    3    3    0  502 -0.21267681991E+03 -0.20682145219E+03 -0.32149639916E+03  0.43745454334E+03  0.25500000920E-02 0.  1.
</event>
<event>
 5   0  0.2142838E-02  0.6010344E+03  0.7818609E-02  0.9903262E-01
        2   -1    0    0  501    0  0.00000000000E+00  0.00000000000E+00  0.51460630369E+03  0.51460630370E+03  0.25500000920E-02 0.  1.
       -2   -1    0    0    0  501  0.00000000000E+00  0.00000000000E+00 -0.17549451655E+03  0.17549451657E+03  0.25500000920E-02 0. -1.
    10030    2    1    2    0    0  0.00000000000E+00  0.00000000000E+00  0.33911178714E+03  0.69010082027E+03  0.60103439000E+03 0.  0.
        4    1    3    3  502    0 -0.82428070634E+02 -0.10321734936E+03  0.47948337033E+03  0.49734708540E+03  0.12699999809E+01 0.  1.
       -4    1    3    3    0  502  0.82428070634E+02  0.10321734936E+03 -0.14037158319E+03  0.19275373487E+03  0.12699999809E+01 0. -1.
</event>
<event>
 5   0  0.2179625E-02  0.5998331E+03  0.7818609E-02  0.9905752E-01
        2   -1    0    0  501    0  0.00000000000E+00  0.00000000000E+00  0.85410517373E+03  0.85410517374E+03  0.25500000920E-02 0.  1.
       -2   -1    0    0    0  501  0.00000000000E+00  0.00000000000E+00 -0.10531482842E+03  0.10531482845E+03  0.25500000920E-02 0. -1.
    10030    2    1    2    0    0  0.00000000000E+00  0.00000000000E+00  0.74879034532E+03  0.95942000218E+03  0.59983310958E+03 0.  0.
        1    1    3    3  502    0  0.14814766750E+03  0.15518040911E+03  0.39186168850E+02  0.21809228920E+03  0.50400001928E-02 0. -1.
       -1    1    3    3    0  502 -0.14814766750E+03 -0.15518040911E+03  0.70960417647E+03  0.74132771298E+03  0.50400001928E-02 0.  1.
</event>
<event>
 5   0  0.8551000E-03  0.5951616E+03  0.7818609E-02  0.9915495E-01
        4   -1    0    0  501    0  0.00000000000E+00  0.00000000000E+00  0.31728761976E+03  0.31729016145E+03  0.12699999809E+01 0. -1.
       -4   -1    0    0    0  501  0.00000000000E+00  0.00000000000E+00 -0.27909291163E+03  0.27909580116E+03  0.12699999809E+01 0.  1.
    10030    2    1    2    0    0  0.00000000000E+00  0.00000000000E+00  0.38194708124E+02  0.59638596260E+03  0.59516164246E+03 0.  0.
        2    1    3    3  502    0  0.17900944974E+03 -0.14423509273E+03  0.20844691231E+03  0.31031960997E+03  0.25500000920E-02 0. -1.
       -2    1    3    3    0  502 -0.17900944974E+03  0.14423509273E+03 -0.17025220419E+03  0.28606635263E+03  0.25500000920E-02 0.  1.
</event>
<event>
 5   0  0.2142838E-02  0.5984990E+03  0.7818609E-02  0.9908525E-01
        2   -1    0    0  501    0  0.00000000000E+00  0.00000000000E+00  0.11717238598E+04  0.11717238599E+04  0.25500000920E-02 0.  1.
       -2   -1    0    0    0  501  0.00000000000E+00  0.00000000000E+00 -0.76426081416E+02  0.76426081458E+02  0.25500000920E-02 0. -1.
    10030    2    1    2    0    0  0.00000000000E+00  0.00000000000E+00  0.10952977784E+04  0.12481499413E+04  0.59849899962E+03 0.  0.
        4    1    3    3  502    0 -0.20395785106E+03  0.21807172060E+03  0.50622362284E+03  0.58772276589E+03  0.12699999809E+01 0. -1.
       -4    1    3    3    0  502  0.20395785106E+03 -0.21807172060E+03  0.58907415560E+03  0.66042717541E+03  0.12699999809E+01 0.  1.
</event>
<event>
 5   0  0.2092587E-02  0.5939122E+03  0.7818609E-02  0.9918117E-01
        2   -1    0    0  501    0  0.00000000000E+00  0.00000000000E+00  0.22119330431E+04  0.22119330431E+04  0.25500000920E-02 0.  1.
       -2   -1    0    0    0  501  0.00000000000E+00  0.00000000000E+00 -0.39866910654E+02  0.39866910735E+02  0.25500000920E-02 0. -1.
    10030    2    1    2    0    0  0.00000000000E+00  0.00000000000E+00  0.21720661324E+04  0.22517999538E+04  0.59391223962E+03 0.  0.
        3    1    3    3  502    0  0.15242385993E+03 -0.23790142923E+03  0.73951676487E+03  0.79165344617E+03  0.10100000352E+00 0. -1.
       -3    1    3    3    0  502 -0.15242385993E+03  0.23790142923E+03  0.14325493676E+04  0.14601465076E+04  0.10100000352E+00 0.  1.
</event>
<event>
 5   0  0.1337051E-02  0.6000656E+03  0.7818609E-02  0.9905270E-01
        1   -1    0    0  501    0  0.00000000000E+00  0.00000000000E+00  0.89149465566E+03  0.89149465567E+03  0.50400001928E-02 0.  1.
       -1   -1    0    0    0  501  0.00000000000E+00  0.00000000000E+00 -0.10097614221E+03  0.10097614234E+03  0.50400001928E-02 0. -1.
    10030    2    1    2    0    0  0.00000000000E+00  0.00000000000E+00  0.79051851345E+03  0.99247079801E+03  0.60006563374E+03 0.  0.
        5    1    3    3  502    0  0.17255813866E+03  0.24138929851E+02  0.79916749333E+03  0.81795462682E+03  0.46999998093E+01 0.  1.
       -5    1    3    3    0  502 -0.17255813866E+03 -0.24138929851E+02 -0.86489798786E+01  0.17451617118E+03  0.46999998093E+01 0. -1.
</event>
<event>
 5   0  0.1337051E-02  0.5912320E+03  0.7818609E-02  0.9923766E-01
        1   -1    0    0  501    0  0.00000000000E+00  0.00000000000E+00  0.18790260900E+04  0.18790260900E+04  0.50400001928E-02 0. -1.
       -1   -1    0    0    0  501  0.00000000000E+00  0.00000000000E+00 -0.46507512134E+02  0.46507512407E+02  0.50400001928E-02 0.  1.
    10030    2    1    2    0    0  0.00000000000E+00  0.00000000000E+00  0.18325185779E+04  0.19255336024E+04  0.59123203212E+03 0.  0.
        5    1    3    3  502    0  0.20844584694E+03  0.17780099962E+03  0.55500413211E+03  0.61896247320E+03  0.46999998093E+01 0.  1.
       -5    1    3    3    0  502 -0.20844584694E+03 -0.17780099962E+03  0.12775144458E+04  0.13065711292E+04  0.46999998093E+01 0. -1.
</event>
<event>
 5   0  0.1250390E-02  0.5989641E+03  0.7818609E-02  0.9907558E-01
       -1   -1    0    0    0  501  0.00000000000E+00  0.00000000000E+00  0.18019992198E+03  0.18019992205E+03  0.50400001928E-02 0. -1.
        1   -1    0    0  501    0  0.00000000000E+00  0.00000000000E+00 -0.49772218521E+03  0.49772218523E+03  0.50400001928E-02 0.  1.
    10030    2    1    2    0    0  0.00000000000E+00  0.00000000000E+00 -0.31752226322E+03  0.67792210729E+03  0.59896410235E+03 0.  0.
        3    1    3    3  502    0  0.10118702988E+03  0.23692592527E+03 -0.33158880626E+03  0.41990934227E+03  0.10100000352E+00 0.  1.
       -3    1    3    3    0  502 -0.10118702988E+03 -0.23692592527E+03  0.14066543040E+02  0.25801276502E+03  0.10100000352E+00 0. -1.
</event>
<event>
 5   0  0.8551000E-03  0.5991985E+03  0.7818609E-02  0.9907070E-01
       -3   -1    0    0    0  501  0.00000000000E+00  0.00000000000E+00  0.39263983912E+03  0.39263985211E+03  0.10100000352E+00 0. -1.
        3   -1    0    0  501    0  0.00000000000E+00  0.00000000000E+00 -0.22860567205E+03  0.22860569436E+03  0.10100000352E+00 0.  1.
    10030    2    1    2    0    0  0.00000000000E+00  0.00000000000E+00  0.16403416707E+03  0.62124554647E+03  0.59919848218E+03 0.  0.
        5    1    3    3  502    0  0.14407636882E+03  0.16008344444E+02  0.35381413349E+03  0.38238828199E+03  0.46999998093E+01 0. -1.
       -5    1    3    3    0  502 -0.14407636882E+03 -0.16008344444E+02 -0.18977996643E+03  0.23885726449E+03  0.46999998093E+01 0.  1.
</event>
<event>
 5   0  0.2126207E-02  0.5914444E+03  0.7818609E-02  0.9923317E-01
       -2   -1    0    0    0  501  0.00000000000E+00  0.00000000000E+00  0.11758284309E+03  0.11758284312E+03  0.25500000920E-02 0. -1.
        2   -1    0    0  501    0  0.00000000000E+00  0.00000000000E+00 -0.74374471077E+03  0.74374471077E+03  0.25500000920E-02 0.  1.
    10030    2    1    2    0    0  0.00000000000E+00  0.00000000000E+00 -0.62616186767E+03  0.86132755389E+03  0.59144439347E+03 0.  0.
        5    1    3    3  502    0  0.18255752360E+03  0.17550993868E+03 -0.90791524752E+02  0.26906538046E+03  0.46999998093E+01 0. -1.
       -5    1    3    3    0  502 -0.18255752360E+03 -0.17550993868E+03 -0.53537034292E+03  0.59226217343E+03  0.46999998093E+01 0.  1.
</event>
<event>
 5   0  0.1303808E-02  0.5998879E+03  0.7818609E-02  0.9905639E-01
        1   -1    0    0  501    0  0.00000000000E+00  0.00000000000E+00  0.27479998525E+03  0.27479998529E+03  0.50400001928E-02 0. -1.
       -1   -1    0    0    0  501  0.00000000000E+00  0.00000000000E+00 -0.32738855989E+03  0.32738855993E+03  0.50400001928E-02 0.  1.
    10030    2    1    2    0    0  0.00000000000E+00  0.00000000000E+00 -0.52588574645E+02  0.60218854522E+03  0.59988789437E+03 0.  0.
        4    1    3    3  502    0  0.21998303426E+03  0.45287267008E+02  0.17326775025E+03  0.28366670247E+03  0.12699999809E+01 0. -1.
       -4    1    3    3    0  502 -0.21998303426E+03 -0.45287267008E+02 -0.22585632489E+03  0.31852184275E+03  0.12699999809E+01 0.  1.
</event>
<event>
 5   0  0.2179625E-02  0.5934192E+03  0.7818609E-02  0.9919154E-01
        2   -1    0    0  501    0  0.00000000000E+00  0.00000000000E+00  0.43917096969E+03  0.43917096970E+03  0.25500000920E-02 0. -1.
       -2   -1    0    0    0  501  0.00000000000E+00  0.00000000000E+00 -0.20046087481E+03  0.20046087482E+03  0.25500000920E-02 0.  1.
    10030    2    1    2    0    0  0.00000000000E+00  0.00000000000E+00  0.23871009488E+03  0.63963184452E+03  0.59341923387E+03 0.  0.
        1    1    3    3  502    0  0.26671593897E+03 -0.12930480990E+03  0.13379498620E+03  0.32520489590E+03  0.50400001928E-02 0.  1.
       -1    1    3    3    0  502 -0.26671593897E+03  0.12930480990E+03  0.10491510868E+03  0.31442694862E+03  0.50400001928E-02 0. -1.
</event>
<event>
 5   0  0.8551000E-03  0.6009917E+03  0.7818609E-02  0.9903351E-01
        3   -1    0    0  501    0  0.00000000000E+00  0.00000000000E+00  0.65321157500E+03  0.65321158281E+03  0.10100000352E+00 0.  1.
       -3   -1    0    0    0  501  0.00000000000E+00  0.00000000000E+00 -0.13823658104E+03  0.13823661793E+03  0.10100000352E+00 0. -1.
    10030    2    1    2    0    0  0.00000000000E+00  0.00000000000E+00  0.51497499396E+03  0.79144820074E+03  0.60099168883E+03 0.  0.
        4    1    3    3  502    0 -0.22777064240E+03  0.87801267358E+02  0.26718719760E+02  0.24556879072E+03  0.12699999809E+01 0. -1.
       -4    1    3    3    0  502  0.22777064240E+03 -0.87801267358E+02  0.48825627420E+03  0.54587941002E+03  0.12699999809E+01 0.  1.
</event>
<event>
 5   0  0.2141800E-02  0.5998587E+03  0.7818609E-02  0.9905699E-01
        2   -1    0    0  501    0  0.00000000000E+00  0.00000000000E+00  0.29900389972E+03  0.29900389973E+03  0.25500000920E-02 0.  1.
       -2   -1    0    0    0  501  0.00000000000E+00  0.00000000000E+00 -0.30085764793E+03  0.30085764794E+03  0.25500000920E-02 0. -1.
    10030    2    1    2    0    0  0.00000000000E+00  0.00000000000E+00 -0.18537482097E+01  0.59986154766E+03  0.59985868334E+03 0.  0.
        2    1    3    3  502    0  0.61627423203E+02 -0.19997288508E+03  0.21394740742E+03  0.29926674925E+03  0.25500000920E-02 0.  1.
       -2    1    3    3    0  502 -0.61627423203E+02  0.19997288508E+03 -0.21580115563E+03  0.30059479842E+03  0.25500000920E-02 0. -1.
</event>
<event>
 5   0  0.1337051E-02  0.6000080E+03  0.7818609E-02  0.9905389E-01
       -1   -1    0    0    0  501  0.00000000000E+00  0.00000000000E+00  0.95241127719E+02  0.95241127852E+02  0.50400001928E-02 0.  1.
        1   -1    0    0  501    0  0.00000000000E+00  0.00000000000E+00 -0.94499526317E+03  0.94499526318E+03  0.50400001928E-02 0. -1.
    10030    2    1    2    0    0  0.00000000000E+00  0.00000000000E+00 -0.84975413545E+03  0.10402363910E+04  0.60000804871E+03 0.  0.
        5    1    3    3  502    0 -0.19585463973E+03 -0.15961130010E+03 -0.70520965717E+03  0.74911785294E+03  0.46999998093E+01 0.  1.
       -5    1    3    3    0  502  0.19585463973E+03  0.15961130010E+03 -0.14454447828E+03  0.29111853810E+03  0.46999998093E+01 0. -1.
</event>
<event>
 5   0  0.2142838E-02  0.5996556E+03  0.7818609E-02  0.9906121E-01
       -2   -1    0    0    0  501  0.00000000000E+00  0.00000000000E+00  0.13061249934E+04  0.13061249934E+04  0.25500000920E-02 0.  1.
        2   -1    0    0  501    0  0.00000000000E+00  0.00000000000E+00 -0.68827034498E+02  0.68827034545E+02  0.25500000920E-02 0. -1.
    10030    2    1    2    0    0  0.00000000000E+00  0.00000000000E+00  0.12372979589E+04  0.13749520279E+04  0.59965560119E+03 0.  0.
        4    1    3    3  502    0 -0.28707156340E+02  0.20015259781E+03  0.11104185429E+03  0.23068825184E+03  0.12699999809E+01 0. -1.
       -4    1    3    3    0  502  0.28707156340E+02 -0.20015259781E+03  0.11262561046E+04  0.11442637761E+04  0.12699999809E+01 0.  1.
</event>
<event>
 5   0  0.2126207E-02  0.5972066E+03  0.7818609E-02  0.9911219E-01
        2   -1    0    0  501    0  0.00000000000E+00  0.00000000000E+00  0.57462462361E+03  0.57462462361E+03  0.25500000920E-02 0. -1.
       -2   -1    0    0    0  501  0.00000000000E+00  0.00000000000E+00 -0.15516898696E+03  0.15516898698E+03  0.25500000920E-02 0.  1.
    10030    2    1    2    0    0  0.00000000000E+00  0.00000000000E+00  0.41945563664E+03  0.72979361059E+03  0.59720656640E+03 0.  0.
        5    1    3    3  502    0 -0.18657646183E+03 -0.23209993085E+03  0.23595632830E+03  0.37997188432E+03  0.46999998093E+01 0.  1.
       -5    1    3    3    0  502  0.18657646183E+03  0.23209993085E+03  0.18349930834E+03  0.34982172627E+03  0.46999998093E+01 0. -1.
</event>
<event>
 5   0  0.1303808E-02  0.6025199E+03  0.7818609E-02  0.9900192E-01
        1   -1    0    0  501    0  0.00000000000E+00  0.00000000000E+00  0.15123795183E+03  0.15123795191E+03  0.50400001928E-02 0.  1.
       -1   -1    0    0    0  501  0.00000000000E+00  0.00000000000E+00 -0.60009772731E+03  0.60009772733E+03  0.50400001928E-02 0. -1.
    10030    2    1    2    0    0  0.00000000000E+00  0.00000000000E+00 -0.44885977548E+03  0.75133567924E+03  0.60251987922E+03 0.  0.
        4    1    3    3  502    0  0.19198783041E+03  0.17179133488E+03 -0.41915331794E+03  0.49199868557E+03  0.12699999809E+01 0. -1.
       -4    1    3    3    0  502 -0.19198783041E+03 -0.17179133488E+03 -0.29706457547E+02  0.25933699367E+03  0.12699999809E+01 0.  1.
</event>
<event>
 5   0  0.2092587E-02  0.5984335E+03  0.7818609E-02  0.9908661E-01
       -2   -1    0    0    0  501  0.00000000000E+00  0.00000000000E+00  0.83992164766E+02  0.83992164805E+02  0.25500000920E-02 0.  1.
        2   -1    0    0  501    0  0.00000000000E+00  0.00000000000E+00 -0.10659405716E+04  0.10659405716E+04  0.25500000920E-02 0. -1.
    10030    2    1    2    0    0  0.00000000000E+00  0.00000000000E+00 -0.98194840687E+03  0.11499327364E+04  0.59843347550E+03 0.  0.
        3    1    3    3  502    0 -0.13348933762E+03 -0.24605811020E+03 -0.28791719067E+03  0.40157230449E+03  0.10100000352E+00 0. -1.
       -3    1    3    3    0  502  0.13348933762E+03  0.24605811020E+03 -0.69403121621E+03  0.74836043196E+03  0.10100000352E+00 0.  1.
</event>
<event>
 5   0  0.1337051E-02  0.6010359E+03  0.7818609E-02  0.9903259E-01
        1   -1    0    0  501    0  0.00000000000E+00  0.00000000000E+00  0.40848813128E+03  0.40848813132E+03  0.50400001928E-02 0. -1.
       -1   -1    0    0    0  501  0.00000000000E+00  0.00000000000E+00 -0.22108604024E+03  0.22108604030E+03  0.50400001928E-02 0.  1.
    10030    2    1    2    0    0  0.00000000000E+00  0.00000000000E+00  0.18740209105E+03  0.62957417161E+03  0.60103585070E+03 0.  0.
        5    1    3    3  502    0  0.27591485256E+03  0.50810642528E+02 -0.19010178193E+02  0.28123691815E+03  0.46999998093E+01 0.  1.
       -5    1    3    3    0  502 -0.27591485256E+03 -0.50810642528E+02  0.20641226924E+03  0.34833725346E+03  0.46999998093E+01 0. -1.
</event>
<event>
 5   0  0.1276705E-02  0.6012506E+03  0.7818609E-02  0.9902815E-01
        1   -1    0    0  501    0  0.00000000000E+00  0.00000000000E+00  0.80941978054E+03  0.80941978056E+03  0.50400001928E-02 0.  1.
       -1   -1    0    0    0  501  0.00000000000E+00  0.00000000000E+00 -0.11165475510E+03  0.11165475521E+03  0.50400001928E-02 0. -1.
    10030    2    1    2    0    0  0.00000000000E+00  0.00000000000E+00  0.69776502544E+03  0.92107453576E+03  0.60125058811E+03 0.  0.
        1    1    3    3  502    0  0.19285838414E+02 -0.14626910436E+03 -0.52381046229E+02  0.15655787582E+03  0.50400001928E-02 0. -1.
       -1    1    3    3    0  502 -0.19285838414E+02  0.14626910436E+03  0.75014607167E+03  0.76451665994E+03  0.50400001928E-02 0.  1.
</event>
<event>
 5   0  0.1250390E-02  0.5971942E+03  0.7818609E-02  0.9911244E-01
       -1   -1    0    0    0  501  0.00000000000E+00  0.00000000000E+00  0.39620506040E+03  0.39620506043E+03  0.50400001928E-02 0.  1.
        1   -1    0    0  501    0  0.00000000000E+00  0.00000000000E+00 -0.22503559402E+03  0.22503559408E+03  0.50400001928E-02 0. -1.
    10030    2    1    2    0    0  0.00000000000E+00  0.00000000000E+00  0.17116946638E+03  0.62124065451E+03  0.59719424360E+03 0.  0.
        3    1    3    3  502    0 -0.28782616156E+03  0.38165862780E+02  0.13066214766E+02  0.29063941324E+03  0.10100000352E+00 0. -1.
       -3    1    3    3    0  502  0.28782616156E+03 -0.38165862780E+02  0.15810325161E+03  0.33060124127E+03  0.10100000352E+00 0.  1.
</event>
<event>
 5   0  0.1303808E-02  0.6012294E+03  0.7818609E-02  0.9902859E-01
        1   -1    0    0  501    0  0.00000000000E+00  0.00000000000E+00  0.12092735862E+03  0.12092735873E+03  0.50400001928E-02 0.  1.
       -1   -1    0    0    0  501  0.00000000000E+00  0.00000000000E+00 -0.74730153016E+03  0.74730153018E+03  0.50400001928E-02 0. -1.
    10030    2    1    2    0    0  0.00000000000E+00  0.00000000000E+00 -0.62637417154E+03  0.86822888890E+03  0.60122940776E+03 0.  0.
        4    1    3    3  502    0  0.22741037521E+03  0.19659204181E+03 -0.31595643810E+03  0.43611236319E+03  0.12699999809E+01 0. -1.
       -4    1    3    3    0  502 -0.22741037521E+03 -0.19659204181E+03 -0.31041773344E+03  0.43211652571E+03  0.12699999809E+01 0.  1.
</event>
<event>
 5   0  0.2092587E-02  0.5758876E+03  0.7818609E-02  0.9956734E-01
       -2   -1    0    0    0  501  0.00000000000E+00  0.00000000000E+00  0.15677639923E+03  0.15677639925E+03  0.25500000920E-02 0.  1.
        2   -1    0    0  501    0  0.00000000000E+00  0.00000000000E+00 -0.52885281709E+03  0.52885281709E+03  0.25500000920E-02 0. -1.
    10030    2    1    2    0    0  0.00000000000E+00  0.00000000000E+00 -0.37207641785E+03  0.68562921634E+03  0.57588762930E+03 0.  0.
        3    1    3    3  502    0 -0.24094951510E+03 -0.11772124814E+03 -0.31088636850E+03  0.41056705349E+03  0.10100000352E+00 0. -1.
       -3    1    3    3    0  502  0.24094951510E+03  0.11772124814E+03 -0.61190049349E+02  0.27506216285E+03  0.10100000352E+00 0.  1.
</event>
<event>
 5   0  0.1337051E-02  0.5927330E+03  0.7818609E-02  0.9920599E-01
        1   -1    0    0  501    0  0.00000000000E+00  0.00000000000E+00  0.34419806867E+03  0.34419806871E+03  0.50400001928E-02 0.  1.
       -1   -1    0    0    0  501  0.00000000000E+00  0.00000000000E+00 -0.25518184336E+03  0.25518184341E+03  0.50400001928E-02 0. -1.
    10030    2    1    2    0    0  0.00000000000E+00  0.00000000000E+00  0.89016225310E+02  0.59937991212E+03  0.59273298431E+03 0.  0.
        5    1    3    3  502    0 -0.48290036987E+02 -0.61508358958E+02  0.33353813599E+03  0.34261492094E+03  0.46999998093E+01 0.  1.
       -5    1    3    3    0  502  0.48290036987E+02  0.61508358958E+02 -0.24452191068E+03  0.25676499118E+03  0.46999998093E+01 0. -1.
</event>
<event>
 5   0  0.2092587E-02  0.6000338E+03  0.7818609E-02  0.9905336E-01
        2   -1    0    0  501    0  0.00000000000E+00  0.00000000000E+00  0.14928005488E+04  0.14928005489E+04  0.25500000920E-02 0.  1.
       -2   -1    0    0    0  501  0.00000000000E+00  0.00000000000E+00 -0.60296165656E+02  0.60296165710E+02  0.25500000920E-02 0. -1.
    10030    2    1    2    0    0  0.00000000000E+00  0.00000000000E+00  0.14325043832E+04  0.15530967146E+04  0.60003382981E+03 0.  0.
        3    1    3    3  502    0  0.44336778293E+02  0.28460775221E+03  0.49903412140E+03  0.57619648302E+03  0.10100000352E+00 0.  1.
       -3    1    3    3    0  502 -0.44336778293E+02 -0.28460775221E+03  0.93347026180E+03  0.97690023154E+03  0.10100000352E+00 0. -1.
</event>
<event>
 5   0  0.2126207E-02  0.5973431E+03  0.7818609E-02  0.9910934E-01
       -2   -1    0    0    0  501  0.00000000000E+00  0.00000000000E+00  0.13581454292E+03  0.13581454294E+03  0.25500000920E-02 0.  1.
        2   -1    0    0  501    0  0.00000000000E+00  0.00000000000E+00 -0.65681258045E+03  0.65681258045E+03  0.25500000920E-02 0. -1.
    10030    2    1    2    0    0  0.00000000000E+00  0.00000000000E+00 -0.52099803753E+03  0.79262712340E+03  0.59734311885E+03 0.  0.
        5    1    3    3  502    0  0.18494955339E+03  0.21592436804E+03 -0.13922584154E+03  0.31660005522E+03  0.46999998093E+01 0.  1.
       -5    1    3    3    0  502 -0.18494955339E+03 -0.21592436804E+03 -0.38177219598E+03  0.47602706818E+03  0.46999998093E+01 0. -1.
</event>
<event>
 5   0  0.1332555E-02  0.6020392E+03  0.7818609E-02  0.9901184E-01
       -1   -1    0    0    0  501  0.00000000000E+00  0.00000000000E+00  0.21564461066E+03  0.21564461072E+03  0.50400001928E-02 0.  1.
        1   -1    0    0  501    0  0.00000000000E+00  0.00000000000E+00 -0.42019502312E+03  0.42019502315E+03  0.50400001928E-02 0. -1.
    10030    2    1    2    0    0  0.00000000000E+00  0.00000000000E+00 -0.20455041246E+03  0.63583963387E+03  0.60203917544E+03 0.  0.
        2    1    3    3  502    0 -0.57832885483E+01  0.20454075027E+03  0.13089680520E+03  0.24290808666E+03  0.25500000920E-02 0.  1.
       -2    1    3    3    0  502  0.57832885483E+01 -0.20454075027E+03 -0.33544721766E+03  0.39293154720E+03  0.25500000920E-02 0. -1.
</event>
<event>
 5   0  0.1303808E-02  0.5915452E+03  0.7818609E-02  0.9923104E-01
       -1   -1    0    0    0  501  0.00000000000E+00  0.00000000000E+00  0.66857716154E+02  0.66857716344E+02  0.50400001928E-02 0.  1.
        1   -1    0    0  501    0  0.00000000000E+00  0.00000000000E+00 -0.13084719231E+04  0.13084719231E+04  0.50400001928E-02 0. -1.
    10030    2    1    2    0    0  0.00000000000E+00  0.00000000000E+00 -0.12416142069E+04  0.13753296394E+04  0.59154524617E+03 0.  0.
        4    1    3    3  502    0 -0.29267529785E+03  0.40762386753E+02 -0.65016353100E+03  0.71416708976E+03  0.12699999809E+01 0. -1.
       -4    1    3    3    0  502  0.29267529785E+03 -0.40762386753E+02 -0.59145067593E+03  0.66116254969E+03  0.12699999809E+01 0.  1.
</event>
<event>
 5   0  0.2141800E-02  0.5957306E+03  0.7818609E-02  0.9914303E-01
       -2   -1    0    0    0  501  0.00000000000E+00  0.00000000000E+00  0.10180965632E+03  0.10180965635E+03  0.25500000920E-02 0.  1.
        2   -1    0    0  501    0  0.00000000000E+00  0.00000000000E+00 -0.87146682257E+03  0.87146682257E+03  0.25500000920E-02 0. -1.
    10030    2    1    2    0    0  0.00000000000E+00  0.00000000000E+00 -0.76965716625E+03  0.97327647892E+03  0.59573060258E+03 0.  0.
        2    1    3    3  502    0 -0.24836110023E+02  0.21593688245E+03 -0.71756175613E+03  0.74976025730E+03  0.25500000920E-02 0. -1.
       -2    1    3    3    0  502  0.24836110023E+02 -0.21593688245E+03 -0.52095410123E+02  0.22351622162E+03  0.25500000920E-02 0.  1.
</event>
<event>
 5   0  0.2092587E-02  0.5968193E+03  0.7818609E-02  0.9912027E-01
        2   -1    0    0  501    0  0.00000000000E+00  0.00000000000E+00  0.30315322289E+03  0.30315322290E+03  0.25500000920E-02 0.  1.
       -2   -1    0    0    0  501  0.00000000000E+00  0.00000000000E+00 -0.29374026209E+03  0.29374026210E+03  0.25500000920E-02 0. -1.
    10030    2    1    2    0    0  0.00000000000E+00  0.00000000000E+00  0.94129607971E+01  0.59689348500E+03  0.59681925958E+03 0.  0.
        3    1    3    3  502    0 -0.15467787585E+03 -0.23257854253E+03 -0.10033168901E+03  0.29679029927E+03  0.10100000352E+00 0. -1.
       -3    1    3    3    0  502  0.15467787585E+03  0.23257854253E+03  0.10974464981E+03  0.30010318573E+03  0.10100000352E+00 0.  1.
</event>
<event>
 5   0  0.1276705E-02  0.5998929E+03  0.7818609E-02  0.9905628E-01
        1   -1    0    0  501    0  0.00000000000E+00  0.00000000000E+00  0.55713543767E+03  0.55713543769E+03  0.50400001928E-02 0. -1.
       -1   -1    0    0    0  501  0.00000000000E+00  0.00000000000E+00 -0.16148295549E+03  0.16148295557E+03  0.50400001928E-02 0.  1.
    10030    2    1    2    0    0  0.00000000000E+00  0.00000000000E+00  0.39565248218E+03  0.71861839326E+03  0.59989291417E+03 0.  0.
        1    1    3    3  502    0 -0.24652350491E+03  0.14845700579E+03  0.96501397527E+02  0.30352238928E+03  0.50400001928E-02 0.  1.
       -1    1    3    3    0  502  0.24652350491E+03 -0.14845700579E+03  0.29915108466E+03  0.41509600398E+03  0.50400001928E-02 0. -1.
</event>
<event>
 5   0  0.2126207E-02  0.5972453E+03  0.7818609E-02  0.9911138E-01
       -2   -1    0    0    0  501  0.00000000000E+00  0.00000000000E+00  0.15635107233E+03  0.15635107235E+03  0.25500000920E-02 0. -1.
        2   -1    0    0  501    0  0.00000000000E+00  0.00000000000E+00 -0.57035408724E+03  0.57035408724E+03  0.25500000920E-02 0.  1.
    10030    2    1    2    0    0  0.00000000000E+00  0.00000000000E+00 -0.41400301491E+03  0.72670515959E+03  0.59724525333E+03 0.  0.
        5    1    3    3  502    0 -0.46981527860E+02 -0.33181326535E+00 -0.56578327326E+03  0.56775010027E+03  0.46999998093E+01 0.  1.
       -5    1    3    3    0  502  0.46981527860E+02  0.33181326535E+00  0.15178025835E+03  0.15895505932E+03  0.46999998093E+01 0. -1.
</event>
<event>
 5   0  0.1303808E-02  0.6000723E+03  0.7818609E-02  0.9905256E-01
        1   -1    0    0  501    0  0.00000000000E+00  0.00000000000E+00  0.69949071536E+03  0.69949071538E+03  0.50400001928E-02 0. -1.
       -1   -1    0    0    0  501  0.00000000000E+00  0.00000000000E+00 -0.12869606110E+03  0.12869606120E+03  0.50400001928E-02 0.  1.
    10030    2    1    2    0    0  0.00000000000E+00  0.00000000000E+00  0.57079465425E+03  0.82818677658E+03  0.60007232862E+03 0.  0.
        4    1    3    3  502    0  0.27862427658E+03  0.84527978335E+02  0.18545710449E+03  0.34521358190E+03  0.12699999809E+01 0. -1.
       -4    1    3    3    0  502 -0.27862427658E+03 -0.84527978335E+02  0.38533754977E+03  0.48297319468E+03  0.12699999809E+01 0.  1.
</event>
<event>
 5   0  0.1337051E-02  0.5998191E+03  0.7818609E-02  0.9905781E-01
        1   -1    0    0  501    0  0.00000000000E+00  0.00000000000E+00  0.11710153489E+04  0.11710153489E+04  0.50400001928E-02 0. -1.
       -1   -1    0    0    0  501  0.00000000000E+00  0.00000000000E+00 -0.76810036784E+02  0.76810036949E+02  0.50400001928E-02 0.  1.
    10030    2    1    2    0    0  0.00000000000E+00  0.00000000000E+00  0.10942053121E+04  0.12478253858E+04  0.59981907982E+03 0.  0.
        5    1    3    3  502    0  0.29102525142E+02  0.12222208208E+02 -0.73267790472E+02  0.79916196493E+02  0.46999998093E+01 0.  1.
       -5    1    3    3    0  502 -0.29102525142E+02 -0.12222208208E+02  0.11674731025E+04  0.11679091893E+04  0.46999998093E+01 0. -1.
</event>
<event>
 5   0  0.2141800E-02  0.5947946E+03  0.7818609E-02  0.9916265E-01
       -2   -1    0    0    0  501  0.00000000000E+00  0.00000000000E+00  0.94964067622E+02  0.94964067657E+02  0.25500000920E-02 0. -1.
        2   -1    0    0  501    0  0.00000000000E+00  0.00000000000E+00 -0.93135399607E+03  0.93135399607E+03  0.25500000920E-02 0.  1.
    10030    2    1    2    0    0  0.00000000000E+00  0.00000000000E+00 -0.83638992844E+03  0.10263180637E+04  0.59479463307E+03 0.  0.
        2    1    3    3  502    0  0.13918410112E+03  0.94325377482E+02 -0.84147268481E+03  0.85810592011E+03  0.25500000920E-02 0.  1.
       -2    1    3    3    0  502 -0.13918410112E+03 -0.94325377482E+02  0.50827563685E+01  0.16821214361E+03  0.25500000920E-02 0. -1.
</event>
<event>
 5   0  0.1276705E-02  0.5995281E+03  0.7818609E-02  0.9906386E-01
       -1   -1    0    0    0  501  0.00000000000E+00  0.00000000000E+00  0.15300415180E+03  0.15300415188E+03  0.50400001928E-02 0. -1.
        1   -1    0    0  501    0  0.00000000000E+00  0.00000000000E+00 -0.58729439548E+03  0.58729439551E+03  0.50400001928E-02 0.  1.
    10030    2    1    2    0    0  0.00000000000E+00  0.00000000000E+00 -0.43429024369E+03  0.74029854738E+03  0.59952808399E+03 0.  0.
        1    1    3    3  502    0 -0.14224782550E+03  0.19006679156E+02  0.10782791934E+03  0.17950642866E+03  0.50400001928E-02 0. -1.
       -1    1    3    3    0  502  0.14224782550E+03 -0.19006679156E+02 -0.54211816303E+03  0.56079211873E+03  0.50400001928E-02 0.  1.
</event>
<event>
 5   0  0.1332555E-02  0.5993333E+03  0.7818609E-02  0.9906790E-01
        1   -1    0    0  501    0  0.00000000000E+00  0.00000000000E+00  0.56311066879E+03  0.56311066882E+03  0.50400001928E-02 0. -1.
       -1   -1    0    0    0  501  0.00000000000E+00  0.00000000000E+00 -0.15947147468E+03  0.15947147476E+03  0.50400001928E-02 0.  1.
    10030    2    1    2    0    0  0.00000000000E+00  0.00000000000E+00  0.40363919411E+03  0.72258214358E+03  0.59933325888E+03 0.  0.
        2    1    3    3  502    0 -0.72436525963E+02 -0.50481137815E+02 -0.14343399086E+03  0.16843011996E+03  0.25500000920E-02 0.  1.
       -2    1    3    3    0  502  0.72436525963E+02  0.50481137815E+02  0.54707318497E+03  0.55415202362E+03  0.25500000920E-02 0. -1.
</event>
<event>
 5   0  0.2126207E-02  0.5768749E+03  0.7818609E-02  0.9954580E-01
       -2   -1    0    0    0  501  0.00000000000E+00  0.00000000000E+00  0.14567589985E+03  0.14567589987E+03  0.25500000920E-02 0.  1.
        2   -1    0    0  501    0  0.00000000000E+00  0.00000000000E+00 -0.57110457329E+03  0.57110457330E+03  0.25500000920E-02 0. -1.
    10030    2    1    2    0    0  0.00000000000E+00  0.00000000000E+00 -0.42542867345E+03  0.71678047317E+03  0.57687493491E+03 0.  0.
        5    1    3    3  502    0 -0.12898645190E+03 -0.21335286209E+03 -0.39284649135E+03  0.46530356146E+03  0.46999998093E+01 0. -1.
       -5    1    3    3    0  502  0.12898645190E+03  0.21335286209E+03 -0.32582182092E+02  0.25147691171E+03  0.46999998093E+01 0.  1.
</event>
<event>
 5   0  0.2142838E-02  0.6007311E+03  0.7818609E-02  0.9903890E-01
        2   -1    0    0  501    0  0.00000000000E+00  0.00000000000E+00  0.68334017617E+03  0.68334017617E+03  0.25500000920E-02 0. -1.
       -2   -1    0    0    0  501  0.00000000000E+00  0.00000000000E+00 -0.13202718147E+03  0.13202718149E+03  0.25500000920E-02 0.  1.
    10030    2    1    2    0    0  0.00000000000E+00  0.00000000000E+00  0.55131299470E+03  0.81536735767E+03  0.60073114604E+03 0.  0.
        4    1    3    3  502    0  0.10430592203E+03  0.14668644855E+03 -0.50718450768E+02  0.18700431468E+03  0.12699999809E+01 0.  1.
       -4    1    3    3    0  502 -0.10430592203E+03 -0.14668644855E+03  0.60203144547E+03  0.62836304299E+03  0.12699999809E+01 0. -1.
</event>
<event>
 5   0  0.1332555E-02  0.5861006E+03  0.7818609E-02  0.9934670E-01
       -1   -1    0    0    0  501  0.00000000000E+00  0.00000000000E+00  0.39157313873E+03  0.39157313876E+03  0.50400001928E-02 0.  1.
        1   -1    0    0  501    0  0.00000000000E+00  0.00000000000E+00 -0.21931656483E+03  0.21931656489E+03  0.50400001928E-02 0. -1.
    10030    2    1    2    0    0  0.00000000000E+00  0.00000000000E+00  0.17225657390E+03  0.61088970365E+03  0.58610059101E+03 0.  0.
        2    1    3    3  502    0  0.15209997322E+03  0.15839992833E+03 -0.11612404253E+03  0.24841443679E+03  0.25500000920E-02 0. -1.
       -2    1    3    3    0  502 -0.15209997322E+03 -0.15839992833E+03  0.28838061642E+03  0.36247526686E+03  0.25500000920E-02 0.  1.
</event>
<event>
 5   0  0.1250390E-02  0.6012013E+03  0.7818609E-02  0.9902917E-01
        1   -1    0    0  501    0  0.00000000000E+00  0.00000000000E+00  0.18794296658E+03  0.18794296665E+03  0.50400001928E-02 0.  1.
       -1   -1    0    0    0  501  0.00000000000E+00  0.00000000000E+00 -0.48078820695E+03  0.48078820698E+03  0.50400001928E-02 0. -1.
    10030    2    1    2    0    0  0.00000000000E+00  0.00000000000E+00 -0.29284524037E+03  0.66873117362E+03  0.60120133713E+03 0.  0.
        3    1    3    3  502    0 -0.20250268082E+03  0.92024238632E+02  0.78489777639E+02  0.23587380446E+03  0.10100000352E+00 0.  1.
       -3    1    3    3    0  502  0.20250268082E+03 -0.92024238632E+02 -0.37133501801E+03  0.43285736916E+03  0.10100000352E+00 0. -1.
</event>
<event>
 5   0  0.1332555E-02  0.5998591E+03  0.7818609E-02  0.9905698E-01
       -1   -1    0    0    0  501  0.00000000000E+00  0.00000000000E+00  0.88744270804E+02  0.88744270947E+02  0.50400001928E-02 0. -1.
        1   -1    0    0  501    0  0.00000000000E+00  0.00000000000E+00 -0.10136736972E+04  0.10136736972E+04  0.50400001928E-02 0.  1.
    10030    2    1    2    0    0  0.00000000000E+00  0.00000000000E+00 -0.92492942637E+03  0.11024179681E+04  0.59985909404E+03 0.  0.
        2    1    3    3  502    0  0.29690506130E+03 -0.33530575472E+02 -0.51041736517E+03  0.59144129176E+03  0.25500000920E-02 0. -1.
       -2    1    3    3    0  502 -0.29690506130E+03  0.33530575472E+02 -0.41451206120E+03  0.51097667638E+03  0.25500000920E-02 0.  1.
</event>
<event>
 5   0  0.2092587E-02  0.5981783E+03  0.7818609E-02  0.9909193E-01
       -2   -1    0    0    0  501  0.00000000000E+00  0.00000000000E+00  0.19564460511E+03  0.19564460513E+03  0.25500000920E-02 0. -1.
        2   -1    0    0  501    0  0.00000000000E+00  0.00000000000E+00 -0.45722867827E+03  0.45722867828E+03  0.25500000920E-02 0.  1.
    10030    2    1    2    0    0  0.00000000000E+00  0.00000000000E+00 -0.26158407317E+03  0.65287328341E+03  0.59817831527E+03 0.  0.
        3    1    3    3  502    0 -0.12858902871E+02 -0.29639674867E+03 -0.17217933758E+03  0.34301912263E+03  0.10100000352E+00 0.  1.
       -3    1    3    3    0  502  0.12858902871E+02  0.29639674867E+03 -0.89404735590E+02  0.30985416078E+03  0.10100000352E+00 0. -1.
</event>
<event>
 5   0  0.1337051E-02  0.5955618E+03  0.7818609E-02  0.9914657E-01
       -1   -1    0    0    0  501  0.00000000000E+00  0.00000000000E+00  0.23210684497E+03  0.23210684502E+03  0.50400001928E-02 0.  1.
        1   -1    0    0  501    0  0.00000000000E+00  0.00000000000E+00 -0.38203721662E+03  0.38203721666E+03  0.50400001928E-02 0. -1.
    10030    2    1    2    0    0  0.00000000000E+00  0.00000000000E+00 -0.14993037165E+03  0.61414406168E+03  0.59556176183E+03 0.  0.
        5    1    3    3  502    0 -0.58547345033E+02  0.20862649350E+03  0.13560843618E+03  0.25566490444E+03  0.46999998093E+01 0.  1.
       -5    1    3    3    0  502  0.58547345033E+02 -0.20862649350E+03 -0.28553880783E+03  0.35847915724E+03  0.46999998093E+01 0. -1.
</event>
<event>
 5   0  0.1303808E-02  0.6006293E+03  0.7818609E-02  0.9904101E-01
        1   -1    0    0  501    0  0.00000000000E+00  0.00000000000E+00  0.72089467560E+03  0.72089467562E+03  0.50400001928E-02 0. -1.
       -1   -1    0    0    0  501  0.00000000000E+00  0.00000000000E+00 -0.12510690618E+03  0.12510690629E+03  0.50400001928E-02 0.  1.
    10030    2    1    2    0    0  0.00000000000E+00  0.00000000000E+00  0.59578776942E+03  0.84600158191E+03  0.60062934527E+03 0.  0.
        4    1    3    3  502    0 -0.14282917868E+03 -0.23574873032E+03  0.46579606768E+03  0.54124414796E+03  0.12699999809E+01 0. -1.
       -4    1    3    3    0  502  0.14282917868E+03  0.23574873032E+03  0.12999170174E+03  0.30475743395E+03  0.12699999809E+01 0.  1.
</event>
<event>
 5   0  0.1276705E-02  0.6016616E+03  0.7818609E-02  0.9901965E-01
       -1   -1    0    0    0  501  0.00000000000E+00  0.00000000000E+00  0.13647730002E+03  0.13647730012E+03  0.50400001928E-02 0. -1.
        1   -1    0    0  501    0  0.00000000000E+00  0.00000000000E+00 -0.66310778362E+03  0.66310778364E+03  0.50400001928E-02 0.  1.
    10030    2    1    2    0    0  0.00000000000E+00  0.00000000000E+00 -0.52663048360E+03  0.79958508376E+03  0.60166156593E+03 0.  0.
        1    1    3    3  502    0  0.16813017198E+03 -0.18015065123E+03 -0.33988888826E+02  0.24875139489E+03  0.50400001928E-02 0. -1.
       -1    1    3    3    0  502 -0.16813017198E+03  0.18015065123E+03 -0.49264159478E+03  0.55083368887E+03  0.50400001928E-02 0.  1.
</event>
<event>
 5   0  0.2179625E-02  0.6180690E+03  0.7818609E-02  0.9868612E-01
        2   -1    0    0  501    0  0.00000000000E+00  0.00000000000E+00  0.58770871197E+03  0.58770871197E+03  0.25500000920E-02 0. -1.
       -2   -1    0    0    0  501  0.00000000000E+00  0.00000000000E+00 -0.16249942216E+03  0.16249942218E+03  0.25500000920E-02 0.  1.
    10030    2    1    2    0    0  0.00000000000E+00  0.00000000000E+00  0.42520928980E+03  0.75020813416E+03  0.61806901267E+03 0.  0.
        1    1    3    3  502    0 -0.26760175169E+03  0.18235362756E+02  0.39890948900E+03  0.48069949699E+03  0.50400001928E-02 0. -1.
       -1    1    3    3    0  502  0.26760175169E+03 -0.18235362756E+02  0.26299800804E+02  0.26950863717E+03  0.50400001928E-02 0.  1.
</event>
<event>
 5   0  0.1276705E-02  0.5988845E+03  0.7818609E-02  0.9907723E-01
       -1   -1    0    0    0  501  0.00000000000E+00  0.00000000000E+00  0.55274942989E+03  0.55274942992E+03  0.50400001928E-02 0. -1.
        1   -1    0    0  501    0  0.00000000000E+00  0.00000000000E+00 -0.16221753012E+03  0.16221753020E+03  0.50400001928E-02 0.  1.
    10030    2    1    2    0    0  0.00000000000E+00  0.00000000000E+00  0.39053189977E+03  0.71496696012E+03  0.59888445407E+03 0.  0.
        1    1    3    3  502    0  0.59609852548E+02  0.15407509816E+03 -0.10288889132E+03  0.19462423893E+03  0.50400001928E-02 0.  1.
       -1    1    3    3    0  502 -0.59609852548E+02 -0.15407509816E+03  0.49342079109E+03  0.52034272119E+03  0.50400001928E-02 0. -1.
</event>
<event>
 5   0  0.2092587E-02  0.6196985E+03  0.7818609E-02  0.9865360E-01
       -2   -1    0    0    0  501  0.00000000000E+00  0.00000000000E+00  0.69381767055E+02  0.69381767102E+02  0.25500000920E-02 0. -1.
        2   -1    0    0  501    0  0.00000000000E+00  0.00000000000E+00 -0.13837431842E+04  0.13837431842E+04  0.25500000920E-02 0.  1.
    10030    2    1    2    0    0  0.00000000000E+00  0.00000000000E+00 -0.13143614172E+04  0.14531249514E+04  0.61969846638E+03 0.  0.
        3    1    3    3  502    0 -0.76714081350E+02 -0.24411991265E+03 -0.10668791223E+04  0.10971374818E+04  0.10100000352E+00 0.  1.
       -3    1    3    3    0  502  0.76714081350E+02  0.24411991265E+03 -0.24748229486E+03  0.35598746959E+03  0.10100000352E+00 0. -1.
</event>
<event>
 5   0  0.2092587E-02  0.6013502E+03  0.7818609E-02  0.9902609E-01
       -2   -1    0    0    0  501  0.00000000000E+00  0.00000000000E+00  0.12850379111E+03  0.12850379113E+03  0.25500000920E-02 0.  1.
        2   -1    0    0  501    0  0.00000000000E+00  0.00000000000E+00 -0.70352420097E+03  0.70352420097E+03  0.25500000920E-02 0. -1.
    10030    2    1    2    0    0  0.00000000000E+00  0.00000000000E+00 -0.57502040986E+03  0.83202799211E+03  0.60135023730E+03 0.  0.
        3    1    3    3  502    0 -0.55003362493E+02 -0.17493622275E+03 -0.61719464426E+03  0.64386123584E+03  0.10100000352E+00 0. -1.
       -3    1    3    3    0  502  0.55003362493E+02  0.17493622275E+03  0.42174234398E+02  0.18816675627E+03  0.10100000352E+00 0.  1.
</event>
<event>
 5   0  0.2142838E-02  0.5997752E+03  0.7818609E-02  0.9905873E-01
        2   -1    0    0  501    0  0.00000000000E+00  0.00000000000E+00  0.51084779556E+03  0.51084779556E+03  0.25500000920E-02 0.  1.
       -2   -1    0    0    0  501  0.00000000000E+00  0.00000000000E+00 -0.17604572536E+03  0.17604572538E+03  0.25500000920E-02 0. -1.
    10030    2    1    2    0    0  0.00000000000E+00  0.00000000000E+00  0.33480207019E+03  0.68689352095E+03  0.59977519365E+03 0.  0.
        4    1    3    3  502    0  0.15885493427E+03 -0.56342482939E+02 -0.11666198758E+03  0.20499023824E+03  0.12699999809E+01 0. -1.
       -4    1    3    3    0  502 -0.15885493427E+03  0.56342482939E+02  0.45146405777E+03  0.48190328271E+03  0.12699999809E+01 0.  1.
</event>
<event>
 5   0  0.1250390E-02  0.5986195E+03  0.7818609E-02  0.9908274E-01
        1   -1    0    0  501    0  0.00000000000E+00  0.00000000000E+00  0.60617148934E+03  0.60617148936E+03  0.50400001928E-02 0. -1.
       -1   -1    0    0    0  501  0.00000000000E+00  0.00000000000E+00 -0.14779039012E+03  0.14779039020E+03  0.50400001928E-02 0.  1.
    10030    2    1    2    0    0  0.00000000000E+00  0.00000000000E+00  0.45838109922E+03  0.75396187956E+03  0.59861948157E+03 0.  0.
        3    1    3    3  502    0 -0.72777443253E+02  0.12575105166E+03  0.55877680273E+03  0.57735726263E+03  0.10100000352E+00 0. -1.
       -3    1    3    3    0  502  0.72777443253E+02 -0.12575105166E+03 -0.10039570351E+03  0.17660461694E+03  0.10100000352E+00 0.  1.
</event>
<event>
 5   0  0.2142838E-02  0.6206416E+03  0.7818609E-02  0.9863483E-01
       -2   -1    0    0    0  501  0.00000000000E+00  0.00000000000E+00  0.23881241196E+03  0.23881241197E+03  0.25500000920E-02 0. -1.
        2   -1    0    0  501    0  0.00000000000E+00  0.00000000000E+00 -0.40324114421E+03  0.40324114422E+03  0.25500000920E-02 0.  1.
    10030    2    1    2    0    0  0.00000000000E+00  0.00000000000E+00 -0.16442873225E+03  0.64205355619E+03  0.62064157210E+03 0.  0.
        4    1    3    3  502    0  0.15606246280E+03 -0.26504026283E+03 -0.12481194771E+03  0.33193594022E+03  0.12699999809E+01 0.  1.
       -4    1    3    3    0  502 -0.15606246280E+03  0.26504026283E+03 -0.39616784545E+02  0.31011761597E+03  0.12699999809E+01 0. -1.
</event>
<event>
 5   0  0.1337051E-02  0.6002275E+03  0.7818609E-02  0.9904934E-01
        1   -1    0    0  501    0  0.00000000000E+00  0.00000000000E+00  0.74747339765E+03  0.74747339767E+03  0.50400001928E-02 0.  1.
       -1   -1    0    0    0  501  0.00000000000E+00  0.00000000000E+00 -0.12049693833E+03  0.12049693843E+03  0.50400001928E-02 0. -1.
    10030    2    1    2    0    0  0.00000000000E+00  0.00000000000E+00  0.62697645932E+03  0.86797033610E+03  0.60022747672E+03 0.  0.
        5    1    3    3  502    0  0.13565146042E+03  0.23717762360E+03  0.13408460776E+03  0.30439335717E+03  0.46999998093E+01 0. -1.
       -5    1    3    3    0  502 -0.13565146042E+03 -0.23717762360E+03  0.49289185156E+03  0.56357697894E+03  0.46999998093E+01 0.  1.
</event>
<event>
 5   0  0.2179625E-02  0.5965943E+03  0.7818609E-02  0.9912497E-01
        2   -1    0    0  501    0  0.00000000000E+00  0.00000000000E+00  0.61530998554E+03  0.61530998554E+03  0.25500000920E-02 0.  1.
       -2   -1    0    0    0  501  0.00000000000E+00  0.00000000000E+00 -0.14461195373E+03  0.14461195375E+03  0.25500000920E-02 0. -1.
    10030    2    1    2    0    0  0.00000000000E+00  0.00000000000E+00  0.47069803180E+03  0.75992193929E+03  0.59659426470E+03 0.  0.
        1    1    3    3  502    0  0.67484656679E+02 -0.27327103799E+03  0.10957501340E+03  0.30205615815E+03  0.50400001928E-02 0. -1.
       -1    1    3    3    0  502 -0.67484656679E+02  0.27327103799E+03  0.36112301841E+03  0.45786578114E+03  0.50400001928E-02 0.  1.
</event>
<event>
 5   0  0.1332555E-02  0.6002027E+03  0.7818609E-02  0.9904986E-01
        1   -1    0    0  501    0  0.00000000000E+00  0.00000000000E+00  0.17307369347E+04  0.17307369347E+04  0.50400001928E-02 0. -1.
       -1   -1    0    0    0  501  0.00000000000E+00  0.00000000000E+00 -0.52036110747E+02  0.52036110991E+02  0.50400001928E-02 0.  1.
    10030    2    1    2    0    0  0.00000000000E+00  0.00000000000E+00  0.16787008239E+04  0.17827730457E+04  0.60020269587E+03 0.  0.
        2    1    3    3  502    0  0.16681692949E+02  0.20411107693E+03  0.18777246060E+03  0.27784547427E+03  0.25500000920E-02 0.  1.
       -2    1    3    3    0  502 -0.16681692949E+02 -0.20411107693E+03  0.14909283633E+04  0.15049275714E+04  0.25500000920E-02 0. -1.
</event>
<event>
 5   0  0.2126207E-02  0.5995065E+03  0.7818609E-02  0.9906430E-01
        2   -1    0    0  501    0  0.00000000000E+00  0.00000000000E+00  0.11506669715E+04  0.11506669715E+04  0.25500000920E-02 0.  1.
       -2   -1    0    0    0  501  0.00000000000E+00  0.00000000000E+00 -0.78086896852E+02  0.78086896893E+02  0.25500000920E-02 0. -1.
    10030    2    1    2    0    0  0.00000000000E+00  0.00000000000E+00  0.10725800746E+04  0.12287538684E+04  0.59950650752E+03 0.  0.
        5    1    3    3  502    0  0.20814749339E+03  0.77469749471E+02  0.12379901930E+03  0.25431324831E+03  0.46999998093E+01 0. -1.
       -5    1    3    3    0  502 -0.20814749339E+03 -0.77469749471E+02  0.94878105533E+03  0.97444062006E+03  0.46999998093E+01 0.  1.
</event>
<event>
 5   0  0.1250390E-02  0.6034808E+03  0.7818609E-02  0.9898211E-01
        1   -1    0    0  501    0  0.00000000000E+00  0.00000000000E+00  0.54137598550E+03  0.54137598552E+03  0.50400001928E-02 0.  1.
       -1   -1    0    0    0  501  0.00000000000E+00  0.00000000000E+00 -0.16817753580E+03  0.16817753588E+03  0.50400001928E-02 0. -1.
    10030    2    1    2    0    0  0.00000000000E+00  0.00000000000E+00  0.37319844969E+03  0.70955352140E+03  0.60348083390E+03 0.  0.
        3    1    3    3  502    0 -0.17438542279E+03 -0.20668052983E+03  0.29203648713E+02  0.27199261091E+03  0.10100000352E+00 0. -1.
       -3    1    3    3    0  502  0.17438542279E+03  0.20668052983E+03  0.34399480098E+03  0.43756091049E+03  0.10100000352E+00 0.  1.
</event>
<event>
 5   0  0.1276705E-02  0.6267533E+03  0.7818609E-02  0.9851405E-01
        1   -1    0    0  501    0  0.00000000000E+00  0.00000000000E+00  0.90242157924E+03  0.90242157925E+03  0.50400001928E-02 0.  1.
       -1   -1    0    0    0  501  0.00000000000E+00  0.00000000000E+00 -0.10882376822E+03  0.10882376834E+03  0.50400001928E-02 0. -1.
    10030    2    1    2    0    0  0.00000000000E+00  0.00000000000E+00  0.79359781101E+03  0.10112453476E+04  0.62675327472E+03 0.  0.
        1    1    3    3  502    0 -0.13634109709E+03 -0.91397824725E+02 -0.33916424069E+02  0.16760901219E+03  0.50400001928E-02 0. -1.
       -1    1    3    3    0  502  0.13634109709E+03  0.91397824725E+02  0.82751423508E+03  0.84363633540E+03  0.50400001928E-02 0.  1.
</event>
<event>
 5   0  0.8551000E-03  0.6008926E+03  0.7818609E-02  0.9903556E-01
        3   -1    0    0  501    0  0.00000000000E+00  0.00000000000E+00  0.50472969310E+03  0.50472970320E+03  0.10100000352E+00 0.  1.
       -3   -1    0    0    0  501  0.00000000000E+00  0.00000000000E+00 -0.17884417450E+03  0.17884420302E+03  0.10100000352E+00 0. -1.
    10030    2    1    2    0    0  0.00000000000E+00  0.00000000000E+00  0.32588551860E+03  0.68357390622E+03  0.60089259776E+03 0.  0.
        5    1    3    3  502    0  0.48615073827E+02  0.11043081925E+03  0.47591130697E+03  0.49099088927E+03  0.46999998093E+01 0.  1.
       -5    1    3    3    0  502 -0.48615073827E+02 -0.11043081925E+03 -0.15002578837E+03  0.19258301695E+03  0.46999998093E+01 0. -1.
</event>
<event>
 5   0  0.1337051E-02  0.5999480E+03  0.7818609E-02  0.9905514E-01
        1   -1    0    0  501    0  0.00000000000E+00  0.00000000000E+00  0.22348093227E+03  0.22348093233E+03  0.50400001928E-02 0. -1.
       -1   -1    0    0    0  501  0.00000000000E+00  0.00000000000E+00 -0.40264906639E+03  0.40264906642E+03  0.50400001928E-02 0.  1.
    10030    2    1    2    0    0  0.00000000000E+00  0.00000000000E+00 -0.17916813412E+03  0.62612999874E+03  0.59994796028E+03 0.  0.
        5    1    3    3  502    0 -0.53288054697E+02  0.22400139860E+03  0.11101779936E+03  0.25566244371E+03  0.46999998093E+01 0. -1.
       -5    1    3    3    0  502  0.53288054697E+02 -0.22400139860E+03 -0.29018593347E+03  0.37046755504E+03  0.46999998093E+01 0.  1.
</event>
<event>
 5   0  0.1276705E-02  0.5994081E+03  0.7818609E-02  0.9906635E-01
       -1   -1    0    0    0  501  0.00000000000E+00  0.00000000000E+00  0.63381280348E+02  0.63381280548E+02  0.50400001928E-02 0.  1.
        1   -1    0    0  501    0  0.00000000000E+00  0.00000000000E+00 -0.14171773588E+04  0.14171773588E+04  0.50400001928E-02 0. -1.
    10030    2    1    2    0    0  0.00000000000E+00  0.00000000000E+00 -0.13537960785E+04  0.14805586394E+04  0.59940809349E+03 0.  0.
        1    1    3    3  502    0 -0.24664109794E+03 -0.90421863332E+02 -0.32053985055E+03  0.41443182838E+03  0.50400001928E-02 0.  1.
       -1    1    3    3    0  502  0.24664109794E+03  0.90421863332E+02 -0.10332562279E+04  0.10661268110E+04  0.50400001928E-02 0. -1.
</event>
<event>
 5   0  0.1332555E-02  0.6009848E+03  0.7818609E-02  0.9903365E-01
       -1   -1    0    0    0  501  0.00000000000E+00  0.00000000000E+00  0.44739383023E+03  0.44739383026E+03  0.50400001928E-02 0. -1.
        1   -1    0    0  501    0  0.00000000000E+00  0.00000000000E+00 -0.20182597467E+03  0.20182597473E+03  0.50400001928E-02 0.  1.
    10030    2    1    2    0    0  0.00000000000E+00  0.00000000000E+00  0.24556785556E+03  0.64921980499E+03  0.60098484466E+03 0.  0.
        2    1    3    3  502    0 -0.78514199670E+02 -0.18020151074E+03  0.36831117209E+03  0.41748075826E+03  0.25500000920E-02 0. -1.
       -2    1    3    3    0  502  0.78514199670E+02  0.18020151074E+03 -0.12274331652E+03  0.23173904674E+03  0.25500000920E-02 0.  1.
</event>
<event>
 5   0  0.1250390E-02  0.5990574E+03  0.7818609E-02  0.9907364E-01
        1   -1    0    0  501    0  0.00000000000E+00  0.00000000000E+00  0.13183172706E+03  0.13183172716E+03  0.50400001928E-02 0.  1.
       -1   -1    0    0    0  501  0.00000000000E+00  0.00000000000E+00 -0.68054512401E+03  0.68054512403E+03  0.50400001928E-02 0. -1.
    10030    2    1    2    0    0  0.00000000000E+00  0.00000000000E+00 -0.54871339695E+03  0.81237685119E+03  0.59905738987E+03 0.  0.
        3    1    3    3  502    0 -0.76841589130E+02  0.28747624129E+03 -0.22796706215E+03  0.37485491961E+03  0.10100000352E+00 0.  1.
       -3    1    3    3    0  502  0.76841589130E+02 -0.28747624129E+03 -0.32074633480E+03  0.43752193158E+03  0.10100000352E+00 0. -1.
</event>
<event>
 5   0  0.2126207E-02  0.5980023E+03  0.7818609E-02  0.9909559E-01
        2   -1    0    0  501    0  0.00000000000E+00  0.00000000000E+00  0.53629074356E+03  0.53629074356E+03  0.25500000920E-02 0.  1.
       -2   -1    0    0    0  501  0.00000000000E+00  0.00000000000E+00 -0.16670378011E+03  0.16670378013E+03  0.25500000920E-02 0. -1.
    10030    2    1    2    0    0  0.00000000000E+00  0.00000000000E+00  0.36958696344E+03  0.70299452370E+03  0.59800232173E+03 0.  0.
        5    1    3    3  502    0  0.62483351871E+02 -0.28285986041E+03  0.97882765264E+02  0.30580548659E+03  0.46999998093E+01 0. -1.
       -5    1    3    3    0  502 -0.62483351871E+02  0.28285986041E+03  0.27170419818E+03  0.39718903711E+03  0.46999998093E+01 0.  1.
</event>
<event>
 5   0  0.1337051E-02  0.6027440E+03  0.7818609E-02  0.9899729E-01
       -1   -1    0    0    0  501  0.00000000000E+00  0.00000000000E+00  0.62818969803E+02  0.62818970006E+02  0.50400001928E-02 0. -1.
        1   -1    0    0  501    0  0.00000000000E+00  0.00000000000E+00 -0.14458224007E+04  0.14458224007E+04  0.50400001928E-02 0.  1.
    10030    2    1    2    0    0  0.00000000000E+00  0.00000000000E+00 -0.13830034309E+04  0.15086413707E+04  0.60274397182E+03 0.  0.
        5    1    3    3  502    0 -0.20838458930E+03 -0.13890761109E+02 -0.14780184517E+03  0.25589952274E+03  0.46999998093E+01 0.  1.
       -5    1    3    3    0  502  0.20838458930E+03  0.13890761109E+02 -0.12352015857E+04  0.12527418480E+04  0.46999998093E+01 0. -1.
</event>
<event>
 5   0  0.2179625E-02  0.5940778E+03  0.7818609E-02  0.9917769E-01
       -2   -1    0    0    0  501  0.00000000000E+00  0.00000000000E+00  0.35212681501E+03  0.35212681502E+03  0.25500000920E-02 0.  1.
        2   -1    0    0  501    0  0.00000000000E+00  0.00000000000E+00 -0.25056912247E+03  0.25056912249E+03  0.25500000920E-02 0. -1.
    10030    2    1    2    0    0  0.00000000000E+00  0.00000000000E+00  0.10155769254E+03  0.60269593751E+03  0.59407779640E+03 0.  0.
        1    1    3    3  502    0 -0.46282022219E+02 -0.18009136841E+03  0.28577938999E+03  0.34094689664E+03  0.50400001928E-02 0. -1.
       -1    1    3    3    0  502  0.46282022219E+02  0.18009136841E+03 -0.18422169746E+03  0.26174904087E+03  0.50400001928E-02 0.  1.
</event>
<event>
 5   0  0.1276705E-02  0.5997644E+03  0.7818609E-02  0.9905895E-01
       -1   -1    0    0    0  501  0.00000000000E+00  0.00000000000E+00  0.84391260751E+02  0.84391260902E+02  0.50400001928E-02 0. -1.
        1   -1    0    0  501    0  0.00000000000E+00  0.00000000000E+00 -0.10656238068E+04  0.10656238068E+04  0.50400001928E-02 0.  1.
    10030    2    1    2    0    0  0.00000000000E+00  0.00000000000E+00 -0.98123254605E+03  0.11500150677E+04  0.59976440920E+03 0.  0.
        1    1    3    3  502    0 -0.54415700999E+02  0.12375617621E+03  0.22645653984E+02  0.13707474361E+03  0.50400001928E-02 0. -1.
       -1    1    3    3    0  502  0.54415700999E+02 -0.12375617621E+03 -0.10038782000E+04  0.10129403241E+04  0.50400001928E-02 0.  1.
</event>
<event>
 5   0  0.2142838E-02  0.5949279E+03  0.7818609E-02  0.9915985E-01
       -2   -1    0    0    0  501  0.00000000000E+00  0.00000000000E+00  0.77082181528E+03  0.77082181529E+03  0.25500000920E-02 0. -1.
        2   -1    0    0  501    0  0.00000000000E+00  0.00000000000E+00 -0.11479282412E+03  0.11479282415E+03  0.25500000920E-02 0.  1.
    10030    2    1    2    0    0  0.00000000000E+00  0.00000000000E+00  0.65602899116E+03  0.88561463943E+03  0.59492793878E+03 0.  0.
        4    1    3    3  502    0 -0.22209426008E+03 -0.15273013881E+03  0.14071678702E+03  0.30406443842E+03  0.12699999809E+01 0. -1.
       -4    1    3    3    0  502  0.22209426008E+03  0.15273013881E+03  0.51531220414E+03  0.58155020101E+03  0.12699999809E+01 0.  1.
</event>
<event>
 5   0  0.2092587E-02  0.6018869E+03  0.7818609E-02  0.9901499E-01
        2   -1    0    0  501    0  0.00000000000E+00  0.00000000000E+00  0.10066032564E+04  0.10066032564E+04  0.25500000920E-02 0.  1.
       -2   -1    0    0    0  501  0.00000000000E+00  0.00000000000E+00 -0.89972837859E+02  0.89972837895E+02  0.25500000920E-02 0. -1.
    10030    2    1    2    0    0  0.00000000000E+00  0.00000000000E+00  0.91663041852E+03  0.10965760943E+04  0.60188687175E+03 0.  0.
        3    1    3    3  502    0 -0.13474302544E+03  0.39963182307E+02 -0.26508765385E+02  0.14302259852E+03  0.10100000352E+00 0. -1.
       -3    1    3    3    0  502  0.13474302544E+03 -0.39963182307E+02  0.94313918391E+03  0.95355349575E+03  0.10100000352E+00 0.  1.
</event>
<event>
 5   0  0.1250390E-02  0.5729536E+03  0.7818609E-02  0.9963164E-01
        1   -1    0    0  501    0  0.00000000000E+00  0.00000000000E+00  0.72702776358E+03  0.72702776360E+03  0.50400001928E-02 0. -1.
       -1   -1    0    0    0  501  0.00000000000E+00  0.00000000000E+00 -0.11288283984E+03  0.11288283995E+03  0.50400001928E-02 0.  1.
    10030    2    1    2    0    0  0.00000000000E+00  0.00000000000E+00  0.61414492375E+03  0.83991060355E+03  0.57295360597E+03 0.  0.
        3    1    3    3  502    0  0.14019499485E+03  0.62460100010E+02  0.66167347080E+03  0.67924052649E+03  0.10100000352E+00 0. -1.
       -3    1    3    3    0  502 -0.14019499485E+03 -0.62460100010E+02 -0.47528547048E+02  0.16067007706E+03  0.10100000352E+00 0.  1.
</event>
<event>
 5   0  0.1337051E-02  0.5993226E+03  0.7818609E-02  0.9906812E-01
        1   -1    0    0  501    0  0.00000000000E+00  0.00000000000E+00  0.96164186123E+03  0.96164186125E+03  0.50400001928E-02 0. -1.
       -1   -1    0    0    0  501  0.00000000000E+00  0.00000000000E+00 -0.93378739756E+02  0.93378739892E+02  0.50400001928E-02 0.  1.
    10030    2    1    2    0    0  0.00000000000E+00  0.00000000000E+00  0.86826312148E+03  0.10550206011E+04  0.59932263490E+03 0.  0.
        5    1    3    3  502    0  0.23956593470E+03  0.16020951419E+03  0.57839358984E+03  0.64623537529E+03  0.46999998093E+01 0.  1.
       -5    1    3    3    0  502 -0.23956593470E+03 -0.16020951419E+03  0.28986953163E+03  0.40878522585E+03  0.46999998093E+01 0. -1.
</event>
<event>
 5   0  0.8551000E-03  0.5986268E+03  0.7818609E-02  0.9908259E-01
        3   -1    0    0  501    0  0.00000000000E+00  0.00000000000E+00  0.31052523831E+03  0.31052525473E+03  0.10100000352E+00 0.  1.
       -3   -1    0    0    0  501  0.00000000000E+00  0.00000000000E+00 -0.28850630458E+03  0.28850632226E+03  0.10100000352E+00 0. -1.
    10030    2    1    2    0    0  0.00000000000E+00  0.00000000000E+00  0.22018933732E+02  0.59903157699E+03  0.59862675916E+03 0.  0.
        2    1    3    3  502    0 -0.16381449518E+03 -0.13640811438E+03 -0.19924243921E+03  0.29178744334E+03  0.25500000920E-02 0. -1.
       -2    1    3    3    0  502  0.16381449518E+03  0.13640811438E+03  0.22126137294E+03  0.30724413365E+03  0.25500000920E-02 0.  1.
</event>
<event>
 5   0  0.1332555E-02  0.5983595E+03  0.7818609E-02  0.9908815E-01
        1   -1    0    0  501    0  0.00000000000E+00  0.00000000000E+00  0.11189638588E+04  0.11189638588E+04  0.50400001928E-02 0. -1.
       -1   -1    0    0    0  501  0.00000000000E+00  0.00000000000E+00 -0.79992339372E+02  0.79992339531E+02  0.50400001928E-02 0.  1.
    10030    2    1    2    0    0  0.00000000000E+00  0.00000000000E+00  0.10389715195E+04  0.11989561984E+04  0.59835954690E+03 0.  0.
        2    1    3    3  502    0 -0.15424158235E+02 -0.16266237253E+03  0.10216675586E+04  0.10346504494E+04  0.25500000920E-02 0. -1.
       -2    1    3    3    0  502  0.15424158235E+02  0.16266237253E+03  0.17303960885E+02  0.16430574902E+03  0.25500000920E-02 0.  1.
</event>
<event>
 5   0  0.2126207E-02  0.6023771E+03  0.7818609E-02  0.9900487E-01
        2   -1    0    0  501    0  0.00000000000E+00  0.00000000000E+00  0.62748638845E+03  0.62748638845E+03  0.25500000920E-02 0.  1.
       -2   -1    0    0    0  501  0.00000000000E+00  0.00000000000E+00 -0.14456813758E+03  0.14456813760E+03  0.25500000920E-02 0. -1.
    10030    2    1    2    0    0  0.00000000000E+00  0.00000000000E+00  0.48291825087E+03  0.77205452605E+03  0.60237708636E+03 0.  0.
        5    1    3    3  502    0 -0.15150867332E+03 -0.94331531713E+02 -0.69435103643E+02  0.19156366979E+03  0.46999998093E+01 0. -1.
       -5    1    3    3    0  502  0.15150867332E+03  0.94331531713E+02  0.55235335451E+03  0.58049085626E+03  0.46999998093E+01 0.  1.
</event>
<event>
 5   0  0.2141800E-02  0.6023387E+03  0.7818609E-02  0.9900566E-01
       -2   -1    0    0    0  501  0.00000000000E+00  0.00000000000E+00  0.41965318168E+02  0.41965318245E+02  0.25500000920E-02 0. -1.
        2   -1    0    0  501    0  0.00000000000E+00  0.00000000000E+00 -0.21613792663E+04  0.21613792663E+04  0.25500000920E-02 0.  1.
    10030    2    1    2    0    0  0.00000000000E+00  0.00000000000E+00 -0.21194139481E+04  0.22033445845E+04  0.60233867111E+03 0.  0.
        2    1    3    3  502    0  0.21534759448E+03  0.20134974365E+03 -0.12848041266E+04  0.13181949588E+04  0.25500000920E-02 0.  1.
       -2    1    3    3    0  502 -0.21534759448E+03 -0.20134974365E+03 -0.83460982150E+03  0.88514962569E+03  0.25500000920E-02 0. -1.
</event>
<event>
 5   0  0.2092587E-02  0.5998815E+03  0.7818609E-02  0.9905652E-01
        2   -1    0    0  501    0  0.00000000000E+00  0.00000000000E+00  0.81961846323E+02  0.81961846363E+02  0.25500000920E-02 0. -1.
       -2   -1    0    0    0  501  0.00000000000E+00  0.00000000000E+00 -0.10976382858E+04  0.10976382858E+04  0.25500000920E-02 0.  1.
    10030    2    1    2    0    0  0.00000000000E+00  0.00000000000E+00 -0.10156764394E+04  0.11796001321E+04  0.59988152337E+03 0.  0.
        3    1    3    3  502    0  0.10316508192E+02  0.49286444545E+02  0.73590862105E+02  0.89169552783E+02  0.10100000352E+00 0. -1.
       -3    1    3    3    0  502 -0.10316508192E+02 -0.49286444545E+02 -0.10892673015E+04  0.10904305793E+04  0.10100000352E+00 0.  1.
</event>
<event>
 5   0  0.2141800E-02  0.6010661E+03  0.7818609E-02  0.9903197E-01
       -2   -1    0    0    0  501  0.00000000000E+00  0.00000000000E+00  0.54999595318E+02  0.54999595377E+02  0.25500000920E-02 0. -1.
        2   -1    0    0  501    0  0.00000000000E+00  0.00000000000E+00 -0.16421958455E+04  0.16421958455E+04  0.25500000920E-02 0.  1.
    10030    2    1    2    0    0  0.00000000000E+00  0.00000000000E+00 -0.15871962502E+04  0.16971954409E+04  0.60106607619E+03 0.  0.
        2    1    3    3  502    0 -0.25448120422E+03  0.13054908606E+03 -0.10541754612E+04  0.10922864323E+04  0.25500000920E-02 0.  1.
       -2    1    3    3    0  502  0.25448120422E+03 -0.13054908606E+03 -0.53302078896E+03  0.60490900856E+03  0.25500000920E-02 0. -1.
</event>
<event>
 5   0  0.2092587E-02  0.6105957E+03  0.7818609E-02  0.9883664E-01
       -2   -1    0    0    0  501  0.00000000000E+00  0.00000000000E+00  0.51244936662E+02  0.51244936725E+02  0.25500000920E-02 0.  1.
        2   -1    0    0  501    0  0.00000000000E+00  0.00000000000E+00 -0.18188486726E+04  0.18188486726E+04  0.25500000920E-02 0. -1.
    10030    2    1    2    0    0  0.00000000000E+00  0.00000000000E+00 -0.17676037360E+04  0.18700936093E+04  0.61059572579E+03 0.  0.
        3    1    3    3  502    0  0.26873048484E+02  0.13903947329E+03 -0.17121722935E+04  0.17180186578E+04  0.10100000352E+00 0. -1.
       -3    1    3    3    0  502 -0.26873048484E+02 -0.13903947329E+03 -0.55431442499E+02  0.15207495154E+03  0.10100000352E+00 0.  1.
</event>
<event>
 5   0  0.2126207E-02  0.6004543E+03  0.7818609E-02  0.9904464E-01
        2   -1    0    0  501    0  0.00000000000E+00  0.00000000000E+00  0.30715453373E+03  0.30715453374E+03  0.25500000920E-02 0. -1.
       -2   -1    0    0    0  501  0.00000000000E+00  0.00000000000E+00 -0.29345604699E+03  0.29345604700E+03  0.25500000920E-02 0.  1.
    10030    2    1    2    0    0  0.00000000000E+00  0.00000000000E+00  0.13698486742E+02  0.60061058073E+03  0.60045434560E+03 0.  0.
        5    1    3    3  502    0 -0.25866206474E+03 -0.14903696663E+03 -0.24721353776E+02  0.29958524077E+03  0.46999998093E+01 0. -1.
       -5    1    3    3    0  502  0.25866206474E+03  0.14903696663E+03  0.38419840518E+02  0.30102533996E+03  0.46999998093E+01 0.  1.
</event>
<event>
 5   0  0.2142838E-02  0.6050624E+03  0.7818609E-02  0.9894958E-01
        2   -1    0    0  501    0  0.00000000000E+00  0.00000000000E+00  0.12897751877E+04  0.12897751877E+04  0.25500000920E-02 0.  1.
       -2   -1    0    0    0  501  0.00000000000E+00  0.00000000000E+00 -0.70962081889E+02  0.70962081934E+02  0.25500000920E-02 0. -1.
    10030    2    1    2    0    0  0.00000000000E+00  0.00000000000E+00  0.12188131058E+04  0.13607372697E+04  0.60506241834E+03 0.  0.
        4    1    3    3  502    0 -0.16239237445E+03 -0.15657587312E+03  0.15605947763E+03  0.27430541515E+03  0.12699999809E+01 0. -1.
       -4    1    3    3    0  502  0.16239237445E+03  0.15657587312E+03  0.10627536282E+04  0.10864318545E+04  0.12699999809E+01 0.  1.
</event>
<event>
 5   0  0.2142838E-02  0.6201801E+03  0.7818609E-02  0.9864401E-01
        2   -1    0    0  501    0  0.00000000000E+00  0.00000000000E+00  0.32333325258E+03  0.32333325259E+03  0.25500000920E-02 0. -1.
       -2   -1    0    0    0  501  0.00000000000E+00  0.00000000000E+00 -0.29738930184E+03  0.29738930185E+03  0.25500000920E-02 0.  1.
    10030    2    1    2    0    0  0.00000000000E+00  0.00000000000E+00  0.25943950745E+02  0.62072255444E+03  0.62018013594E+03 0.  0.
        4    1    3    3  502    0 -0.23835147057E+03  0.85604296426E+02 -0.16611108867E+03  0.30287625487E+03  0.12699999809E+01 0.  1.
       -4    1    3    3    0  502  0.23835147057E+03 -0.85604296426E+02  0.19205503941E+03  0.31784629957E+03  0.12699999809E+01 0. -1.
</event>
<event>
 5   0  0.1276705E-02  0.6005371E+03  0.7818609E-02  0.9904292E-01
        1   -1    0    0  501    0  0.00000000000E+00  0.00000000000E+00  0.71282819042E+03  0.71282819043E+03  0.50400001928E-02 0.  1.
       -1   -1    0    0    0  501  0.00000000000E+00  0.00000000000E+00 -0.12648379756E+03  0.12648379766E+03  0.50400001928E-02 0. -1.
    10030    2    1    2    0    0  0.00000000000E+00  0.00000000000E+00  0.58634439286E+03  0.83931198809E+03  0.60053714816E+03 0.  0.
        1    1    3    3  502    0  0.26798537198E+03 -0.12484002917E+03  0.36659652506E+03  0.47095032083E+03  0.50400001928E-02 0.  1.
       -1    1    3    3    0  502 -0.26798537198E+03  0.12484002917E+03  0.21974786780E+03  0.36836166726E+03  0.50400001928E-02 0. -1.
</event>
<event>
 5   0  0.2141800E-02  0.5997525E+03  0.7818609E-02  0.9905920E-01
        2   -1    0    0  501    0  0.00000000000E+00  0.00000000000E+00  0.91607502915E+03  0.91607502915E+03  0.25500000920E-02 0. -1.
       -2   -1    0    0    0  501  0.00000000000E+00  0.00000000000E+00 -0.98164208137E+02  0.98164208170E+02  0.25500000920E-02 0.  1.
    10030    2    1    2    0    0  0.00000000000E+00  0.00000000000E+00  0.81791082101E+03  0.10142392373E+04  0.59975254847E+03 0.  0.
        2    1    3    3  502    0  0.27202955344E+03 -0.12263243886E+03  0.35859063602E+03  0.46650405920E+03  0.25500000920E-02 0.  1.
       -2    1    3    3    0  502 -0.27202955344E+03  0.12263243886E+03  0.45932018499E+03  0.54773517812E+03  0.25500000920E-02 0. -1.
</event>
<event>
 5   0  0.1337051E-02  0.5872114E+03  0.7818609E-02  0.9932299E-01
       -1   -1    0    0    0  501  0.00000000000E+00  0.00000000000E+00  0.74911487223E+03  0.74911487224E+03  0.50400001928E-02 0.  1.
        1   -1    0    0  501    0  0.00000000000E+00  0.00000000000E+00 -0.11507488194E+03  0.11507488205E+03  0.50400001928E-02 0. -1.
    10030    2    1    2    0    0  0.00000000000E+00  0.00000000000E+00  0.63403999029E+03  0.86418975430E+03  0.58721139477E+03 0.  0.
        5    1    3    3  502    0  0.16488739400E+03 -0.89692418171E+02 -0.15168944617E+02  0.18837401481E+03  0.46999998093E+01 0. -1.
       -5    1    3    3    0  502 -0.16488739400E+03  0.89692418171E+02  0.64920893490E+03  0.67581573948E+03  0.46999998093E+01 0.  1.
</event>
<event>
 5   0  0.1303808E-02  0.6025099E+03  0.7818609E-02  0.9900212E-01
        1   -1    0    0  501    0  0.00000000000E+00  0.00000000000E+00  0.27946410273E+03  0.27946410277E+03  0.50400001928E-02 0.  1.
       -1   -1    0    0    0  501  0.00000000000E+00  0.00000000000E+00 -0.32474492630E+03  0.32474492634E+03  0.50400001928E-02 0. -1.
    10030    2    1    2    0    0  0.00000000000E+00  0.00000000000E+00 -0.45280823572E+02  0.60420902911E+03  0.60250991517E+03 0.  0.
        4    1    3    3  502    0  0.27776571842E+03  0.11599936153E+03 -0.34644564433E+02  0.30300413355E+03  0.12699999809E+01 0. -1.
       -4    1    3    3    0  502 -0.27776571842E+03 -0.11599936153E+03 -0.10636259139E+02  0.30120489556E+03  0.12699999809E+01 0.  1.
</event>
<event>
 5   0  0.1337051E-02  0.5990243E+03  0.7818609E-02  0.9907432E-01
        1   -1    0    0  501    0  0.00000000000E+00  0.00000000000E+00  0.11520877885E+03  0.11520877896E+03  0.50400001928E-02 0. -1.
       -1   -1    0    0    0  501  0.00000000000E+00  0.00000000000E+00 -0.77865189825E+03  0.77865189827E+03  0.50400001928E-02 0.  1.
    10030    2    1    2    0    0  0.00000000000E+00  0.00000000000E+00 -0.66344311940E+03  0.89386067723E+03  0.59902432139E+03 0.  0.
        5    1    3    3  502    0 -0.17530371849E+02 -0.62576547115E+02  0.10450557890E+03  0.12315293015E+03  0.46999998093E+01 0. -1.
       -5    1    3    3    0  502  0.17530371849E+02  0.62576547115E+02 -0.76794869830E+03  0.77070774708E+03  0.46999998093E+01 0.  1.
</event>
<event>
 5   0  0.2179625E-02  0.5987723E+03  0.7818609E-02  0.9907957E-01
        2   -1    0    0  501    0  0.00000000000E+00  0.00000000000E+00  0.59752257776E+03  0.59752257776E+03  0.25500000920E-02 0.  1.
       -2   -1    0    0    0  501  0.00000000000E+00  0.00000000000E+00 -0.15000613537E+03  0.15000613539E+03  0.25500000920E-02 0. -1.
    10030    2    1    2    0    0  0.00000000000E+00  0.00000000000E+00  0.44751644239E+03  0.74752871316E+03  0.59877225285E+03 0.  0.
        1    1    3    3  502    0  0.18292496213E+03  0.11287976998E+03  0.48392657489E+03  0.52951705747E+03  0.50400001928E-02 0.  1.
       -1    1    3    3    0  502 -0.18292496213E+03 -0.11287976998E+03 -0.36410132502E+02  0.21801165569E+03  0.50400001928E-02 0. -1.
</event>
<event>
 5   0  0.2092587E-02  0.5909473E+03  0.7818609E-02  0.9924368E-01
        2   -1    0    0  501    0  0.00000000000E+00  0.00000000000E+00  0.96936633679E+03  0.96936633679E+03  0.25500000920E-02 0. -1.
       -2   -1    0    0    0  501  0.00000000000E+00  0.00000000000E+00 -0.90063651520E+02  0.90063651556E+02  0.25500000920E-02 0.  1.
    10030    2    1    2    0    0  0.00000000000E+00  0.00000000000E+00  0.87930268527E+03  0.10594299883E+04  0.59094728013E+03 0.  0.
        3    1    3    3  502    0  0.11036558061E+03 -0.20051638813E+03  0.10465218333E+03  0.25167334576E+03  0.10100000352E+00 0.  1.
       -3    1    3    3    0  502 -0.11036558061E+03  0.20051638813E+03  0.77465050194E+03  0.80775664259E+03  0.10100000352E+00 0. -1.
</event>
<event>
 5   0  0.2126207E-02  0.6017463E+03  0.7818609E-02  0.9901790E-01
       -2   -1    0    0    0  501  0.00000000000E+00  0.00000000000E+00  0.12125606365E+03  0.12125606368E+03  0.25500000920E-02 0.  1.
        2   -1    0    0  501    0  0.00000000000E+00  0.00000000000E+00 -0.74655768552E+03  0.74655768553E+03  0.25500000920E-02 0. -1.
    10030    2    1    2    0    0  0.00000000000E+00  0.00000000000E+00 -0.62530162187E+03  0.86781374920E+03  0.60174627958E+03 0.  0.
        5    1    3    3  502    0  0.70497368397E+02 -0.26281291149E+03 -0.12761530060E+03  0.30057987348E+03  0.46999998093E+01 0. -1.
       -5    1    3    3    0  502 -0.70497368397E+02  0.26281291149E+03 -0.49768632127E+03  0.56723387572E+03  0.46999998093E+01 0.  1.
</event>
<event>
 5   0  0.1337051E-02  0.5998943E+03  0.7818609E-02  0.9905625E-01
       -1   -1    0    0    0  501  0.00000000000E+00  0.00000000000E+00  0.33268089038E+03  0.33268089042E+03  0.50400001928E-02 0. -1.
        1   -1    0    0  501    0  0.00000000000E+00  0.00000000000E+00 -0.27043421583E+03  0.27043421588E+03  0.50400001928E-02 0.  1.
    10030    2    1    2    0    0  0.00000000000E+00  0.00000000000E+00  0.62246674550E+02  0.60311510629E+03  0.59989430981E+03 0.  0.
        5    1    3    3  502    0 -0.13691367300E+03 -0.16940848115E+02  0.29884963067E+03  0.32918921297E+03  0.46999998093E+01 0. -1.
       -5    1    3    3    0  502  0.13691367300E+03  0.16940848115E+02 -0.23660295612E+03  0.27392589332E+03  0.46999998093E+01 0.  1.
</event>
<event>
 5   0  0.2092587E-02  0.5988126E+03  0.7818609E-02  0.9907873E-01
       -2   -1    0    0    0  501  0.00000000000E+00  0.00000000000E+00  0.16057302429E+03  0.16057302431E+03  0.25500000920E-02 0.  1.
        2   -1    0    0  501    0  0.00000000000E+00  0.00000000000E+00 -0.55827642211E+03  0.55827642212E+03  0.25500000920E-02 0. -1.
    10030    2    1    2    0    0  0.00000000000E+00  0.00000000000E+00 -0.39770339782E+03  0.71884944643E+03  0.59881260340E+03 0.  0.
        3    1    3    3  502    0 -0.19757355051E+03 -0.22454262024E+03 -0.18232949025E+03  0.35028381262E+03  0.10100000352E+00 0. -1.
       -3    1    3    3    0  502  0.19757355051E+03  0.22454262024E+03 -0.21537390757E+03  0.36856563381E+03  0.10100000352E+00 0.  1.
</event>
<event>
 5   0  0.2142838E-02  0.6005816E+03  0.7818609E-02  0.9904200E-01
       -2   -1    0    0    0  501  0.00000000000E+00  0.00000000000E+00  0.12899259958E+04  0.12899259958E+04  0.25500000920E-02 0. -1.
        2   -1    0    0  501    0  0.00000000000E+00  0.00000000000E+00 -0.69906762425E+02  0.69906762472E+02  0.25500000920E-02 0.  1.
    10030    2    1    2    0    0  0.00000000000E+00  0.00000000000E+00  0.12200192334E+04  0.13598327583E+04  0.60058155206E+03 0.  0.
        4    1    3    3  502    0 -0.24250071510E+03 -0.10492798741E+03  0.28696343152E+03  0.39008473861E+03  0.12699999809E+01 0.  1.
       -4    1    3    3    0  502  0.24250071510E+03  0.10492798741E+03  0.93305580187E+03  0.96974801968E+03  0.12699999809E+01 0. -1.
</event>
<event>
 5   0  0.2126207E-02  0.6007389E+03  0.7818609E-02  0.9903874E-01
       -2   -1    0    0    0  501  0.00000000000E+00  0.00000000000E+00  0.22600221475E+03  0.22600221476E+03  0.25500000920E-02 0. -1.
        2   -1    0    0  501    0  0.00000000000E+00  0.00000000000E+00 -0.39920765531E+03  0.39920765532E+03  0.25500000920E-02 0.  1.
    10030    2    1    2    0    0  0.00000000000E+00  0.00000000000E+00 -0.17320544056E+03  0.62520987009E+03  0.60073892583E+03 0.  0.
        5    1    3    3  502    0 -0.10458774855E+03  0.20453736690E+03  0.11473465146E+03  0.25682729966E+03  0.46999998093E+01 0. -1.
       -5    1    3    3    0  502  0.10458774855E+03 -0.20453736690E+03 -0.28794009202E+03  0.36838257043E+03  0.46999998093E+01 0.  1.
</event>
<event>
 5   0  0.1337051E-02  0.5886134E+03  0.7818609E-02  0.9929315E-01
       -1   -1    0    0    0  501  0.00000000000E+00  0.00000000000E+00  0.67940978601E+02  0.67940978788E+02  0.50400001928E-02 0.  1.
        1   -1    0    0  501    0  0.00000000000E+00  0.00000000000E+00 -0.12748776268E+04  0.12748776269E+04  0.50400001928E-02 0. -1.
    10030    2    1    2    0    0  0.00000000000E+00  0.00000000000E+00 -0.12069366482E+04  0.13428186056E+04  0.58861340011E+03 0.  0.
        5    1    3    3  502    0 -0.18745289844E+03 -0.11748894703E+03 -0.16079656354E+03  0.27353220405E+03  0.46999998093E+01 0.  1.
       -5    1    3    3    0  502  0.18745289844E+03  0.11748894703E+03 -0.10461400847E+04  0.10692864016E+04  0.46999998093E+01 0. -1.
</event>
<event>
 5   0  0.2092587E-02  0.5929889E+03  0.7818609E-02  0.9920060E-01
       -2   -1    0    0    0  501  0.00000000000E+00  0.00000000000E+00  0.80949175007E+02  0.80949175047E+02  0.25500000920E-02 0.  1.
        2   -1    0    0  501    0  0.00000000000E+00  0.00000000000E+00 -0.10859772466E+04  0.10859772466E+04  0.25500000920E-02 0. -1.
    10030    2    1    2    0    0  0.00000000000E+00  0.00000000000E+00 -0.10050280716E+04  0.11669264216E+04  0.59298891124E+03 0.  0.
        3    1    3    3  502    0  0.98488088719E+02 -0.26264803274E+03 -0.69152260049E+03  0.74624889273E+03  0.10100000352E+00 0. -1.
       -3    1    3    3    0  502 -0.98488088719E+02  0.26264803274E+03 -0.31350547110E+03  0.42067752891E+03  0.10100000352E+00 0.  1.
</event>
<event>
 5   0  0.2179625E-02  0.6026347E+03  0.7818609E-02  0.9899955E-01
        2   -1    0    0  501    0  0.00000000000E+00  0.00000000000E+00  0.10683142533E+04  0.10683142533E+04  0.25500000920E-02 0. -1.
       -2   -1    0    0    0  501  0.00000000000E+00  0.00000000000E+00 -0.84986369416E+02  0.84986369455E+02  0.25500000920E-02 0.  1.
    10030    2    1    2    0    0  0.00000000000E+00  0.00000000000E+00  0.98332788390E+03  0.11533006228E+04  0.60263471460E+03 0.  0.
        1    1    3    3  502    0  0.10643203479E+02 -0.20004942462E+03  0.60922046492E+02  0.20939089246E+03  0.50400001928E-02 0.  1.
       -1    1    3    3    0  502 -0.10643203479E+02  0.20004942462E+03  0.92240583741E+03  0.94390973032E+03  0.50400001928E-02 0. -1.
</event>
<event>
 5   0  0.2142838E-02  0.5959957E+03  0.7818609E-02  0.9913749E-01
        2   -1    0    0  501    0  0.00000000000E+00  0.00000000000E+00  0.47111695961E+03  0.47111695962E+03  0.25500000920E-02 0.  1.
       -2   -1    0    0    0  501  0.00000000000E+00  0.00000000000E+00 -0.18849400212E+03  0.18849400214E+03  0.25500000920E-02 0. -1.
    10030    2    1    2    0    0  0.00000000000E+00  0.00000000000E+00  0.28262295749E+03  0.65961096176E+03  0.59599570869E+03 0.  0.
        4    1    3    3  502    0  0.19984018047E+03  0.95825704195E+02  0.36177865669E+03  0.42426886835E+03  0.12699999809E+01 0.  1.
       -4    1    3    3    0  502 -0.19984018047E+03 -0.95825704195E+02 -0.79155699200E+02  0.23534209341E+03  0.12699999809E+01 0. -1.
</event>
<event>
 5   0  0.2179625E-02  0.6019853E+03  0.7818609E-02  0.9901296E-01
       -2   -1    0    0    0  501  0.00000000000E+00  0.00000000000E+00  0.94921953167E+03  0.94921953167E+03  0.25500000920E-02 0.  1.
        2   -1    0    0  501    0  0.00000000000E+00  0.00000000000E+00 -0.95443219714E+02  0.95443219748E+02  0.25500000920E-02 0. -1.
    10030    2    1    2    0    0  0.00000000000E+00  0.00000000000E+00  0.85377631196E+03  0.10446627514E+04  0.60198527669E+03 0.  0.
        1    1    3    3  502    0  0.33462659884E+02  0.27260803383E+03  0.21320815190E+03  0.34769614001E+03  0.50400001928E-02 0. -1.
       -1    1    3    3    0  502 -0.33462659884E+02 -0.27260803383E+03  0.64056816005E+03  0.69696661141E+03  0.50400001928E-02 0.  1.
</event>
<event>
 5   0  0.2092587E-02  0.6005195E+03  0.7818609E-02  0.9904329E-01
        2   -1    0    0  501    0  0.00000000000E+00  0.00000000000E+00  0.47446219687E+03  0.47446219687E+03  0.25500000920E-02 0.  1.
       -2   -1    0    0    0  501  0.00000000000E+00  0.00000000000E+00 -0.19001707755E+03  0.19001707757E+03  0.25500000920E-02 0. -1.
    10030    2    1    2    0    0  0.00000000000E+00  0.00000000000E+00  0.28444511932E+03  0.66447927444E+03  0.60051950864E+03 0.  0.
        3    1    3    3  502    0 -0.22035647318E+02  0.11533281875E+02  0.47332041912E+03  0.47397343353E+03  0.10100000352E+00 0.  1.
       -3    1    3    3    0  502  0.22035647318E+02 -0.11533281875E+02 -0.18887529980E+03  0.19050584091E+03  0.10100000352E+00 0. -1.
</event>
<event>
 5   0  0.2141800E-02  0.6010028E+03  0.7818609E-02  0.9903328E-01
       -2   -1    0    0    0  501  0.00000000000E+00  0.00000000000E+00  0.14924567551E+03  0.14924567553E+03  0.25500000920E-02 0.  1.
        2   -1    0    0  501    0  0.00000000000E+00  0.00000000000E+00 -0.60504992565E+03  0.60504992566E+03  0.25500000920E-02 0. -1.
    10030    2    1    2    0    0  0.00000000000E+00  0.00000000000E+00 -0.45580425015E+03  0.75429560119E+03  0.60100277829E+03 0.  0.
        2    1    3    3  502    0  0.37506868710E+02  0.27085961411E+03 -0.71500132584E+02  0.28263751471E+03  0.25500000920E-02 0.  1.
       -2    1    3    3    0  502 -0.37506868710E+02 -0.27085961411E+03 -0.38430411756E+03  0.47165808647E+03  0.25500000920E-02 0. -1.
</event>
<event>
 5   0  0.2179625E-02  0.5951500E+03  0.7818609E-02  0.9915520E-01
       -2   -1    0    0    0  501  0.00000000000E+00  0.00000000000E+00  0.27853642737E+03  0.27853642739E+03  0.25500000920E-02 0.  1.
        2   -1    0    0  501    0  0.00000000000E+00  0.00000000000E+00 -0.31791486475E+03  0.31791486476E+03  0.25500000920E-02 0. -1.
    10030    2    1    2    0    0  0.00000000000E+00  0.00000000000E+00 -0.39378437379E+02  0.59645129215E+03  0.59514996646E+03 0.  0.
        1    1    3    3  502    0  0.13623297188E+03 -0.25807953772E+03  0.38630807594E+02  0.29437528724E+03  0.50400001928E-02 0. -1.
       -1    1    3    3    0  502 -0.13623297188E+03  0.25807953772E+03 -0.78009244973E+02  0.30207600491E+03  0.50400001928E-02 0.  1.
</event>
<event>
 5   0  0.2141800E-02  0.6020225E+03  0.7818609E-02  0.9901219E-01
       -2   -1    0    0    0  501  0.00000000000E+00  0.00000000000E+00  0.67976706670E+03  0.67976706670E+03  0.25500000920E-02 0.  1.
        2   -1    0    0  501    0  0.00000000000E+00  0.00000000000E+00 -0.13329237353E+03  0.13329237355E+03  0.25500000920E-02 0. -1.
    10030    2    1    2    0    0  0.00000000000E+00  0.00000000000E+00  0.54647469317E+03  0.81305944026E+03  0.60202247725E+03 0.  0.
        2    1    3    3  502    0 -0.97236441720E+02  0.11294460405E+03  0.62644172140E+03  0.64392595809E+03  0.25500000920E-02 0.  1.
       -2    1    3    3    0  502  0.97236441720E+02 -0.11294460405E+03 -0.79967028228E+02  0.16913348217E+03  0.25500000920E-02 0. -1.
</event>
<event>
 5   0  0.1276705E-02  0.5968669E+03  0.7818609E-02  0.9911928E-01
       -1   -1    0    0    0  501  0.00000000000E+00  0.00000000000E+00  0.74453728313E+02  0.74453728483E+02  0.50400001928E-02 0.  1.
        1   -1    0    0  501    0  0.00000000000E+00  0.00000000000E+00 -0.11962130294E+04  0.11962130294E+04  0.50400001928E-02 0. -1.
    10030    2    1    2    0    0  0.00000000000E+00  0.00000000000E+00 -0.11217593011E+04  0.12706667579E+04  0.59686688637E+03 0.  0.
        1    1    3    3  502    0 -0.12531765938E+03 -0.11270350429E+03 -0.10851928557E+04  0.10982031369E+04  0.50400001928E-02 0. -1.
       -1    1    3    3    0  502  0.12531765938E+03  0.11270350429E+03 -0.36566445356E+02  0.17246362104E+03  0.50400001928E-02 0.  1.
</event>
<event>
 5   0  0.1332555E-02  0.5975005E+03  0.7818609E-02  0.9910605E-01
        1   -1    0    0  501    0  0.00000000000E+00  0.00000000000E+00  0.39551316597E+03  0.39551316600E+03  0.50400001928E-02 0. -1.
       -1   -1    0    0    0  501  0.00000000000E+00  0.00000000000E+00 -0.22566054483E+03  0.22566054489E+03  0.50400001928E-02 0.  1.
    10030    2    1    2    0    0  0.00000000000E+00  0.00000000000E+00  0.16985262113E+03  0.62117371089E+03  0.59750051564E+03 0.  0.
        2    1    3    3  502    0  0.18139084241E+03  0.23734105051E+03  0.89374206777E+02  0.31180308018E+03  0.25500000920E-02 0. -1.
       -2    1    3    3    0  502 -0.18139084241E+03 -0.23734105051E+03  0.80478414354E+02  0.30937063071E+03  0.25500000920E-02 0.  1.
</event>
<event>
 5   0  0.1303808E-02  0.6007655E+03  0.7818609E-02  0.9903819E-01
       -1   -1    0    0    0  501  0.00000000000E+00  0.00000000000E+00  0.18584562892E+03  0.18584562899E+03  0.50400001928E-02 0.  1.
        1   -1    0    0  501    0  0.00000000000E+00  0.00000000000E+00 -0.48550938020E+03  0.48550938023E+03  0.50400001928E-02 0. -1.
    10030    2    1    2    0    0  0.00000000000E+00  0.00000000000E+00 -0.29966375128E+03  0.67135500922E+03  0.60076549882E+03 0.  0.
        4    1    3    3  502    0  0.20705395468E+03  0.19898399655E+03 -0.24828738103E+03  0.37962377100E+03  0.12699999809E+01 0. -1.
       -4    1    3    3    0  502 -0.20705395468E+03 -0.19898399655E+03 -0.51376370250E+02  0.29173123821E+03  0.12699999809E+01 0.  1.
</event>
<event>
 5   0  0.1337051E-02  0.6000078E+03  0.7818609E-02  0.9905390E-01
        1   -1    0    0  501    0  0.00000000000E+00  0.00000000000E+00  0.63938652067E+03  0.63938652069E+03  0.50400001928E-02 0. -1.
       -1   -1    0    0    0  501  0.00000000000E+00  0.00000000000E+00 -0.14076358562E+03  0.14076358571E+03  0.50400001928E-02 0.  1.
    10030    2    1    2    0    0  0.00000000000E+00  0.00000000000E+00  0.49862293505E+03  0.78015010639E+03  0.60000779758E+03 0.  0.
        5    1    3    3  502    0 -0.23069164065E+02  0.17716216325E+03  0.56261543377E+03  0.59031926509E+03  0.46999998093E+01 0. -1.
       -5    1    3    3    0  502  0.23069164065E+02 -0.17716216325E+03 -0.63992498726E+02  0.18983084130E+03  0.46999998093E+01 0.  1.
</event>
<event>
 5   0  0.2092587E-02  0.6051137E+03  0.7818609E-02  0.9894853E-01
        2   -1    0    0  501    0  0.00000000000E+00  0.00000000000E+00  0.13520669743E+04  0.13520669743E+04  0.25500000920E-02 0.  1.
       -2   -1    0    0    0  501  0.00000000000E+00  0.00000000000E+00 -0.67704216047E+02  0.67704216095E+02  0.25500000920E-02 0. -1.
    10030    2    1    2    0    0  0.00000000000E+00  0.00000000000E+00  0.12843627583E+04  0.14197711904E+04  0.60511365734E+03 0.  0.
        3    1    3    3  502    0  0.93655320236E+02 -0.27624741677E+03  0.45364910654E+03  0.53933428998E+03  0.10100000352E+00 0.  1.
       -3    1    3    3    0  502 -0.93655320236E+02  0.27624741677E+03  0.83071365174E+03  0.88043690045E+03  0.10100000352E+00 0. -1.
</event>
<event>
 5   0  0.8551000E-03  0.6102478E+03  0.7818609E-02  0.9884370E-01
       -3   -1    0    0    0  501  0.00000000000E+00  0.00000000000E+00  0.69625586165E+02  0.69625659421E+02  0.10100000352E+00 0.  1.
        3   -1    0    0  501    0  0.00000000000E+00  0.00000000000E+00 -0.13371598551E+04  0.13371598589E+04  0.10100000352E+00 0. -1.
    10030    2    1    2    0    0  0.00000000000E+00  0.00000000000E+00 -0.12675342689E+04  0.14067855183E+04  0.61024779530E+03 0.  0.
        2    1    3    3  502    0  0.24953856369E+03  0.50905884971E+02 -0.24637426303E+03  0.35434613217E+03  0.25500000920E-02 0.  1.
       -2    1    3    3    0  502 -0.24953856369E+03 -0.50905884971E+02 -0.10211600059E+04  0.10524393862E+04  0.25500000920E-02 0. -1.
</event>
<event>
 5   0  0.2092587E-02  0.5975425E+03  0.7818609E-02  0.9910518E-01
        2   -1    0    0  501    0  0.00000000000E+00  0.00000000000E+00  0.36729433349E+03  0.36729433350E+03  0.25500000920E-02 0. -1.
       -2   -1    0    0    0  501  0.00000000000E+00  0.00000000000E+00 -0.24303198408E+03  0.24303198409E+03  0.25500000920E-02 0.  1.
    10030    2    1    2    0    0  0.00000000000E+00  0.00000000000E+00  0.12426234941E+03  0.61032631759E+03  0.59754253611E+03 0.  0.
        3    1    3    3  502    0 -0.83749123998E+02 -0.83079056209E+02  0.34250002176E+03  0.36224621524E+03  0.10100000352E+00 0. -1.
       -3    1    3    3    0  502  0.83749123998E+02  0.83079056209E+02 -0.21823767235E+03  0.24808010235E+03  0.10100000352E+00 0.  1.
</event>
<event>
 5   0  0.1250390E-02  0.6003305E+03  0.7818609E-02  0.9904721E-01
        1   -1    0    0  501    0  0.00000000000E+00  0.00000000000E+00  0.44417812855E+03  0.44417812858E+03  0.50400001928E-02 0.  1.
       -1   -1    0    0    0  501  0.00000000000E+00  0.00000000000E+00 -0.20284469275E+03  0.20284469281E+03  0.50400001928E-02 0. -1.
    10030    2    1    2    0    0  0.00000000000E+00  0.00000000000E+00  0.24133343580E+03  0.64702282140E+03  0.60033049579E+03 0.  0.
        3    1    3    3  502    0 -0.18299047931E+03  0.22972452777E+03  0.53876740198E+02  0.29859937628E+03  0.10100000352E+00 0. -1.
       -3    1    3    3    0  502  0.18299047931E+03 -0.22972452777E+03  0.18745669560E+03  0.34842344512E+03  0.10100000352E+00 0.  1.
</event>
<event>
 5   0  0.1332555E-02  0.6002314E+03  0.7818609E-02  0.9904926E-01
        1   -1    0    0  501    0  0.00000000000E+00  0.00000000000E+00  0.10937511346E+03  0.10937511358E+03  0.50400001928E-02 0. -1.
       -1   -1    0    0    0  501  0.00000000000E+00  0.00000000000E+00 -0.82349121249E+03  0.82349121251E+03  0.50400001928E-02 0.  1.
    10030    2    1    2    0    0  0.00000000000E+00  0.00000000000E+00 -0.71411609903E+03  0.93286632608E+03  0.60023143823E+03 0.  0.
        2    1    3    3  502    0 -0.12369710098E+03 -0.27081614245E+03 -0.29834613871E+03  0.42148875939E+03  0.25500000920E-02 0. -1.
       -2    1    3    3    0  502  0.12369710098E+03  0.27081614245E+03 -0.41576996032E+03  0.51137756669E+03  0.25500000920E-02 0.  1.
</event>
<event>
 5   0  0.1337051E-02  0.5990489E+03  0.7818609E-02  0.9907381E-01
        1   -1    0    0  501    0  0.00000000000E+00  0.00000000000E+00  0.13121339160E+04  0.13121339160E+04  0.50400001928E-02 0. -1.
       -1   -1    0    0    0  501  0.00000000000E+00  0.00000000000E+00 -0.68373279408E+02  0.68373279594E+02  0.50400001928E-02 0.  1.
    10030    2    1    2    0    0  0.00000000000E+00  0.00000000000E+00  0.12437606366E+04  0.13805071956E+04  0.59904890951E+03 0.  0.
        5    1    3    3  502    0 -0.20952151687E+03 -0.97104047890E+02  0.18242544139E+03  0.29432905703E+03  0.46999998093E+01 0.  1.
       -5    1    3    3    0  502  0.20952151687E+03  0.97104047890E+02  0.10613351952E+04  0.10861781386E+04  0.46999998093E+01 0. -1.
</event>
<event>
 5   0  0.2142838E-02  0.6002000E+03  0.7818609E-02  0.9904991E-01
       -2   -1    0    0    0  501  0.00000000000E+00  0.00000000000E+00  0.57322327448E+02  0.57322327505E+02  0.25500000920E-02 0.  1.
        2   -1    0    0  501    0  0.00000000000E+00  0.00000000000E+00 -0.15711157341E+04  0.15711157341E+04  0.25500000920E-02 0. -1.
    10030    2    1    2    0    0  0.00000000000E+00  0.00000000000E+00 -0.15137934066E+04  0.16284380616E+04  0.60020000205E+03 0.  0.
        4    1    3    3  502    0  0.51740183133E+02  0.14319332902E+03 -0.14585356922E+04  0.14664615079E+04  0.12699999809E+01 0. -1.
       -4    1    3    3    0  502 -0.51740183133E+02 -0.14319332902E+03 -0.55257714463E+02  0.16197655365E+03  0.12699999809E+01 0.  1.
</event>
<event>
 5   0  0.2142838E-02  0.5971367E+03  0.7818609E-02  0.9911364E-01
        2   -1    0    0  501    0  0.00000000000E+00  0.00000000000E+00  0.13597813568E+03  0.13597813570E+03  0.25500000920E-02 0. -1.
       -2   -1    0    0    0  501  0.00000000000E+00  0.00000000000E+00 -0.65556914990E+03  0.65556914990E+03  0.25500000920E-02 0.  1.
    10030    2    1    2    0    0  0.00000000000E+00  0.00000000000E+00 -0.51959101422E+03  0.79154728560E+03  0.59713673751E+03 0.  0.
        4    1    3    3  502    0 -0.10478655915E+03 -0.27524777406E+03 -0.32473358781E+03  0.43840058857E+03  0.12699999809E+01 0.  1.
       -4    1    3    3    0  502  0.10478655915E+03  0.27524777406E+03 -0.19485742641E+03  0.35314669704E+03  0.12699999809E+01 0. -1.
</event>
<event>
 5   0  0.2092587E-02  0.6002944E+03  0.7818609E-02  0.9904795E-01
       -2   -1    0    0    0  501  0.00000000000E+00  0.00000000000E+00  0.31143416631E+03  0.31143416632E+03  0.25500000920E-02 0.  1.
        2   -1    0    0  501    0  0.00000000000E+00  0.00000000000E+00 -0.28926929872E+03  0.28926929873E+03  0.25500000920E-02 0. -1.
    10030    2    1    2    0    0  0.00000000000E+00  0.00000000000E+00  0.22164867591E+02  0.60070346505E+03  0.60029440408E+03 0.  0.
        3    1    3    3  502    0  0.19813317790E+03 -0.21756772159E+03  0.70248547853E+02  0.30253485475E+03  0.10100000352E+00 0.  1.
       -3    1    3    3    0  502 -0.19813317790E+03  0.21756772159E+03 -0.48083680262E+02  0.29816861030E+03  0.10100000352E+00 0. -1.
</event>
<event>
 5   0  0.1276705E-02  0.6063001E+03  0.7818609E-02  0.9892421E-01
        1   -1    0    0  501    0  0.00000000000E+00  0.00000000000E+00  0.59095592000E+03  0.59095592002E+03  0.50400001928E-02 0.  1.
       -1   -1    0    0    0  501  0.00000000000E+00  0.00000000000E+00 -0.15551066051E+03  0.15551066059E+03  0.50400001928E-02 0. -1.
    10030    2    1    2    0    0  0.00000000000E+00  0.00000000000E+00  0.43544525949E+03  0.74646658060E+03  0.60630007583E+03 0.  0.
        1    1    3    3  502    0 -0.28921232386E+03 -0.87261908078E+02  0.24890674752E+03  0.39142429391E+03  0.50400001928E-02 0. -1.
       -1    1    3    3    0  502  0.28921232386E+03  0.87261908078E+02  0.18653851196E+03  0.35504228670E+03  0.50400001928E-02 0.  1.
</event>
<event>
 5   0  0.2142838E-02  0.5985594E+03  0.7818609E-02  0.9908399E-01
        2   -1    0    0  501    0  0.00000000000E+00  0.00000000000E+00  0.11228227645E+04  0.11228227645E+04  0.25500000920E-02 0. -1.
       -2   -1    0    0    0  501  0.00000000000E+00  0.00000000000E+00 -0.79770690788E+02  0.79770690829E+02  0.25500000920E-02 0.  1.
    10030    2    1    2    0    0  0.00000000000E+00  0.00000000000E+00  0.10430520737E+04  0.12025934553E+04  0.59855942924E+03 0.  0.
        4    1    3    3  502    0  0.10431272757E+03  0.20533257959E+03  0.13755236438E+03  0.26826270561E+03  0.12699999809E+01 0.  1.
       -4    1    3    3    0  502 -0.10431272757E+03 -0.20533257959E+03  0.90549970934E+03  0.93433074973E+03  0.12699999809E+01 0. -1.
</event>
<event>
 5   0  0.1303808E-02  0.6034672E+03  0.7818609E-02  0.9898239E-01
       -1   -1    0    0    0  501  0.00000000000E+00  0.00000000000E+00  0.22731130492E+03  0.22731130497E+03  0.50400001928E-02 0. -1.
        1   -1    0    0  501    0  0.00000000000E+00  0.00000000000E+00 -0.40052198663E+03  0.40052198666E+03  0.50400001928E-02 0.  1.
    10030    2    1    2    0    0  0.00000000000E+00  0.00000000000E+00 -0.17321068171E+03  0.62783329164E+03  0.60346723343E+03 0.  0.
        4    1    3    3  502    0 -0.62469739519E+02 -0.75021420525E+02 -0.38363405802E+03  0.39586283643E+03  0.12699999809E+01 0.  1.
       -4    1    3    3    0  502  0.62469739519E+02  0.75021420525E+02  0.21042337631E+03  0.23197045521E+03  0.12699999809E+01 0. -1.
</event>
<event>
 5   0  0.2179625E-02  0.5992793E+03  0.7818609E-02  0.9906902E-01
       -2   -1    0    0    0  501  0.00000000000E+00  0.00000000000E+00  0.20503295162E+03  0.20503295164E+03  0.25500000920E-02 0. -1.
        2   -1    0    0  501    0  0.00000000000E+00  0.00000000000E+00 -0.43790001815E+03  0.43790001815E+03  0.25500000920E-02 0.  1.
    10030    2    1    2    0    0  0.00000000000E+00  0.00000000000E+00 -0.23286706652E+03  0.64293296979E+03  0.59927934469E+03 0.  0.
        1    1    3    3  502    0  0.43380388611E+02 -0.78433915949E+02 -0.42318086171E+03  0.43256881422E+03  0.50400001928E-02 0.  1.
       -1    1    3    3    0  502 -0.43380388611E+02  0.78433915949E+02  0.19031379519E+03  0.21036415558E+03  0.50400001928E-02 0. -1.
</event>
<event>
 5   0  0.2126207E-02  0.5988033E+03  0.7818609E-02  0.9907892E-01
        2   -1    0    0  501    0  0.00000000000E+00  0.00000000000E+00  0.11818580915E+04  0.11818580915E+04  0.25500000920E-02 0. -1.
       -2   -1    0    0    0  501  0.00000000000E+00  0.00000000000E+00 -0.75847809034E+02  0.75847809077E+02  0.25500000920E-02 0.  1.
    10030    2    1    2    0    0  0.00000000000E+00  0.00000000000E+00  0.11060102824E+04  0.12577059005E+04  0.59880329610E+03 0.  0.
        5    1    3    3  502    0 -0.89320320845E+02 -0.80406610405E+02 -0.22877880942E+02  0.12242887791E+03  0.46999998093E+01 0.  1.
       -5    1    3    3    0  502  0.89320320845E+02  0.80406610405E+02  0.11288881634E+04  0.11352770226E+04  0.46999998093E+01 0. -1.
</event>
<event>
 5   0  0.1303808E-02  0.5986059E+03  0.7818609E-02  0.9908303E-01
       -1   -1    0    0    0  501  0.00000000000E+00  0.00000000000E+00  0.99500120644E+02  0.99500120772E+02  0.50400001928E-02 0.  1.
        1   -1    0    0  501    0  0.00000000000E+00  0.00000000000E+00 -0.90032310613E+03  0.90032310614E+03  0.50400001928E-02 0. -1.
    10030    2    1    2    0    0  0.00000000000E+00  0.00000000000E+00 -0.80082298548E+03  0.99982322691E+03  0.59860590625E+03 0.  0.
        4    1    3    3  502    0  0.10047512482E+03  0.27821575063E+03 -0.47661219631E+03  0.56094567756E+03  0.12699999809E+01 0.  1.
       -4    1    3    3    0  502 -0.10047512482E+03 -0.27821575063E+03 -0.32421078917E+03  0.43887754935E+03  0.12699999809E+01 0. -1.
</event>
<event>
 5   0  0.1276705E-02  0.6025044E+03  0.7818609E-02  0.9900224E-01
        1   -1    0    0  501    0  0.00000000000E+00  0.00000000000E+00  0.17943932393E+04  0.17943932393E+04  0.50400001928E-02 0. -1.
       -1   -1    0    0    0  501  0.00000000000E+00  0.00000000000E+00 -0.50575813500E+02  0.50575813751E+02  0.50400001928E-02 0.  1.
    10030    2    1    2    0    0  0.00000000000E+00  0.00000000000E+00  0.17438174258E+04  0.18449690531E+04  0.60250443336E+03 0.  0.
        1    1    3    3  502    0  0.14130502773E+03  0.15674147271E+03  0.15302239896E+04  0.15447072404E+04  0.50400001928E-02 0. -1.
       -1    1    3    3    0  502 -0.14130502773E+03 -0.15674147271E+03  0.21359343617E+03  0.30026181264E+03  0.50400001928E-02 0.  1.
</event>
<event>
 5   0  0.1303808E-02  0.6020132E+03  0.7818609E-02  0.9901238E-01
       -1   -1    0    0    0  501  0.00000000000E+00  0.00000000000E+00  0.16174170494E+03  0.16174170502E+03  0.50400001928E-02 0.  1.
        1   -1    0    0  501    0  0.00000000000E+00  0.00000000000E+00 -0.56018311611E+03  0.56018311613E+03  0.50400001928E-02 0. -1.
    10030    2    1    2    0    0  0.00000000000E+00  0.00000000000E+00 -0.39844141116E+03  0.72192482115E+03  0.60201319692E+03 0.  0.
        4    1    3    3  502    0  0.99724677641E+01 -0.24750050600E+03 -0.40430370486E+03  0.47415087182E+03  0.12699999809E+01 0. -1.
       -4    1    3    3    0  502 -0.99724677641E+01  0.24750050600E+03  0.58622936976E+01  0.24777394934E+03  0.12699999809E+01 0.  1.
</event>
<event>
 5   0  0.2142838E-02  0.5997987E+03  0.7818609E-02  0.9905824E-01
       -2   -1    0    0    0  501  0.00000000000E+00  0.00000000000E+00  0.38064402050E+02  0.38064402136E+02  0.25500000920E-02 0. -1.
        2   -1    0    0  501    0  0.00000000000E+00  0.00000000000E+00 -0.23628277818E+04  0.23628277818E+04  0.25500000920E-02 0.  1.
    10030    2    1    2    0    0  0.00000000000E+00  0.00000000000E+00 -0.23247633797E+04  0.24008921839E+04  0.59979872212E+03 0.  0.
        4    1    3    3  502    0 -0.51000900498E+01 -0.20953194249E+03 -0.20209711164E+04  0.20318108948E+04  0.12699999809E+01 0.  1.
       -4    1    3    3    0  502  0.51000900498E+01  0.20953194249E+03 -0.30379226329E+03  0.36908128912E+03  0.12699999809E+01 0. -1.
</event>
<event>
 5   0  0.1276705E-02  0.6001043E+03  0.7818609E-02  0.9905190E-01
        1   -1    0    0  501    0  0.00000000000E+00  0.00000000000E+00  0.11106298378E+04  0.11106298378E+04  0.50400001928E-02 0. -1.
       -1   -1    0    0    0  501  0.00000000000E+00  0.00000000000E+00 -0.81063269427E+02  0.81063269584E+02  0.50400001928E-02 0.  1.
    10030    2    1    2    0    0  0.00000000000E+00  0.00000000000E+00  0.10295665684E+04  0.11916931074E+04  0.60010427719E+03 0.  0.
        1    1    3    3  502    0  0.40080360786E+02 -0.24296389957E+03  0.17432604459E+03  0.30170757641E+03  0.50400001928E-02 0.  1.
       -1    1    3    3    0  502 -0.40080360786E+02  0.24296389957E+03  0.85524052379E+03  0.88998553099E+03  0.50400001928E-02 0. -1.
</event>
<event>
 5   0  0.2179625E-02  0.5948520E+03  0.7818609E-02  0.9916144E-01
        2   -1    0    0  501    0  0.00000000000E+00  0.00000000000E+00  0.79879826077E+03  0.79879826078E+03  0.25500000920E-02 0.  1.
       -2   -1    0    0    0  501  0.00000000000E+00  0.00000000000E+00 -0.11074414624E+03  0.11074414627E+03  0.25500000920E-02 0. -1.
    10030    2    1    2    0    0  0.00000000000E+00  0.00000000000E+00  0.68805411453E+03  0.90954240705E+03  0.59485201999E+03 0.  0.
        1    1    3    3  502    0  0.63217590621E+02 -0.17872803658E+03 -0.63897057895E+01  0.18968659201E+03  0.50400001928E-02 0. -1.
       -1    1    3    3    0  502 -0.63217590621E+02  0.17872803658E+03  0.69444382032E+03  0.71985581503E+03  0.50400001928E-02 0.  1.
</event>
<event>
 5   0  0.1337051E-02  0.6007300E+03  0.7818609E-02  0.9903893E-01
       -1   -1    0    0    0  501  0.00000000000E+00  0.00000000000E+00  0.12342769006E+04  0.12342769006E+04  0.50400001928E-02 0.  1.
        1   -1    0    0  501    0  0.00000000000E+00  0.00000000000E+00 -0.73094719904E+02  0.73094720077E+02  0.50400001928E-02 0. -1.
    10030    2    1    2    0    0  0.00000000000E+00  0.00000000000E+00  0.11611821807E+04  0.13073716207E+04  0.60072997080E+03 0.  0.
        5    1    3    3  502    0  0.11920784869E+03  0.17151340099E+03  0.11094429368E+03  0.23655461147E+03  0.46999998093E+01 0. -1.
       -5    1    3    3    0  502 -0.11920784869E+03 -0.17151340099E+03  0.10502378870E+04  0.10708170092E+04  0.46999998093E+01 0.  1.
</event>
<event>
 5   0  0.1337051E-02  0.5954818E+03  0.7818609E-02  0.9914824E-01
       -1   -1    0    0    0  501  0.00000000000E+00  0.00000000000E+00  0.53613036843E+03  0.53613036845E+03  0.50400001928E-02 0.  1.
        1   -1    0    0  501    0  0.00000000000E+00  0.00000000000E+00 -0.16535092948E+03  0.16535092956E+03  0.50400001928E-02 0. -1.
    10030    2    1    2    0    0  0.00000000000E+00  0.00000000000E+00  0.37077943894E+03  0.70148129801E+03  0.59548183777E+03 0.  0.
        5    1    3    3  502    0  0.12088466272E+03  0.16034572541E+03  0.44429316347E+03  0.48758830835E+03  0.46999998093E+01 0.  1.
       -5    1    3    3    0  502 -0.12088466272E+03 -0.16034572541E+03 -0.73513724522E+02  0.21389298967E+03  0.46999998093E+01 0. -1.
</event>
<event>
 5   0  0.2092587E-02  0.5979396E+03  0.7818609E-02  0.9909690E-01
       -2   -1    0    0    0  501  0.00000000000E+00  0.00000000000E+00  0.91971809937E+02  0.91971809972E+02  0.25500000920E-02 0.  1.
        2   -1    0    0  501    0  0.00000000000E+00  0.00000000000E+00 -0.97185155785E+03  0.97185155785E+03  0.25500000920E-02 0. -1.
    10030    2    1    2    0    0  0.00000000000E+00  0.00000000000E+00 -0.87987974791E+03  0.10638233678E+04  0.59793961831E+03 0.  0.
        3    1    3    3  502    0  0.86880906435E+02  0.63103593263E+02  0.56479478757E+02  0.12132723152E+03  0.10100000352E+00 0.  1.
       -3    1    3    3    0  502 -0.86880906435E+02 -0.63103593263E+02 -0.93635922667E+03  0.94249613631E+03  0.10100000352E+00 0. -1.
</event>
<event>
 5   0  0.1276705E-02  0.6001597E+03  0.7818609E-02  0.9905075E-01
       -1   -1    0    0    0  501  0.00000000000E+00  0.00000000000E+00  0.51373578956E+02  0.51373579203E+02  0.50400001928E-02 0.  1.
        1   -1    0    0  501    0  0.00000000000E+00  0.00000000000E+00 -0.17528061721E+04  0.17528061721E+04  0.50400001928E-02 0. -1.
    10030    2    1    2    0    0  0.00000000000E+00  0.00000000000E+00 -0.17014325932E+04  0.18041797513E+04  0.60015973376E+03 0.  0.
        1    1    3    3  502    0  0.77378404456E+02 -0.64116249843E+02 -0.71196288789E+00  0.10049287481E+03  0.50400001928E-02 0.  1.
       -1    1    3    3    0  502 -0.77378404456E+02  0.64116249843E+02 -0.17007206303E+04  0.17036868765E+04  0.50400001928E-02 0. -1.
</event>
<event>
 5   0  0.1337051E-02  0.5986321E+03  0.7818609E-02  0.9908248E-01
       -1   -1    0    0    0  501  0.00000000000E+00  0.00000000000E+00  0.59061207539E+02  0.59061207755E+02  0.50400001928E-02 0.  1.
        1   -1    0    0  501    0  0.00000000000E+00  0.00000000000E+00 -0.15169026445E+04  0.15169026445E+04  0.50400001928E-02 0. -1.
    10030    2    1    2    0    0  0.00000000000E+00  0.00000000000E+00 -0.14578414370E+04  0.15759638523E+04  0.59863211435E+03 0.  0.
        5    1    3    3  502    0 -0.22334180739E+03  0.17398469316E+03 -0.47346578601E+03  0.55167397701E+03  0.46999998093E+01 0. -1.
       -5    1    3    3    0  502  0.22334180739E+03 -0.17398469316E+03 -0.98437565098E+03  0.10242898753E+04  0.46999998093E+01 0.  1.
</event>
<event>
 5   0  0.8551000E-03  0.5988869E+03  0.7818609E-02  0.9907718E-01
        3   -1    0    0  501    0  0.00000000000E+00  0.00000000000E+00  0.39792746968E+03  0.39792748250E+03  0.10100000352E+00 0. -1.
       -3   -1    0    0    0  501  0.00000000000E+00  0.00000000000E+00 -0.22533342209E+03  0.22533344473E+03  0.10100000352E+00 0.  1.
    10030    2    1    2    0    0  0.00000000000E+00  0.00000000000E+00  0.17259404759E+03  0.62326092722E+03  0.59888686589E+03 0.  0.
        4    1    3    3  502    0  0.32890417792E+01 -0.41388941776E+02 -0.22232047821E+03  0.22616779220E+03  0.12699999809E+01 0.  1.
       -4    1    3    3    0  502 -0.32890417792E+01  0.41388941776E+02  0.39491452580E+03  0.39709313502E+03  0.12699999809E+01 0. -1.
</event>
<event>
 5   0  0.2126207E-02  0.5990667E+03  0.7818609E-02  0.9907344E-01
       -2   -1    0    0    0  501  0.00000000000E+00  0.00000000000E+00  0.53652579969E+02  0.53652580029E+02  0.25500000920E-02 0. -1.
        2   -1    0    0  501    0  0.00000000000E+00  0.00000000000E+00 -0.16722446708E+04  0.16722446708E+04  0.25500000920E-02 0.  1.
    10030    2    1    2    0    0  0.00000000000E+00  0.00000000000E+00 -0.16185920908E+04  0.17258972508E+04  0.59906674414E+03 0.  0.
        5    1    3    3  502    0  0.15687377657E+03 -0.74065960517E+01 -0.15439954089E+04  0.15519691209E+04  0.46999998093E+01 0.  1.
       -5    1    3    3    0  502 -0.15687377657E+03  0.74065960517E+01 -0.74596681940E+02  0.17392812997E+03  0.46999998093E+01 0. -1.
</event>
<event>
 5   0  0.1276705E-02  0.6004719E+03  0.7818609E-02  0.9904427E-01
       -1   -1    0    0    0  501  0.00000000000E+00  0.00000000000E+00  0.10004481816E+03  0.10004481828E+03  0.50400001928E-02 0.  1.
        1   -1    0    0  501    0  0.00000000000E+00  0.00000000000E+00 -0.90101254408E+03  0.90101254410E+03  0.50400001928E-02 0. -1.
    10030    2    1    2    0    0  0.00000000000E+00  0.00000000000E+00 -0.80096772593E+03  0.10010573624E+04  0.60047193506E+03 0.  0.
        1    1    3    3  502    0  0.10259109670E+03  0.27639126823E+03 -0.49515163312E+03  0.57627441908E+03  0.50400001928E-02 0.  1.
       -1    1    3    3    0  502 -0.10259109670E+03 -0.27639126823E+03 -0.30581609281E+03  0.42478294330E+03  0.50400001928E-02 0. -1.
</event>
<event>
 5   0  0.1337051E-02  0.6032613E+03  0.7818609E-02  0.9898663E-01
       -1   -1    0    0    0  501  0.00000000000E+00  0.00000000000E+00  0.33572694322E+03  0.33572694326E+03  0.50400001928E-02 0.  1.
        1   -1    0    0  501    0  0.00000000000E+00  0.00000000000E+00 -0.27099713946E+03  0.27099713950E+03  0.50400001928E-02 0. -1.
    10030    2    1    2    0    0  0.00000000000E+00  0.00000000000E+00  0.64729803769E+02  0.60672408276E+03  0.60326127433E+03 0.  0.
        5    1    3    3  502    0  0.16170075177E+03 -0.21714032212E+02 -0.22274504444E+03  0.27614502918E+03  0.46999998093E+01 0. -1.
       -5    1    3    3    0  502 -0.16170075177E+03  0.21714032212E+02  0.28747484821E+03  0.33057905359E+03  0.46999998093E+01 0.  1.
</event>
<event>
 5   0  0.1250390E-02  0.5969534E+03  0.7818609E-02  0.9911747E-01
        1   -1    0    0  501    0  0.00000000000E+00  0.00000000000E+00  0.22819538771E+03  0.22819538777E+03  0.50400001928E-02 0.  1.
       -1   -1    0    0    0  501  0.00000000000E+00  0.00000000000E+00 -0.39040373693E+03  0.39040373696E+03  0.50400001928E-02 0. -1.
    10030    2    1    2    0    0  0.00000000000E+00  0.00000000000E+00 -0.16220834921E+03  0.61859912473E+03  0.59695337218E+03 0.  0.
        3    1    3    3  502    0 -0.11804356289E+03 -0.10103565546E+03  0.18298131883E+03  0.24005136878E+03  0.10100000352E+00 0.  1.
       -3    1    3    3    0  502  0.11804356289E+03  0.10103565546E+03 -0.34518966804E+03  0.37854775595E+03  0.10100000352E+00 0. -1.
</event>
<event>
 5   0  0.2142838E-02  0.5962790E+03  0.7818609E-02  0.9913156E-01
        2   -1    0    0  501    0  0.00000000000E+00  0.00000000000E+00  0.11130688248E+03  0.11130688251E+03  0.25500000920E-02 0.  1.
       -2   -1    0    0    0  501  0.00000000000E+00  0.00000000000E+00 -0.79857736865E+03  0.79857736865E+03  0.25500000920E-02 0. -1.
    10030    2    1    2    0    0  0.00000000000E+00  0.00000000000E+00 -0.68727048617E+03  0.90988425116E+03  0.59627898617E+03 0.  0.
        4    1    3    3  502    0  0.65142524719E+02 -0.19023402509E+03 -0.77452761408E+01  0.20123154582E+03  0.12699999809E+01 0.  1.
       -4    1    3    3    0  502 -0.65142524719E+02  0.19023402509E+03 -0.67952521003E+03  0.70865270534E+03  0.12699999809E+01 0. -1.
</event>
<event>
 5   0  0.1332555E-02  0.6013913E+03  0.7818609E-02  0.9902524E-01
        1   -1    0    0  501    0  0.00000000000E+00  0.00000000000E+00  0.27314979095E+03  0.27314979100E+03  0.50400001928E-02 0.  1.
       -1   -1    0    0    0  501  0.00000000000E+00  0.00000000000E+00 -0.33101938897E+03  0.33101938901E+03  0.50400001928E-02 0. -1.
    10030    2    1    2    0    0  0.00000000000E+00  0.00000000000E+00 -0.57869598016E+02  0.60416918001E+03  0.60139130996E+03 0.  0.
        2    1    3    3  502    0 -0.20907098983E+03 -0.16550975762E+03 -0.16855053332E+03  0.31545751052E+03  0.25500000920E-02 0. -1.
       -2    1    3    3    0  502  0.20907098983E+03  0.16550975762E+03  0.11068093530E+03  0.28871166949E+03  0.25500000920E-02 0.  1.
</event>
<event>
 5   0  0.1337051E-02  0.5992842E+03  0.7818609E-02  0.9906892E-01
       -1   -1    0    0    0  501  0.00000000000E+00  0.00000000000E+00  0.22165401194E+03  0.22165401200E+03  0.50400001928E-02 0.  1.
        1   -1    0    0  501    0  0.00000000000E+00  0.00000000000E+00 -0.40506995686E+03  0.40506995690E+03  0.50400001928E-02 0. -1.
    10030    2    1    2    0    0  0.00000000000E+00  0.00000000000E+00 -0.18341594493E+03  0.62672396889E+03  0.59928417661E+03 0.  0.
        5    1    3    3  502    0 -0.10289115688E+03 -0.22050554212E+03  0.91092611707E+02  0.25986388394E+03  0.46999998093E+01 0.  1.
       -5    1    3    3    0  502  0.10289115688E+03  0.22050554212E+03 -0.27450855663E+03  0.36686008495E+03  0.46999998093E+01 0. -1.
</event>
<event>
 5   0  0.2179625E-02  0.5996158E+03  0.7818609E-02  0.9906203E-01
        2   -1    0    0  501    0  0.00000000000E+00  0.00000000000E+00  0.93159211962E+03  0.93159211962E+03  0.25500000920E-02 0. -1.
       -2   -1    0    0    0  501  0.00000000000E+00  0.00000000000E+00 -0.96485124229E+02  0.96485124262E+02  0.25500000920E-02 0.  1.
    10030    2    1    2    0    0  0.00000000000E+00  0.00000000000E+00  0.83510699539E+03  0.10280772439E+04  0.59961581504E+03 0.  0.
        1    1    3    3  502    0  0.13517239532E+03 -0.50531806071E+02 -0.33019479391E+02  0.14803825832E+03  0.50400001928E-02 0.  1.
       -1    1    3    3    0  502 -0.13517239532E+03  0.50531806071E+02  0.86812647478E+03  0.88003898557E+03  0.50400001928E-02 0. -1.
</event>
<event>
 5   0  0.2142838E-02  0.5961187E+03  0.7818609E-02  0.9913491E-01
        2   -1    0    0  501    0  0.00000000000E+00  0.00000000000E+00  0.28352790963E+03  0.28352790964E+03  0.25500000920E-02 0. -1.
       -2   -1    0    0    0  501  0.00000000000E+00  0.00000000000E+00 -0.31333556757E+03  0.31333556758E+03  0.25500000920E-02 0.  1.
    10030    2    1    2    0    0  0.00000000000E+00  0.00000000000E+00 -0.29807657941E+02  0.59686347722E+03  0.59611870795E+03 0.  0.
        4    1    3    3  502    0 -0.16247869525E+03 -0.24987394652E+03 -0.13698151659E+02  0.29837152649E+03  0.12699999809E+01 0.  1.
       -4    1    3    3    0  502  0.16247869525E+03  0.24987394652E+03 -0.16109506283E+02  0.29849195073E+03  0.12699999809E+01 0. -1.
</event>
<event>
 5   0  0.2142838E-02  0.6016700E+03  0.7818609E-02  0.9901947E-01
       -2   -1    0    0    0  501  0.00000000000E+00  0.00000000000E+00  0.38643250704E+03  0.38643250705E+03  0.25500000920E-02 0.  1.
        2   -1    0    0  501    0  0.00000000000E+00  0.00000000000E+00 -0.23419793215E+03  0.23419793217E+03  0.25500000920E-02 0. -1.
    10030    2    1    2    0    0  0.00000000000E+00  0.00000000000E+00  0.15223457489E+03  0.62063043922E+03  0.60166998952E+03 0.  0.
        4    1    3    3  502    0  0.23122996635E+03 -0.17801898673E+03  0.72487375254E+00  0.29182219812E+03  0.12699999809E+01 0. -1.
       -4    1    3    3    0  502 -0.23122996635E+03  0.17801898673E+03  0.15150970114E+03  0.32880824110E+03  0.12699999809E+01 0.  1.
</event>
<event>
 5   0  0.2141800E-02  0.6016426E+03  0.7818609E-02  0.9902004E-01
        2   -1    0    0  501    0  0.00000000000E+00  0.00000000000E+00  0.83002638102E+03  0.83002638103E+03  0.25500000920E-02 0. -1.
       -2   -1    0    0    0  501  0.00000000000E+00  0.00000000000E+00 -0.10902477937E+03  0.10902477940E+03  0.25500000920E-02 0.  1.
    10030    2    1    2    0    0  0.00000000000E+00  0.00000000000E+00  0.72100160165E+03  0.93905116042E+03  0.60164256191E+03 0.  0.
        2    1    3    3  502    0 -0.17820103760E+03 -0.18758427751E+03  0.60002307157E+03  0.65343030033E+03  0.25500000920E-02 0. -1.
       -2    1    3    3    0  502  0.17820103760E+03  0.18758427751E+03  0.12097853008E+03  0.28562086009E+03  0.25500000920E-02 0.  1.
</event>
<event>
 5   0  0.2092587E-02  0.5998781E+03  0.7818609E-02  0.9905659E-01
       -2   -1    0    0    0  501  0.00000000000E+00  0.00000000000E+00  0.61586911992E+02  0.61586912045E+02  0.25500000920E-02 0. -1.
        2   -1    0    0  501    0  0.00000000000E+00  0.00000000000E+00 -0.14607559117E+04  0.14607559117E+04  0.25500000920E-02 0.  1.
    10030    2    1    2    0    0  0.00000000000E+00  0.00000000000E+00 -0.13991689997E+04  0.15223428238E+04  0.59987814036E+03 0.  0.
        3    1    3    3  502    0 -0.10285602634E+03 -0.30176974559E+02 -0.14104881239E+04  0.14145553258E+04  0.10100000352E+00 0.  1.
       -3    1    3    3    0  502  0.10285602634E+03  0.30176974559E+02  0.11319124144E+02  0.10778749797E+03  0.10100000352E+00 0. -1.
</event>
<event>
 5   0  0.1250390E-02  0.5982168E+03  0.7818609E-02  0.9909112E-01
        1   -1    0    0  501    0  0.00000000000E+00  0.00000000000E+00  0.46102350478E+03  0.46102350481E+03  0.50400001928E-02 0. -1.
       -1   -1    0    0    0  501  0.00000000000E+00  0.00000000000E+00 -0.19405918560E+03  0.19405918567E+03  0.50400001928E-02 0.  1.
    10030    2    1    2    0    0  0.00000000000E+00  0.00000000000E+00  0.26696431918E+03  0.65508269047E+03  0.59821683664E+03 0.  0.
        3    1    3    3  502    0 -0.56073579308E+02  0.88549040962E+02 -0.17329202219E+03  0.20252237928E+03  0.10100000352E+00 0.  1.
       -3    1    3    3    0  502  0.56073579308E+02 -0.88549040962E+02  0.44025634137E+03  0.45256031120E+03  0.10100000352E+00 0. -1.
</event>
<event>
 5   0  0.1303808E-02  0.5991416E+03  0.7818609E-02  0.9907189E-01
       -1   -1    0    0    0  501  0.00000000000E+00  0.00000000000E+00  0.24910037529E+03  0.24910037534E+03  0.50400001928E-02 0.  1.
        1   -1    0    0  501    0  0.00000000000E+00  0.00000000000E+00 -0.36026702159E+03  0.36026702163E+03  0.50400001928E-02 0. -1.
    10030    2    1    2    0    0  0.00000000000E+00  0.00000000000E+00 -0.11116664630E+03  0.60936739697E+03  0.59914155359E+03 0.  0.
        4    1    3    3  502    0  0.21977238944E+03 -0.10738694128E+03  0.12031107964E+03  0.27259535415E+03  0.12699999809E+01 0. -1.
       -4    1    3    3    0  502 -0.21977238944E+03  0.10738694128E+03 -0.23147772595E+03  0.33677204282E+03  0.12699999809E+01 0.  1.
</event>
<event>
 5   0  0.2092587E-02  0.5951281E+03  0.7818609E-02  0.9915566E-01
        2   -1    0    0  501    0  0.00000000000E+00  0.00000000000E+00  0.16186018843E+04  0.16186018843E+04  0.25500000920E-02 0. -1.
       -2   -1    0    0    0  501  0.00000000000E+00  0.00000000000E+00 -0.54704228232E+02  0.54704228291E+02  0.25500000920E-02 0.  1.
    10030    2    1    2    0    0  0.00000000000E+00  0.00000000000E+00  0.15638976560E+04  0.16733061125E+04  0.59512811039E+03 0.  0.
        3    1    3    3  502    0 -0.25547615897E+03  0.15141244110E+03  0.72930504170E+03  0.78745136305E+03  0.10100000352E+00 0.  1.
       -3    1    3    3    0  502  0.25547615897E+03 -0.15141244110E+03  0.83459261432E+03  0.88585474949E+03  0.10100000352E+00 0. -1.
</event>
<event>
 5   0  0.2141800E-02  0.6009185E+03  0.7818609E-02  0.9903502E-01
       -2   -1    0    0    0  501  0.00000000000E+00  0.00000000000E+00  0.26822930277E+03  0.26822930278E+03  0.25500000920E-02 0. -1.
        2   -1    0    0  501    0  0.00000000000E+00  0.00000000000E+00 -0.33656185750E+03  0.33656185751E+03  0.25500000920E-02 0.  1.
    10030    2    1    2    0    0  0.00000000000E+00  0.00000000000E+00 -0.68332554737E+02  0.60479116029E+03  0.60091847161E+03 0.  0.
        2    1    3    3  502    0  0.26185996180E+03  0.68869087187E+02  0.96911925754E+02  0.28758566049E+03  0.25500000920E-02 0.  1.
       -2    1    3    3    0  502 -0.26185996180E+03 -0.68869087187E+02 -0.16524448049E+03  0.31720549980E+03  0.25500000920E-02 0. -1.
</event>
<event>
 5   0  0.1276705E-02  0.5986708E+03  0.7818609E-02  0.9908168E-01
        1   -1    0    0  501    0  0.00000000000E+00  0.00000000000E+00  0.40927440032E+03  0.40927440035E+03  0.50400001928E-02 0.  1.
       -1   -1    0    0    0  501  0.00000000000E+00  0.00000000000E+00 -0.21892814168E+03  0.21892814174E+03  0.50400001928E-02 0. -1.
    10030    2    1    2    0    0  0.00000000000E+00  0.00000000000E+00  0.19034625864E+03  0.62820254209E+03  0.59867080746E+03 0.  0.
        1    1    3    3  502    0  0.66462624674E+02 -0.12395086447E+03 -0.18209717219E+03  0.23008797758E+03  0.50400001928E-02 0. -1.
       -1    1    3    3    0  502 -0.66462624674E+02  0.12395086447E+03  0.37244343083E+03  0.39811456451E+03  0.50400001928E-02 0.  1.
</event>
<event>
 5   0  0.2179625E-02  0.5999439E+03  0.7818609E-02  0.9905522E-01
       -2   -1    0    0    0  501  0.00000000000E+00  0.00000000000E+00  0.40959039164E+02  0.40959039244E+02  0.25500000920E-02 0.  1.
        2   -1    0    0  501    0  0.00000000000E+00  0.00000000000E+00 -0.21969065733E+04  0.21969065733E+04  0.25500000920E-02 0. -1.
    10030    2    1    2    0    0  0.00000000000E+00  0.00000000000E+00 -0.21559475341E+04  0.22378656126E+04  0.59994393894E+03 0.  0.
        1    1    3    3  502    0  0.18476784268E+03 -0.13758568301E+03 -0.36130232025E+03  0.42849544047E+03  0.50400001928E-02 0.  1.
       -1    1    3    3    0  502 -0.18476784268E+03  0.13758568301E+03 -0.17946452139E+04  0.18093701721E+04  0.50400001928E-02 0. -1.
</event>
<event>
 5   0  0.1332555E-02  0.6010198E+03  0.7818609E-02  0.9903292E-01
        1   -1    0    0  501    0  0.00000000000E+00  0.00000000000E+00  0.88418718132E+03  0.88418718134E+03  0.50400001928E-02 0. -1.
       -1   -1    0    0    0  501  0.00000000000E+00  0.00000000000E+00 -0.10213471801E+03  0.10213471813E+03  0.50400001928E-02 0.  1.
    10030    2    1    2    0    0  0.00000000000E+00  0.00000000000E+00  0.78205246332E+03  0.98632189947E+03  0.60101982829E+03 0.  0.
        2    1    3    3  502    0  0.17611737067E+03  0.21027969393E+03  0.59249404537E+03  0.65290433582E+03  0.25500000920E-02 0.  1.
       -2    1    3    3    0  502 -0.17611737067E+03 -0.21027969393E+03  0.18955841795E+03  0.33341756365E+03  0.25500000920E-02 0. -1.
</event>
<event>
 5   0  0.2126207E-02  0.5998099E+03  0.7818609E-02  0.9905801E-01
       -2   -1    0    0    0  501  0.00000000000E+00  0.00000000000E+00  0.59360171797E+03  0.59360171798E+03  0.25500000920E-02 0.  1.
        2   -1    0    0  501    0  0.00000000000E+00  0.00000000000E+00 -0.15152075611E+03  0.15152075613E+03  0.25500000920E-02 0. -1.
    10030    2    1    2    0    0  0.00000000000E+00  0.00000000000E+00  0.44208096186E+03  0.74512247411E+03  0.59980990704E+03 0.  0.
        5    1    3    3  502    0 -0.22616493091E+03  0.19670912307E+03  0.23185860504E+03  0.37897962716E+03  0.46999998093E+01 0. -1.
       -5    1    3    3    0  502  0.22616493091E+03 -0.19670912307E+03  0.21022235682E+03  0.36614284695E+03  0.46999998093E+01 0.  1.
</event>
<event>
 5   0  0.8551000E-03  0.5987817E+03  0.7818609E-02  0.9907937E-01
        4   -1    0    0  501    0  0.00000000000E+00  0.00000000000E+00  0.13918600179E+03  0.13919179572E+03  0.12699999809E+01 0. -1.
       -4   -1    0    0    0  501  0.00000000000E+00  0.00000000000E+00 -0.64397377556E+03  0.64397502786E+03  0.12699999809E+01 0.  1.
    10030    2    1    2    0    0  0.00000000000E+00  0.00000000000E+00 -0.50478777377E+03  0.78316682358E+03  0.59878174405E+03 0.  0.
        5    1    3    3  502    0  0.40683339933E+01 -0.29620918180E+03 -0.19604070867E+03  0.35526114363E+03  0.46999998093E+01 0. -1.
       -5    1    3    3    0  502 -0.40683339933E+01  0.29620918180E+03 -0.30874706511E+03  0.42790567995E+03  0.46999998093E+01 0.  1.
</event>
<event>
 5   0  0.1276705E-02  0.6050845E+03  0.7818609E-02  0.9894913E-01
       -1   -1    0    0    0  501  0.00000000000E+00  0.00000000000E+00  0.60563262390E+03  0.60563262392E+03  0.50400001928E-02 0. -1.
        1   -1    0    0  501    0  0.00000000000E+00  0.00000000000E+00 -0.15113420611E+03  0.15113420619E+03  0.50400001928E-02 0.  1.
    10030    2    1    2    0    0  0.00000000000E+00  0.00000000000E+00  0.45449841779E+03  0.75676683011E+03  0.60508447624E+03 0.  0.
        1    1    3    3  502    0  0.17639128849E+03  0.15141439909E+02 -0.79584733325E+02  0.19410533135E+03  0.50400001928E-02 0.  1.
       -1    1    3    3    0  502 -0.17639128849E+03 -0.15141439909E+02  0.53408315111E+03  0.56266149876E+03  0.50400001928E-02 0. -1.
</event>
<event>
 5   0  0.1337051E-02  0.6006163E+03  0.7818609E-02  0.9904128E-01
        1   -1    0    0  501    0  0.00000000000E+00  0.00000000000E+00  0.42046012507E+03  0.42046012510E+03  0.50400001928E-02 0.  1.
       -1   -1    0    0    0  501  0.00000000000E+00  0.00000000000E+00 -0.21449119609E+03  0.21449119615E+03  0.50400001928E-02 0. -1.
    10030    2    1    2    0    0  0.00000000000E+00  0.00000000000E+00  0.20596892898E+03  0.63495132125E+03  0.60061633398E+03 0.  0.
        5    1    3    3  502    0 -0.25777144636E+03 -0.76306788286E+02  0.24440020276E+03  0.36334885937E+03  0.46999998093E+01 0. -1.
       -5    1    3    3    0  502  0.25777144636E+03  0.76306788286E+02 -0.38431273781E+02  0.27160246188E+03  0.46999998093E+01 0.  1.
</event>
<event>
 5   0  0.2179625E-02  0.5982178E+03  0.7818609E-02  0.9909110E-01
       -2   -1    0    0    0  501  0.00000000000E+00  0.00000000000E+00  0.61321847155E+02  0.61321847208E+02  0.25500000920E-02 0.  1.
        2   -1    0    0  501    0  0.00000000000E+00  0.00000000000E+00 -0.14589603862E+04  0.14589603862E+04  0.25500000920E-02 0. -1.
    10030    2    1    2    0    0  0.00000000000E+00  0.00000000000E+00 -0.13976385390E+04  0.15202822334E+04  0.59821783942E+03 0.  0.
        1    1    3    3  502    0  0.21312057871E+02  0.89909428963E+02  0.24141778635E+02  0.95502537810E+02  0.50400001928E-02 0.  1.
       -1    1    3    3    0  502 -0.21312057871E+02 -0.89909428963E+02 -0.14217803177E+04  0.14247796956E+04  0.50400001928E-02 0. -1.
</event>
<event>
 5   0  0.1250390E-02  0.5974783E+03  0.7818609E-02  0.9910652E-01
       -1   -1    0    0    0  501  0.00000000000E+00  0.00000000000E+00  0.14129445345E+03  0.14129445354E+03  0.50400001928E-02 0. -1.
        1   -1    0    0  501    0  0.00000000000E+00  0.00000000000E+00 -0.63162477477E+03  0.63162477479E+03  0.50400001928E-02 0.  1.
    10030    2    1    2    0    0  0.00000000000E+00  0.00000000000E+00 -0.49033032132E+03  0.77291922833E+03  0.59747829209E+03 0.  0.
        3    1    3    3  502    0  0.19577591435E+03  0.58732465626E+02 -0.52700961998E+03  0.56525822499E+03  0.10100000352E+00 0.  1.
       -3    1    3    3    0  502 -0.19577591435E+03 -0.58732465626E+02  0.36679298662E+02  0.20766100335E+03  0.10100000352E+00 0. -1.
</event>
<event>
 5   0  0.2141800E-02  0.6001691E+03  0.7818609E-02  0.9905055E-01
       -2   -1    0    0    0  501  0.00000000000E+00  0.00000000000E+00  0.44425913341E+02  0.44425913415E+02  0.25500000920E-02 0.  1.
        2   -1    0    0  501    0  0.00000000000E+00  0.00000000000E+00 -0.20269869433E+04  0.20269869433E+04  0.25500000920E-02 0. -1.
    10030    2    1    2    0    0  0.00000000000E+00  0.00000000000E+00 -0.19825610299E+04  0.20714128567E+04  0.60016913071E+03 0.  0.
        2    1    3    3  502    0 -0.71834526581E+01  0.19912191991E+03 -0.17657263509E+04  0.17769329439E+04  0.25500000920E-02 0. -1.
       -2    1    3    3    0  502  0.71834526581E+01 -0.19912191991E+03 -0.21683467905E+03  0.29447991277E+03  0.25500000920E-02 0.  1.
</event>
<event>
 5   0  0.1303808E-02  0.6034479E+03  0.7818609E-02  0.9898279E-01
        1   -1    0    0  501    0  0.00000000000E+00  0.00000000000E+00  0.21532484925E+03  0.21532484931E+03  0.50400001928E-02 0.  1.
       -1   -1    0    0    0  501  0.00000000000E+00  0.00000000000E+00 -0.42279063102E+03  0.42279063105E+03  0.50400001928E-02 0. -1.
    10030    2    1    2    0    0  0.00000000000E+00  0.00000000000E+00 -0.20746578177E+03  0.63811548036E+03  0.60344785663E+03 0.  0.
        4    1    3    3  502    0  0.23447494436E+03  0.91663900865E+02 -0.27958433412E+03  0.37623102349E+03  0.12699999809E+01 0. -1.
       -4    1    3    3    0  502 -0.23447494436E+03 -0.91663900865E+02  0.72118552353E+02  0.26188445686E+03  0.12699999809E+01 0.  1.
</event>
<event>
 5   0  0.1337051E-02  0.5882425E+03  0.7818609E-02  0.9930104E-01
       -1   -1    0    0    0  501  0.00000000000E+00  0.00000000000E+00  0.37617804396E+03  0.37617804399E+03  0.50400001928E-02 0. -1.
        1   -1    0    0  501    0  0.00000000000E+00  0.00000000000E+00 -0.22996371274E+03  0.22996371280E+03  0.50400001928E-02 0.  1.
    10030    2    1    2    0    0  0.00000000000E+00  0.00000000000E+00  0.14621433122E+03  0.60614175679E+03  0.58824246589E+03 0.  0.
        5    1    3    3  502    0  0.33077200287E+02 -0.29214837738E+03  0.66554897832E+02  0.30149033153E+03  0.46999998093E+01 0.  1.
       -5    1    3    3    0  502 -0.33077200287E+02  0.29214837738E+03  0.79659433385E+02  0.30465142526E+03  0.46999998093E+01 0. -1.
</event>
<event>
 5   0  0.2126207E-02  0.5986006E+03  0.7818609E-02  0.9908314E-01
        2   -1    0    0  501    0  0.00000000000E+00  0.00000000000E+00  0.93166537481E+03  0.93166537482E+03  0.25500000920E-02 0. -1.
       -2   -1    0    0    0  501  0.00000000000E+00  0.00000000000E+00 -0.96151112701E+02  0.96151112735E+02  0.25500000920E-02 0.  1.
    10030    2    1    2    0    0  0.00000000000E+00  0.00000000000E+00  0.83551426211E+03  0.10278164876E+04  0.59860057625E+03 0.  0.
        5    1    3    3  502    0  0.10090252620E+03 -0.78724676222E+02  0.88224427348E+03  0.89149085386E+03  0.46999998093E+01 0. -1.
       -5    1    3    3    0  502 -0.10090252620E+03  0.78724676222E+02 -0.46730011366E+02  0.13632563369E+03  0.46999998093E+01 0.  1.
</event>
<event>
 5   0  0.1337051E-02  0.6056451E+03  0.7818609E-02  0.9893763E-01
       -1   -1    0    0    0  501  0.00000000000E+00  0.00000000000E+00  0.13178866353E+03  0.13178866363E+03  0.50400001928E-02 0.  1.
        1   -1    0    0  501    0  0.00000000000E+00  0.00000000000E+00 -0.69582245477E+03  0.69582245479E+03  0.50400001928E-02 0. -1.
    10030    2    1    2    0    0  0.00000000000E+00  0.00000000000E+00 -0.56403379124E+03  0.82761111842E+03  0.60564514831E+03 0.  0.
        5    1    3    3  502    0  0.60253296945E+02 -0.13423422752E+03 -0.64363532201E+03  0.66025586356E+03  0.46999998093E+01 0. -1.
       -5    1    3    3    0  502 -0.60253296945E+02  0.13423422752E+03  0.79601530765E+02  0.16735525486E+03  0.46999998093E+01 0.  1.
</event>
<event>
 5   0  0.8551000E-03  0.5918641E+03  0.7818609E-02  0.9922431E-01
       -4   -1    0    0    0  501  0.00000000000E+00  0.00000000000E+00  0.26725667611E+03  0.26725969360E+03  0.12699999809E+01 0. -1.
        4   -1    0    0  501    0  0.00000000000E+00  0.00000000000E+00 -0.32767808301E+03  0.32768054411E+03  0.12699999809E+01 0.  1.
    10030    2    1    2    0    0  0.00000000000E+00  0.00000000000E+00 -0.60421406904E+02  0.59494023771E+03  0.59186412294E+03 0.  0.
        3    1    3    3  502    0  0.64100391839E+02  0.15993255251E+03 -0.27206145999E+03  0.32203218752E+03  0.10100000352E+00 0.  1.
       -3    1    3    3    0  502 -0.64100391839E+02 -0.15993255251E+03  0.21164005308E+03  0.27290805019E+03  0.10100000352E+00 0. -1.
</event>
<event>
 5   0  0.2179625E-02  0.5999397E+03  0.7818609E-02  0.9905531E-01
        2   -1    0    0  501    0  0.00000000000E+00  0.00000000000E+00  0.96291359272E+03  0.96291359272E+03  0.25500000920E-02 0.  1.
       -2   -1    0    0    0  501  0.00000000000E+00  0.00000000000E+00 -0.93447545939E+02  0.93447545974E+02  0.25500000920E-02 0. -1.
    10030    2    1    2    0    0  0.00000000000E+00  0.00000000000E+00  0.86946604678E+03  0.10563611387E+04  0.59993970434E+03 0.  0.
        1    1    3    3  502    0  0.26347264935E+03  0.12740952517E+03  0.55060896974E+03  0.62355533968E+03  0.50400001928E-02 0.  1.
       -1    1    3    3    0  502 -0.26347264935E+03 -0.12740952517E+03  0.31885707704E+03  0.43280579901E+03  0.50400001928E-02 0. -1.
</event>
<event>
 5   0  0.1303808E-02  0.6125362E+03  0.7818609E-02  0.9879733E-01
        1   -1    0    0  501    0  0.00000000000E+00  0.00000000000E+00  0.46979989416E+03  0.46979989418E+03  0.50400001928E-02 0. -1.
       -1   -1    0    0    0  501  0.00000000000E+00  0.00000000000E+00 -0.19965976884E+03  0.19965976890E+03  0.50400001928E-02 0.  1.
    10030    2    1    2    0    0  0.00000000000E+00  0.00000000000E+00  0.27014012532E+03  0.66945966308E+03  0.61253616480E+03 0.  0.
        4    1    3    3  502    0 -0.24931003959E+03 -0.13719758431E+03  0.25881692396E+03  0.38466412103E+03  0.12699999809E+01 0. -1.
       -4    1    3    3    0  502  0.24931003959E+03  0.13719758431E+03  0.11323201360E+02  0.28479554205E+03  0.12699999809E+01 0.  1.
</event>
<event>
 5   0  0.2179625E-02  0.5990483E+03  0.7818609E-02  0.9907382E-01
        2   -1    0    0  501    0  0.00000000000E+00  0.00000000000E+00  0.74851218952E+03  0.74851218953E+03  0.25500000920E-02 0. -1.
       -2   -1    0    0    0  501  0.00000000000E+00  0.00000000000E+00 -0.11985739202E+03  0.11985739204E+03  0.25500000920E-02 0.  1.
    10030    2    1    2    0    0  0.00000000000E+00  0.00000000000E+00  0.62865479750E+03  0.86836958157E+03  0.59904830838E+03 0.  0.
        1    1    3    3  502    0  0.19809057989E+03  0.51718305922E+02  0.63125274046E+03  0.66362239517E+03  0.50400001928E-02 0. -1.
       -1    1    3    3    0  502 -0.19809057989E+03 -0.51718305922E+02 -0.25979429509E+01  0.20474718640E+03  0.50400001928E-02 0.  1.
</event>
<event>
 5   0  0.2179625E-02  0.5998771E+03  0.7818609E-02  0.9905661E-01
        2   -1    0    0  501    0  0.00000000000E+00  0.00000000000E+00  0.58301328717E+03  0.58301328718E+03  0.25500000920E-02 0. -1.
       -2   -1    0    0    0  501  0.00000000000E+00  0.00000000000E+00 -0.15430718922E+03  0.15430718924E+03  0.25500000920E-02 0.  1.
    10030    2    1    2    0    0  0.00000000000E+00  0.00000000000E+00  0.42870609795E+03  0.73732047642E+03  0.59987712619E+03 0.  0.
        1    1    3    3  502    0  0.69709961876E+02 -0.55710722195E+02 -0.13761307165E+03  0.16401378255E+03  0.50400001928E-02 0.  1.
       -1    1    3    3    0  502 -0.69709961876E+02  0.55710722195E+02  0.56631916960E+03  0.57330669387E+03  0.50400001928E-02 0. -1.
</event>
<event>
 5   0  0.1303808E-02  0.6095403E+03  0.7818609E-02  0.9885808E-01
       -1   -1    0    0    0  501  0.00000000000E+00  0.00000000000E+00  0.33686567344E+03  0.33686567348E+03  0.50400001928E-02 0.  1.
        1   -1    0    0  501    0  0.00000000000E+00  0.00000000000E+00 -0.27573261022E+03  0.27573261026E+03  0.50400001928E-02 0. -1.
    10030    2    1    2    0    0  0.00000000000E+00  0.00000000000E+00  0.61133063226E+02  0.61259828374E+03  0.60954032338E+03 0.  0.
        4    1    3    3  502    0 -0.87950846365E-01 -0.24535619518E+03  0.21225947791E+03  0.32443083872E+03  0.12699999809E+01 0.  1.
       -4    1    3    3    0  502  0.87950846365E-01  0.24535619518E+03 -0.15112641469E+03  0.28816744502E+03  0.12699999809E+01 0. -1.
</event>
<event>
 5   0  0.1250390E-02  0.5993114E+03  0.7818609E-02  0.9906836E-01
       -1   -1    0    0    0  501  0.00000000000E+00  0.00000000000E+00  0.56996348208E+02  0.56996348431E+02  0.50400001928E-02 0. -1.
        1   -1    0    0  501    0  0.00000000000E+00  0.00000000000E+00 -0.15754262693E+04  0.15754262693E+04  0.50400001928E-02 0.  1.
    10030    2    1    2    0    0  0.00000000000E+00  0.00000000000E+00 -0.15184299211E+04  0.16324226178E+04  0.59931141958E+03 0.  0.
        3    1    3    3  502    0 -0.10759935809E+03 -0.23565484378E+03 -0.34898489032E+03  0.43462776157E+03  0.10100000352E+00 0. -1.
       -3    1    3    3    0  502  0.10759935809E+03  0.23565484378E+03 -0.11694450308E+04  0.11977948562E+04  0.10100000352E+00 0.  1.
</event>
<event>
 5   0  0.8551000E-03  0.5989088E+03  0.7818609E-02  0.9907673E-01
        3   -1    0    0  501    0  0.00000000000E+00  0.00000000000E+00  0.59560194102E+03  0.59560194959E+03  0.10100000352E+00 0.  1.
       -3   -1    0    0    0  501  0.00000000000E+00  0.00000000000E+00 -0.15055845347E+03  0.15055848734E+03  0.10100000352E+00 0. -1.
    10030    2    1    2    0    0  0.00000000000E+00  0.00000000000E+00  0.44504348756E+03  0.74616043693E+03  0.59890875083E+03 0.  0.
        1    1    3    3  502    0  0.29705645742E+03  0.10521465468E+02  0.17726259965E+03  0.34608563881E+03  0.50400001928E-02 0. -1.
       -1    1    3    3    0  502 -0.29705645742E+03 -0.10521465468E+02  0.26778088791E+03  0.40007479812E+03  0.50400001928E-02 0.  1.
</event>
<event>
 5   0  0.2142838E-02  0.6002156E+03  0.7818609E-02  0.9904959E-01
       -2   -1    0    0    0  501  0.00000000000E+00  0.00000000000E+00  0.16782171684E+03  0.16782171686E+03  0.25500000920E-02 0. -1.
        2   -1    0    0  501    0  0.00000000000E+00  0.00000000000E+00 -0.53666886921E+03  0.53666886921E+03  0.25500000920E-02 0.  1.
    10030    2    1    2    0    0  0.00000000000E+00  0.00000000000E+00 -0.36884715237E+03  0.70449058607E+03  0.60021559797E+03 0.  0.
        4    1    3    3  502    0  0.69091353185E+01  0.16943983521E+03  0.10619112518E+03  0.20008938471E+03  0.12699999809E+01 0. -1.
       -4    1    3    3    0  502 -0.69091353185E+01 -0.16943983521E+03 -0.47503827754E+03  0.50440120136E+03  0.12699999809E+01 0.  1.
</event>
<event>
 5   0  0.1303808E-02  0.5999887E+03  0.7818609E-02  0.9905430E-01
       -1   -1    0    0    0  501  0.00000000000E+00  0.00000000000E+00  0.22018775490E+03  0.22018775496E+03  0.50400001928E-02 0.  1.
        1   -1    0    0  501    0  0.00000000000E+00  0.00000000000E+00 -0.40872665725E+03  0.40872665728E+03  0.50400001928E-02 0. -1.
    10030    2    1    2    0    0  0.00000000000E+00  0.00000000000E+00 -0.18853890235E+03  0.62891441224E+03  0.59998868341E+03 0.  0.
        4    1    3    3  502    0  0.26717587460E+03 -0.54084829367E+02  0.37016033510E+02  0.27509982983E+03  0.12699999809E+01 0.  1.
       -4    1    3    3    0  502 -0.26717587460E+03  0.54084829367E+02 -0.22555493586E+03  0.35381458241E+03  0.12699999809E+01 0. -1.
</event>
<event>
 5   0  0.1276705E-02  0.6000741E+03  0.7818609E-02  0.9905252E-01
        1   -1    0    0  501    0  0.00000000000E+00  0.00000000000E+00  0.28684431868E+03  0.28684431872E+03  0.50400001928E-02 0.  1.
       -1   -1    0    0    0  501  0.00000000000E+00  0.00000000000E+00 -0.31383651120E+03  0.31383651124E+03  0.50400001928E-02 0. -1.
    10030    2    1    2    0    0  0.00000000000E+00  0.00000000000E+00 -0.26992192520E+02  0.60068082996E+03  0.60007406295E+03 0.  0.
        1    1    3    3  502    0 -0.28624976174E+03 -0.12312856638E+02  0.75653980079E+02  0.29633436733E+03  0.50400001928E-02 0.  1.
       -1    1    3    3    0  502  0.28624976174E+03  0.12312856638E+02 -0.10264617260E+03  0.30434646262E+03  0.50400001928E-02 0. -1.
</event>
<event>
 5   0  0.1337051E-02  0.5999368E+03  0.7818609E-02  0.9905537E-01
       -1   -1    0    0    0  501  0.00000000000E+00  0.00000000000E+00  0.12822048470E+03  0.12822048480E+03  0.50400001928E-02 0.  1.
        1   -1    0    0  501    0  0.00000000000E+00  0.00000000000E+00 -0.70176807220E+03  0.70176807222E+03  0.50400001928E-02 0. -1.
    10030    2    1    2    0    0  0.00000000000E+00  0.00000000000E+00 -0.57354758751E+03  0.82998855702E+03  0.59993680471E+03 0.  0.
        5    1    3    3  502    0  0.24254198154E+03  0.65715924962E+01 -0.42840517015E+02  0.24642889143E+03  0.46999998093E+01 0. -1.
       -5    1    3    3    0  502 -0.24254198154E+03 -0.65715924962E+01 -0.53070707049E+03  0.58355966559E+03  0.46999998093E+01 0.  1.
</event>
<event>
 5   0  0.2142838E-02  0.5997744E+03  0.7818609E-02  0.9905874E-01
       -2   -1    0    0    0  501  0.00000000000E+00  0.00000000000E+00  0.33442924438E+03  0.33442924439E+03  0.25500000920E-02 0.  1.
        2   -1    0    0  501    0  0.00000000000E+00  0.00000000000E+00 -0.26891286630E+03  0.26891286631E+03  0.25500000920E-02 0. -1.
    10030    2    1    2    0    0  0.00000000000E+00  0.00000000000E+00  0.65516378086E+02  0.60334211070E+03  0.59977437987E+03 0.  0.
        4    1    3    3  502    0 -0.56906894692E+02 -0.15514902867E+03 -0.21897244352E+03  0.27433585198E+03  0.12699999809E+01 0. -1.
       -4    1    3    3    0  502  0.56906894692E+02  0.15514902867E+03  0.28448882160E+03  0.32900625872E+03  0.12699999809E+01 0.  1.
</event>
<event>
 5   0  0.2141800E-02  0.5831608E+03  0.7818609E-02  0.9940971E-01
        2   -1    0    0  501    0  0.00000000000E+00  0.00000000000E+00  0.62880809822E+03  0.62880809823E+03  0.25500000920E-02 0.  1.
       -2   -1    0    0    0  501  0.00000000000E+00  0.00000000000E+00 -0.13520681646E+03  0.13520681649E+03  0.25500000920E-02 0. -1.
    10030    2    1    2    0    0  0.00000000000E+00  0.00000000000E+00  0.49360128176E+03  0.76401491471E+03  0.58316083935E+03 0.  0.
        2    1    3    3  502    0 -0.16754695712E+03 -0.53126520278E+02 -0.57996830929E+02  0.18508928225E+03  0.25500000920E-02 0. -1.
       -2    1    3    3    0  502  0.16754695712E+03  0.53126520278E+02  0.55159811269E+03  0.57892563247E+03  0.25500000920E-02 0.  1.
</event>
<event>
 5   0  0.1337051E-02  0.6001245E+03  0.7818609E-02  0.9905148E-01
       -1   -1    0    0    0  501  0.00000000000E+00  0.00000000000E+00  0.43809651065E+03  0.43809651068E+03  0.50400001928E-02 0. -1.
        1   -1    0    0  501    0  0.00000000000E+00  0.00000000000E+00 -0.20551944635E+03  0.20551944641E+03  0.50400001928E-02 0.  1.
    10030    2    1    2    0    0  0.00000000000E+00  0.00000000000E+00  0.23257706430E+03  0.64361595709E+03  0.60012449490E+03 0.  0.
        5    1    3    3  502    0  0.32988712129E+02  0.29718358252E+03  0.14275326602E+03  0.33137127486E+03  0.46999998093E+01 0. -1.
       -5    1    3    3    0  502 -0.32988712129E+02 -0.29718358252E+03  0.89823798281E+02  0.31224468223E+03  0.46999998093E+01 0.  1.
</event>
<event>
 5   0  0.1276705E-02  0.5956660E+03  0.7818609E-02  0.9914439E-01
       -1   -1    0    0    0  501  0.00000000000E+00  0.00000000000E+00  0.61012593277E+02  0.61012593486E+02  0.50400001928E-02 0. -1.
        1   -1    0    0  501    0  0.00000000000E+00  0.00000000000E+00 -0.14538719673E+04  0.14538719673E+04  0.50400001928E-02 0.  1.
    10030    2    1    2    0    0  0.00000000000E+00  0.00000000000E+00 -0.13928593740E+04  0.15148845608E+04  0.59566601105E+03 0.  0.
        1    1    3    3  502    0 -0.27476042595E+02  0.13004373572E+03 -0.18596742904E+02  0.13420933272E+03  0.50400001928E-02 0. -1.
       -1    1    3    3    0  502  0.27476042595E+02 -0.13004373572E+03 -0.13742626311E+04  0.13806752281E+04  0.50400001928E-02 0.  1.
</event>
<event>
 5   0  0.2092587E-02  0.5934704E+03  0.7818609E-02  0.9919046E-01
       -2   -1    0    0    0  501  0.00000000000E+00  0.00000000000E+00  0.65423648093E+02  0.65423648142E+02  0.25500000920E-02 0. -1.
        2   -1    0    0  501    0  0.00000000000E+00  0.00000000000E+00 -0.13458708727E+04  0.13458708727E+04  0.25500000920E-02 0.  1.
    10030    2    1    2    0    0  0.00000000000E+00  0.00000000000E+00 -0.12804472246E+04  0.14112945208E+04  0.59347041169E+03 0.  0.
        3    1    3    3  502    0  0.18937406655E+03 -0.82448753609E+02 -0.11468707055E+04  0.11653208826E+04  0.10100000352E+00 0.  1.
       -3    1    3    3    0  502 -0.18937406655E+03  0.82448753609E+02 -0.13357651907E+03  0.24597363822E+03  0.10100000352E+00 0. -1.
</event>
<event>
 5   0  0.2142838E-02  0.6000228E+03  0.7818609E-02  0.9905359E-01
       -2   -1    0    0    0  501  0.00000000000E+00  0.00000000000E+00  0.50024790739E+02  0.50024790804E+02  0.25500000920E-02 0. -1.
        2   -1    0    0  501    0  0.00000000000E+00  0.00000000000E+00 -0.17992447141E+04  0.17992447141E+04  0.25500000920E-02 0.  1.
    10030    2    1    2    0    0  0.00000000000E+00  0.00000000000E+00 -0.17492199234E+04  0.18492695049E+04  0.60002280081E+03 0.  0.
        4    1    3    3  502    0  0.11845662545E+03  0.27259725906E+03 -0.10003309461E+04  0.10435539528E+04  0.12699999809E+01 0.  1.
       -4    1    3    3    0  502 -0.11845662545E+03 -0.27259725906E+03 -0.74888897724E+03  0.80571555209E+03  0.12699999809E+01 0. -1.
</event>
<event>
 5   0  0.2142838E-02  0.5999416E+03  0.7818609E-02  0.9905527E-01
        2   -1    0    0  501    0  0.00000000000E+00  0.00000000000E+00  0.61606534357E+03  0.61606534358E+03  0.25500000920E-02 0. -1.
       -2   -1    0    0    0  501  0.00000000000E+00  0.00000000000E+00 -0.14605994851E+03  0.14605994853E+03  0.25500000920E-02 0.  1.
    10030    2    1    2    0    0  0.00000000000E+00  0.00000000000E+00  0.47000539507E+03  0.76212529211E+03  0.59994157172E+03 0.  0.
        4    1    3    3  502    0 -0.18708998128E+03 -0.23371155270E+03  0.21099682375E+03  0.36625813778E+03  0.12699999809E+01 0. -1.
       -4    1    3    3    0  502  0.18708998128E+03  0.23371155270E+03  0.25900857131E+03  0.39586715432E+03  0.12699999809E+01 0.  1.
</event>
<event>
 5   0  0.1250390E-02  0.6004866E+03  0.7818609E-02  0.9904397E-01
       -1   -1    0    0    0  501  0.00000000000E+00  0.00000000000E+00  0.20043952152E+03  0.20043952158E+03  0.50400001928E-02 0.  1.
        1   -1    0    0  501    0  0.00000000000E+00  0.00000000000E+00 -0.44974181570E+03  0.44974181572E+03  0.50400001928E-02 0. -1.
    10030    2    1    2    0    0  0.00000000000E+00  0.00000000000E+00 -0.24930229418E+03  0.65018133730E+03  0.60048658394E+03 0.  0.
        3    1    3    3  502    0 -0.20842477691E+03 -0.12545437742E+03 -0.31518673290E+03  0.39814868484E+03  0.10100000352E+00 0. -1.
       -3    1    3    3    0  502  0.20842477691E+03  0.12545437742E+03  0.65884438716E+02  0.25203265247E+03  0.10100000352E+00 0.  1.
</event>
<event>
 5   0  0.1250390E-02  0.5987647E+03  0.7818609E-02  0.9907972E-01
        1   -1    0    0  501    0  0.00000000000E+00  0.00000000000E+00  0.27309147310E+03  0.27309147314E+03  0.50400001928E-02 0.  1.
       -1   -1    0    0    0  501  0.00000000000E+00  0.00000000000E+00 -0.32820424473E+03  0.32820424477E+03  0.50400001928E-02 0. -1.
    10030    2    1    2    0    0  0.00000000000E+00  0.00000000000E+00 -0.55112771635E+02  0.60129571792E+03  0.59876466394E+03 0.  0.
        3    1    3    3  502    0 -0.18092593193E+03 -0.97370475242E+01 -0.26689294919E+03  0.32258465473E+03  0.10100000352E+00 0. -1.
       -3    1    3    3    0  502  0.18092593193E+03  0.97370475242E+01  0.21178017755E+03  0.27871106319E+03  0.10100000352E+00 0.  1.
</event>
<event>
 5   0  0.1276705E-02  0.5984321E+03  0.7818609E-02  0.9908664E-01
        1   -1    0    0  501    0  0.00000000000E+00  0.00000000000E+00  0.12160459968E+03  0.12160459978E+03  0.50400001928E-02 0.  1.
       -1   -1    0    0    0  501  0.00000000000E+00  0.00000000000E+00 -0.73624060310E+03  0.73624060312E+03  0.50400001928E-02 0. -1.
    10030    2    1    2    0    0  0.00000000000E+00  0.00000000000E+00 -0.61463600342E+03  0.85784520290E+03  0.59843209760E+03 0.  0.
        1    1    3    3  502    0 -0.25135668815E+03 -0.30668342049E+02 -0.78814842211E+02  0.26520277385E+03  0.50400001928E-02 0. -1.
       -1    1    3    3    0  502  0.25135668815E+03  0.30668342049E+02 -0.53582116121E+03  0.59264242905E+03  0.50400001928E-02 0.  1.
</event>
<event>
 5   0  0.8551000E-03  0.6002454E+03  0.7818609E-02  0.9904897E-01
        4   -1    0    0  501    0  0.00000000000E+00  0.00000000000E+00  0.12170087372E+04  0.12170093999E+04  0.12699999809E+01 0.  1.
       -4   -1    0    0    0  501  0.00000000000E+00  0.00000000000E+00 -0.74006183375E+02  0.74017079635E+02  0.12699999809E+01 0. -1.
    10030    2    1    2    0    0  0.00000000000E+00  0.00000000000E+00  0.11430025538E+04  0.12910264795E+04  0.60024539372E+03 0.  0.
        3    1    3    3  502    0 -0.87982305443E+02 -0.14296426401E+03  0.36406840736E+02  0.17177058860E+03  0.10100000352E+00 0. -1.
       -3    1    3    3    0  502  0.87982305443E+02  0.14296426401E+03  0.11065957131E+04  0.11192558909E+04  0.10100000352E+00 0.  1.
</event>
<event>
 5   0  0.2092587E-02  0.6001328E+03  0.7818609E-02  0.9905130E-01
        2   -1    0    0  501    0  0.00000000000E+00  0.00000000000E+00  0.54687505594E+03  0.54687505595E+03  0.25500000920E-02 0. -1.
       -2   -1    0    0    0  501  0.00000000000E+00  0.00000000000E+00 -0.16464429453E+03  0.16464429455E+03  0.25500000920E-02 0.  1.
    10030    2    1    2    0    0  0.00000000000E+00  0.00000000000E+00  0.38223076141E+03  0.71151935050E+03  0.60013284460E+03 0.  0.
        3    1    3    3  502    0 -0.14605800852E+03 -0.15186202143E+02 -0.11913292268E+03  0.18909316766E+03  0.10100000352E+00 0.  1.
       -3    1    3    3    0  502  0.14605800852E+03  0.15186202143E+02  0.50136368409E+03  0.52242618284E+03  0.10100000352E+00 0. -1.
</event>
<event>
 5   0  0.2092587E-02  0.6007371E+03  0.7818609E-02  0.9903878E-01
       -2   -1    0    0    0  501  0.00000000000E+00  0.00000000000E+00  0.89191094554E+02  0.89191094590E+02  0.25500000920E-02 0. -1.
        2   -1    0    0  501    0  0.00000000000E+00  0.00000000000E+00 -0.10115501964E+04  0.10115501964E+04  0.25500000920E-02 0.  1.
    10030    2    1    2    0    0  0.00000000000E+00  0.00000000000E+00 -0.92235910189E+03  0.11007412910E+04  0.60073711135E+03 0.  0.
        3    1    3    3  502    0  0.23195997192E+03 -0.44975602437E+02 -0.80098942005E+03  0.83511214494E+03  0.10100000352E+00 0.  1.
       -3    1    3    3    0  502 -0.23195997192E+03  0.44975602437E+02 -0.12136968184E+03  0.26562914610E+03  0.10100000352E+00 0. -1.
</event>
<event>
 5   0  0.8551000E-03  0.6010336E+03  0.7818609E-02  0.9903264E-01
        3   -1    0    0  501    0  0.00000000000E+00  0.00000000000E+00  0.99113782677E+02  0.99113834138E+02  0.10100000352E+00 0.  1.
       -3   -1    0    0    0  501  0.00000000000E+00  0.00000000000E+00 -0.91117826431E+03  0.91117826991E+03  0.10100000352E+00 0. -1.
    10030    2    1    2    0    0  0.00000000000E+00  0.00000000000E+00 -0.81206448164E+03  0.10102921040E+04  0.60103362067E+03 0.  0.
        3    1    3    3  502    0 -0.27721965650E+03  0.93281802180E+01 -0.60041420237E+03  0.66138867355E+03  0.10100000352E+00 0. -1.
       -3    1    3    3    0  502  0.27721965650E+03 -0.93281802180E+01 -0.21165027927E+03  0.34890343050E+03  0.10100000352E+00 0.  1.
</event>
<event>
 5   0  0.1250390E-02  0.6004370E+03  0.7818609E-02  0.9904500E-01
        1   -1    0    0  501    0  0.00000000000E+00  0.00000000000E+00  0.91744796236E+02  0.91744796375E+02  0.50400001928E-02 0.  1.
       -1   -1    0    0    0  501  0.00000000000E+00  0.00000000000E+00 -0.98241168130E+03  0.98241168132E+03  0.50400001928E-02 0. -1.
    10030    2    1    2    0    0  0.00000000000E+00  0.00000000000E+00 -0.89066688507E+03  0.10741564777E+04  0.60043703951E+03 0.  0.
        3    1    3    3  502    0  0.27008616003E+03 -0.99052625352E+02 -0.29172047568E+03  0.40970575119E+03  0.10100000352E+00 0.  1.
       -3    1    3    3    0  502 -0.27008616003E+03  0.99052625352E+02 -0.59894640938E+03  0.66445072650E+03  0.10100000352E+00 0. -1.
</event>
<event>
 5   0  0.2141800E-02  0.6012649E+03  0.7818609E-02  0.9902785E-01
       -2   -1    0    0    0  501  0.00000000000E+00  0.00000000000E+00  0.61900462852E+02  0.61900462905E+02  0.25500000920E-02 0. -1.
        2   -1    0    0  501    0  0.00000000000E+00  0.00000000000E+00 -0.14600840940E+04  0.14600840940E+04  0.25500000920E-02 0.  1.
    10030    2    1    2    0    0  0.00000000000E+00  0.00000000000E+00 -0.13981836311E+04  0.15219845569E+04  0.60126493749E+03 0.  0.
        2    1    3    3  502    0 -0.77434031839E+02 -0.43339762811E+02  0.27994317269E+02  0.93048622414E+02  0.25500000920E-02 0. -1.
       -2    1    3    3    0  502  0.77434031839E+02  0.43339762811E+02 -0.14261779484E+04  0.14289359345E+04  0.25500000920E-02 0.  1.
</event>
<event>
 5   0  0.2179625E-02  0.6000192E+03  0.7818609E-02  0.9905366E-01
       -2   -1    0    0    0  501  0.00000000000E+00  0.00000000000E+00  0.45786294964E+03  0.45786294964E+03  0.25500000920E-02 0. -1.
        2   -1    0    0  501    0  0.00000000000E+00  0.00000000000E+00 -0.19657798025E+03  0.19657798027E+03  0.25500000920E-02 0.  1.
    10030    2    1    2    0    0  0.00000000000E+00  0.00000000000E+00  0.26128496939E+03  0.65444092991E+03  0.60001924595E+03 0.  0.
        1    1    3    3  502    0  0.50826728986E+02 -0.28799279389E+03  0.57617962791E+02  0.29806548840E+03  0.50400001928E-02 0. -1.
       -1    1    3    3    0  502 -0.50826728986E+02  0.28799279389E+03  0.20366700660E+03  0.35637544151E+03  0.50400001928E-02 0.  1.
</event>
<event>
 5   0  0.2142838E-02  0.6180822E+03  0.7818609E-02  0.9868586E-01
        2   -1    0    0  501    0  0.00000000000E+00  0.00000000000E+00  0.71240644693E+03  0.71240644694E+03  0.25500000920E-02 0. -1.
       -2   -1    0    0    0  501  0.00000000000E+00  0.00000000000E+00 -0.13406165577E+03  0.13406165579E+03  0.25500000920E-02 0.  1.
    10030    2    1    2    0    0  0.00000000000E+00  0.00000000000E+00  0.57834479117E+03  0.84646810273E+03  0.61808215592E+03 0.  0.
        4    1    3    3  502    0 -0.24164036938E+03  0.17084817036E+03  0.16725077462E+03  0.33993175777E+03  0.12699999809E+01 0.  1.
       -4    1    3    3    0  502  0.24164036938E+03 -0.17084817036E+03  0.41109401654E+03  0.50653634496E+03  0.12699999809E+01 0. -1.
</event>
<event>
 5   0  0.8551000E-03  0.6035494E+03  0.7818609E-02  0.9898069E-01
        3   -1    0    0  501    0  0.00000000000E+00  0.00000000000E+00  0.75629447110E+02  0.75629514550E+02  0.10100000352E+00 0. -1.
       -3   -1    0    0    0  501  0.00000000000E+00  0.00000000000E+00 -0.12041330355E+04  0.12041330397E+04  0.10100000352E+00 0.  1.
    10030    2    1    2    0    0  0.00000000000E+00  0.00000000000E+00 -0.11285035883E+04  0.12797625542E+04  0.60354937356E+03 0.  0.
        3    1    3    3  502    0 -0.61970610515E+02 -0.23480287299E+03 -0.18438032496E+03  0.30490795359E+03  0.10100000352E+00 0. -1.
       -3    1    3    3    0  502  0.61970610515E+02  0.23480287299E+03 -0.94412326338E+03  0.97485460064E+03  0.10100000352E+00 0.  1.
</event>
<event>
 5   0  0.1337051E-02  0.6033982E+03  0.7818609E-02  0.9898381E-01
        1   -1    0    0  501    0  0.00000000000E+00  0.00000000000E+00  0.29327044351E+03  0.29327044356E+03  0.50400001928E-02 0. -1.
       -1   -1    0    0    0  501  0.00000000000E+00  0.00000000000E+00 -0.31037002358E+03  0.31037002362E+03  0.50400001928E-02 0.  1.
    10030    2    1    2    0    0  0.00000000000E+00  0.00000000000E+00 -0.17099580066E+02  0.60364046718E+03  0.60339822504E+03 0.  0.
        5    1    3    3  502    0 -0.35050677236E+02  0.39085571834E+02  0.28862843977E+03  0.29340193957E+03  0.46999998093E+01 0. -1.
       -5    1    3    3    0  502  0.35050677236E+02 -0.39085571834E+02 -0.30572801984E+03  0.31023852761E+03  0.46999998093E+01 0.  1.
</event>
<event>
 5   0  0.2179625E-02  0.5991114E+03  0.7818609E-02  0.9907251E-01
        2   -1    0    0  501    0  0.00000000000E+00  0.00000000000E+00  0.90808401184E+03  0.90808401184E+03  0.25500000920E-02 0. -1.
       -2   -1    0    0    0  501  0.00000000000E+00  0.00000000000E+00 -0.98816434176E+02  0.98816434209E+02  0.25500000920E-02 0.  1.
    10030    2    1    2    0    0  0.00000000000E+00  0.00000000000E+00  0.80926757766E+03  0.10069004460E+04  0.59911142203E+03 0.  0.
        1    1    3    3  502    0  0.10871581515E+03  0.73603839448E+02  0.85715491848E+03  0.86715120247E+03  0.50400001928E-02 0. -1.
       -1    1    3    3    0  502 -0.10871581515E+03 -0.73603839448E+02 -0.47887340815E+02  0.13974924358E+03  0.50400001928E-02 0.  1.
</event>
<event>
 5   0  0.2092587E-02  0.5999827E+03  0.7818609E-02  0.9905442E-01
        2   -1    0    0  501    0  0.00000000000E+00  0.00000000000E+00  0.16139942028E+04  0.16139942028E+04  0.25500000920E-02 0.  1.
       -2   -1    0    0    0  501  0.00000000000E+00  0.00000000000E+00 -0.55759066114E+02  0.55759066173E+02  0.25500000920E-02 0. -1.
    10030    2    1    2    0    0  0.00000000000E+00  0.00000000000E+00  0.15582351367E+04  0.16697532689E+04  0.59998269812E+03 0.  0.
        3    1    3    3  502    0  0.79451422822E+02  0.97633976105E+02  0.15369423349E+04  0.15420884128E+04  0.10100000352E+00 0.  1.
       -3    1    3    3    0  502 -0.79451422822E+02 -0.97633976105E+02  0.21292801714E+02  0.12766485610E+03  0.10100000352E+00 0. -1.
</event>
<event>
 5   0  0.1303808E-02  0.5984916E+03  0.7818609E-02  0.9908540E-01
        1   -1    0    0  501    0  0.00000000000E+00  0.00000000000E+00  0.32954503473E+03  0.32954503477E+03  0.50400001928E-02 0. -1.
       -1   -1    0    0    0  501  0.00000000000E+00  0.00000000000E+00 -0.27173238510E+03  0.27173238515E+03  0.50400001928E-02 0.  1.
    10030    2    1    2    0    0  0.00000000000E+00  0.00000000000E+00  0.57812649624E+02  0.60127741992E+03  0.59849163172E+03 0.  0.
        4    1    3    3  502    0 -0.11332675332E+03  0.62444436506E+02 -0.24217211913E+03  0.27457459615E+03  0.12699999809E+01 0.  1.
       -4    1    3    3    0  502  0.11332675332E+03 -0.62444436506E+02  0.29998476876E+03  0.32670282376E+03  0.12699999809E+01 0. -1.
</event>
<event>
 5   0  0.2126207E-02  0.5968880E+03  0.7818609E-02  0.9911883E-01
       -2   -1    0    0    0  501  0.00000000000E+00  0.00000000000E+00  0.12138482205E+03  0.12138482207E+03  0.25500000920E-02 0. -1.
        2   -1    0    0  501    0  0.00000000000E+00  0.00000000000E+00 -0.73377241919E+03  0.73377241920E+03  0.25500000920E-02 0.  1.
    10030    2    1    2    0    0  0.00000000000E+00  0.00000000000E+00 -0.61238759715E+03  0.85515724127E+03  0.59688804491E+03 0.  0.
        5    1    3    3  502    0  0.17355047425E+03  0.11807848863E+03 -0.61006132788E+03  0.64518153288E+03  0.46999998093E+01 0.  1.
       -5    1    3    3    0  502 -0.17355047425E+03 -0.11807848863E+03 -0.23262692610E+01  0.20997570839E+03  0.46999998093E+01 0. -1.
</event>
<event>
 5   0  0.2141800E-02  0.5958102E+03  0.7818609E-02  0.9914137E-01
        2   -1    0    0  501    0  0.00000000000E+00  0.00000000000E+00  0.93446354228E+02  0.93446354263E+02  0.25500000920E-02 0.  1.
       -2   -1    0    0    0  501  0.00000000000E+00  0.00000000000E+00 -0.94971544828E+03  0.94971544828E+03  0.25500000920E-02 0. -1.
    10030    2    1    2    0    0  0.00000000000E+00  0.00000000000E+00 -0.85626909405E+03  0.10431618025E+04  0.59581019198E+03 0.  0.
        2    1    3    3  502    0  0.29777841108E+03 -0.42472112554E+01 -0.41486685471E+03  0.51069024668E+03  0.25500000920E-02 0.  1.
       -2    1    3    3    0  502 -0.29777841108E+03  0.42472112554E+01 -0.44140223934E+03  0.53247155587E+03  0.25500000920E-02 0. -1.
</event>
<event>
 5   0  0.2141800E-02  0.5944062E+03  0.7818609E-02  0.9917080E-01
        2   -1    0    0  501    0  0.00000000000E+00  0.00000000000E+00  0.99724290615E+02  0.99724290648E+02  0.25500000920E-02 0.  1.
       -2   -1    0    0    0  501  0.00000000000E+00  0.00000000000E+00 -0.88573894462E+03  0.88573894462E+03  0.25500000920E-02 0. -1.
    10030    2    1    2    0    0  0.00000000000E+00  0.00000000000E+00 -0.78601465400E+03  0.98546323527E+03  0.59440621780E+03 0.  0.
        2    1    3    3  502    0 -0.21604468079E+03 -0.17205248111E+02 -0.73016943055E+03  0.76165525139E+03  0.25500000920E-02 0. -1.
       -2    1    3    3    0  502  0.21604468079E+03  0.17205248111E+02 -0.55845223458E+02  0.22380798388E+03  0.25500000920E-02 0.  1.
</event>
<event>
 5   0  0.1250390E-02  0.6005775E+03  0.7818609E-02  0.9904209E-01
       -1   -1    0    0    0  501  0.00000000000E+00  0.00000000000E+00  0.40896028968E+03  0.40896028971E+03  0.50400001928E-02 0. -1.
        1   -1    0    0  501    0  0.00000000000E+00  0.00000000000E+00 -0.22049409135E+03  0.22049409141E+03  0.50400001928E-02 0.  1.
    10030    2    1    2    0    0  0.00000000000E+00  0.00000000000E+00  0.18846619832E+03  0.62945438112E+03  0.60057748043E+03 0.  0.
        3    1    3    3  502    0  0.46183011806E+02  0.78764946415E+02  0.39405877411E+03  0.40449859705E+03  0.10100000352E+00 0. -1.
       -3    1    3    3    0  502 -0.46183011806E+02 -0.78764946415E+02 -0.20559257579E+03  0.22495578406E+03  0.10100000352E+00 0.  1.
</event>
<event>
 5   0  0.1332555E-02  0.6006464E+03  0.7818609E-02  0.9904066E-01
       -1   -1    0    0    0  501  0.00000000000E+00  0.00000000000E+00  0.27757276124E+03  0.27757276129E+03  0.50400001928E-02 0.  1.
        1   -1    0    0  501    0  0.00000000000E+00  0.00000000000E+00 -0.32493831592E+03  0.32493831596E+03  0.50400001928E-02 0. -1.
    10030    2    1    2    0    0  0.00000000000E+00  0.00000000000E+00 -0.47365554675E+02  0.60251107725E+03  0.60064640383E+03 0.  0.
        2    1    3    3  502    0  0.25636169791E+02  0.98358179075E+02 -0.30715959820E+03  0.32354066725E+03  0.25500000920E-02 0. -1.
       -2    1    3    3    0  502 -0.25636169791E+02 -0.98358179075E+02  0.25979404353E+03  0.27897040999E+03  0.25500000920E-02 0.  1.
</event>
<event>
 5   0  0.2179625E-02  0.6021496E+03  0.7818609E-02  0.9900956E-01
        2   -1    0    0  501    0  0.00000000000E+00  0.00000000000E+00  0.62276169398E+03  0.62276169399E+03  0.25500000920E-02 0. -1.
       -2   -1    0    0    0  501  0.00000000000E+00  0.00000000000E+00 -0.14555494897E+03  0.14555494900E+03  0.25500000920E-02 0.  1.
    10030    2    1    2    0    0  0.00000000000E+00  0.00000000000E+00  0.47720674501E+03  0.76831664298E+03  0.60214963788E+03 0.  0.
        1    1    3    3  502    0  0.25698665538E+03 -0.15438399266E+03  0.27399795824E+03  0.40614214184E+03  0.50400001928E-02 0.  1.
       -1    1    3    3    0  502 -0.25698665538E+03  0.15438399266E+03  0.20320878677E+03  0.36217450115E+03  0.50400001928E-02 0. -1.
</event>
<event>
 5   0  0.8551000E-03  0.6075161E+03  0.7818609E-02  0.9889934E-01
       -4   -1    0    0    0  501  0.00000000000E+00  0.00000000000E+00  0.22165730969E+03  0.22166094793E+03  0.12699999809E+01 0. -1.
        4   -1    0    0  501    0  0.00000000000E+00  0.00000000000E+00 -0.41626048643E+03  0.41626242380E+03  0.12699999809E+01 0.  1.
    10030    2    1    2    0    0  0.00000000000E+00  0.00000000000E+00 -0.19460317675E+03  0.63792337173E+03  0.60751611649E+03 0.  0.
        1    1    3    3  502    0  0.16777421379E+03 -0.20766902260E+03  0.54844891134E+02  0.27254829273E+03  0.50400001928E-02 0. -1.
       -1    1    3    3    0  502 -0.16777421379E+03  0.20766902260E+03 -0.24944806788E+03  0.36537507900E+03  0.50400001928E-02 0.  1.
</event>
<event>
 5   0  0.1337051E-02  0.5992006E+03  0.7818609E-02  0.9907066E-01
       -1   -1    0    0    0  501  0.00000000000E+00  0.00000000000E+00  0.20441564853E+03  0.20441564859E+03  0.50400001928E-02 0. -1.
        1   -1    0    0  501    0  0.00000000000E+00  0.00000000000E+00 -0.43910692898E+03  0.43910692901E+03  0.50400001928E-02 0.  1.
    10030    2    1    2    0    0  0.00000000000E+00  0.00000000000E+00 -0.23469128046E+03  0.64352257760E+03  0.59920055971E+03 0.  0.
        5    1    3    3  502    0 -0.16838135054E+03  0.24443886243E+03 -0.16077968392E+03  0.33760158980E+03  0.46999998093E+01 0.  1.
       -5    1    3    3    0  502  0.16838135054E+03 -0.24443886243E+03 -0.73911596539E+02  0.30592098780E+03  0.46999998093E+01 0. -1.
</event>
<event>
 5   0  0.2126207E-02  0.5997553E+03  0.7818609E-02  0.9905914E-01
        2   -1    0    0  501    0  0.00000000000E+00  0.00000000000E+00  0.58254102529E+03  0.58254102530E+03  0.25500000920E-02 0. -1.
       -2   -1    0    0    0  501  0.00000000000E+00  0.00000000000E+00 -0.15436954160E+03  0.15436954162E+03  0.25500000920E-02 0.  1.
    10030    2    1    2    0    0  0.00000000000E+00  0.00000000000E+00  0.42817148369E+03  0.73691056692E+03  0.59975525358E+03 0.  0.
        5    1    3    3  502    0  0.19454106786E+02  0.23298892288E+03  0.44474571262E+03  0.50247700380E+03  0.46999998093E+01 0. -1.
       -5    1    3    3    0  502 -0.19454106786E+02 -0.23298892288E+03 -0.16574228925E+02  0.23443356312E+03  0.46999998093E+01 0.  1.
</event>
<event>
 5   0  0.8551000E-03  0.5906708E+03  0.7818609E-02  0.9924952E-01
        4   -1    0    0  501    0  0.00000000000E+00  0.00000000000E+00  0.14787226738E+03  0.14787772098E+03  0.12699999809E+01 0. -1.
       -4   -1    0    0    0  501  0.00000000000E+00  0.00000000000E+00 -0.58983669453E+03  0.58983806177E+03  0.12699999809E+01 0.  1.
    10030    2    1    2    0    0  0.00000000000E+00  0.00000000000E+00 -0.44196442715E+03  0.73771578275E+03  0.59067082309E+03 0.  0.
        1    1    3    3  502    0  0.28904908102E+03  0.57830707281E+02 -0.19832001407E+03  0.35528100139E+03  0.50400001928E-02 0. -1.
       -1    1    3    3    0  502 -0.28904908102E+03 -0.57830707281E+02 -0.24364441307E+03  0.38243478136E+03  0.50400001928E-02 0.  1.
</event>
<event>
 5   0  0.1250390E-02  0.6003342E+03  0.7818609E-02  0.9904713E-01
       -1   -1    0    0    0  501  0.00000000000E+00  0.00000000000E+00  0.22807434868E+03  0.22807434874E+03  0.50400001928E-02 0.  1.
        1   -1    0    0  501    0  0.00000000000E+00  0.00000000000E+00 -0.39504793367E+03  0.39504793370E+03  0.50400001928E-02 0. -1.
    10030    2    1    2    0    0  0.00000000000E+00  0.00000000000E+00 -0.16697358498E+03  0.62312228244E+03  0.60033424089E+03 0.  0.
        3    1    3    3  502    0 -0.57213535336E+02 -0.79750028717E+02 -0.37792124386E+03  0.39045861812E+03  0.10100000352E+00 0. -1.
       -3    1    3    3    0  502  0.57213535336E+02  0.79750028717E+02  0.21094765888E+03  0.23266366431E+03  0.10100000352E+00 0.  1.
</event>
<event>
 5   0  0.1250390E-02  0.6009203E+03  0.7818609E-02  0.9903498E-01
        1   -1    0    0  501    0  0.00000000000E+00  0.00000000000E+00  0.86900257922E+03  0.86900257923E+03  0.50400001928E-02 0.  1.
       -1   -1    0    0    0  501  0.00000000000E+00  0.00000000000E+00 -0.10388498110E+03  0.10388498122E+03  0.50400001928E-02 0. -1.
    10030    2    1    2    0    0  0.00000000000E+00  0.00000000000E+00  0.76511759812E+03  0.97288756045E+03  0.60092034940E+03 0.  0.
        3    1    3    3  502    0 -0.15141592797E+03  0.27262595564E+02 -0.35274751367E+02  0.15784280359E+03  0.10100000352E+00 0. -1.
       -3    1    3    3    0  502  0.15141592797E+03 -0.27262595564E+02  0.80039234949E+03  0.81504475686E+03  0.10100000352E+00 0.  1.
</event>
<event>
 5   0  0.2141800E-02  0.5969233E+03  0.7818609E-02  0.9911810E-01
        2   -1    0    0  501    0  0.00000000000E+00  0.00000000000E+00  0.19534764879E+04  0.19534764879E+04  0.25500000920E-02 0.  1.
       -2   -1    0    0    0  501  0.00000000000E+00  0.00000000000E+00 -0.45600418595E+02  0.45600418667E+02  0.25500000920E-02 0. -1.
    10030    2    1    2    0    0  0.00000000000E+00  0.00000000000E+00  0.19078760693E+04  0.19990769065E+04  0.59692326353E+03 0.  0.
        2    1    3    3  502    0 -0.20269061745E+02  0.28662798291E+03  0.12242084704E+04  0.12574787531E+04  0.25500000920E-02 0.  1.
       -2    1    3    3    0  502  0.20269061745E+02 -0.28662798291E+03  0.68366759885E+03  0.74159815343E+03  0.25500000920E-02 0. -1.
</event>
<event>
 5   0  0.2092587E-02  0.6047054E+03  0.7818609E-02  0.9895692E-01
       -2   -1    0    0    0  501  0.00000000000E+00  0.00000000000E+00  0.14450735507E+03  0.14450735509E+03  0.25500000920E-02 0.  1.
        2   -1    0    0  501    0  0.00000000000E+00  0.00000000000E+00 -0.63261241751E+03  0.63261241752E+03  0.25500000920E-02 0. -1.
    10030    2    1    2    0    0  0.00000000000E+00  0.00000000000E+00 -0.48810506245E+03  0.77711977261E+03  0.60470537371E+03 0.  0.
        3    1    3    3  502    0 -0.18224140716E+03 -0.10226992000E+03  0.36757712477E+02  0.21218436947E+03  0.10100000352E+00 0. -1.
       -3    1    3    3    0  502  0.18224140716E+03  0.10226992000E+03 -0.52486277492E+03  0.56493540314E+03  0.10100000352E+00 0.  1.
</event>
<event>
 5   0  0.1276705E-02  0.5998458E+03  0.7818609E-02  0.9905726E-01
       -1   -1    0    0    0  501  0.00000000000E+00  0.00000000000E+00  0.94987050880E+02  0.94987051013E+02  0.50400001928E-02 0. -1.
        1   -1    0    0  501    0  0.00000000000E+00  0.00000000000E+00 -0.94701067503E+03  0.94701067504E+03  0.50400001928E-02 0.  1.
    10030    2    1    2    0    0  0.00000000000E+00  0.00000000000E+00 -0.85202362415E+03  0.10419977261E+04  0.59984581769E+03 0.  0.
        1    1    3    3  502    0  0.21785005819E+03 -0.19907124966E+03 -0.33301980970E+03  0.44496090162E+03  0.50400001928E-02 0. -1.
       -1    1    3    3    0  502 -0.21785005819E+03  0.19907124966E+03 -0.51900381445E+03  0.59703682443E+03  0.50400001928E-02 0.  1.
</event>
<event>
 5   0  0.2179625E-02  0.5995098E+03  0.7818609E-02  0.9906424E-01
       -2   -1    0    0    0  501  0.00000000000E+00  0.00000000000E+00  0.16990893457E+04  0.16990893457E+04  0.25500000920E-02 0. -1.
        2   -1    0    0  501    0  0.00000000000E+00  0.00000000000E+00 -0.52883029728E+02  0.52883029790E+02  0.25500000920E-02 0.  1.
    10030    2    1    2    0    0  0.00000000000E+00  0.00000000000E+00  0.16462063159E+04  0.17519723755E+04  0.59950977451E+03 0.  0.
        1    1    3    3  502    0  0.24121951242E+02  0.25862913568E+03  0.12603043566E+04  0.12867936780E+04  0.50400001928E-02 0. -1.
       -1    1    3    3    0  502 -0.24121951242E+02 -0.25862913568E+03  0.38590195930E+03  0.46517869746E+03  0.50400001928E-02 0.  1.
</event>
<event>
 5   0  0.2179625E-02  0.6004469E+03  0.7818609E-02  0.9904479E-01
       -2   -1    0    0    0  501  0.00000000000E+00  0.00000000000E+00  0.30129631319E+03  0.30129631320E+03  0.25500000920E-02 0. -1.
        2   -1    0    0  501    0  0.00000000000E+00  0.00000000000E+00 -0.29915439609E+03  0.29915439610E+03  0.25500000920E-02 0.  1.
    10030    2    1    2    0    0  0.00000000000E+00  0.00000000000E+00  0.21419171051E+01  0.60045070930E+03  0.60044688898E+03 0.  0.
        1    1    3    3  502    0  0.65325023911E+02 -0.78633756659E+02  0.28335539689E+03  0.30123231468E+03  0.50400001928E-02 0. -1.
       -1    1    3    3    0  502 -0.65325023911E+02  0.78633756659E+02 -0.28121347979E+03  0.29921839461E+03  0.50400001928E-02 0.  1.
</event>
<event>
 5   0  0.2126207E-02  0.5985040E+03  0.7818609E-02  0.9908515E-01
        2   -1    0    0  501    0  0.00000000000E+00  0.00000000000E+00  0.12667691359E+04  0.12667691359E+04  0.25500000920E-02 0. -1.
       -2   -1    0    0    0  501  0.00000000000E+00  0.00000000000E+00 -0.70693049302E+02  0.70693049348E+02  0.25500000920E-02 0.  1.
    10030    2    1    2    0    0  0.00000000000E+00  0.00000000000E+00  0.11960760866E+04  0.13374621853E+04  0.59850404514E+03 0.  0.
        5    1    3    3  502    0  0.11298639815E+03  0.27599740534E+03  0.65228080216E+03  0.71723972895E+03  0.46999998093E+01 0.  1.
       -5    1    3    3    0  502 -0.11298639815E+03 -0.27599740534E+03  0.54379528445E+03  0.62022245631E+03  0.46999998093E+01 0. -1.
</event>
<event>
 5   0  0.2092587E-02  0.6013439E+03  0.7818609E-02  0.9902622E-01
       -2   -1    0    0    0  501  0.00000000000E+00  0.00000000000E+00  0.67789852757E+02  0.67789852805E+02  0.25500000920E-02 0. -1.
        2   -1    0    0  501    0  0.00000000000E+00  0.00000000000E+00 -0.13335861261E+04  0.13335861261E+04  0.25500000920E-02 0.  1.
    10030    2    1    2    0    0  0.00000000000E+00  0.00000000000E+00 -0.12657962734E+04  0.14013759789E+04  0.60134385227E+03 0.  0.
        3    1    3    3  502    0 -0.12798421869E+03  0.79898216639E+02 -0.12389828210E+04  0.12481354599E+04  0.10100000352E+00 0.  1.
       -3    1    3    3    0  502  0.12798421869E+03 -0.79898216639E+02 -0.26813452374E+02  0.15324051907E+03  0.10100000352E+00 0. -1.
</event>
<event>
 5   0  0.1303808E-02  0.6207337E+03  0.7818609E-02  0.9863300E-01
       -1   -1    0    0    0  501  0.00000000000E+00  0.00000000000E+00  0.70397894373E+02  0.70397894553E+02  0.50400001928E-02 0. -1.
        1   -1    0    0  501    0  0.00000000000E+00  0.00000000000E+00 -0.13683304910E+04  0.13683304910E+04  0.50400001928E-02 0.  1.
    10030    2    1    2    0    0  0.00000000000E+00  0.00000000000E+00 -0.12979325966E+04  0.14387283855E+04  0.62073371265E+03 0.  0.
        4    1    3    3  502    0 -0.10380333657E+02  0.30420125637E+03 -0.50836588933E+03  0.59252311857E+03  0.12699999809E+01 0. -1.
       -4    1    3    3    0  502  0.10380333657E+02 -0.30420125637E+03 -0.78956670726E+03  0.84620526696E+03  0.12699999809E+01 0.  1.
</event>
<event>
 5   0  0.1276705E-02  0.5998543E+03  0.7818609E-02  0.9905708E-01
       -1   -1    0    0    0  501  0.00000000000E+00  0.00000000000E+00  0.23740013646E+03  0.23740013651E+03  0.50400001928E-02 0. -1.
        1   -1    0    0  501    0  0.00000000000E+00  0.00000000000E+00 -0.37892262040E+03  0.37892262044E+03  0.50400001928E-02 0.  1.
    10030    2    1    2    0    0  0.00000000000E+00  0.00000000000E+00 -0.14152248395E+03  0.61632275694E+03  0.59985425502E+03 0.  0.
        1    1    3    3  502    0 -0.29032706697E+03  0.56205968499E+00  0.65792409298E+01  0.29040214903E+03  0.50400001928E-02 0. -1.
       -1    1    3    3    0  502  0.29032706697E+03 -0.56205968499E+00 -0.14810172488E+03  0.32592060791E+03  0.50400001928E-02 0.  1.
</event>
<event>
 5   0  0.1276705E-02  0.5976807E+03  0.7818609E-02  0.9910230E-01
       -1   -1    0    0    0  501  0.00000000000E+00  0.00000000000E+00  0.11658278278E+03  0.11658278289E+03  0.50400001928E-02 0. -1.
        1   -1    0    0  501    0  0.00000000000E+00  0.00000000000E+00 -0.76602705645E+03  0.76602705647E+03  0.50400001928E-02 0.  1.
    10030    2    1    2    0    0  0.00000000000E+00  0.00000000000E+00 -0.64944427368E+03  0.88260983936E+03  0.59768073745E+03 0.  0.
        1    1    3    3  502    0 -0.13428967625E+03 -0.93505804654E+02 -0.69398748624E+03  0.71301871205E+03  0.50400001928E-02 0.  1.
       -1    1    3    3    0  502  0.13428967625E+03  0.93505804654E+02  0.44543212564E+02  0.16959112731E+03  0.50400001928E-02 0. -1.
</event>
<event>
 5   0  0.2126207E-02  0.6022308E+03  0.7818609E-02  0.9900789E-01
       -2   -1    0    0    0  501  0.00000000000E+00  0.00000000000E+00  0.51440505164E+02  0.51440505228E+02  0.25500000920E-02 0. -1.
        2   -1    0    0  501    0  0.00000000000E+00  0.00000000000E+00 -0.17626282893E+04  0.17626282893E+04  0.25500000920E-02 0.  1.
    10030    2    1    2    0    0  0.00000000000E+00  0.00000000000E+00 -0.17111877841E+04  0.18140687945E+04  0.60223081847E+03 0.  0.
        5    1    3    3  502    0 -0.29467629006E+02 -0.18633455320E+03 -0.14877706577E+03  0.24030316721E+03  0.46999998093E+01 0. -1.
       -5    1    3    3    0  502  0.29467629006E+02  0.18633455320E+03 -0.15624107184E+04  0.15737656273E+04  0.46999998093E+01 0.  1.
</event>
<event>
 5   0  0.2179625E-02  0.6008618E+03  0.7818609E-02  0.9903620E-01
       -2   -1    0    0    0  501  0.00000000000E+00  0.00000000000E+00  0.54282918969E+02  0.54282919029E+02  0.25500000920E-02 0. -1.
        2   -1    0    0  501    0  0.00000000000E+00  0.00000000000E+00 -0.16627465679E+04  0.16627465679E+04  0.25500000920E-02 0.  1.
    10030    2    1    2    0    0  0.00000000000E+00  0.00000000000E+00 -0.16084636489E+04  0.17170294869E+04  0.60086183857E+03 0.  0.
        1    1    3    3  502    0 -0.30040351851E+03  0.38895772997E+01 -0.80093070231E+03  0.85542234754E+03  0.50400001928E-02 0. -1.
       -1    1    3    3    0  502  0.30040351851E+03 -0.38895772997E+01 -0.80753294661E+03  0.86160713938E+03  0.50400001928E-02 0.  1.
</event>
<event>
 5   0  0.1250390E-02  0.6001697E+03  0.7818609E-02  0.9905054E-01
       -1   -1    0    0    0  501  0.00000000000E+00  0.00000000000E+00  0.64825100393E+02  0.64825100589E+02  0.50400001928E-02 0.  1.
        1   -1    0    0  501    0  0.00000000000E+00  0.00000000000E+00 -0.13891366123E+04  0.13891366123E+04  0.50400001928E-02 0. -1.
    10030    2    1    2    0    0  0.00000000000E+00  0.00000000000E+00 -0.13243115119E+04  0.14539617128E+04  0.60016971099E+03 0.  0.
        3    1    3    3  502    0 -0.52443994960E+02 -0.80155236401E+02  0.26794487184E+02  0.99464512638E+02  0.10100000352E+00 0.  1.
       -3    1    3    3    0  502  0.52443994960E+02  0.80155236401E+02 -0.13511059990E+04  0.13544972002E+04  0.10100000352E+00 0. -1.
</event>
<event>
 5   0  0.1250390E-02  0.5989593E+03  0.7818609E-02  0.9907568E-01
       -1   -1    0    0    0  501  0.00000000000E+00  0.00000000000E+00  0.33009849659E+02  0.33009850044E+02  0.50400001928E-02 0. -1.
        1   -1    0    0  501    0  0.00000000000E+00  0.00000000000E+00 -0.27170088025E+04  0.27170088025E+04  0.50400001928E-02 0.  1.
    10030    2    1    2    0    0  0.00000000000E+00  0.00000000000E+00 -0.26839989528E+04  0.27500186525E+04  0.59895927283E+03 0.  0.
        3    1    3    3  502    0 -0.28655922630E+03 -0.33195999703E+02 -0.17113054968E+04  0.17354494167E+04  0.10100000352E+00 0.  1.
       -3    1    3    3    0  502  0.28655922630E+03  0.33195999703E+02 -0.97269345605E+03  0.10145692358E+04  0.10100000352E+00 0. -1.
</event>
<event>
 5   0  0.2179625E-02  0.5829225E+03  0.7818609E-02  0.9941484E-01
       -2   -1    0    0    0  501  0.00000000000E+00  0.00000000000E+00  0.73226607757E+02  0.73226607802E+02  0.25500000920E-02 0. -1.
        2   -1    0    0  501    0  0.00000000000E+00  0.00000000000E+00 -0.11600928239E+04  0.11600928239E+04  0.25500000920E-02 0.  1.
    10030    2    1    2    0    0  0.00000000000E+00  0.00000000000E+00 -0.10868662161E+04  0.12333194317E+04  0.58292250670E+03 0.  0.
        1    1    3    3  502    0 -0.13203129107E+03  0.99720342166E+02 -0.35770545877E+02  0.16928065584E+03  0.50400001928E-02 0. -1.
       -1    1    3    3    0  502  0.13203129107E+03 -0.99720342166E+02 -0.10510956702E+04  0.10640387758E+04  0.50400001928E-02 0.  1.
</event>
<event>
 5   0  0.1276705E-02  0.5901673E+03  0.7818609E-02  0.9926018E-01
        1   -1    0    0  501    0  0.00000000000E+00  0.00000000000E+00  0.26512943772E+03  0.26512943777E+03  0.50400001928E-02 0.  1.
       -1   -1    0    0    0  501  0.00000000000E+00  0.00000000000E+00 -0.32842208959E+03  0.32842208963E+03  0.50400001928E-02 0. -1.
    10030    2    1    2    0    0  0.00000000000E+00  0.00000000000E+00 -0.63292651867E+02  0.59355152740E+03  0.59016731178E+03 0.  0.
        1    1    3    3  502    0  0.16759684689E+03  0.18894579600E+03 -0.18511606973E+03  0.31314082489E+03  0.50400001928E-02 0. -1.
       -1    1    3    3    0  502 -0.16759684689E+03 -0.18894579600E+03  0.12182341787E+03  0.28041070251E+03  0.50400001928E-02 0.  1.
</event>
<event>
 5   0  0.1332555E-02  0.5996738E+03  0.7818609E-02  0.9906083E-01
        1   -1    0    0  501    0  0.00000000000E+00  0.00000000000E+00  0.49340859634E+03  0.49340859637E+03  0.50400001928E-02 0.  1.
       -1   -1    0    0    0  501  0.00000000000E+00  0.00000000000E+00 -0.18220634371E+03  0.18220634378E+03  0.50400001928E-02 0. -1.
    10030    2    1    2    0    0  0.00000000000E+00  0.00000000000E+00  0.31120225263E+03  0.67561494014E+03  0.59967383243E+03 0.  0.
        2    1    3    3  502    0  0.10429180136E+03  0.70118245257E+02  0.46230490000E+03  0.47908158879E+03  0.25500000920E-02 0.  1.
       -2    1    3    3    0  502 -0.10429180136E+03 -0.70118245257E+02 -0.15110264736E+03  0.19653335136E+03  0.25500000920E-02 0. -1.
</event>
<event>
 5   0  0.1303808E-02  0.5993781E+03  0.7818609E-02  0.9906697E-01
        1   -1    0    0  501    0  0.00000000000E+00  0.00000000000E+00  0.52051909500E+03  0.52051909503E+03  0.50400001928E-02 0. -1.
       -1   -1    0    0    0  501  0.00000000000E+00  0.00000000000E+00 -0.17254606739E+03  0.17254606746E+03  0.50400001928E-02 0.  1.
    10030    2    1    2    0    0  0.00000000000E+00  0.00000000000E+00  0.34797302762E+03  0.69306516249E+03  0.59937808727E+03 0.  0.
        4    1    3    3  502    0  0.72641267031E+02 -0.29048186028E+03  0.15956994877E+03  0.33929433575E+03  0.12699999809E+01 0.  1.
       -4    1    3    3    0  502 -0.72641267031E+02  0.29048186028E+03  0.18840307885E+03  0.35377082673E+03  0.12699999809E+01 0. -1.
</event>
<event>
 5   0  0.1332555E-02  0.5995821E+03  0.7818609E-02  0.9906274E-01
       -1   -1    0    0    0  501  0.00000000000E+00  0.00000000000E+00  0.96683092461E+02  0.96683092592E+02  0.50400001928E-02 0.  1.
        1   -1    0    0  501    0  0.00000000000E+00  0.00000000000E+00 -0.92957990402E+03  0.92957990403E+03  0.50400001928E-02 0. -1.
    10030    2    1    2    0    0  0.00000000000E+00  0.00000000000E+00 -0.83289681156E+03  0.10262629966E+04  0.59958205405E+03 0.  0.
        2    1    3    3  502    0 -0.78864438020E+02 -0.21214340512E+03 -0.79947591662E+02  0.24003341713E+03  0.25500000920E-02 0.  1.
       -2    1    3    3    0  502  0.78864438020E+02  0.21214340512E+03 -0.75294921990E+03  0.78622957949E+03  0.25500000920E-02 0. -1.
</event>
<event>
 5   0  0.1276705E-02  0.6005866E+03  0.7818609E-02  0.9904190E-01
       -1   -1    0    0    0  501  0.00000000000E+00  0.00000000000E+00  0.39941195818E+03  0.39941195822E+03  0.50400001928E-02 0.  1.
        1   -1    0    0  501    0  0.00000000000E+00  0.00000000000E+00 -0.22577209852E+03  0.22577209858E+03  0.50400001928E-02 0. -1.
    10030    2    1    2    0    0  0.00000000000E+00  0.00000000000E+00  0.17363985966E+03  0.62518405679E+03  0.60058663322E+03 0.  0.
        1    1    3    3  502    0  0.13652040711E+03  0.18660415897E+03 -0.11264505496E+03  0.25719222799E+03  0.50400001928E-02 0. -1.
       -1    1    3    3    0  502 -0.13652040711E+03 -0.18660415897E+03  0.28628491462E+03  0.36799182881E+03  0.50400001928E-02 0.  1.
</event>
<event>
 5   0  0.1250390E-02  0.5991524E+03  0.7818609E-02  0.9907166E-01
       -1   -1    0    0    0  501  0.00000000000E+00  0.00000000000E+00  0.96017100070E+02  0.96017100203E+02  0.50400001928E-02 0.  1.
        1   -1    0    0  501    0  0.00000000000E+00  0.00000000000E+00 -0.93468657354E+03  0.93468657356E+03  0.50400001928E-02 0. -1.
    10030    2    1    2    0    0  0.00000000000E+00  0.00000000000E+00 -0.83866947347E+03  0.10307036738E+04  0.59915238243E+03 0.  0.
        3    1    3    3  502    0 -0.71339913632E+02  0.19751041234E+03 -0.78686960939E+03  0.81440993280E+03  0.10100000352E+00 0. -1.
       -3    1    3    3    0  502  0.71339913632E+02 -0.19751041234E+03 -0.51799864084E+02  0.21629374096E+03  0.10100000352E+00 0.  1.
</event>
<event>
 5   0  0.1303808E-02  0.5992111E+03  0.7818609E-02  0.9907044E-01
        1   -1    0    0  501    0  0.00000000000E+00  0.00000000000E+00  0.22390425050E+04  0.22390425050E+04  0.50400001928E-02 0. -1.
       -1   -1    0    0    0  501  0.00000000000E+00  0.00000000000E+00 -0.40090125065E+02  0.40090125382E+02  0.50400001928E-02 0.  1.
    10030    2    1    2    0    0  0.00000000000E+00  0.00000000000E+00  0.21989523799E+04  0.22791326303E+04  0.59921112946E+03 0.  0.
        4    1    3    3  502    0 -0.14231397126E+03 -0.16571687865E+03  0.18794047327E+04  0.18920568470E+04  0.12699999809E+01 0. -1.
       -4    1    3    3    0  502  0.14231397126E+03  0.16571687865E+03  0.31954764721E+03  0.38707578330E+03  0.12699999809E+01 0.  1.
</event>
<event>
 5   0  0.2092587E-02  0.5999809E+03  0.7818609E-02  0.9905446E-01
        2   -1    0    0  501    0  0.00000000000E+00  0.00000000000E+00  0.22844056477E+03  0.22844056479E+03  0.25500000920E-02 0. -1.
       -2   -1    0    0    0  501  0.00000000000E+00  0.00000000000E+00 -0.39395051807E+03  0.39395051807E+03  0.25500000920E-02 0.  1.
    10030    2    1    2    0    0  0.00000000000E+00  0.00000000000E+00 -0.16550995329E+03  0.62239108286E+03  0.59998092918E+03 0.  0.
        3    1    3    3  502    0  0.88321362474E+02  0.22344356512E+03 -0.26909338235E+03  0.36074776297E+03  0.10100000352E+00 0.  1.
       -3    1    3    3    0  502 -0.88321362474E+02 -0.22344356512E+03  0.10358342906E+03  0.26164331989E+03  0.10100000352E+00 0. -1.
</event>
<event>
 5   0  0.1332555E-02  0.5993767E+03  0.7818609E-02  0.9906700E-01
       -1   -1    0    0    0  501  0.00000000000E+00  0.00000000000E+00  0.12260505888E+03  0.12260505899E+03  0.50400001928E-02 0.  1.
        1   -1    0    0  501    0  0.00000000000E+00  0.00000000000E+00 -0.73253994859E+03  0.73253994861E+03  0.50400001928E-02 0. -1.
    10030    2    1    2    0    0  0.00000000000E+00  0.00000000000E+00 -0.60993488970E+03  0.85514500759E+03  0.59937668818E+03 0.  0.
        2    1    3    3  502    0 -0.18070336576E+03 -0.17570192530E+03 -0.53629139241E+03  0.59256504329E+03  0.25500000920E-02 0. -1.
       -2    1    3    3    0  502  0.18070336576E+03  0.17570192530E+03 -0.73643497291E+02  0.26257996430E+03  0.25500000920E-02 0.  1.
</event>
<event>
 5   0  0.1250390E-02  0.6003434E+03  0.7818609E-02  0.9904694E-01
       -1   -1    0    0    0  501  0.00000000000E+00  0.00000000000E+00  0.74979033746E+02  0.74979033915E+02  0.50400001928E-02 0. -1.
        1   -1    0    0  501    0  0.00000000000E+00  0.00000000000E+00 -0.12017100128E+04  0.12017100128E+04  0.50400001928E-02 0.  1.
    10030    2    1    2    0    0  0.00000000000E+00  0.00000000000E+00 -0.11267309790E+04  0.12766890467E+04  0.60034342077E+03 0.  0.
        3    1    3    3  502    0  0.71234314530E+02 -0.19817937965E+03 -0.10182469707E+04  0.10397962770E+04  0.10100000352E+00 0.  1.
       -3    1    3    3    0  502 -0.71234314530E+02  0.19817937965E+03 -0.10848400835E+03  0.23689276974E+03  0.10100000352E+00 0. -1.
</event>
<event>
 5   0  0.8551000E-03  0.5996342E+03  0.7818609E-02  0.9906165E-01
       -4   -1    0    0    0  501  0.00000000000E+00  0.00000000000E+00  0.32621910775E+03  0.32622157986E+03  0.12699999809E+01 0. -1.
        4   -1    0    0  501    0  0.00000000000E+00  0.00000000000E+00 -0.27554693143E+03  0.27554985814E+03  0.12699999809E+01 0.  1.
    10030    2    1    2    0    0  0.00000000000E+00  0.00000000000E+00  0.50672176320E+02  0.60177143800E+03  0.59963421695E+03 0.  0.
        3    1    3    3  502    0 -0.28164121631E+03 -0.69231913365E+02 -0.50931198394E+02  0.29446363057E+03  0.10100000352E+00 0.  1.
       -3    1    3    3    0  502  0.28164121631E+03  0.69231913365E+02  0.10160337471E+03  0.30730780743E+03  0.10100000352E+00 0. -1.
</event>
<event>
 5   0  0.2179625E-02  0.5997142E+03  0.7818609E-02  0.9905999E-01
       -2   -1    0    0    0  501  0.00000000000E+00  0.00000000000E+00  0.46684966927E+02  0.46684966997E+02  0.25500000920E-02 0. -1.
        2   -1    0    0  501    0  0.00000000000E+00  0.00000000000E+00 -0.19259791606E+04  0.19259791606E+04  0.25500000920E-02 0.  1.
    10030    2    1    2    0    0  0.00000000000E+00  0.00000000000E+00 -0.18792941936E+04  0.19726641276E+04  0.59971417687E+03 0.  0.
        1    1    3    3  502    0  0.26137187019E+02  0.25763238772E+03 -0.44235066169E+03  0.51257361195E+03  0.50400001928E-02 0. -1.
       -1    1    3    3    0  502 -0.26137187019E+02 -0.25763238772E+03 -0.14369435319E+04  0.14600905156E+04  0.50400001928E-02 0.  1.
</event>
<event>
 5   0  0.8551000E-03  0.6011924E+03  0.7818609E-02  0.9902935E-01
        3   -1    0    0  501    0  0.00000000000E+00  0.00000000000E+00  0.36398570048E+03  0.36398571449E+03  0.10100000352E+00 0.  1.
       -3   -1    0    0    0  501  0.00000000000E+00  0.00000000000E+00 -0.24824617120E+03  0.24824619175E+03  0.10100000352E+00 0. -1.
    10030    2    1    2    0    0  0.00000000000E+00  0.00000000000E+00  0.11573952927E+03  0.61223190624E+03  0.60119237219E+03 0.  0.
        1    1    3    3  502    0  0.95137694927E+01 -0.22158388731E+03 -0.14875534632E+03  0.26705445888E+03  0.50400001928E-02 0. -1.
       -1    1    3    3    0  502 -0.95137694927E+01  0.22158388731E+03  0.26449487559E+03  0.34517744736E+03  0.50400001928E-02 0.  1.
</event>
<event>
 5   0  0.1276705E-02  0.6007945E+03  0.7818609E-02  0.9903759E-01
        1   -1    0    0  501    0  0.00000000000E+00  0.00000000000E+00  0.14454057449E+03  0.14454057458E+03  0.50400001928E-02 0. -1.
       -1   -1    0    0    0  501  0.00000000000E+00  0.00000000000E+00 -0.62431263490E+03  0.62431263492E+03  0.50400001928E-02 0.  1.
    10030    2    1    2    0    0  0.00000000000E+00  0.00000000000E+00 -0.47977206041E+03  0.76885320950E+03  0.60079449716E+03 0.  0.
        1    1    3    3  502    0  0.14732379524E+03 -0.22377626366E+03 -0.41375192324E+03  0.49292065369E+03  0.50400001928E-02 0.  1.
       -1    1    3    3    0  502 -0.14732379524E+03  0.22377626366E+03 -0.66020137168E+02  0.27593255581E+03  0.50400001928E-02 0. -1.
</event>
<event>
 5   0  0.2141800E-02  0.5977343E+03  0.7818609E-02  0.9910118E-01
       -2   -1    0    0    0  501  0.00000000000E+00  0.00000000000E+00  0.16982587130E+03  0.16982587132E+03  0.25500000920E-02 0. -1.
        2   -1    0    0  501    0  0.00000000000E+00  0.00000000000E+00 -0.52595981625E+03  0.52595981626E+03  0.25500000920E-02 0.  1.
    10030    2    1    2    0    0  0.00000000000E+00  0.00000000000E+00 -0.35613394495E+03  0.69578568758E+03  0.59773433588E+03 0.  0.
        2    1    3    3  502    0 -0.24882883016E+03 -0.72897712131E+02 -0.35108129684E+03  0.43644924121E+03  0.25500000920E-02 0.  1.
       -2    1    3    3    0  502  0.24882883016E+03  0.72897712131E+02 -0.50526481101E+01  0.25933644637E+03  0.25500000920E-02 0. -1.
</event>
<event>
 5   0  0.1337051E-02  0.5871794E+03  0.7818609E-02  0.9932368E-01
        1   -1    0    0  501    0  0.00000000000E+00  0.00000000000E+00  0.28129463785E+03  0.28129463789E+03  0.50400001928E-02 0.  1.
       -1   -1    0    0    0  501  0.00000000000E+00  0.00000000000E+00 -0.30642211814E+03  0.30642211818E+03  0.50400001928E-02 0. -1.
    10030    2    1    2    0    0  0.00000000000E+00  0.00000000000E+00 -0.25127480290E+02  0.58771675607E+03  0.58717935514E+03 0.  0.
        5    1    3    3  502    0  0.33936466967E+02  0.86361034192E+02 -0.29131979238E+03  0.30577642722E+03  0.46999998093E+01 0. -1.
       -5    1    3    3    0  502 -0.33936466967E+02 -0.86361034192E+02  0.26619231209E+03  0.28194032885E+03  0.46999998093E+01 0.  1.
</event>
<event>
 5   0  0.1303808E-02  0.5989606E+03  0.7818609E-02  0.9907565E-01
       -1   -1    0    0    0  501  0.00000000000E+00  0.00000000000E+00  0.14771174000E+03  0.14771174008E+03  0.50400001928E-02 0. -1.
        1   -1    0    0  501    0  0.00000000000E+00  0.00000000000E+00 -0.60718556730E+03  0.60718556732E+03  0.50400001928E-02 0.  1.
    10030    2    1    2    0    0  0.00000000000E+00  0.00000000000E+00 -0.45947382730E+03  0.75489730740E+03  0.59896055525E+03 0.  0.
        4    1    3    3  502    0 -0.10943552691E+03  0.11135378969E+03 -0.55183110735E+03  0.57349366602E+03  0.12699999809E+01 0.  1.
       -4    1    3    3    0  502  0.10943552691E+03 -0.11135378969E+03  0.92357280049E+02  0.18140364138E+03  0.12699999809E+01 0. -1.
</event>
<event>
 5   0  0.1250390E-02  0.5992320E+03  0.7818609E-02  0.9907001E-01
        1   -1    0    0  501    0  0.00000000000E+00  0.00000000000E+00  0.76024619445E+03  0.76024619446E+03  0.50400001928E-02 0.  1.
       -1   -1    0    0    0  501  0.00000000000E+00  0.00000000000E+00 -0.11807982824E+03  0.11807982834E+03  0.50400001928E-02 0. -1.
    10030    2    1    2    0    0  0.00000000000E+00  0.00000000000E+00  0.64216636621E+03  0.87832602281E+03  0.59923197549E+03 0.  0.
        3    1    3    3  502    0  0.20944214205E+03 -0.19370850001E+03  0.18689883755E+03  0.34105744315E+03  0.10100000352E+00 0. -1.
       -3    1    3    3    0  502 -0.20944214205E+03  0.19370850001E+03  0.45526752866E+03  0.53726857966E+03  0.10100000352E+00 0.  1.
</event>
<event>
 5   0  0.8551000E-03  0.5965955E+03  0.7818609E-02  0.9912495E-01
        3   -1    0    0  501    0  0.00000000000E+00  0.00000000000E+00  0.34151521054E+03  0.34151522547E+03  0.10100000352E+00 0.  1.
       -3   -1    0    0    0  501  0.00000000000E+00  0.00000000000E+00 -0.26054927114E+03  0.26054929071E+03  0.10100000352E+00 0. -1.
    10030    2    1    2    0    0  0.00000000000E+00  0.00000000000E+00  0.80965939401E+02  0.60206451618E+03  0.59659550644E+03 0.  0.
        4    1    3    3  502    0  0.94619568839E+02  0.14863874474E+03  0.28338341034E+03  0.33369763170E+03  0.12699999809E+01 0.  1.
       -4    1    3    3    0  502 -0.94619568839E+02 -0.14863874474E+03 -0.20241747094E+03  0.26836688448E+03  0.12699999809E+01 0. -1.
</event>
<event>
 5   0  0.2092587E-02  0.6002556E+03  0.7818609E-02  0.9904876E-01
        2   -1    0    0  501    0  0.00000000000E+00  0.00000000000E+00  0.63951918336E+03  0.63951918336E+03  0.25500000920E-02 0. -1.
       -2   -1    0    0    0  501  0.00000000000E+00  0.00000000000E+00 -0.14085066157E+03  0.14085066159E+03  0.25500000920E-02 0.  1.
    10030    2    1    2    0    0  0.00000000000E+00  0.00000000000E+00  0.49866852179E+03  0.78036984495E+03  0.60025561246E+03 0.  0.
        3    1    3    3  502    0  0.29537315301E+03  0.19274759052E+02  0.18485490624E+03  0.34898160756E+03  0.10100000352E+00 0.  1.
       -3    1    3    3    0  502 -0.29537315301E+03 -0.19274759052E+02  0.31381361555E+03  0.43138823739E+03  0.10100000352E+00 0. -1.
</event>
<event>
 5   0  0.2142838E-02  0.6030395E+03  0.7818609E-02  0.9899120E-01
       -2   -1    0    0    0  501  0.00000000000E+00  0.00000000000E+00  0.45402794150E+03  0.45402794150E+03  0.25500000920E-02 0. -1.
        2   -1    0    0  501    0  0.00000000000E+00  0.00000000000E+00 -0.20023913361E+03  0.20023913362E+03  0.25500000920E-02 0.  1.
    10030    2    1    2    0    0  0.00000000000E+00  0.00000000000E+00  0.25378880789E+03  0.65426707513E+03  0.60303950665E+03 0.  0.
        4    1    3    3  502    0 -0.17916132482E+03  0.14173488541E+02 -0.13577278967E+03  0.22524549142E+03  0.12699999809E+01 0.  1.
       -4    1    3    3    0  502  0.17916132482E+03 -0.14173488541E+02  0.38956159756E+03  0.42902158371E+03  0.12699999809E+01 0. -1.
</event>
<event>
 5   0  0.1303808E-02  0.5997238E+03  0.7818609E-02  0.9905979E-01
       -1   -1    0    0    0  501  0.00000000000E+00  0.00000000000E+00  0.85516920633E+02  0.85516920781E+02  0.50400001928E-02 0.  1.
        1   -1    0    0  501    0  0.00000000000E+00  0.00000000000E+00 -0.10514544563E+04  0.10514544563E+04  0.50400001928E-02 0. -1.
    10030    2    1    2    0    0  0.00000000000E+00  0.00000000000E+00 -0.96593753562E+03  0.11369713771E+04  0.59972376100E+03 0.  0.
        4    1    3    3  502    0 -0.17441595511E+02 -0.21951485134E+03 -0.97111039663E+02  0.24067227954E+03  0.12699999809E+01 0.  1.
       -4    1    3    3    0  502  0.17441595511E+02  0.21951485134E+03 -0.86882649596E+03  0.89629909751E+03  0.12699999809E+01 0. -1.
</event>
<event>
 5   0  0.1337051E-02  0.5986998E+03  0.7818609E-02  0.9908107E-01
        1   -1    0    0  501    0  0.00000000000E+00  0.00000000000E+00  0.84426386554E+03  0.84426386556E+03  0.50400001928E-02 0.  1.
       -1   -1    0    0    0  501  0.00000000000E+00  0.00000000000E+00 -0.10614023445E+03  0.10614023457E+03  0.50400001928E-02 0. -1.
    10030    2    1    2    0    0  0.00000000000E+00  0.00000000000E+00  0.73812363109E+03  0.95040410012E+03  0.59869980688E+03 0.  0.
        5    1    3    3  502    0  0.31870429541E+02 -0.17520299057E+03 -0.12838636509E+02  0.17860216339E+03  0.46999998093E+01 0. -1.
       -5    1    3    3    0  502 -0.31870429541E+02  0.17520299057E+03  0.75096226760E+03  0.77180193673E+03  0.46999998093E+01 0.  1.
</event>
<event>
 5   0  0.2092587E-02  0.6263110E+03  0.7818609E-02  0.9852274E-01
       -2   -1    0    0    0  501  0.00000000000E+00  0.00000000000E+00  0.13776883535E+03  0.13776883538E+03  0.25500000920E-02 0. -1.
        2   -1    0    0  501    0  0.00000000000E+00  0.00000000000E+00 -0.71181821889E+03  0.71181821889E+03  0.25500000920E-02 0.  1.
    10030    2    1    2    0    0  0.00000000000E+00  0.00000000000E+00 -0.57404938353E+03  0.84958705427E+03  0.62631099946E+03 0.  0.
        3    1    3    3  502    0 -0.10007026458E+03 -0.28060283994E+03 -0.41794107878E+03  0.51325117357E+03  0.10100000352E+00 0. -1.
       -3    1    3    3    0  502  0.10007026458E+03  0.28060283994E+03 -0.15610830475E+03  0.33633588070E+03  0.10100000352E+00 0.  1.
</event>
<event>
 5   0  0.1303808E-02  0.5961927E+03  0.7818609E-02  0.9913337E-01
        1   -1    0    0  501    0  0.00000000000E+00  0.00000000000E+00  0.51758962644E+03  0.51758962647E+03  0.50400001928E-02 0. -1.
       -1   -1    0    0    0  501  0.00000000000E+00  0.00000000000E+00 -0.17168317452E+03  0.17168317459E+03  0.50400001928E-02 0.  1.
    10030    2    1    2    0    0  0.00000000000E+00  0.00000000000E+00  0.34590645193E+03  0.68927280106E+03  0.59619268764E+03 0.  0.
        4    1    3    3  502    0 -0.20622208809E+03  0.20435485255E+03  0.94785532094E+02  0.30540852210E+03  0.12699999809E+01 0.  1.
       -4    1    3    3    0  502  0.20622208809E+03 -0.20435485255E+03  0.25112091983E+03  0.38386427895E+03  0.12699999809E+01 0. -1.
</event>
<event>
 5   0  0.2092587E-02  0.6014560E+03  0.7818609E-02  0.9902390E-01
       -2   -1    0    0    0  501  0.00000000000E+00  0.00000000000E+00  0.22804405415E+03  0.22804405416E+03  0.25500000920E-02 0. -1.
        2   -1    0    0  501    0  0.00000000000E+00  0.00000000000E+00 -0.39657838654E+03  0.39657838654E+03  0.25500000920E-02 0.  1.
    10030    2    1    2    0    0  0.00000000000E+00  0.00000000000E+00 -0.16853433239E+03  0.62462244071E+03  0.60145604348E+03 0.  0.
        3    1    3    3  502    0 -0.90023168570E+02 -0.75038749759E+01 -0.38215483665E+03  0.39268665421E+03  0.10100000352E+00 0.  1.
       -3    1    3    3    0  502  0.90023168570E+02  0.75038749759E+01  0.21362050426E+03  0.23193578650E+03  0.10100000352E+00 0. -1.
</event>
<event>
 5   0  0.1337051E-02  0.5724385E+03  0.7818609E-02  0.9964297E-01
       -1   -1    0    0    0  501  0.00000000000E+00  0.00000000000E+00  0.75119101930E+03  0.75119101932E+03  0.50400001928E-02 0. -1.
        1   -1    0    0  501    0  0.00000000000E+00  0.00000000000E+00 -0.10905541237E+03  0.10905541248E+03  0.50400001928E-02 0.  1.
    10030    2    1    2    0    0  0.00000000000E+00  0.00000000000E+00  0.64213560694E+03  0.86024643180E+03  0.57243845585E+03 0.  0.
        5    1    3    3  502    0  0.14984638108E+03 -0.72327253109E+02  0.67097312940E+03  0.69131194105E+03  0.46999998093E+01 0. -1.
       -5    1    3    3    0  502 -0.14984638108E+03  0.72327253109E+02 -0.28837522466E+02  0.16893449075E+03  0.46999998093E+01 0.  1.
</event>
<event>
 5   0  0.1332555E-02  0.6023164E+03  0.7818609E-02  0.9900612E-01
       -1   -1    0    0    0  501  0.00000000000E+00  0.00000000000E+00  0.66115033276E+02  0.66115033468E+02  0.50400001928E-02 0. -1.
        1   -1    0    0  501    0  0.00000000000E+00  0.00000000000E+00 -0.13717950632E+04  0.13717950632E+04  0.50400001928E-02 0.  1.
    10030    2    1    2    0    0  0.00000000000E+00  0.00000000000E+00 -0.13056800299E+04  0.14379100966E+04  0.60231644970E+03 0.  0.
        2    1    3    3  502    0 -0.14619896340E+03 -0.14372714496E+03 -0.11794799627E+04  0.11971652399E+04  0.25500000920E-02 0.  1.
       -2    1    3    3    0  502  0.14619896340E+03  0.14372714496E+03 -0.12620006716E+03  0.24074485676E+03  0.25500000920E-02 0. -1.
</event>
<event>
 5   0  0.2126207E-02  0.6203666E+03  0.7818609E-02  0.9864030E-01
        2   -1    0    0  501    0  0.00000000000E+00  0.00000000000E+00  0.48271931132E+03  0.48271931133E+03  0.25500000920E-02 0. -1.
       -2   -1    0    0    0  501  0.00000000000E+00  0.00000000000E+00 -0.19931596454E+03  0.19931596456E+03  0.25500000920E-02 0.  1.
    10030    2    1    2    0    0  0.00000000000E+00  0.00000000000E+00  0.28340334678E+03  0.68203527588E+03  0.62036655341E+03 0.  0.
        5    1    3    3  502    0 -0.14896529872E+02  0.26810861629E+03 -0.28927690281E+02  0.27011671180E+03  0.46999998093E+01 0.  1.
       -5    1    3    3    0  502  0.14896529872E+02 -0.26810861629E+03  0.31233103706E+03  0.41191856408E+03  0.46999998093E+01 0. -1.
</event>
<event>
 5   0  0.1276705E-02  0.6000016E+03  0.7818609E-02  0.9905403E-01
       -1   -1    0    0    0  501  0.00000000000E+00  0.00000000000E+00  0.46021660398E+03  0.46021660401E+03  0.50400001928E-02 0. -1.
        1   -1    0    0  501    0  0.00000000000E+00  0.00000000000E+00 -0.19556111527E+03  0.19556111533E+03  0.50400001928E-02 0.  1.
    10030    2    1    2    0    0  0.00000000000E+00  0.00000000000E+00  0.26465548872E+03  0.65577771934E+03  0.60000157456E+03 0.  0.
        1    1    3    3  502    0 -0.22154657253E+03  0.17646969345E+03  0.24039289406E+03  0.37150125174E+03  0.50400001928E-02 0. -1.
       -1    1    3    3    0  502  0.22154657253E+03 -0.17646969345E+03  0.24262594662E+02  0.28427646760E+03  0.50400001928E-02 0.  1.
</event>
<event>
 5   0  0.1276705E-02  0.6002767E+03  0.7818609E-02  0.9904832E-01
        1   -1    0    0  501    0  0.00000000000E+00  0.00000000000E+00  0.19409755268E+04  0.19409755268E+04  0.50400001928E-02 0. -1.
       -1   -1    0    0    0  501  0.00000000000E+00  0.00000000000E+00 -0.46411211016E+02  0.46411211290E+02  0.50400001928E-02 0.  1.
    10030    2    1    2    0    0  0.00000000000E+00  0.00000000000E+00  0.18945643158E+04  0.19873867381E+04  0.60027668631E+03 0.  0.
        1    1    3    3  502    0 -0.16205360228E+03  0.22924733434E+03  0.12987140115E+04  0.13287113283E+04  0.50400001928E-02 0. -1.
       -1    1    3    3    0  502  0.16205360228E+03 -0.22924733434E+03  0.59585030435E+03  0.65867540984E+03  0.50400001928E-02 0.  1.
</event>
<event>
 5   0  0.2092587E-02  0.5947680E+03  0.7818609E-02  0.9916321E-01
        2   -1    0    0  501    0  0.00000000000E+00  0.00000000000E+00  0.31720143336E+03  0.31720143337E+03  0.25500000920E-02 0.  1.
       -2   -1    0    0    0  501  0.00000000000E+00  0.00000000000E+00 -0.27880467475E+03  0.27880467476E+03  0.25500000920E-02 0. -1.
    10030    2    1    2    0    0  0.00000000000E+00  0.00000000000E+00  0.38396758613E+02  0.59600610814E+03  0.59476799667E+03 0.  0.
        3    1    3    3  502    0  0.73545222572E+02  0.62226077252E+02 -0.26273449462E+03  0.27983997091E+03  0.10100000352E+00 0. -1.
       -3    1    3    3    0  502 -0.73545222572E+02 -0.62226077252E+02  0.30113125324E+03  0.31616613723E+03  0.10100000352E+00 0.  1.
</event>
<event>
 5   0  0.1303808E-02  0.6263279E+03  0.7818609E-02  0.9852241E-01
       -1   -1    0    0    0  501  0.00000000000E+00  0.00000000000E+00  0.11025966265E+03  0.11025966276E+03  0.50400001928E-02 0.  1.
        1   -1    0    0  501    0  0.00000000000E+00  0.00000000000E+00 -0.88946076738E+03  0.88946076739E+03  0.50400001928E-02 0. -1.
    10030    2    1    2    0    0  0.00000000000E+00  0.00000000000E+00 -0.77920110473E+03  0.99972043016E+03  0.62632785094E+03 0.  0.
        4    1    3    3  502    0 -0.14428662634E+03 -0.27789031561E+03 -0.38109834852E+03  0.49323343580E+03  0.12699999809E+01 0. -1.
       -4    1    3    3    0  502  0.14428662634E+03  0.27789031561E+03 -0.39810275621E+03  0.50648699436E+03  0.12699999809E+01 0.  1.
</event>
<event>
 5   0  0.1276705E-02  0.6003867E+03  0.7818609E-02  0.9904604E-01
       -1   -1    0    0    0  501  0.00000000000E+00  0.00000000000E+00  0.21130625089E+03  0.21130625095E+03  0.50400001928E-02 0.  1.
        1   -1    0    0  501    0  0.00000000000E+00  0.00000000000E+00 -0.42647133161E+03  0.42647133164E+03  0.50400001928E-02 0. -1.
    10030    2    1    2    0    0  0.00000000000E+00  0.00000000000E+00 -0.21516508072E+03  0.63777758259E+03  0.60038673610E+03 0.  0.
        1    1    3    3  502    0 -0.35819180086E+02  0.29263866857E+03 -0.47531843739E+02  0.29862967066E+03  0.50400001928E-02 0. -1.
       -1    1    3    3    0  502  0.35819180086E+02 -0.29263866857E+03 -0.16763323698E+03  0.33914791193E+03  0.50400001928E-02 0.  1.
</event>
<event>
 5   0  0.2126207E-02  0.5988333E+03  0.7818609E-02  0.9907830E-01
       -2   -1    0    0    0  501  0.00000000000E+00  0.00000000000E+00  0.28335466602E+03  0.28335466603E+03  0.25500000920E-02 0. -1.
        2   -1    0    0  501    0  0.00000000000E+00  0.00000000000E+00 -0.31638912643E+03  0.31638912644E+03  0.25500000920E-02 0.  1.
    10030    2    1    2    0    0  0.00000000000E+00  0.00000000000E+00 -0.33034460419E+02  0.59974379247E+03  0.59883331657E+03 0.  0.
        5    1    3    3  502    0 -0.13353356648E+03  0.11123385980E+03 -0.26065837033E+03  0.31331942322E+03  0.46999998093E+01 0.  1.
       -5    1    3    3    0  502  0.13353356648E+03 -0.11123385980E+03  0.22762390991E+03  0.28642436926E+03  0.46999998093E+01 0. -1.
</event>
<event>
 5   0  0.1337051E-02  0.5949271E+03  0.7818609E-02  0.9915987E-01
        1   -1    0    0  501    0  0.00000000000E+00  0.00000000000E+00  0.23245420848E+03  0.23245420854E+03  0.50400001928E-02 0.  1.
       -1   -1    0    0    0  501  0.00000000000E+00  0.00000000000E+00 -0.38065371290E+03  0.38065371293E+03  0.50400001928E-02 0. -1.
    10030    2    1    2    0    0  0.00000000000E+00  0.00000000000E+00 -0.14819950442E+03  0.61310792147E+03  0.59492707978E+03 0.  0.
        5    1    3    3  502    0 -0.18604369397E+03  0.21406543778E+03 -0.16642663535E+03  0.32887107302E+03  0.46999998093E+01 0. -1.
       -5    1    3    3    0  502  0.18604369397E+03 -0.21406543778E+03  0.18227130937E+02  0.28423684845E+03  0.46999998093E+01 0.  1.
</event>
<event>
 5   0  0.2092587E-02  0.6008543E+03  0.7818609E-02  0.9903635E-01
        2   -1    0    0  501    0  0.00000000000E+00  0.00000000000E+00  0.19941363539E+04  0.19941363539E+04  0.25500000920E-02 0. -1.
       -2   -1    0    0    0  501  0.00000000000E+00  0.00000000000E+00 -0.45260926332E+02  0.45260926404E+02  0.25500000920E-02 0.  1.
    10030    2    1    2    0    0  0.00000000000E+00  0.00000000000E+00  0.19488754276E+04  0.20393972803E+04  0.60085425416E+03 0.  0.
        3    1    3    3  502    0 -0.36154770262E+02  0.41351841969E+02  0.19769479069E+04  0.19777108431E+04  0.10100000352E+00 0. -1.
       -3    1    3    3    0  502  0.36154770262E+02 -0.41351841969E+02 -0.28072479261E+02  0.61686437243E+02  0.10100000352E+00 0.  1.
</event>
<event>
 5   0  0.1332555E-02  0.5999695E+03  0.7818609E-02  0.9905469E-01
        1   -1    0    0  501    0  0.00000000000E+00  0.00000000000E+00  0.32688419953E+03  0.32688419956E+03  0.50400001928E-02 0. -1.
       -1   -1    0    0    0  501  0.00000000000E+00  0.00000000000E+00 -0.27529884223E+03  0.27529884228E+03  0.50400001928E-02 0.  1.
    10030    2    1    2    0    0  0.00000000000E+00  0.00000000000E+00  0.51585357296E+02  0.60218304184E+03  0.59996947155E+03 0.  0.
        2    1    3    3  502    0 -0.11298359882E+03 -0.26524418509E+03 -0.57405068533E+02  0.29396447612E+03  0.25500000920E-02 0. -1.
       -2    1    3    3    0  502  0.11298359882E+03  0.26524418509E+03  0.10899042583E+03  0.30821856572E+03  0.25500000920E-02 0.  1.
</event>
<event>
 5   0  0.1303808E-02  0.6006386E+03  0.7818609E-02  0.9904082E-01
        1   -1    0    0  501    0  0.00000000000E+00  0.00000000000E+00  0.28819002737E+03  0.28819002742E+03  0.50400001928E-02 0. -1.
       -1   -1    0    0    0  501  0.00000000000E+00  0.00000000000E+00 -0.31295901810E+03  0.31295901814E+03  0.50400001928E-02 0.  1.
    10030    2    1    2    0    0  0.00000000000E+00  0.00000000000E+00 -0.24768990728E+02  0.60114904556E+03  0.60063855360E+03 0.  0.
        4    1    3    3  502    0 -0.17695553423E+03 -0.22001926948E+03 -0.11478623855E+03  0.30479375567E+03  0.12699999809E+01 0.  1.
       -4    1    3    3    0  502  0.17695553423E+03  0.22001926948E+03  0.90017247821E+02  0.29635528989E+03  0.12699999809E+01 0. -1.
</event>
<event>
 5   0  0.1276705E-02  0.5989698E+03  0.7818609E-02  0.9907546E-01
       -1   -1    0    0    0  501  0.00000000000E+00  0.00000000000E+00  0.75131638755E+02  0.75131638924E+02  0.50400001928E-02 0.  1.
        1   -1    0    0  501    0  0.00000000000E+00  0.00000000000E+00 -0.11937875390E+04  0.11937875390E+04  0.50400001928E-02 0. -1.
    10030    2    1    2    0    0  0.00000000000E+00  0.00000000000E+00 -0.11186559003E+04  0.12689191780E+04  0.59896982978E+03 0.  0.
        1    1    3    3  502    0 -0.86728564222E+02  0.27135585715E+03 -0.36360571425E+03  0.46191445152E+03  0.50400001928E-02 0.  1.
       -1    1    3    3    0  502  0.86728564222E+02 -0.27135585715E+03 -0.75505018604E+03  0.80700472646E+03  0.50400001928E-02 0. -1.
</event>
<event>
 5   0  0.1303808E-02  0.5900178E+03  0.7818609E-02  0.9926335E-01
        1   -1    0    0  501    0  0.00000000000E+00  0.00000000000E+00  0.31832771071E+03  0.31832771075E+03  0.50400001928E-02 0.  1.
       -1   -1    0    0    0  501  0.00000000000E+00  0.00000000000E+00 -0.27339826816E+03  0.27339826820E+03  0.50400001928E-02 0. -1.
    10030    2    1    2    0    0  0.00000000000E+00  0.00000000000E+00  0.44929442551E+02  0.59172597895E+03  0.59001777885E+03 0.  0.
        4    1    3    3  502    0 -0.24423414679E+03  0.15118649812E+03  0.89897443374E+02  0.30098312062E+03  0.12699999809E+01 0.  1.
       -4    1    3    3    0  502  0.24423414679E+03 -0.15118649812E+03 -0.44968000823E+02  0.29074285833E+03  0.12699999809E+01 0. -1.
</event>
<event>
 5   0  0.2141800E-02  0.5965977E+03  0.7818609E-02  0.9912490E-01
        2   -1    0    0  501    0  0.00000000000E+00  0.00000000000E+00  0.96273158032E+03  0.96273158033E+03  0.25500000920E-02 0.  1.
       -2   -1    0    0    0  501  0.00000000000E+00  0.00000000000E+00 -0.92426813577E+02  0.92426813612E+02  0.25500000920E-02 0. -1.
    10030    2    1    2    0    0  0.00000000000E+00  0.00000000000E+00  0.87030476675E+03  0.10551583939E+04  0.59659772819E+03 0.  0.
        2    1    3    3  502    0  0.54383516935E+02 -0.48316565858E+02 -0.76497934940E+02  0.10556510554E+03  0.25500000920E-02 0. -1.
       -2    1    3    3    0  502 -0.54383516935E+02  0.48316565858E+02  0.94680270169E+03  0.94959328840E+03  0.25500000920E-02 0.  1.
</event>
<event>
 5   0  0.2179625E-02  0.5995322E+03  0.7818609E-02  0.9906377E-01
        2   -1    0    0  501    0  0.00000000000E+00  0.00000000000E+00  0.23200814104E+03  0.23200814105E+03  0.25500000920E-02 0. -1.
       -2   -1    0    0    0  501  0.00000000000E+00  0.00000000000E+00 -0.38731280155E+03  0.38731280156E+03  0.25500000920E-02 0.  1.
    10030    2    1    2    0    0  0.00000000000E+00  0.00000000000E+00 -0.15530466051E+03  0.61932094261E+03  0.59953222798E+03 0.  0.
        1    1    3    3  502    0 -0.19936931084E+03  0.18602898672E+03  0.50975977404E+02  0.27740485991E+03  0.50400001928E-02 0. -1.
       -1    1    3    3    0  502  0.19936931084E+03 -0.18602898672E+03 -0.20628063792E+03  0.34191608270E+03  0.50400001928E-02 0.  1.
</event>
<event>
 5   0  0.2092587E-02  0.6020140E+03  0.7818609E-02  0.9901236E-01
       -2   -1    0    0    0  501  0.00000000000E+00  0.00000000000E+00  0.55226662443E+02  0.55226662502E+02  0.25500000920E-02 0.  1.
        2   -1    0    0  501    0  0.00000000000E+00  0.00000000000E+00 -0.16406066101E+04  0.16406066102E+04  0.25500000920E-02 0. -1.
    10030    2    1    2    0    0  0.00000000000E+00  0.00000000000E+00 -0.15853799477E+04  0.16958332727E+04  0.60201404473E+03 0.  0.
        3    1    3    3  502    0  0.27608447132E+03 -0.21374571070E+02 -0.46027146443E+03  0.53714927047E+03  0.10100000352E+00 0. -1.
       -3    1    3    3    0  502 -0.27608447132E+03  0.21374571070E+02 -0.11251084833E+04  0.11586840022E+04  0.10100000352E+00 0.  1.
</event>
<event>
 5   0  0.2179625E-02  0.5988141E+03  0.7818609E-02  0.9907869E-01
       -2   -1    0    0    0  501  0.00000000000E+00  0.00000000000E+00  0.15619090931E+03  0.15619090933E+03  0.25500000920E-02 0. -1.
        2   -1    0    0  501    0  0.00000000000E+00  0.00000000000E+00 -0.57394238172E+03  0.57394238172E+03  0.25500000920E-02 0.  1.
    10030    2    1    2    0    0  0.00000000000E+00  0.00000000000E+00 -0.41775147241E+03  0.73013329105E+03  0.59881410304E+03 0.  0.
        1    1    3    3  502    0 -0.35926126273E+02 -0.29698646300E+03 -0.19379696260E+03  0.35643920729E+03  0.50400001928E-02 0. -1.
       -1    1    3    3    0  502  0.35926126273E+02  0.29698646300E+03 -0.22395450981E+03  0.37369408377E+03  0.50400001928E-02 0.  1.
</event>
<event>
 5   0  0.2142838E-02  0.6045723E+03  0.7818609E-02  0.9895965E-01
       -2   -1    0    0    0  501  0.00000000000E+00  0.00000000000E+00  0.28339121513E+03  0.28339121514E+03  0.25500000920E-02 0.  1.
        2   -1    0    0  501    0  0.00000000000E+00  0.00000000000E+00 -0.32244086714E+03  0.32244086715E+03  0.25500000920E-02 0. -1.
    10030    2    1    2    0    0  0.00000000000E+00  0.00000000000E+00 -0.39049652013E+02  0.60583208229E+03  0.60457227576E+03 0.  0.
        4    1    3    3  502    0 -0.19439471308E+01  0.20725189271E+03  0.20097498785E+03  0.28870345444E+03  0.12699999809E+01 0.  1.
       -4    1    3    3    0  502  0.19439471308E+01 -0.20725189271E+03 -0.24002463987E+03  0.31712862786E+03  0.12699999809E+01 0. -1.
</event>
<event>
 5   0  0.1250390E-02  0.5984637E+03  0.7818609E-02  0.9908598E-01
        1   -1    0    0  501    0  0.00000000000E+00  0.00000000000E+00  0.73369757189E+03  0.73369757191E+03  0.50400001928E-02 0.  1.
       -1   -1    0    0    0  501  0.00000000000E+00  0.00000000000E+00 -0.12203898621E+03  0.12203898631E+03  0.50400001928E-02 0. -1.
    10030    2    1    2    0    0  0.00000000000E+00  0.00000000000E+00  0.61165858568E+03  0.85573655822E+03  0.59846372625E+03 0.  0.
        3    1    3    3  502    0 -0.22197372527E+03 -0.16275612657E+03  0.47366806376E+03  0.54783513603E+03  0.10100000352E+00 0.  1.
       -3    1    3    3    0  502  0.22197372527E+03  0.16275612657E+03  0.13799052192E+03  0.30790142219E+03  0.10100000352E+00 0. -1.
</event>
<event>
 5   0  0.1276705E-02  0.5958041E+03  0.7818609E-02  0.9914150E-01
        1   -1    0    0  501    0  0.00000000000E+00  0.00000000000E+00  0.13909597421E+04  0.13909597421E+04  0.50400001928E-02 0.  1.
       -1   -1    0    0    0  501  0.00000000000E+00  0.00000000000E+00 -0.63801724727E+02  0.63801724927E+02  0.50400001928E-02 0. -1.
    10030    2    1    2    0    0  0.00000000000E+00  0.00000000000E+00  0.13271580174E+04  0.14547614671E+04  0.59580409776E+03 0.  0.
        1    1    3    3  502    0 -0.57216851620E+02 -0.28931715235E+03  0.76622963876E+03  0.82102743078E+03  0.50400001928E-02 0. -1.
       -1    1    3    3    0  502  0.57216851620E+02  0.28931715235E+03  0.56092837864E+03  0.63373403629E+03  0.50400001928E-02 0.  1.
</event>
<event>
 5   0  0.1337051E-02  0.6006583E+03  0.7818609E-02  0.9904041E-01
       -1   -1    0    0    0  501  0.00000000000E+00  0.00000000000E+00  0.14841293337E+03  0.14841293346E+03  0.50400001928E-02 0. -1.
        1   -1    0    0  501    0  0.00000000000E+00  0.00000000000E+00 -0.60774750724E+03  0.60774750726E+03  0.50400001928E-02 0.  1.
    10030    2    1    2    0    0  0.00000000000E+00  0.00000000000E+00 -0.45933457387E+03  0.75616044072E+03  0.60065827336E+03 0.  0.
        5    1    3    3  502    0 -0.13225739341E+03 -0.25290256145E+03 -0.11208585130E+03  0.30665461314E+03  0.46999998093E+01 0. -1.
       -5    1    3    3    0  502  0.13225739341E+03  0.25290256145E+03 -0.34724872257E+03  0.44950582758E+03  0.46999998093E+01 0.  1.
</event>
<event>
 5   0  0.1276705E-02  0.5953790E+03  0.7818609E-02  0.9915040E-01
       -1   -1    0    0    0  501  0.00000000000E+00  0.00000000000E+00  0.23802104751E+03  0.23802104756E+03  0.50400001928E-02 0. -1.
        1   -1    0    0  501    0  0.00000000000E+00  0.00000000000E+00 -0.37231596701E+03  0.37231596705E+03  0.50400001928E-02 0.  1.
    10030    2    1    2    0    0  0.00000000000E+00  0.00000000000E+00 -0.13429491950E+03  0.61033701461E+03  0.59537899358E+03 0.  0.
        1    1    3    3  502    0 -0.22425746623E+03  0.14005489042E+03  0.73081993788E+02  0.27431325402E+03  0.50400001928E-02 0. -1.
       -1    1    3    3    0  502  0.22425746623E+03 -0.14005489042E+03 -0.20737691329E+03  0.33602376059E+03  0.50400001928E-02 0.  1.
</event>
<event>
 5   0  0.1303808E-02  0.6004355E+03  0.7818609E-02  0.9904503E-01
        1   -1    0    0  501    0  0.00000000000E+00  0.00000000000E+00  0.26638850902E+03  0.26638850907E+03  0.50400001928E-02 0.  1.
       -1   -1    0    0    0  501  0.00000000000E+00  0.00000000000E+00 -0.33834306409E+03  0.33834306413E+03  0.50400001928E-02 0. -1.
    10030    2    1    2    0    0  0.00000000000E+00  0.00000000000E+00 -0.71954555064E+02  0.60473157320E+03  0.60043552329E+03 0.  0.
        4    1    3    3  502    0  0.13062520589E+03 -0.35565007943E+02 -0.30585208817E+03  0.33447709479E+03  0.12699999809E+01 0. -1.
       -4    1    3    3    0  502 -0.13062520589E+03  0.35565007943E+02  0.23389753311E+03  0.27025447840E+03  0.12699999809E+01 0.  1.
</event>
<event>
 5   0  0.1250390E-02  0.5959644E+03  0.7818609E-02  0.9913814E-01
        1   -1    0    0  501    0  0.00000000000E+00  0.00000000000E+00  0.18414163100E+04  0.18414163100E+04  0.50400001928E-02 0. -1.
       -1   -1    0    0    0  501  0.00000000000E+00  0.00000000000E+00 -0.48220160923E+02  0.48220161187E+02  0.50400001928E-02 0.  1.
    10030    2    1    2    0    0  0.00000000000E+00  0.00000000000E+00  0.17931961491E+04  0.18896364712E+04  0.59596439844E+03 0.  0.
        3    1    3    3  502    0 -0.84205342483E+02  0.91663302228E+02  0.38154116981E+02  0.13018620327E+03  0.10100000352E+00 0.  1.
       -3    1    3    3    0  502  0.84205342483E+02 -0.91663302228E+02  0.17550420321E+04  0.17594502680E+04  0.10100000352E+00 0. -1.
</event>
<event>
 5   0  0.2142838E-02  0.6014587E+03  0.7818609E-02  0.9902384E-01
        2   -1    0    0  501    0  0.00000000000E+00  0.00000000000E+00  0.55365665453E+03  0.55365665453E+03  0.25500000920E-02 0.  1.
       -2   -1    0    0    0  501  0.00000000000E+00  0.00000000000E+00 -0.16334699694E+03  0.16334699696E+03  0.25500000920E-02 0. -1.
    10030    2    1    2    0    0  0.00000000000E+00  0.00000000000E+00  0.39030965758E+03  0.71700365150E+03  0.60145873296E+03 0.  0.
        4    1    3    3  502    0 -0.10021472664E+03  0.93536624801E+01  0.53297819293E+03  0.54240008248E+03  0.12699999809E+01 0.  1.
       -4    1    3    3    0  502  0.10021472664E+03 -0.93536624801E+01 -0.14266853534E+03  0.17460356902E+03  0.12699999809E+01 0. -1.
</event>
<event>
 5   0  0.1332555E-02  0.6004596E+03  0.7818609E-02  0.9904453E-01
       -1   -1    0    0    0  501  0.00000000000E+00  0.00000000000E+00  0.19242623817E+03  0.19242623824E+03  0.50400001928E-02 0. -1.
        1   -1    0    0  501    0  0.00000000000E+00  0.00000000000E+00 -0.46842842521E+03  0.46842842524E+03  0.50400001928E-02 0.  1.
    10030    2    1    2    0    0  0.00000000000E+00  0.00000000000E+00 -0.27600218704E+03  0.66085466348E+03  0.60045955650E+03 0.  0.
        2    1    3    3  502    0 -0.16604169906E+03 -0.89927380316E+02  0.11888777855E+03  0.22313915715E+03  0.25500000920E-02 0. -1.
       -2    1    3    3    0  502  0.16604169906E+03  0.89927380316E+02 -0.39488996559E+03  0.43771550633E+03  0.25500000920E-02 0.  1.
</event>
<event>
 5   0  0.1250390E-02  0.6005707E+03  0.7818609E-02  0.9904223E-01
       -1   -1    0    0    0  501  0.00000000000E+00  0.00000000000E+00  0.69975516615E+02  0.69975516797E+02  0.50400001928E-02 0. -1.
        1   -1    0    0  501    0  0.00000000000E+00  0.00000000000E+00 -0.12886119033E+04  0.12886119033E+04  0.50400001928E-02 0.  1.
    10030    2    1    2    0    0  0.00000000000E+00  0.00000000000E+00 -0.12186363867E+04  0.13585874201E+04  0.60057067454E+03 0.  0.
        3    1    3    3  502    0  0.29620221139E+02  0.31926550413E+02 -0.12814297674E+04  0.12821696148E+04  0.10100000352E+00 0.  1.
       -3    1    3    3    0  502 -0.29620221139E+02 -0.31926550413E+02  0.62793380659E+02  0.76417805368E+02  0.10100000352E+00 0. -1.
</event>
<event>
 5   0  0.2126207E-02  0.5999324E+03  0.7818609E-02  0.9905546E-01
       -2   -1    0    0    0  501  0.00000000000E+00  0.00000000000E+00  0.46479277362E+02  0.46479277432E+02  0.25500000920E-02 0. -1.
        2   -1    0    0  501    0  0.00000000000E+00  0.00000000000E+00 -0.19359102854E+04  0.19359102854E+04  0.25500000920E-02 0.  1.
    10030    2    1    2    0    0  0.00000000000E+00  0.00000000000E+00 -0.18894310080E+04  0.19823895628E+04  0.59993236676E+03 0.  0.
        5    1    3    3  502    0  0.15244219493E+03 -0.14790819740E+03 -0.24498631871E+03  0.32427741828E+03  0.46999998093E+01 0. -1.
       -5    1    3    3    0  502 -0.15244219493E+03  0.14790819740E+03 -0.16444446893E+04  0.16581121445E+04  0.46999998093E+01 0.  1.
</event>
<event>
 5   0  0.1332555E-02  0.5990849E+03  0.7818609E-02  0.9907306E-01
        1   -1    0    0  501    0  0.00000000000E+00  0.00000000000E+00  0.17416210388E+03  0.17416210396E+03  0.50400001928E-02 0.  1.
       -1   -1    0    0    0  501  0.00000000000E+00  0.00000000000E+00 -0.51518489044E+03  0.51518489046E+03  0.50400001928E-02 0. -1.
    10030    2    1    2    0    0  0.00000000000E+00  0.00000000000E+00 -0.34102278655E+03  0.68934699442E+03  0.59908491699E+03 0.  0.
        2    1    3    3  502    0 -0.16872581398E+03  0.12671384584E+02 -0.45493029109E+03  0.48537669294E+03  0.25500000920E-02 0. -1.
       -2    1    3    3    0  502  0.16872581398E+03 -0.12671384584E+02  0.11390750453E+03  0.20397030148E+03  0.25500000920E-02 0.  1.
</event>
<event>
 5   0  0.1250390E-02  0.6010428E+03  0.7818609E-02  0.9903245E-01
       -1   -1    0    0    0  501  0.00000000000E+00  0.00000000000E+00  0.89257685261E+02  0.89257685404E+02  0.50400001928E-02 0. -1.
        1   -1    0    0  501    0  0.00000000000E+00  0.00000000000E+00 -0.10118244213E+04  0.10118244214E+04  0.50400001928E-02 0.  1.
    10030    2    1    2    0    0  0.00000000000E+00  0.00000000000E+00 -0.92256673609E+03  0.11010821068E+04  0.60104277993E+03 0.  0.
        3    1    3    3  502    0 -0.11497278369E+03  0.27183213457E+02  0.44930778007E+02  0.12639799483E+03  0.10100000352E+00 0. -1.
       -3    1    3    3    0  502  0.11497278369E+03 -0.27183213457E+02 -0.96749751409E+03  0.97468411194E+03  0.10100000352E+00 0.  1.
</event>
<event>
 5   0  0.1337051E-02  0.6300032E+03  0.7818609E-02  0.9845043E-01
        1   -1    0    0  501    0  0.00000000000E+00  0.00000000000E+00  0.89250989407E+03  0.89250989408E+03  0.50400001928E-02 0. -1.
       -1   -1    0    0    0  501  0.00000000000E+00  0.00000000000E+00 -0.11117635185E+03  0.11117635196E+03  0.50400001928E-02 0.  1.
    10030    2    1    2    0    0  0.00000000000E+00  0.00000000000E+00  0.78133354222E+03  0.10036862460E+04  0.63000315578E+03 0.  0.
        5    1    3    3  502    0  0.11104772181E+03 -0.29400764371E+03  0.42377249607E+03  0.52761473587E+03  0.46999998093E+01 0. -1.
       -5    1    3    3    0  502 -0.11104772181E+03  0.29400764371E+03  0.35756104615E+03  0.47607151018E+03  0.46999998093E+01 0.  1.
</event>
<event>
 5   0  0.2141800E-02  0.6011249E+03  0.7818609E-02  0.9903075E-01
       -2   -1    0    0    0  501  0.00000000000E+00  0.00000000000E+00  0.59396463118E+02  0.59396463173E+02  0.25500000920E-02 0.  1.
        2   -1    0    0  501    0  0.00000000000E+00  0.00000000000E+00 -0.15209285195E+04  0.15209285195E+04  0.25500000920E-02 0. -1.
    10030    2    1    2    0    0  0.00000000000E+00  0.00000000000E+00 -0.14615320564E+04  0.15803249827E+04  0.60112486144E+03 0.  0.
        2    1    3    3  502    0 -0.25851498613E+03 -0.35053091046E+02 -0.33836501233E+03  0.42725823435E+03  0.25500000920E-02 0.  1.
       -2    1    3    3    0  502  0.25851498613E+03  0.35053091046E+02 -0.11231670441E+04  0.11530667483E+04  0.25500000920E-02 0. -1.
</event>
<event>
 5   0  0.2141800E-02  0.6003570E+03  0.7818609E-02  0.9904666E-01
        2   -1    0    0  501    0  0.00000000000E+00  0.00000000000E+00  0.17026202871E+04  0.17026202872E+04  0.25500000920E-02 0. -1.
       -2   -1    0    0    0  501  0.00000000000E+00  0.00000000000E+00 -0.52922631051E+02  0.52922631112E+02  0.25500000920E-02 0.  1.
    10030    2    1    2    0    0  0.00000000000E+00  0.00000000000E+00  0.16496976561E+04  0.17555429183E+04  0.60035704487E+03 0.  0.
        2    1    3    3  502    0 -0.14892789153E+03  0.62449940529E+02  0.15647701882E+04  0.15730814518E+04  0.25500000920E-02 0. -1.
       -2    1    3    3    0  502  0.14892789153E+03 -0.62449940529E+02  0.84927467863E+02  0.18246146648E+03  0.25500000920E-02 0.  1.
</event>
<event>
 5   0  0.2126207E-02  0.6005723E+03  0.7818609E-02  0.9904219E-01
       -2   -1    0    0    0  501  0.00000000000E+00  0.00000000000E+00  0.21503310223E+03  0.21503310225E+03  0.25500000920E-02 0. -1.
        2   -1    0    0  501    0  0.00000000000E+00  0.00000000000E+00 -0.41933905201E+03  0.41933905202E+03  0.25500000920E-02 0.  1.
    10030    2    1    2    0    0  0.00000000000E+00  0.00000000000E+00 -0.20430594978E+03  0.63437215427E+03  0.60057231787E+03 0.  0.
        5    1    3    3  502    0 -0.50109249472E+02  0.22573899415E+03 -0.30445365986E+03  0.38233905289E+03  0.46999998093E+01 0.  1.
       -5    1    3    3    0  502  0.50109249472E+02 -0.22573899415E+03  0.10014771008E+03  0.25203310138E+03  0.46999998093E+01 0. -1.
</event>
<event>
 5   0  0.2142838E-02  0.5966062E+03  0.7818609E-02  0.9912472E-01
        2   -1    0    0  501    0  0.00000000000E+00  0.00000000000E+00  0.56980511778E+03  0.56980511779E+03  0.25500000920E-02 0.  1.
       -2   -1    0    0    0  501  0.00000000000E+00  0.00000000000E+00 -0.15616699523E+03  0.15616699525E+03  0.25500000920E-02 0. -1.
    10030    2    1    2    0    0  0.00000000000E+00  0.00000000000E+00  0.41363812255E+03  0.72597211303E+03  0.59660624575E+03 0.  0.
        4    1    3    3  502    0  0.11510415367E+03 -0.19105411504E+03 -0.34202075107E+02  0.22565911439E+03  0.12699999809E+01 0. -1.
       -4    1    3    3    0  502 -0.11510415367E+03  0.19105411504E+03  0.44784019766E+03  0.50031299864E+03  0.12699999809E+01 0.  1.
</event>
<event>
 5   0  0.1276705E-02  0.5987553E+03  0.7818609E-02  0.9907992E-01
        1   -1    0    0  501    0  0.00000000000E+00  0.00000000000E+00  0.28675538384E+03  0.28675538389E+03  0.50400001928E-02 0. -1.
       -1   -1    0    0    0  501  0.00000000000E+00  0.00000000000E+00 -0.31255554508E+03  0.31255554512E+03  0.50400001928E-02 0.  1.
    10030    2    1    2    0    0  0.00000000000E+00  0.00000000000E+00 -0.25800161235E+02  0.59931092901E+03  0.59875532675E+03 0.  0.
        1    1    3    3  502    0  0.29005249918E+03 -0.68016646163E+02 -0.42427774619E+02  0.30092662315E+03  0.50400001928E-02 0. -1.
       -1    1    3    3    0  502 -0.29005249918E+03  0.68016646163E+02  0.16627613384E+02  0.29838430586E+03  0.50400001928E-02 0.  1.
</event>
<event>
 5   0  0.2142838E-02  0.5972055E+03  0.7818609E-02  0.9911221E-01
       -2   -1    0    0    0  501  0.00000000000E+00  0.00000000000E+00  0.97172695076E+02  0.97172695109E+02  0.25500000920E-02 0.  1.
        2   -1    0    0  501    0  0.00000000000E+00  0.00000000000E+00 -0.91757867835E+03  0.91757867835E+03  0.25500000920E-02 0. -1.
    10030    2    1    2    0    0  0.00000000000E+00  0.00000000000E+00 -0.82040598327E+03  0.10147513735E+04  0.59720546929E+03 0.  0.
        4    1    3    3  502    0  0.21403324630E+03  0.41404869846E+02 -0.75692196033E+03  0.78769096776E+03  0.12699999809E+01 0. -1.
       -4    1    3    3    0  502 -0.21403324630E+03 -0.41404869846E+02 -0.63484022948E+02  0.22706040570E+03  0.12699999809E+01 0.  1.
</event>
<event>
 5   0  0.1303808E-02  0.6000628E+03  0.7818609E-02  0.9905276E-01
        1   -1    0    0  501    0  0.00000000000E+00  0.00000000000E+00  0.27748908639E+03  0.27748908644E+03  0.50400001928E-02 0.  1.
       -1   -1    0    0    0  501  0.00000000000E+00  0.00000000000E+00 -0.32440503063E+03  0.32440503067E+03  0.50400001928E-02 0. -1.
    10030    2    1    2    0    0  0.00000000000E+00  0.00000000000E+00 -0.46915944239E+02  0.60189411710E+03  0.60006284869E+03 0.  0.
        4    1    3    3  502    0 -0.18862941870E+03  0.42001724830E+02  0.20674632678E+03  0.28300328448E+03  0.12699999809E+01 0.  1.
       -4    1    3    3    0  502  0.18862941870E+03 -0.42001724830E+02 -0.25366227102E+03  0.31889083262E+03  0.12699999809E+01 0. -1.
</event>
<event>
 5   0  0.2179625E-02  0.5966492E+03  0.7818609E-02  0.9912382E-01
        2   -1    0    0  501    0  0.00000000000E+00  0.00000000000E+00  0.10854181107E+04  0.10854181107E+04  0.25500000920E-02 0. -1.
       -2   -1    0    0    0  501  0.00000000000E+00  0.00000000000E+00 -0.81993803709E+02  0.81993803749E+02  0.25500000920E-02 0.  1.
    10030    2    1    2    0    0  0.00000000000E+00  0.00000000000E+00  0.10034243070E+04  0.11674119145E+04  0.59664917511E+03 0.  0.
        1    1    3    3  502    0  0.40832438244E+02  0.20286334864E+03  0.81259904547E+02  0.22231508799E+03  0.50400001928E-02 0.  1.
       -1    1    3    3    0  502 -0.40832438244E+02 -0.20286334864E+03  0.92216440249E+03  0.94509682651E+03  0.50400001928E-02 0. -1.
</event>
<event>
 5   0  0.1250390E-02  0.6003883E+03  0.7818609E-02  0.9904601E-01
        1   -1    0    0  501    0  0.00000000000E+00  0.00000000000E+00  0.21374790954E+03  0.21374790960E+03  0.50400001928E-02 0. -1.
       -1   -1    0    0    0  501  0.00000000000E+00  0.00000000000E+00 -0.42160190152E+03  0.42160190155E+03  0.50400001928E-02 0.  1.
    10030    2    1    2    0    0  0.00000000000E+00  0.00000000000E+00 -0.20785399198E+03  0.63534981114E+03  0.60038829147E+03 0.  0.
        3    1    3    3  502    0  0.19949820155E+03  0.95176829150E+02  0.11102260254E+03  0.24735438080E+03  0.10100000352E+00 0.  1.
       -3    1    3    3    0  502 -0.19949820155E+03 -0.95176829150E+02 -0.31887659452E+03  0.38799543034E+03  0.10100000352E+00 0. -1.
</event>
<event>
 5   0  0.2092587E-02  0.5977263E+03  0.7818609E-02  0.9910135E-01
       -2   -1    0    0    0  501  0.00000000000E+00  0.00000000000E+00  0.79217993390E+02  0.79217993431E+02  0.25500000920E-02 0. -1.
        2   -1    0    0  501    0  0.00000000000E+00  0.00000000000E+00 -0.11275111558E+04  0.11275111558E+04  0.25500000920E-02 0.  1.
    10030    2    1    2    0    0  0.00000000000E+00  0.00000000000E+00 -0.10482931624E+04  0.12067291492E+04  0.59772626280E+03 0.  0.
        3    1    3    3  502    0 -0.20678927193E+03 -0.21210473444E+03 -0.44417961886E+03  0.53389677408E+03  0.10100000352E+00 0.  1.
       -3    1    3    3    0  502  0.20678927193E+03  0.21210473444E+03 -0.60411354350E+03  0.67283237511E+03  0.10100000352E+00 0. -1.
</event>
<event>
 5   0  0.1337051E-02  0.6035250E+03  0.7818609E-02  0.9898120E-01
       -1   -1    0    0    0  501  0.00000000000E+00  0.00000000000E+00  0.96184862997E+02  0.96184863129E+02  0.50400001928E-02 0.  1.
        1   -1    0    0  501    0  0.00000000000E+00  0.00000000000E+00 -0.94672504643E+03  0.94672504645E+03  0.50400001928E-02 0. -1.
    10030    2    1    2    0    0  0.00000000000E+00  0.00000000000E+00 -0.85054018343E+03  0.10429099096E+04  0.60352504161E+03 0.  0.
        5    1    3    3  502    0 -0.96465944685E+02  0.27802821531E+03 -0.31021434930E+03  0.42762179493E+03  0.46999998093E+01 0. -1.
       -5    1    3    3    0  502  0.96465944685E+02 -0.27802821531E+03 -0.54032583413E+03  0.61528811464E+03  0.46999998093E+01 0.  1.
</event>
<event>
 5   0  0.2179625E-02  0.6030136E+03  0.7818609E-02  0.9899174E-01
       -2   -1    0    0    0  501  0.00000000000E+00  0.00000000000E+00  0.99621465555E+02  0.99621465588E+02  0.25500000920E-02 0.  1.
        2   -1    0    0  501    0  0.00000000000E+00  0.00000000000E+00 -0.91251761636E+03  0.91251761636E+03  0.25500000920E-02 0. -1.
    10030    2    1    2    0    0  0.00000000000E+00  0.00000000000E+00 -0.81289615081E+03  0.10121390820E+04  0.60301357300E+03 0.  0.
        1    1    3    3  502    0  0.64852393638E+02  0.29409499123E+03 -0.43069281754E+03  0.52554162531E+03  0.50400001928E-02 0. -1.
       -1    1    3    3    0  502 -0.64852393638E+02 -0.29409499123E+03 -0.38220333326E+03  0.48659745664E+03  0.50400001928E-02 0.  1.
</event>
<event>
 5   0  0.2092587E-02  0.5992699E+03  0.7818609E-02  0.9906922E-01
        2   -1    0    0  501    0  0.00000000000E+00  0.00000000000E+00  0.52669153088E+03  0.52669153089E+03  0.25500000920E-02 0. -1.
       -2   -1    0    0    0  501  0.00000000000E+00  0.00000000000E+00 -0.17046237598E+03  0.17046237600E+03  0.25500000920E-02 0.  1.
    10030    2    1    2    0    0  0.00000000000E+00  0.00000000000E+00  0.35622915490E+03  0.69715390689E+03  0.59926985498E+03 0.  0.
        3    1    3    3  502    0 -0.47230657559E+02  0.68667952113E+02 -0.15670690969E+03  0.17749109388E+03  0.10100000352E+00 0.  1.
       -3    1    3    3    0  502  0.47230657559E+02 -0.68667952113E+02  0.51293606459E+03  0.51966281301E+03  0.10100000352E+00 0. -1.
</event>
<event>
 5   0  0.1337051E-02  0.6006301E+03  0.7818609E-02  0.9904100E-01
        1   -1    0    0  501    0  0.00000000000E+00  0.00000000000E+00  0.49334764126E+03  0.49334764128E+03  0.50400001928E-02 0.  1.
       -1   -1    0    0    0  501  0.00000000000E+00  0.00000000000E+00 -0.18281048541E+03  0.18281048548E+03  0.50400001928E-02 0. -1.
    10030    2    1    2    0    0  0.00000000000E+00  0.00000000000E+00  0.31053715585E+03  0.67615812676E+03  0.60063007519E+03 0.  0.
        5    1    3    3  502    0  0.29414831859E+03 -0.27623511023E+01  0.22315191151E+03  0.36925564251E+03  0.46999998093E+01 0. -1.
       -5    1    3    3    0  502 -0.29414831859E+03  0.27623511023E+01  0.87385244342E+02  0.30690248425E+03  0.46999998093E+01 0.  1.
</event>
<event>
 5   0  0.1303808E-02  0.5990597E+03  0.7818609E-02  0.9907359E-01
        1   -1    0    0  501    0  0.00000000000E+00  0.00000000000E+00  0.78271334445E+03  0.78271334447E+03  0.50400001928E-02 0.  1.
       -1   -1    0    0    0  501  0.00000000000E+00  0.00000000000E+00 -0.11462450018E+03  0.11462450029E+03  0.50400001928E-02 0. -1.
    10030    2    1    2    0    0  0.00000000000E+00  0.00000000000E+00  0.66808884427E+03  0.89733784476E+03  0.59905968301E+03 0.  0.
        4    1    3    3  502    0  0.18562523549E+03 -0.30111807045E+02 -0.15174612821E+02  0.18866724874E+03  0.12699999809E+01 0. -1.
       -4    1    3    3    0  502 -0.18562523549E+03  0.30111807045E+02  0.68326345709E+03  0.70867059602E+03  0.12699999809E+01 0.  1.
</event>
<event>
 5   0  0.1332555E-02  0.6022456E+03  0.7818609E-02  0.9900758E-01
        1   -1    0    0  501    0  0.00000000000E+00  0.00000000000E+00  0.30745679746E+03  0.30745679750E+03  0.50400001928E-02 0.  1.
       -1   -1    0    0    0  501  0.00000000000E+00  0.00000000000E+00 -0.29491932679E+03  0.29491932684E+03  0.50400001928E-02 0. -1.
    10030    2    1    2    0    0  0.00000000000E+00  0.00000000000E+00  0.12537470666E+02  0.60237612433E+03  0.60224563676E+03 0.  0.
        2    1    3    3  502    0  0.28926391182E+01  0.20524228239E+03  0.22663939421E+03  0.30577471585E+03  0.25500000920E-02 0.  1.
       -2    1    3    3    0  502 -0.28926391182E+01 -0.20524228239E+03 -0.21410192354E+03  0.29660140848E+03  0.25500000920E-02 0. -1.
</event>
<event>
 5   0  0.2142838E-02  0.5952804E+03  0.7818609E-02  0.9915246E-01
        2   -1    0    0  501    0  0.00000000000E+00  0.00000000000E+00  0.11654654793E+04  0.11654654793E+04  0.25500000920E-02 0. -1.
       -2   -1    0    0    0  501  0.00000000000E+00  0.00000000000E+00 -0.76012278973E+02  0.76012279016E+02  0.25500000920E-02 0.  1.
    10030    2    1    2    0    0  0.00000000000E+00  0.00000000000E+00  0.10894532003E+04  0.12414777583E+04  0.59528039501E+03 0.  0.
        4    1    3    3  502    0 -0.97518579720E+02  0.24131829607E+03  0.24363088778E+03  0.35651369650E+03  0.12699999809E+01 0.  1.
       -4    1    3    3    0  502  0.97518579720E+02 -0.24131829607E+03  0.84582231250E+03  0.88496406177E+03  0.12699999809E+01 0. -1.
</event>
<event>
 5   0  0.2179625E-02  0.6000457E+03  0.7818609E-02  0.9905311E-01
       -2   -1    0    0    0  501  0.00000000000E+00  0.00000000000E+00  0.87334815762E+02  0.87334815799E+02  0.25500000920E-02 0. -1.
        2   -1    0    0  501    0  0.00000000000E+00  0.00000000000E+00 -0.10306737766E+04  0.10306737766E+04  0.25500000920E-02 0.  1.
    10030    2    1    2    0    0  0.00000000000E+00  0.00000000000E+00 -0.94333896083E+03  0.11180085924E+04  0.60004567964E+03 0.  0.
        1    1    3    3  502    0 -0.85403854138E+02  0.17871800167E+03 -0.51807878390E+02  0.20473885491E+03  0.50400001928E-02 0. -1.
       -1    1    3    3    0  502  0.85403854138E+02 -0.17871800167E+03 -0.89153108244E+03  0.91326973748E+03  0.50400001928E-02 0.  1.
</event>
<event>
 5   0  0.1276705E-02  0.6012003E+03  0.7818609E-02  0.9902919E-01
       -1   -1    0    0    0  501  0.00000000000E+00  0.00000000000E+00  0.72809404173E+02  0.72809404347E+02  0.50400001928E-02 0.  1.
        1   -1    0    0  501    0  0.00000000000E+00  0.00000000000E+00 -0.12410545361E+04  0.12410545361E+04  0.50400001928E-02 0. -1.
    10030    2    1    2    0    0  0.00000000000E+00  0.00000000000E+00 -0.11682451319E+04  0.13138639405E+04  0.60120027093E+03 0.  0.
        1    1    3    3  502    0 -0.87821455096E+02 -0.19628318112E+03 -0.10431648063E+04  0.10650974173E+04  0.50400001928E-02 0. -1.
       -1    1    3    3    0  502  0.87821455096E+02  0.19628318112E+03 -0.12508032560E+03  0.24876652315E+03  0.50400001928E-02 0.  1.
</event>
<event>
 5   0  0.2126207E-02  0.6035002E+03  0.7818609E-02  0.9898171E-01
       -2   -1    0    0    0  501  0.00000000000E+00  0.00000000000E+00  0.29053589835E+03  0.29053589836E+03  0.25500000920E-02 0.  1.
        2   -1    0    0  501    0  0.00000000000E+00  0.00000000000E+00 -0.31339714368E+03  0.31339714369E+03  0.25500000920E-02 0. -1.
    10030    2    1    2    0    0  0.00000000000E+00  0.00000000000E+00 -0.22861245323E+02  0.60393304205E+03  0.60350019283E+03 0.  0.
        5    1    3    3  502    0 -0.19518635761E+03 -0.18194175893E+03  0.12949123219E+03  0.29663207354E+03  0.46999998093E+01 0.  1.
       -5    1    3    3    0  502  0.19518635761E+03  0.18194175893E+03 -0.15235247751E+03  0.30730096851E+03  0.46999998093E+01 0. -1.
</event>
<event>
 5   0  0.1303808E-02  0.6001131E+03  0.7818609E-02  0.9905171E-01
        1   -1    0    0  501    0  0.00000000000E+00  0.00000000000E+00  0.29520458281E+03  0.29520458285E+03  0.50400001928E-02 0.  1.
       -1   -1    0    0    0  501  0.00000000000E+00  0.00000000000E+00 -0.30498825248E+03  0.30498825253E+03  0.50400001928E-02 0. -1.
    10030    2    1    2    0    0  0.00000000000E+00  0.00000000000E+00 -0.97836696750E+01  0.60019283538E+03  0.60011308888E+03 0.  0.
        4    1    3    3  502    0 -0.29977429667E+03 -0.53026609215E+01  0.69237015209E+01  0.29990381408E+03  0.12699999809E+01 0. -1.
       -4    1    3    3    0  502  0.29977429667E+03  0.53026609215E+01 -0.16707371196E+02  0.30028902130E+03  0.12699999809E+01 0.  1.
</event>
<event>
 5   0  0.1250390E-02  0.5985926E+03  0.7818609E-02  0.9908330E-01
        1   -1    0    0  501    0  0.00000000000E+00  0.00000000000E+00  0.20927768786E+03  0.20927768792E+03  0.50400001928E-02 0.  1.
       -1   -1    0    0    0  501  0.00000000000E+00  0.00000000000E+00 -0.42803547748E+03  0.42803547751E+03  0.50400001928E-02 0. -1.
    10030    2    1    2    0    0  0.00000000000E+00  0.00000000000E+00 -0.21875778962E+03  0.63731316542E+03  0.59859259961E+03 0.  0.
        3    1    3    3  502    0  0.12056515803E+03 -0.37687587265E+02 -0.39826404276E+03  0.41781643041E+03  0.10100000352E+00 0. -1.
       -3    1    3    3    0  502 -0.12056515803E+03  0.37687587265E+02  0.17950625314E+03  0.21949673501E+03  0.10100000352E+00 0.  1.
</event>
<event>
 5   0  0.8551000E-03  0.6100094E+03  0.7818609E-02  0.9884855E-01
        3   -1    0    0  501    0  0.00000000000E+00  0.00000000000E+00  0.12063865699E+03  0.12063869927E+03  0.10100000352E+00 0. -1.
       -3   -1    0    0    0  501  0.00000000000E+00  0.00000000000E+00 -0.77112803577E+03  0.77112804238E+03  0.10100000352E+00 0.  1.
    10030    2    1    2    0    0  0.00000000000E+00  0.00000000000E+00 -0.65048937878E+03  0.89176674165E+03  0.61000941763E+03 0.  0.
        4    1    3    3  502    0 -0.17071553585E+03 -0.20621934742E+03 -0.11160833616E+03  0.29004869769E+03  0.12699999809E+01 0. -1.
       -4    1    3    3    0  502  0.17071553585E+03  0.20621934742E+03 -0.53888104262E+03  0.60171804396E+03  0.12699999809E+01 0.  1.
</event>
<event>
 5   0  0.1332555E-02  0.6001982E+03  0.7818609E-02  0.9904995E-01
        1   -1    0    0  501    0  0.00000000000E+00  0.00000000000E+00  0.17300343423E+03  0.17300343431E+03  0.50400001928E-02 0.  1.
       -1   -1    0    0    0  501  0.00000000000E+00  0.00000000000E+00 -0.52056459743E+03  0.52056459746E+03  0.50400001928E-02 0. -1.
    10030    2    1    2    0    0  0.00000000000E+00  0.00000000000E+00 -0.34756116320E+03  0.69356803176E+03  0.60019817770E+03 0.  0.
        2    1    3    3  502    0 -0.23882584295E+03 -0.17353626872E+03 -0.23608304308E+03  0.37800505692E+03  0.25500000920E-02 0. -1.
       -2    1    3    3    0  502  0.23882584295E+03  0.17353626872E+03 -0.11147812012E+03  0.31556297484E+03  0.25500000920E-02 0.  1.
</event>
<event>
 5   0  0.8551000E-03  0.6007487E+03  0.7818609E-02  0.9903854E-01
       -3   -1    0    0    0  501  0.00000000000E+00  0.00000000000E+00  0.69643428827E+02  0.69643502064E+02  0.10100000352E+00 0.  1.
        3   -1    0    0  501    0  0.00000000000E+00  0.00000000000E+00 -0.12955236498E+04  0.12955236538E+04  0.10100000352E+00 0. -1.
    10030    2    1    2    0    0  0.00000000000E+00  0.00000000000E+00 -0.12258802210E+04  0.13651671558E+04  0.60074873875E+03 0.  0.
        4    1    3    3  502    0 -0.12153422346E+03 -0.13094969139E+03 -0.11616527554E+04  0.11753115017E+04  0.12699999809E+01 0. -1.
       -4    1    3    3    0  502  0.12153422346E+03  0.13094969139E+03 -0.64227465617E+02  0.18985565408E+03  0.12699999809E+01 0.  1.
</event>
<event>
 5   0  0.2142838E-02  0.5989803E+03  0.7818609E-02  0.9907524E-01
       -2   -1    0    0    0  501  0.00000000000E+00  0.00000000000E+00  0.76332574529E+02  0.76332574572E+02  0.25500000920E-02 0. -1.
        2   -1    0    0  501    0  0.00000000000E+00  0.00000000000E+00 -0.11750466894E+04  0.11750466894E+04  0.25500000920E-02 0.  1.
    10030    2    1    2    0    0  0.00000000000E+00  0.00000000000E+00 -0.10987141149E+04  0.12513792640E+04  0.59898026352E+03 0.  0.
        4    1    3    3  502    0 -0.55491365974E+02  0.27926739409E+03 -0.74336056805E+03  0.79602519817E+03  0.12699999809E+01 0. -1.
       -4    1    3    3    0  502  0.55491365974E+02 -0.27926739409E+03 -0.35535354681E+03  0.45535406579E+03  0.12699999809E+01 0.  1.
</event>
<event>
 5   0  0.1276705E-02  0.5990128E+03  0.7818609E-02  0.9907456E-01
        1   -1    0    0  501    0  0.00000000000E+00  0.00000000000E+00  0.59803035463E+03  0.59803035465E+03  0.50400001928E-02 0. -1.
       -1   -1    0    0    0  501  0.00000000000E+00  0.00000000000E+00 -0.14999922990E+03  0.14999922998E+03  0.50400001928E-02 0.  1.
    10030    2    1    2    0    0  0.00000000000E+00  0.00000000000E+00  0.44803112473E+03  0.74802958463E+03  0.59901283021E+03 0.  0.
        1    1    3    3  502    0 -0.15752065281E+03 -0.20531701106E+02  0.54108965900E+03  0.56392581597E+03  0.50400001928E-02 0. -1.
       -1    1    3    3    0  502  0.15752065281E+03  0.20531701106E+02 -0.93058534265E+02  0.18410376867E+03  0.50400001928E-02 0.  1.
</event>
<event>
 5   0  0.1250390E-02  0.5979500E+03  0.7818609E-02  0.9909668E-01
       -1   -1    0    0    0  501  0.00000000000E+00  0.00000000000E+00  0.14129209818E+03  0.14129209827E+03  0.50400001928E-02 0.  1.
        1   -1    0    0  501    0  0.00000000000E+00  0.00000000000E+00 -0.63263298439E+03  0.63263298441E+03  0.50400001928E-02 0. -1.
    10030    2    1    2    0    0  0.00000000000E+00  0.00000000000E+00 -0.49134088621E+03  0.77392508268E+03  0.59794997044E+03 0.  0.
        3    1    3    3  502    0 -0.79957531711E+02 -0.20016833228E+03  0.22488058312E+02  0.21671707614E+03  0.10100000352E+00 0.  1.
       -3    1    3    3    0  502  0.79957531711E+02  0.20016833228E+03 -0.51382894452E+03  0.55720800654E+03  0.10100000352E+00 0. -1.
</event>
<event>
 5   0  0.2141800E-02  0.5954103E+03  0.7818609E-02  0.9914974E-01
       -2   -1    0    0    0  501  0.00000000000E+00  0.00000000000E+00  0.12514286769E+03  0.12514286771E+03  0.25500000920E-02 0.  1.
        2   -1    0    0  501    0  0.00000000000E+00  0.00000000000E+00 -0.70821744611E+03  0.70821744611E+03  0.25500000920E-02 0. -1.
    10030    2    1    2    0    0  0.00000000000E+00  0.00000000000E+00 -0.58307457842E+03  0.83336031383E+03  0.59541031958E+03 0.  0.
        2    1    3    3  502    0  0.15907599088E+03 -0.12403205140E+03 -0.59798899027E+03  0.63109425059E+03  0.25500000920E-02 0. -1.
       -2    1    3    3    0  502 -0.15907599088E+03  0.12403205140E+03  0.14914411849E+02  0.20226606323E+03  0.25500000920E-02 0.  1.
</event>
<event>
 5   0  0.2142838E-02  0.5997384E+03  0.7818609E-02  0.9905949E-01
       -2   -1    0    0    0  501  0.00000000000E+00  0.00000000000E+00  0.13097705819E+03  0.13097705821E+03  0.25500000920E-02 0.  1.
        2   -1    0    0  501    0  0.00000000000E+00  0.00000000000E+00 -0.68654413216E+03  0.68654413216E+03  0.25500000920E-02 0. -1.
    10030    2    1    2    0    0  0.00000000000E+00  0.00000000000E+00 -0.55556707397E+03  0.81752119037E+03  0.59973837882E+03 0.  0.
        4    1    3    3  502    0  0.11159400971E+03  0.16310637340E+02 -0.65652920833E+03  0.66614673623E+03  0.12699999809E+01 0. -1.
       -4    1    3    3    0  502 -0.11159400971E+03 -0.16310637340E+02  0.10096213436E+03  0.15137445415E+03  0.12699999809E+01 0.  1.
</event>
<event>
 5   0  0.1337051E-02  0.6038265E+03  0.7818609E-02  0.9897499E-01
        1   -1    0    0  501    0  0.00000000000E+00  0.00000000000E+00  0.75111930992E+02  0.75111931161E+02  0.50400001928E-02 0.  1.
       -1   -1    0    0    0  501  0.00000000000E+00  0.00000000000E+00 -0.12135436668E+04  0.12135436669E+04  0.50400001928E-02 0. -1.
    10030    2    1    2    0    0  0.00000000000E+00  0.00000000000E+00 -0.11384317359E+04  0.12886555980E+04  0.60382649255E+03 0.  0.
        5    1    3    3  502    0  0.90580174112E+02 -0.66341612772E+02 -0.11672481642E+04  0.11726450206E+04  0.46999998093E+01 0. -1.
       -5    1    3    3    0  502 -0.90580174112E+02  0.66341612772E+02  0.28816428356E+02  0.11601057740E+03  0.46999998093E+01 0.  1.
</event>
<event>
 5   0  0.2142838E-02  0.5993504E+03  0.7818609E-02  0.9906755E-01
        2   -1    0    0  501    0  0.00000000000E+00  0.00000000000E+00  0.82710844471E+03  0.82710844472E+03  0.25500000920E-02 0. -1.
       -2   -1    0    0    0  501  0.00000000000E+00  0.00000000000E+00 -0.10857734429E+03  0.10857734432E+03  0.25500000920E-02 0.  1.
    10030    2    1    2    0    0  0.00000000000E+00  0.00000000000E+00  0.71853110042E+03  0.93568578903E+03  0.59935044300E+03 0.  0.
        4    1    3    3  502    0 -0.11176306881E+03 -0.69278069876E+00 -0.74817783747E+02  0.13450195969E+03  0.12699999809E+01 0.  1.
       -4    1    3    3    0  502  0.11176306881E+03  0.69278069876E+00  0.79334888417E+03  0.80118382935E+03  0.12699999809E+01 0. -1.
</event>
<event>
 5   0  0.1332555E-02  0.5972848E+03  0.7818609E-02  0.9911055E-01
       -1   -1    0    0    0  501  0.00000000000E+00  0.00000000000E+00  0.28185763367E+03  0.28185763372E+03  0.50400001928E-02 0. -1.
        1   -1    0    0  501    0  0.00000000000E+00  0.00000000000E+00 -0.31642666032E+03  0.31642666036E+03  0.50400001928E-02 0.  1.
    10030    2    1    2    0    0  0.00000000000E+00  0.00000000000E+00 -0.34569026645E+02  0.59828429407E+03  0.59728475531E+03 0.  0.
        2    1    3    3  502    0 -0.98985631948E+01  0.11962850076E+03  0.25662933823E+03  0.28331533138E+03  0.25500000920E-02 0. -1.
       -2    1    3    3    0  502  0.98985631948E+01 -0.11962850076E+03 -0.29119836488E+03  0.31496896269E+03  0.25500000920E-02 0.  1.
</event>
<event>
 5   0  0.2126207E-02  0.5992048E+03  0.7818609E-02  0.9907057E-01
        2   -1    0    0  501    0  0.00000000000E+00  0.00000000000E+00  0.32817535821E+03  0.32817535822E+03  0.25500000920E-02 0.  1.
       -2   -1    0    0    0  501  0.00000000000E+00  0.00000000000E+00 -0.27351718585E+03  0.27351718586E+03  0.25500000920E-02 0. -1.
    10030    2    1    2    0    0  0.00000000000E+00  0.00000000000E+00  0.54658172365E+02  0.60169254408E+03  0.59920480789E+03 0.  0.
        5    1    3    3  502    0  0.17925267209E+03 -0.42027102313E+02 -0.20996051444E+03  0.27929071843E+03  0.46999998093E+01 0. -1.
       -5    1    3    3    0  502 -0.17925267209E+03  0.42027102313E+02  0.26461868681E+03  0.32240182565E+03  0.46999998093E+01 0.  1.
</event>
<event>
 5   0  0.1332555E-02  0.5955291E+03  0.7818609E-02  0.9914725E-01
       -1   -1    0    0    0  501  0.00000000000E+00  0.00000000000E+00  0.18182592456E+03  0.18182592463E+03  0.50400001928E-02 0.  1.
        1   -1    0    0  501    0  0.00000000000E+00  0.00000000000E+00 -0.48762978672E+03  0.48762978675E+03  0.50400001928E-02 0. -1.
    10030    2    1    2    0    0  0.00000000000E+00  0.00000000000E+00 -0.30580386216E+03  0.66945571138E+03  0.59552913227E+03 0.  0.
        2    1    3    3  502    0  0.19292779485E+03  0.15245176630E+03  0.35876151057E+02  0.24849501664E+03  0.25500000920E-02 0.  1.
       -2    1    3    3    0  502 -0.19292779485E+03 -0.15245176630E+03 -0.34168001322E+03  0.42096069474E+03  0.25500000920E-02 0. -1.
</event>
<event>
 5   0  0.2092587E-02  0.5998887E+03  0.7818609E-02  0.9905637E-01
        2   -1    0    0  501    0  0.00000000000E+00  0.00000000000E+00  0.21450312108E+03  0.21450312110E+03  0.25500000920E-02 0. -1.
       -2   -1    0    0    0  501  0.00000000000E+00  0.00000000000E+00 -0.41941873519E+03  0.41941873520E+03  0.25500000920E-02 0.  1.
    10030    2    1    2    0    0  0.00000000000E+00  0.00000000000E+00 -0.20491561411E+03  0.63392185630E+03  0.59988874884E+03 0.  0.
        3    1    3    3  502    0  0.20714214369E+02  0.27178361335E+03  0.29828905514E+02  0.27419917025E+03  0.10100000352E+00 0. -1.
       -3    1    3    3    0  502 -0.20714214369E+02 -0.27178361335E+03 -0.23474451962E+03  0.35972268605E+03  0.10100000352E+00 0.  1.
</event>
<event>
 5   0  0.8551000E-03  0.5982707E+03  0.7818609E-02  0.9909000E-01
        4   -1    0    0  501    0  0.00000000000E+00  0.00000000000E+00  0.29436844912E+03  0.29437118870E+03  0.12699999809E+01 0.  1.
       -4   -1    0    0    0  501  0.00000000000E+00  0.00000000000E+00 -0.30397396059E+03  0.30397661360E+03  0.12699999809E+01 0. -1.
    10030    2    1    2    0    0  0.00000000000E+00  0.00000000000E+00 -0.96055114735E+01  0.59834780230E+03  0.59827069682E+03 0.  0.
        4    1    3    3  502    0 -0.44639493627E+02 -0.16557742866E+03  0.24032427187E+03  0.29523878103E+03  0.12699999809E+01 0.  1.
       -4    1    3    3    0  502  0.44639493627E+02  0.16557742866E+03 -0.24992978335E+03  0.30310902127E+03  0.12699999809E+01 0. -1.
</event>
<event>
 5   0  0.2141800E-02  0.5994520E+03  0.7818609E-02  0.9906544E-01
       -2   -1    0    0    0  501  0.00000000000E+00  0.00000000000E+00  0.79195340125E+02  0.79195340166E+02  0.25500000920E-02 0.  1.
        2   -1    0    0  501    0  0.00000000000E+00  0.00000000000E+00 -0.11343556073E+04  0.11343556073E+04  0.25500000920E-02 0. -1.
    10030    2    1    2    0    0  0.00000000000E+00  0.00000000000E+00 -0.10551602672E+04  0.12135509475E+04  0.59945201032E+03 0.  0.
        2    1    3    3  502    0  0.15374576028E+02 -0.19264077698E+03 -0.63773404242E+02  0.20350403839E+03  0.25500000920E-02 0.  1.
       -2    1    3    3    0  502 -0.15374576028E+02  0.19264077698E+03 -0.99138686295E+03  0.10100469091E+04  0.25500000920E-02 0. -1.
</event>
<event>
 5   0  0.1337051E-02  0.6132353E+03  0.7818609E-02  0.9878321E-01
       -1   -1    0    0    0  501  0.00000000000E+00  0.00000000000E+00  0.78672026584E+03  0.78672026585E+03  0.50400001928E-02 0. -1.
        1   -1    0    0  501    0  0.00000000000E+00  0.00000000000E+00 -0.11950167401E+03  0.11950167412E+03  0.50400001928E-02 0.  1.
    10030    2    1    2    0    0  0.00000000000E+00  0.00000000000E+00  0.66721859182E+03  0.90622193997E+03  0.61323531798E+03 0.  0.
        5    1    3    3  502    0 -0.16261823316E+01 -0.20182415272E+03  0.67464072079E+03  0.70420013153E+03  0.46999998093E+01 0. -1.
       -5    1    3    3    0  502  0.16261823316E+01  0.20182415272E+03 -0.74221289668E+01  0.20202180845E+03  0.46999998093E+01 0.  1.
</event>
<event>
 5   0  0.2142838E-02  0.5838704E+03  0.7818609E-02  0.9939447E-01
        2   -1    0    0  501    0  0.00000000000E+00  0.00000000000E+00  0.10149596949E+04  0.10149596949E+04  0.25500000920E-02 0. -1.
       -2   -1    0    0    0  501  0.00000000000E+00  0.00000000000E+00 -0.83969988266E+02  0.83969988305E+02  0.25500000920E-02 0.  1.
    10030    2    1    2    0    0  0.00000000000E+00  0.00000000000E+00  0.93098970661E+03  0.10989296832E+04  0.58387037497E+03 0.  0.
        4    1    3    3  502    0 -0.27741470417E+03 -0.37519812696E+02  0.30962985245E+03  0.41741934893E+03  0.12699999809E+01 0.  1.
       -4    1    3    3    0  502  0.27741470417E+03  0.37519812696E+02  0.62135985416E+03  0.68151033425E+03  0.12699999809E+01 0. -1.
</event>
<event>
 5   0  0.2126207E-02  0.5945558E+03  0.7818609E-02  0.9916766E-01
       -2   -1    0    0    0  501  0.00000000000E+00  0.00000000000E+00  0.33860194829E+03  0.33860194830E+03  0.25500000920E-02 0. -1.
        2   -1    0    0  501    0  0.00000000000E+00  0.00000000000E+00 -0.26099716767E+03  0.26099716768E+03  0.25500000920E-02 0.  1.
    10030    2    1    2    0    0  0.00000000000E+00  0.00000000000E+00  0.77604780622E+02  0.59959911598E+03  0.59455579882E+03 0.  0.
        5    1    3    3  502    0 -0.27636447728E+03 -0.58889552427E+02 -0.54212043622E+02  0.28776090659E+03  0.46999998093E+01 0.  1.
       -5    1    3    3    0  502  0.27636447728E+03  0.58889552427E+02  0.13181682424E+03  0.31183820940E+03  0.46999998093E+01 0. -1.
</event>
<event>
 5   0  0.1303808E-02  0.6017188E+03  0.7818609E-02  0.9901847E-01
        1   -1    0    0  501    0  0.00000000000E+00  0.00000000000E+00  0.95027444948E+03  0.95027444949E+03  0.50400001928E-02 0.  1.
       -1   -1    0    0    0  501  0.00000000000E+00  0.00000000000E+00 -0.95252867800E+02  0.95252867933E+02  0.50400001928E-02 0. -1.
    10030    2    1    2    0    0  0.00000000000E+00  0.00000000000E+00  0.85502158168E+03  0.10455273174E+04  0.60171876017E+03 0.  0.
        4    1    3    3  502    0  0.11830263926E+03  0.26474669604E+03  0.28819698307E+03  0.40883424694E+03  0.12699999809E+01 0. -1.
       -4    1    3    3    0  502 -0.11830263926E+03 -0.26474669604E+03  0.56682459861E+03  0.63669307049E+03  0.12699999809E+01 0.  1.
</event>
<event>
 5   0  0.8551000E-03  0.5994385E+03  0.7818609E-02  0.9906572E-01
       -4   -1    0    0    0  501  0.00000000000E+00  0.00000000000E+00  0.16576383895E+03  0.16576870393E+03  0.12699999809E+01 0.  1.
        4   -1    0    0  501    0  0.00000000000E+00  0.00000000000E+00 -0.54191183956E+03  0.54191332771E+03  0.12699999809E+01 0. -1.
    10030    2    1    2    0    0  0.00000000000E+00  0.00000000000E+00 -0.37614800060E+03  0.70768203165E+03  0.59943852025E+03 0.  0.
        1    1    3    3  502    0  0.88672557243E+02  0.27563547852E+03 -0.27947440161E+03  0.40242226654E+03  0.50400001928E-02 0. -1.
       -1    1    3    3    0  502 -0.88672557243E+02 -0.27563547852E+03 -0.96673598994E+02  0.30525976511E+03  0.50400001928E-02 0.  1.
</event>
<event>
 5   0  0.2126207E-02  0.5811075E+03  0.7818609E-02  0.9945396E-01
        2   -1    0    0  501    0  0.00000000000E+00  0.00000000000E+00  0.25951726611E+03  0.25951726612E+03  0.25500000920E-02 0.  1.
       -2   -1    0    0    0  501  0.00000000000E+00  0.00000000000E+00 -0.32530195835E+03  0.32530195836E+03  0.25500000920E-02 0. -1.
    10030    2    1    2    0    0  0.00000000000E+00  0.00000000000E+00 -0.65784692244E+02  0.58481922448E+03  0.58110747679E+03 0.  0.
        5    1    3    3  502    0 -0.26855834848E+02 -0.27877634674E+03  0.44814168694E+02  0.28366862195E+03  0.46999998093E+01 0.  1.
       -5    1    3    3    0  502  0.26855834848E+02  0.27877634674E+03 -0.11059886094E+03  0.30115060253E+03  0.46999998093E+01 0. -1.
</event>
<event>
 5   0  0.1250390E-02  0.6000682E+03  0.7818609E-02  0.9905265E-01
       -1   -1    0    0    0  501  0.00000000000E+00  0.00000000000E+00  0.42290680462E+03  0.42290680465E+03  0.50400001928E-02 0. -1.
        1   -1    0    0  501    0  0.00000000000E+00  0.00000000000E+00 -0.21286121581E+03  0.21286121587E+03  0.50400001928E-02 0.  1.
    10030    2    1    2    0    0  0.00000000000E+00  0.00000000000E+00  0.21004558882E+03  0.63576802052E+03  0.60006818490E+03 0.  0.
        3    1    3    3  502    0  0.17053955996E+03  0.14650292423E+03  0.31552247201E+03  0.38742907591E+03  0.10100000352E+00 0. -1.
       -3    1    3    3    0  502 -0.17053955996E+03 -0.14650292423E+03 -0.10547688320E+03  0.24833894460E+03  0.10100000352E+00 0.  1.
</event>
<event>
 5   0  0.2179625E-02  0.5995615E+03  0.7818609E-02  0.9906316E-01
        2   -1    0    0  501    0  0.00000000000E+00  0.00000000000E+00  0.51384052840E+03  0.51384052841E+03  0.25500000920E-02 0. -1.
       -2   -1    0    0    0  501  0.00000000000E+00  0.00000000000E+00 -0.17489567292E+03  0.17489567294E+03  0.25500000920E-02 0.  1.
    10030    2    1    2    0    0  0.00000000000E+00  0.00000000000E+00  0.33894485548E+03  0.68873620135E+03  0.59956145639E+03 0.  0.
        1    1    3    3  502    0 -0.11894766012E+03  0.90563085197E+02  0.46796247005E+03  0.49126275215E+03  0.50400001928E-02 0. -1.
       -1    1    3    3    0  502  0.11894766012E+03 -0.90563085197E+02 -0.12901761456E+03  0.19747344920E+03  0.50400001928E-02 0.  1.
</event>
<event>
 5   0  0.1276705E-02  0.5991083E+03  0.7818609E-02  0.9907258E-01
       -1   -1    0    0    0  501  0.00000000000E+00  0.00000000000E+00  0.17722360391E+03  0.17722360398E+03  0.50400001928E-02 0. -1.
        1   -1    0    0  501    0  0.00000000000E+00  0.00000000000E+00 -0.50632471892E+03  0.50632471894E+03  0.50400001928E-02 0.  1.
    10030    2    1    2    0    0  0.00000000000E+00  0.00000000000E+00 -0.32910111501E+03  0.68354832292E+03  0.59910830897E+03 0.  0.
        1    1    3    3  502    0  0.46077072708E+02  0.11141259348E+03 -0.47742035590E+03  0.49240842688E+03  0.50400001928E-02 0.  1.
       -1    1    3    3    0  502 -0.46077072708E+02 -0.11141259348E+03  0.14831924089E+03  0.19113989604E+03  0.50400001928E-02 0. -1.
</event>
<event>
 5   0  0.2179625E-02  0.5995935E+03  0.7818609E-02  0.9906250E-01
        2   -1    0    0  501    0  0.00000000000E+00  0.00000000000E+00  0.13543827679E+04  0.13543827679E+04  0.25500000920E-02 0. -1.
       -2   -1    0    0    0  501  0.00000000000E+00  0.00000000000E+00 -0.66360914881E+02  0.66360914930E+02  0.25500000920E-02 0.  1.
    10030    2    1    2    0    0  0.00000000000E+00  0.00000000000E+00  0.12880218530E+04  0.14207436828E+04  0.59959346098E+03 0.  0.
        1    1    3    3  502    0  0.36433737922E+02 -0.79706400060E+01 -0.60842643094E+02  0.71363685479E+02  0.50400001928E-02 0.  1.
       -1    1    3    3    0  502 -0.36433737922E+02  0.79706400060E+01  0.13488644961E+04  0.13493799973E+04  0.50400001928E-02 0. -1.
</event>
<event>
 5   0  0.2179625E-02  0.5946232E+03  0.7818609E-02  0.9916624E-01
        2   -1    0    0  501    0  0.00000000000E+00  0.00000000000E+00  0.55801441486E+03  0.55801441486E+03  0.25500000920E-02 0.  1.
       -2   -1    0    0    0  501  0.00000000000E+00  0.00000000000E+00 -0.15840841690E+03  0.15840841692E+03  0.25500000920E-02 0. -1.
    10030    2    1    2    0    0  0.00000000000E+00  0.00000000000E+00  0.39960599796E+03  0.71642283178E+03  0.59462317504E+03 0.  0.
        1    1    3    3  502    0 -0.26814769759E+03 -0.12174002143E+03  0.24904464516E+03  0.38567739867E+03  0.50400001928E-02 0.  1.
       -1    1    3    3    0  502  0.26814769759E+03  0.12174002143E+03  0.15056135280E+03  0.33074543311E+03  0.50400001928E-02 0. -1.
</event>
<event>
 5   0  0.2126207E-02  0.6012249E+03  0.7818609E-02  0.9902868E-01
       -2   -1    0    0    0  501  0.00000000000E+00  0.00000000000E+00  0.46349105004E+02  0.46349105074E+02  0.25500000920E-02 0.  1.
        2   -1    0    0  501    0  0.00000000000E+00  0.00000000000E+00 -0.19497216904E+04  0.19497216904E+04  0.25500000920E-02 0. -1.
    10030    2    1    2    0    0  0.00000000000E+00  0.00000000000E+00 -0.19033725854E+04  0.19960707955E+04  0.60122493438E+03 0.  0.
        5    1    3    3  502    0  0.26144629561E+03 -0.88145499034E+02 -0.13476166943E+04  0.13755786562E+04  0.46999998093E+01 0. -1.
       -5    1    3    3    0  502 -0.26144629561E+03  0.88145499034E+02 -0.55575589111E+03  0.62049213934E+03  0.46999998093E+01 0.  1.
</event>
<event>
 5   0  0.2092587E-02  0.6115501E+03  0.7818609E-02  0.9881729E-01
        2   -1    0    0  501    0  0.00000000000E+00  0.00000000000E+00  0.10494710923E+04  0.10494710923E+04  0.25500000920E-02 0.  1.
       -2   -1    0    0    0  501  0.00000000000E+00  0.00000000000E+00 -0.89090965831E+02  0.89090965867E+02  0.25500000920E-02 0. -1.
    10030    2    1    2    0    0  0.00000000000E+00  0.00000000000E+00  0.96038012647E+03  0.11385620582E+04  0.61155013939E+03 0.  0.
        3    1    3    3  502    0  0.19128672634E+03  0.10216100027E+03  0.88153259496E+03  0.90781452281E+03  0.10100000352E+00 0.  1.
       -3    1    3    3    0  502 -0.19128672634E+03 -0.10216100027E+03  0.78847531509E+02  0.23074753536E+03  0.10100000352E+00 0. -1.
</event>
<event>
 5   0  0.1332555E-02  0.5998617E+03  0.7818609E-02  0.9905693E-01
        1   -1    0    0  501    0  0.00000000000E+00  0.00000000000E+00  0.94592253017E+03  0.94592253019E+03  0.50400001928E-02 0.  1.
       -1   -1    0    0    0  501  0.00000000000E+00  0.00000000000E+00 -0.95101345546E+02  0.95101345680E+02  0.50400001928E-02 0. -1.
    10030    2    1    2    0    0  0.00000000000E+00  0.00000000000E+00  0.85082118463E+03  0.10410238759E+04  0.59986166898E+03 0.  0.
        2    1    3    3  502    0  0.27108462020E+03 -0.61770107980E+02  0.62064633113E+03  0.68007667649E+03  0.25500000920E-02 0.  1.
       -2    1    3    3    0  502 -0.27108462020E+03  0.61770107980E+02  0.23017485350E+03  0.36094719938E+03  0.25500000920E-02 0. -1.
</event>
<event>
 5   0  0.1250390E-02  0.6005374E+03  0.7818609E-02  0.9904292E-01
        1   -1    0    0  501    0  0.00000000000E+00  0.00000000000E+00  0.77650327817E+03  0.77650327818E+03  0.50400001928E-02 0.  1.
       -1   -1    0    0    0  501  0.00000000000E+00  0.00000000000E+00 -0.11611192584E+03  0.11611192595E+03  0.50400001928E-02 0. -1.
    10030    2    1    2    0    0  0.00000000000E+00  0.00000000000E+00  0.66039135233E+03  0.89261520413E+03  0.60053739635E+03 0.  0.
        3    1    3    3  502    0 -0.14116688343E+03  0.75840475885E+02  0.70763009357E+03  0.72554822465E+03  0.10100000352E+00 0.  1.
       -3    1    3    3    0  502  0.14116688343E+03 -0.75840475885E+02 -0.47238741244E+02  0.16706697948E+03  0.10100000352E+00 0. -1.
</event>
<event>
 5   0  0.1337051E-02  0.6006462E+03  0.7818609E-02  0.9904066E-01
       -1   -1    0    0    0  501  0.00000000000E+00  0.00000000000E+00  0.40908331484E+02  0.40908331794E+02  0.50400001928E-02 0.  1.
        1   -1    0    0  501    0  0.00000000000E+00  0.00000000000E+00 -0.22047825489E+04  0.22047825489E+04  0.50400001928E-02 0. -1.
    10030    2    1    2    0    0  0.00000000000E+00  0.00000000000E+00 -0.21638742174E+04  0.22456908807E+04  0.60064623770E+03 0.  0.
        5    1    3    3  502    0  0.37774162830E+02 -0.28403584210E+03 -0.74609793717E+03  0.79924180873E+03  0.46999998093E+01 0.  1.
       -5    1    3    3    0  502 -0.37774162830E+02  0.28403584210E+03 -0.14177762802E+04  0.14464490720E+04  0.46999998093E+01 0. -1.
</event>
<event>
 5   0  0.8551000E-03  0.5995080E+03  0.7818609E-02  0.9906427E-01
        3   -1    0    0  501    0  0.00000000000E+00  0.00000000000E+00  0.27021618407E+03  0.27021620295E+03  0.10100000352E+00 0. -1.
       -3   -1    0    0    0  501  0.00000000000E+00  0.00000000000E+00 -0.33252056747E+03  0.33252058281E+03  0.10100000352E+00 0.  1.
    10030    2    1    2    0    0  0.00000000000E+00  0.00000000000E+00 -0.62304383397E+02  0.60273678576E+03  0.59950796218E+03 0.  0.
        1    1    3    3  502    0  0.10973455387E+03 -0.24787738777E+03  0.97472677151E+02  0.28807255076E+03  0.50400001928E-02 0.  1.
       -1    1    3    3    0  502 -0.10973455387E+03  0.24787738777E+03 -0.15977706055E+03  0.31466423500E+03  0.50400001928E-02 0. -1.
</event>
<event>
 5   0  0.1332555E-02  0.6022551E+03  0.7818609E-02  0.9900738E-01
        1   -1    0    0  501    0  0.00000000000E+00  0.00000000000E+00  0.36302295242E+03  0.36302295245E+03  0.50400001928E-02 0.  1.
       -1   -1    0    0    0  501  0.00000000000E+00  0.00000000000E+00 -0.24978530093E+03  0.24978530098E+03  0.50400001928E-02 0. -1.
    10030    2    1    2    0    0  0.00000000000E+00  0.00000000000E+00  0.11323765149E+03  0.61280825344E+03  0.60225508696E+03 0.  0.
        2    1    3    3  502    0 -0.79387294819E+02  0.22067254894E+03  0.24881775269E+03  0.34191956729E+03  0.25500000920E-02 0.  1.
       -2    1    3    3    0  502  0.79387294819E+02 -0.22067254894E+03 -0.13558010120E+03  0.27088868615E+03  0.25500000920E-02 0. -1.
</event>
<event>
 5   0  0.1276705E-02  0.6001043E+03  0.7818609E-02  0.9905190E-01
       -1   -1    0    0    0  501  0.00000000000E+00  0.00000000000E+00  0.44110913775E+03  0.44110913778E+03  0.50400001928E-02 0.  1.
        1   -1    0    0  501    0  0.00000000000E+00  0.00000000000E+00 -0.20410205058E+03  0.20410205064E+03  0.50400001928E-02 0. -1.
    10030    2    1    2    0    0  0.00000000000E+00  0.00000000000E+00  0.23700708717E+03  0.64521118842E+03  0.60010425619E+03 0.  0.
        1    1    3    3  502    0  0.25998132818E+03  0.96430134023E+02 -0.47528660396E+01  0.27732949990E+03  0.50400001928E-02 0. -1.
       -1    1    3    3    0  502 -0.25998132818E+03 -0.96430134023E+02  0.24175995321E+03  0.36788168852E+03  0.50400001928E-02 0.  1.
</event>
<event>
 5   0  0.2179625E-02  0.5964922E+03  0.7818609E-02  0.9912710E-01
       -2   -1    0    0    0  501  0.00000000000E+00  0.00000000000E+00  0.44946190522E+02  0.44946190595E+02  0.25500000920E-02 0.  1.
        2   -1    0    0  501    0  0.00000000000E+00  0.00000000000E+00 -0.19790495743E+04  0.19790495743E+04  0.25500000920E-02 0. -1.
    10030    2    1    2    0    0  0.00000000000E+00  0.00000000000E+00 -0.19341033838E+04  0.20239957649E+04  0.59649221049E+03 0.  0.
        1    1    3    3  502    0  0.23477039104E+03 -0.88730704551E+02 -0.42033660964E+03  0.48956423467E+03  0.50400001928E-02 0.  1.
       -1    1    3    3    0  502 -0.23477039104E+03  0.88730704551E+02 -0.15137667741E+04  0.15344315302E+04  0.50400001928E-02 0. -1.
</event>
<event>
 5   0  0.1250390E-02  0.6007507E+03  0.7818609E-02  0.9903850E-01
       -1   -1    0    0    0  501  0.00000000000E+00  0.00000000000E+00  0.67721723349E+02  0.67721723536E+02  0.50400001928E-02 0. -1.
        1   -1    0    0  501    0  0.00000000000E+00  0.00000000000E+00 -0.13322955982E+04  0.13322955982E+04  0.50400001928E-02 0.  1.
    10030    2    1    2    0    0  0.00000000000E+00  0.00000000000E+00 -0.12645738748E+04  0.14000173217E+04  0.60075071055E+03 0.  0.
        3    1    3    3  502    0 -0.10512959988E+03  0.19420762218E+03 -0.15778773356E+03  0.27141446599E+03  0.10100000352E+00 0. -1.
       -3    1    3    3    0  502  0.10512959988E+03 -0.19420762218E+03 -0.11067861413E+04  0.11286028557E+04  0.10100000352E+00 0.  1.
</event>
<event>
 5   0  0.2141800E-02  0.5958867E+03  0.7818609E-02  0.9913977E-01
        2   -1    0    0  501    0  0.00000000000E+00  0.00000000000E+00  0.11314601382E+04  0.11314601382E+04  0.25500000920E-02 0.  1.
       -2   -1    0    0    0  501  0.00000000000E+00  0.00000000000E+00 -0.78456354036E+02  0.78456354077E+02  0.25500000920E-02 0. -1.
    10030    2    1    2    0    0  0.00000000000E+00  0.00000000000E+00  0.10530037842E+04  0.12099164923E+04  0.59588669126E+03 0.  0.
        2    1    3    3  502    0 -0.21030411450E+03  0.50335050322E+02  0.94266333942E+03  0.96714818377E+03  0.25500000920E-02 0.  1.
       -2    1    3    3    0  502  0.21030411450E+03 -0.50335050322E+02  0.11034044473E+03  0.24276830851E+03  0.25500000920E-02 0. -1.
</event>
<event>
 5   0  0.1337051E-02  0.6017047E+03  0.7818609E-02  0.9901876E-01
       -1   -1    0    0    0  501  0.00000000000E+00  0.00000000000E+00  0.17209879038E+03  0.17209879046E+03  0.50400001928E-02 0.  1.
        1   -1    0    0  501    0  0.00000000000E+00  0.00000000000E+00 -0.52593120996E+03  0.52593120998E+03  0.50400001928E-02 0. -1.
    10030    2    1    2    0    0  0.00000000000E+00  0.00000000000E+00 -0.35383241958E+03  0.69803000044E+03  0.60170466208E+03 0.  0.
        5    1    3    3  502    0  0.65264398767E+02  0.60405124422E+02 -0.51029112784E+03  0.51800322967E+03  0.46999998093E+01 0. -1.
       -5    1    3    3    0  502 -0.65264398767E+02 -0.60405124422E+02  0.15645870826E+03  0.18002677077E+03  0.46999998093E+01 0.  1.
</event>
<event>
 5   0  0.2142838E-02  0.6024729E+03  0.7818609E-02  0.9900289E-01
       -2   -1    0    0    0  501  0.00000000000E+00  0.00000000000E+00  0.16555154680E+03  0.16555154682E+03  0.25500000920E-02 0. -1.
        2   -1    0    0  501    0  0.00000000000E+00  0.00000000000E+00 -0.54812768625E+03  0.54812768625E+03  0.25500000920E-02 0.  1.
    10030    2    1    2    0    0  0.00000000000E+00  0.00000000000E+00 -0.38257613944E+03  0.71367923307E+03  0.60247285852E+03 0.  0.
        4    1    3    3  502    0  0.27234689273E+03  0.12684045957E+03 -0.21725291366E+03  0.37075837625E+03  0.12699999809E+01 0.  1.
       -4    1    3    3    0  502 -0.27234689273E+03 -0.12684045957E+03 -0.16532322578E+03  0.34292085683E+03  0.12699999809E+01 0. -1.
</event>
<event>
 5   0  0.2179625E-02  0.5931750E+03  0.7818609E-02  0.9919668E-01
       -2   -1    0    0    0  501  0.00000000000E+00  0.00000000000E+00  0.11666800719E+03  0.11666800721E+03  0.25500000920E-02 0. -1.
        2   -1    0    0  501    0  0.00000000000E+00  0.00000000000E+00 -0.75396962392E+03  0.75396962393E+03  0.25500000920E-02 0.  1.
    10030    2    1    2    0    0  0.00000000000E+00  0.00000000000E+00 -0.63730161674E+03  0.87063763114E+03  0.59317496075E+03 0.  0.
        1    1    3    3  502    0 -0.12307880677E+03 -0.20222768635E+03 -0.58088181971E+03  0.62727037097E+03  0.50400001928E-02 0.  1.
       -1    1    3    3    0  502  0.12307880677E+03  0.20222768635E+03 -0.56419797028E+02  0.24336726017E+03  0.50400001928E-02 0. -1.
</event>
<event>
 5   0  0.2179625E-02  0.6008088E+03  0.7818609E-02  0.9903729E-01
        2   -1    0    0  501    0  0.00000000000E+00  0.00000000000E+00  0.15246919789E+04  0.15246919789E+04  0.25500000920E-02 0.  1.
       -2   -1    0    0    0  501  0.00000000000E+00  0.00000000000E+00 -0.59187571927E+02  0.59187571982E+02  0.25500000920E-02 0. -1.
    10030    2    1    2    0    0  0.00000000000E+00  0.00000000000E+00  0.14655044070E+04  0.15838795509E+04  0.60080884219E+03 0.  0.
        1    1    3    3  502    0 -0.26689864397E+03  0.31744880371E+02  0.37906087503E+03  0.46468244058E+03  0.50400001928E-02 0. -1.
       -1    1    3    3    0  502  0.26689864397E+03 -0.31744880371E+02  0.10864435320E+04  0.11191971103E+04  0.50400001928E-02 0.  1.
</event>
<event>
 5   0  0.1332555E-02  0.5983887E+03  0.7818609E-02  0.9908755E-01
       -1   -1    0    0    0  501  0.00000000000E+00  0.00000000000E+00  0.32503136770E+03  0.32503136773E+03  0.50400001928E-02 0. -1.
        1   -1    0    0  501    0  0.00000000000E+00  0.00000000000E+00 -0.27541116368E+03  0.27541116372E+03  0.50400001928E-02 0.  1.
    10030    2    1    2    0    0  0.00000000000E+00  0.00000000000E+00  0.49620204018E+02  0.60044253146E+03  0.59838872728E+03 0.  0.
        2    1    3    3  502    0 -0.28522878158E+03  0.67977858831E+02 -0.34898922308E+02  0.29528694843E+03  0.25500000920E-02 0.  1.
       -2    1    3    3    0  502  0.28522878158E+03 -0.67977858831E+02  0.84519126327E+02  0.30515558303E+03  0.25500000920E-02 0. -1.
</event>
<event>
 5   0  0.2142838E-02  0.6172163E+03  0.7818609E-02  0.9870318E-01
        2   -1    0    0  501    0  0.00000000000E+00  0.00000000000E+00  0.11056094818E+04  0.11056094818E+04  0.25500000920E-02 0. -1.
       -2   -1    0    0    0  501  0.00000000000E+00  0.00000000000E+00 -0.86141629120E+02  0.86141629158E+02  0.25500000920E-02 0.  1.
    10030    2    1    2    0    0  0.00000000000E+00  0.00000000000E+00  0.10194678527E+04  0.11917511109E+04  0.61721633794E+03 0.  0.
        4    1    3    3  502    0  0.29733179123E+03 -0.10478439740E+02  0.35143501250E+03  0.46046082644E+03  0.12699999809E+01 0. -1.
       -4    1    3    3    0  502 -0.29733179123E+03  0.10478439740E+02  0.66803284015E+03  0.73129028449E+03  0.12699999809E+01 0.  1.
</event>
<event>
 5   0  0.2142838E-02  0.5949711E+03  0.7818609E-02  0.9915895E-01
        2   -1    0    0  501    0  0.00000000000E+00  0.00000000000E+00  0.10431784362E+03  0.10431784365E+03  0.25500000920E-02 0. -1.
       -2   -1    0    0    0  501  0.00000000000E+00  0.00000000000E+00 -0.84834613144E+03  0.84834613144E+03  0.25500000920E-02 0.  1.
    10030    2    1    2    0    0  0.00000000000E+00  0.00000000000E+00 -0.74402828781E+03  0.95266397510E+03  0.59497105508E+03 0.  0.
        4    1    3    3  502    0 -0.89539542145E+02 -0.28343883598E+03 -0.35299274022E+03  0.46147631673E+03  0.12699999809E+01 0. -1.
       -4    1    3    3    0  502  0.89539542145E+02  0.28343883598E+03 -0.39103554759E+03  0.49118765837E+03  0.12699999809E+01 0.  1.
</event>
<event>
 5   0  0.8551000E-03  0.5999997E+03  0.7818609E-02  0.9905407E-01
       -4   -1    0    0    0  501  0.00000000000E+00  0.00000000000E+00  0.54212931997E+03  0.54213080753E+03  0.12699999809E+01 0. -1.
        4   -1    0    0  501    0  0.00000000000E+00  0.00000000000E+00 -0.16600774773E+03  0.16601260557E+03  0.12699999809E+01 0.  1.
    10030    2    1    2    0    0  0.00000000000E+00  0.00000000000E+00  0.37612157223E+03  0.70814341309E+03  0.59999971367E+03 0.  0.
        1    1    3    3  502    0  0.60449339965E+02  0.22536489534E+03  0.41061171240E+03  0.47227686492E+03  0.50400001928E-02 0. -1.
       -1    1    3    3    0  502 -0.60449339965E+02 -0.22536489534E+03 -0.34490140172E+02  0.23586654817E+03  0.50400001928E-02 0.  1.
</event>
<event>
 5   0  0.2179625E-02  0.6004681E+03  0.7818609E-02  0.9904435E-01
        2   -1    0    0  501    0  0.00000000000E+00  0.00000000000E+00  0.60671891413E+03  0.60671891413E+03  0.25500000920E-02 0.  1.
       -2   -1    0    0    0  501  0.00000000000E+00  0.00000000000E+00 -0.14857043494E+03  0.14857043497E+03  0.25500000920E-02 0. -1.
    10030    2    1    2    0    0  0.00000000000E+00  0.00000000000E+00  0.45814847918E+03  0.75528934910E+03  0.60046812728E+03 0.  0.
        1    1    3    3  502    0 -0.24028620194E+03 -0.29659565604E+02  0.57481082019E+01  0.24217801190E+03  0.50400001928E-02 0. -1.
       -1    1    3    3    0  502  0.24028620194E+03  0.29659565604E+02  0.45240037098E+03  0.51311133720E+03  0.50400001928E-02 0.  1.
</event>
<event>
 5   0  0.1250390E-02  0.5974741E+03  0.7818609E-02  0.9910660E-01
       -1   -1    0    0    0  501  0.00000000000E+00  0.00000000000E+00  0.60367725072E+03  0.60367725074E+03  0.50400001928E-02 0.  1.
        1   -1    0    0  501    0  0.00000000000E+00  0.00000000000E+00 -0.14783369005E+03  0.14783369013E+03  0.50400001928E-02 0. -1.
    10030    2    1    2    0    0  0.00000000000E+00  0.00000000000E+00  0.45584356067E+03  0.75151094087E+03  0.59747413537E+03 0.  0.
        3    1    3    3  502    0  0.23371031383E+03  0.11985398709E+03  0.48894964477E+02  0.26716327735E+03  0.10100000352E+00 0. -1.
       -3    1    3    3    0  502 -0.23371031383E+03 -0.11985398709E+03  0.40694859620E+03  0.48434766352E+03  0.10100000352E+00 0.  1.
</event>
<event>
 5   0  0.1337051E-02  0.6002844E+03  0.7818609E-02  0.9904816E-01
       -1   -1    0    0    0  501  0.00000000000E+00  0.00000000000E+00  0.10193501249E+04  0.10193501250E+04  0.50400001928E-02 0.  1.
        1   -1    0    0  501    0  0.00000000000E+00  0.00000000000E+00 -0.88375256440E+02  0.88375256584E+02  0.50400001928E-02 0. -1.
    10030    2    1    2    0    0  0.00000000000E+00  0.00000000000E+00  0.93097486850E+03  0.11077253815E+04  0.60028436188E+03 0.  0.
        5    1    3    3  502    0 -0.11447958892E+03  0.33562805950E+02  0.97364575726E+03  0.98093842255E+03  0.46999998093E+01 0.  1.
       -5    1    3    3    0  502  0.11447958892E+03 -0.33562805950E+02 -0.42670888753E+02  0.12678695898E+03  0.46999998093E+01 0. -1.
</event>
<event>
 5   0  0.1250390E-02  0.5988041E+03  0.7818609E-02  0.9907890E-01
        1   -1    0    0  501    0  0.00000000000E+00  0.00000000000E+00  0.75198328517E+03  0.75198328518E+03  0.50400001928E-02 0. -1.
       -1   -1    0    0    0  501  0.00000000000E+00  0.00000000000E+00 -0.11920688255E+03  0.11920688265E+03  0.50400001928E-02 0.  1.
    10030    2    1    2    0    0  0.00000000000E+00  0.00000000000E+00  0.63277640262E+03  0.87119016783E+03  0.59880408551E+03 0.  0.
        3    1    3    3  502    0 -0.13231129788E+03  0.16412981497E+02  0.70641070658E+03  0.71888230057E+03  0.10100000352E+00 0. -1.
       -3    1    3    3    0  502  0.13231129788E+03 -0.16412981497E+02 -0.73634303958E+02  0.15230786726E+03  0.10100000352E+00 0.  1.
</event>
<event>
 5   0  0.8551000E-03  0.5997721E+03  0.7818609E-02  0.9905879E-01
        4   -1    0    0  501    0  0.00000000000E+00  0.00000000000E+00  0.56073931555E+03  0.56074075373E+03  0.12699999809E+01 0.  1.
       -4   -1    0    0    0  501  0.00000000000E+00  0.00000000000E+00 -0.16037631459E+03  0.16038134300E+03  0.12699999809E+01 0. -1.
    10030    2    1    2    0    0  0.00000000000E+00  0.00000000000E+00  0.40036300096E+03  0.72112209673E+03  0.59977207826E+03 0.  0.
        3    1    3    3  502    0 -0.38561602500E+02  0.25590239154E+03  0.18003800834E+02  0.25941699680E+03  0.10100000352E+00 0. -1.
       -3    1    3    3    0  502  0.38561602500E+02 -0.25590239154E+03  0.38235920012E+03  0.46170509993E+03  0.10100000352E+00 0.  1.
</event>
<event>
 5   0  0.2092587E-02  0.6026172E+03  0.7818609E-02  0.9899991E-01
        2   -1    0    0  501    0  0.00000000000E+00  0.00000000000E+00  0.78532569726E+03  0.78532569726E+03  0.25500000920E-02 0. -1.
       -2   -1    0    0    0  501  0.00000000000E+00  0.00000000000E+00 -0.11560412137E+03  0.11560412140E+03  0.25500000920E-02 0.  1.
    10030    2    1    2    0    0  0.00000000000E+00  0.00000000000E+00  0.66972157589E+03  0.90092981867E+03  0.60261724913E+03 0.  0.
        3    1    3    3  502    0  0.12611591465E+03  0.80723028042E+02  0.72576263982E+03  0.74104848069E+03  0.10100000352E+00 0. -1.
       -3    1    3    3    0  502 -0.12611591465E+03 -0.80723028042E+02 -0.56041063930E+02  0.15988133797E+03  0.10100000352E+00 0.  1.
</event>
<event>
 5   0  0.2126207E-02  0.6022679E+03  0.7818609E-02  0.9900712E-01
        2   -1    0    0  501    0  0.00000000000E+00  0.00000000000E+00  0.14660884132E+04  0.14660884132E+04  0.25500000920E-02 0. -1.
       -2   -1    0    0    0  501  0.00000000000E+00  0.00000000000E+00 -0.61852789704E+02  0.61852789757E+02  0.25500000920E-02 0.  1.
    10030    2    1    2    0    0  0.00000000000E+00  0.00000000000E+00  0.14042356235E+04  0.15279412029E+04  0.60226790833E+03 0.  0.
        5    1    3    3  502    0  0.10328616052E+03  0.14307362073E+03  0.83170376626E+02  0.19513455217E+03  0.46999998093E+01 0.  1.
       -5    1    3    3    0  502 -0.10328616052E+03 -0.14307362073E+03  0.13210652468E+04  0.13328066508E+04  0.46999998093E+01 0. -1.
</event>
<event>
 5   0  0.2141800E-02  0.5985421E+03  0.7818609E-02  0.9908435E-01
       -2   -1    0    0    0  501  0.00000000000E+00  0.00000000000E+00  0.67030106413E+02  0.67030106461E+02  0.25500000920E-02 0.  1.
        2   -1    0    0  501    0  0.00000000000E+00  0.00000000000E+00 -0.13361630415E+04  0.13361630415E+04  0.25500000920E-02 0. -1.
    10030    2    1    2    0    0  0.00000000000E+00  0.00000000000E+00 -0.12691329351E+04  0.14031931480E+04  0.59854206500E+03 0.  0.
        2    1    3    3  502    0  0.82409845111E+02  0.28289243084E+03 -0.51176984817E+03  0.59053186832E+03  0.25500000920E-02 0. -1.
       -2    1    3    3    0  502 -0.82409845111E+02 -0.28289243084E+03 -0.75736308693E+03  0.81266127965E+03  0.25500000920E-02 0.  1.
</event>
<event>
 5   0  0.1332555E-02  0.5986737E+03  0.7818609E-02  0.9908162E-01
       -1   -1    0    0    0  501  0.00000000000E+00  0.00000000000E+00  0.61271585356E+02  0.61271585563E+02  0.50400001928E-02 0.  1.
        1   -1    0    0  501    0  0.00000000000E+00  0.00000000000E+00 -0.14623834542E+04  0.14623834542E+04  0.50400001928E-02 0. -1.
    10030    2    1    2    0    0  0.00000000000E+00  0.00000000000E+00 -0.14011118688E+04  0.15236550398E+04  0.59867371013E+03 0.  0.
        2    1    3    3  502    0 -0.17880515695E+03  0.78176903879E+02 -0.12288186071E+03  0.23061410224E+03  0.25500000920E-02 0.  1.
       -2    1    3    3    0  502  0.17880515695E+03 -0.78176903879E+02 -0.12782300081E+04  0.12930409375E+04  0.25500000920E-02 0. -1.
</event>
<event>
 5   0  0.2179625E-02  0.5977558E+03  0.7818609E-02  0.9910073E-01
       -2   -1    0    0    0  501  0.00000000000E+00  0.00000000000E+00  0.29809242516E+03  0.29809242517E+03  0.25500000920E-02 0.  1.
        2   -1    0    0  501    0  0.00000000000E+00  0.00000000000E+00 -0.29966542201E+03  0.29966542202E+03  0.25500000920E-02 0. -1.
    10030    2    1    2    0    0  0.00000000000E+00  0.00000000000E+00 -0.15729968536E+01  0.59775784719E+03  0.59775577752E+03 0.  0.
        1    1    3    3  502    0  0.21971923134E+03 -0.15316209892E+03  0.13185190109E+03  0.29852988629E+03  0.50400001928E-02 0.  1.
       -1    1    3    3    0  502 -0.21971923134E+03  0.15316209892E+03 -0.13342489794E+03  0.29922796089E+03  0.50400001928E-02 0. -1.
</event>
<event>
 5   0  0.8551000E-03  0.5986938E+03  0.7818609E-02  0.9908120E-01
        3   -1    0    0  501    0  0.00000000000E+00  0.00000000000E+00  0.58653349029E+03  0.58653349899E+03  0.10100000352E+00 0. -1.
       -3   -1    0    0    0  501  0.00000000000E+00  0.00000000000E+00 -0.15277651699E+03  0.15277655038E+03  0.10100000352E+00 0.  1.
    10030    2    1    2    0    0  0.00000000000E+00  0.00000000000E+00  0.43375697330E+03  0.73931004937E+03  0.59869377582E+03 0.  0.
        2    1    3    3  502    0 -0.93929018091E+02 -0.15066064933E+03  0.51449864293E+03  0.54427028697E+03  0.25500000920E-02 0. -1.
       -2    1    3    3    0  502  0.93929018091E+02  0.15066064933E+03 -0.80741669628E+02  0.19503976240E+03  0.25500000920E-02 0.  1.
</event>
<event>
 5   0  0.8551000E-03  0.5992087E+03  0.7818609E-02  0.9907049E-01
        4   -1    0    0  501    0  0.00000000000E+00  0.00000000000E+00  0.10700856795E+03  0.10701610399E+03  0.12699999809E+01 0. -1.
       -4   -1    0    0    0  501  0.00000000000E+00  0.00000000000E+00 -0.83879951275E+03  0.83880047418E+03  0.12699999809E+01 0.  1.
    10030    2    1    2    0    0  0.00000000000E+00  0.00000000000E+00 -0.73179094481E+03  0.94581657818E+03  0.59920865536E+03 0.  0.
        4    1    3    3  502    0  0.26836961044E+03  0.11180782275E+03 -0.25165826467E+03  0.38452143258E+03  0.12699999809E+01 0. -1.
       -4    1    3    3    0  502 -0.26836961044E+03 -0.11180782275E+03 -0.48013268013E+03  0.56129514559E+03  0.12699999809E+01 0.  1.
</event>
<event>
 5   0  0.1276705E-02  0.6055293E+03  0.7818609E-02  0.9894000E-01
        1   -1    0    0  501    0  0.00000000000E+00  0.00000000000E+00  0.14888992699E+04  0.14888992699E+04  0.50400001928E-02 0.  1.
       -1   -1    0    0    0  501  0.00000000000E+00  0.00000000000E+00 -0.61566576153E+02  0.61566576359E+02  0.50400001928E-02 0. -1.
    10030    2    1    2    0    0  0.00000000000E+00  0.00000000000E+00  0.14273326937E+04  0.15504658462E+04  0.60552929062E+03 0.  0.
        1    1    3    3  502    0  0.25886604336E+03 -0.42365779509E+02  0.32652940280E+03  0.41884118541E+03  0.50400001928E-02 0.  1.
       -1    1    3    3    0  502 -0.25886604336E+03  0.42365779509E+02  0.11008032909E+04  0.11316246608E+04  0.50400001928E-02 0. -1.
</event>
<event>
 5   0  0.8551000E-03  0.6018557E+03  0.7818609E-02  0.9901564E-01
       -3   -1    0    0    0  501  0.00000000000E+00  0.00000000000E+00  0.84113434956E+02  0.84113495594E+02  0.10100000352E+00 0.  1.
        3   -1    0    0  501    0  0.00000000000E+00  0.00000000000E+00 -0.10766118358E+04  0.10766118406E+04  0.10100000352E+00 0. -1.
    10030    2    1    2    0    0  0.00000000000E+00  0.00000000000E+00 -0.99249840087E+03  0.11607253362E+04  0.60185565567E+03 0.  0.
        3    1    3    3  502    0 -0.25094421352E+03  0.16601802995E+03 -0.50541000482E+03  0.58819577331E+03  0.10100000352E+00 0.  1.
       -3    1    3    3    0  502  0.25094421352E+03 -0.16601802995E+03 -0.48708839605E+03  0.57252956285E+03  0.10100000352E+00 0. -1.
</event>
<event>
 5   0  0.1250390E-02  0.6015476E+03  0.7818609E-02  0.9902201E-01
       -1   -1    0    0    0  501  0.00000000000E+00  0.00000000000E+00  0.77632712534E+03  0.77632712536E+03  0.50400001928E-02 0.  1.
        1   -1    0    0  501    0  0.00000000000E+00  0.00000000000E+00 -0.11652931424E+03  0.11652931435E+03  0.50400001928E-02 0. -1.
    10030    2    1    2    0    0  0.00000000000E+00  0.00000000000E+00  0.65979781111E+03  0.89285643971E+03  0.60154756286E+03 0.  0.
        3    1    3    3  502    0  0.11117327113E+03  0.82969753147E+02  0.72600986612E+03  0.73914397248E+03  0.10100000352E+00 0.  1.
       -3    1    3    3    0  502 -0.11117327113E+03 -0.82969753147E+02 -0.66212055009E+02  0.15371246723E+03  0.10100000352E+00 0. -1.
</event>
<event>
 5   0  0.1332555E-02  0.5991596E+03  0.7818609E-02  0.9907151E-01
       -1   -1    0    0    0  501  0.00000000000E+00  0.00000000000E+00  0.13310426891E+03  0.13310426901E+03  0.50400001928E-02 0.  1.
        1   -1    0    0  501    0  0.00000000000E+00  0.00000000000E+00 -0.67426878957E+03  0.67426878959E+03  0.50400001928E-02 0. -1.
    10030    2    1    2    0    0  0.00000000000E+00  0.00000000000E+00 -0.54116452065E+03  0.80737305860E+03  0.59915959254E+03 0.  0.
        2    1    3    3  502    0  0.15613772098E+03  0.83541371431E+02 -0.59619442637E+03  0.62193724980E+03  0.25500000920E-02 0. -1.
       -2    1    3    3    0  502 -0.15613772098E+03 -0.83541371431E+02  0.55029905712E+02  0.18543580880E+03  0.25500000920E-02 0.  1.
</event>
<event>
 5   0  0.1250390E-02  0.5982415E+03  0.7818609E-02  0.9909061E-01
       -1   -1    0    0    0  501  0.00000000000E+00  0.00000000000E+00  0.53147260735E+03  0.53147260737E+03  0.50400001928E-02 0. -1.
        1   -1    0    0  501    0  0.00000000000E+00  0.00000000000E+00 -0.16834964181E+03  0.16834964189E+03  0.50400001928E-02 0.  1.
    10030    2    1    2    0    0  0.00000000000E+00  0.00000000000E+00  0.36312296553E+03  0.69982224926E+03  0.59824150012E+03 0.  0.
        3    1    3    3  502    0  0.26367652545E+03 -0.11113664407E+03  0.79603933948E+02  0.29700750871E+03  0.10100000352E+00 0.  1.
       -3    1    3    3    0  502 -0.26367652545E+03  0.11113664407E+03  0.28351903159E+03  0.40281474055E+03  0.10100000352E+00 0. -1.
</event>
<event>
 5   0  0.1303808E-02  0.5973348E+03  0.7818609E-02  0.9910951E-01
       -1   -1    0    0    0  501  0.00000000000E+00  0.00000000000E+00  0.20073405231E+03  0.20073405238E+03  0.50400001928E-02 0.  1.
        1   -1    0    0  501    0  0.00000000000E+00  0.00000000000E+00 -0.44438011795E+03  0.44438011798E+03  0.50400001928E-02 0. -1.
    10030    2    1    2    0    0  0.00000000000E+00  0.00000000000E+00 -0.24364606564E+03  0.64511417035E+03  0.59733482026E+03 0.  0.
        4    1    3    3  502    0  0.93926942372E+02  0.92446393789E+02 -0.41127582110E+03  0.43187732072E+03  0.12699999809E+01 0. -1.
       -4    1    3    3    0  502 -0.93926942372E+02 -0.92446393789E+02  0.16762975546E+03  0.21323684964E+03  0.12699999809E+01 0.  1.
</event>
<event>
 5   0  0.8551000E-03  0.6007161E+03  0.7818609E-02  0.9903922E-01
       -4   -1    0    0    0  501  0.00000000000E+00  0.00000000000E+00  0.19268523868E+03  0.19268942396E+03  0.12699999809E+01 0.  1.
        4   -1    0    0  501    0  0.00000000000E+00  0.00000000000E+00 -0.46818844294E+03  0.46819016542E+03  0.12699999809E+01 0. -1.
    10030    2    1    2    0    0  0.00000000000E+00  0.00000000000E+00 -0.27550320426E+03  0.66087958938E+03  0.60071608611E+03 0.  0.
        5    1    3    3  502    0  0.15271843283E+02  0.17155873726E+03 -0.40841435415E+03  0.44327193031E+03  0.46999998093E+01 0. -1.
       -5    1    3    3    0  502 -0.15271843283E+02 -0.17155873726E+03  0.13291114989E+03  0.21760765908E+03  0.46999998093E+01 0.  1.
</event>
<event>
 5   0  0.2141800E-02  0.5988917E+03  0.7818609E-02  0.9907708E-01
       -2   -1    0    0    0  501  0.00000000000E+00  0.00000000000E+00  0.15577051071E+03  0.15577051073E+03  0.25500000920E-02 0.  1.
        2   -1    0    0  501    0  0.00000000000E+00  0.00000000000E+00 -0.57564049874E+03  0.57564049874E+03  0.25500000920E-02 0. -1.
    10030    2    1    2    0    0  0.00000000000E+00  0.00000000000E+00 -0.41986998802E+03  0.73141100948E+03  0.59889169133E+03 0.  0.
        2    1    3    3  502    0 -0.20414345596E+03  0.26278921618E+02 -0.47555212937E+03  0.51818429163E+03  0.25500000920E-02 0. -1.
       -2    1    3    3    0  502  0.20414345596E+03 -0.26278921618E+02  0.55682141351E+02  0.21322671785E+03  0.25500000920E-02 0.  1.
</event>
<event>
 5   0  0.1332555E-02  0.5991760E+03  0.7818609E-02  0.9907117E-01
       -1   -1    0    0    0  501  0.00000000000E+00  0.00000000000E+00  0.58145830173E+03  0.58145830175E+03  0.50400001928E-02 0. -1.
        1   -1    0    0  501    0  0.00000000000E+00  0.00000000000E+00 -0.15435837258E+03  0.15435837266E+03  0.50400001928E-02 0.  1.
    10030    2    1    2    0    0  0.00000000000E+00  0.00000000000E+00  0.42709992915E+03  0.73581667441E+03  0.59917595818E+03 0.  0.
        2    1    3    3  502    0  0.23974514011E+03  0.13759801747E+03  0.71701092541E+02  0.28557309624E+03  0.25500000920E-02 0.  1.
       -2    1    3    3    0  502 -0.23974514011E+03 -0.13759801747E+03  0.35539883661E+03  0.45024357817E+03  0.25500000920E-02 0. -1.
</event>
<event>
 5   0  0.1337051E-02  0.5993485E+03  0.7818609E-02  0.9906759E-01
       -1   -1    0    0    0  501  0.00000000000E+00  0.00000000000E+00  0.19342259616E+03  0.19342259622E+03  0.50400001928E-02 0.  1.
        1   -1    0    0  501    0  0.00000000000E+00  0.00000000000E+00 -0.46429241961E+03  0.46429241964E+03  0.50400001928E-02 0. -1.
    10030    2    1    2    0    0  0.00000000000E+00  0.00000000000E+00 -0.27086982345E+03  0.65771501586E+03  0.59934846361E+03 0.  0.
        5    1    3    3  502    0 -0.23421159356E+03 -0.97089047085E+02  0.39807282694E+02  0.25668670277E+03  0.46999998093E+01 0.  1.
       -5    1    3    3    0  502  0.23421159356E+03  0.97089047085E+02 -0.31067710615E+03  0.40102831310E+03  0.46999998093E+01 0. -1.
</event>
<event>
 5   0  0.1337051E-02  0.6002665E+03  0.7818609E-02  0.9904853E-01
        1   -1    0    0  501    0  0.00000000000E+00  0.00000000000E+00  0.63371909648E+03  0.63371909650E+03  0.50400001928E-02 0. -1.
       -1   -1    0    0    0  501  0.00000000000E+00  0.00000000000E+00 -0.14214496011E+03  0.14214496020E+03  0.50400001928E-02 0.  1.
    10030    2    1    2    0    0  0.00000000000E+00  0.00000000000E+00  0.49157413637E+03  0.77586405670E+03  0.60026652657E+03 0.  0.
        5    1    3    3  502    0  0.21590652661E+03  0.14931671173E+03  0.57827862631E+02  0.26884430500E+03  0.46999998093E+01 0.  1.
       -5    1    3    3    0  502 -0.21590652661E+03 -0.14931671173E+03  0.43374627374E+03  0.50701975170E+03  0.46999998093E+01 0. -1.
</event>
<event>
 5   0  0.2092587E-02  0.6007632E+03  0.7818609E-02  0.9903824E-01
       -2   -1    0    0    0  501  0.00000000000E+00  0.00000000000E+00  0.57346729462E+02  0.57346729518E+02  0.25500000920E-02 0.  1.
        2   -1    0    0  501    0  0.00000000000E+00  0.00000000000E+00 -0.15733956838E+04  0.15733956838E+04  0.25500000920E-02 0. -1.
    10030    2    1    2    0    0  0.00000000000E+00  0.00000000000E+00 -0.15160489544E+04  0.16307424133E+04  0.60076317019E+03 0.  0.
        3    1    3    3  502    0 -0.26410910871E+03  0.67587735035E+02 -0.41566593741E+03  0.49709144526E+03  0.10100000352E+00 0.  1.
       -3    1    3    3    0  502  0.26410910871E+03 -0.67587735035E+02 -0.11003830169E+04  0.11336509681E+04  0.10100000352E+00 0. -1.
</event>
<event>
 5   0  0.2092587E-02  0.6016941E+03  0.7818609E-02  0.9901898E-01
        2   -1    0    0  501    0  0.00000000000E+00  0.00000000000E+00  0.37455530775E+03  0.37455530776E+03  0.25500000920E-02 0.  1.
       -2   -1    0    0    0  501  0.00000000000E+00  0.00000000000E+00 -0.24164374375E+03  0.24164374376E+03  0.25500000920E-02 0. -1.
    10030    2    1    2    0    0  0.00000000000E+00  0.00000000000E+00  0.13291156400E+03  0.61619905152E+03  0.60169409773E+03 0.  0.
        3    1    3    3  502    0 -0.28301799237E+03 -0.68914029833E+02  0.14350652955E+03  0.32471905047E+03  0.10100000352E+00 0.  1.
       -3    1    3    3    0  502  0.28301799237E+03  0.68914029833E+02 -0.10594965545E+02  0.29148000105E+03  0.10100000352E+00 0. -1.
</event>
<event>
 5   0  0.2142838E-02  0.6015663E+03  0.7818609E-02  0.9902162E-01
       -2   -1    0    0    0  501  0.00000000000E+00  0.00000000000E+00  0.71502745292E+02  0.71502745338E+02  0.25500000920E-02 0. -1.
        2   -1    0    0  501    0  0.00000000000E+00  0.00000000000E+00 -0.12652732253E+04  0.12652732253E+04  0.25500000920E-02 0.  1.
    10030    2    1    2    0    0  0.00000000000E+00  0.00000000000E+00 -0.11937704800E+04  0.13367759706E+04  0.60156631949E+03 0.  0.
        4    1    3    3  502    0  0.11933691611E+03  0.20551269646E+03 -0.18718681338E+03  0.30251823740E+03  0.12699999809E+01 0. -1.
       -4    1    3    3    0  502 -0.11933691611E+03 -0.20551269646E+03 -0.10065836666E+04  0.10342577332E+04  0.12699999809E+01 0.  1.
</event>
<event>
 5   0  0.2092587E-02  0.5986450E+03  0.7818609E-02  0.9908221E-01
        2   -1    0    0  501    0  0.00000000000E+00  0.00000000000E+00  0.20768960751E+04  0.20768960751E+04  0.25500000920E-02 0. -1.
       -2   -1    0    0    0  501  0.00000000000E+00  0.00000000000E+00 -0.43138397828E+02  0.43138397903E+02  0.25500000920E-02 0.  1.
    10030    2    1    2    0    0  0.00000000000E+00  0.00000000000E+00  0.20337576773E+04  0.21200344730E+04  0.59864503411E+03 0.  0.
        3    1    3    3  502    0 -0.33828548777E+02 -0.59013478612E+02 -0.15403922585E+02  0.69744192605E+02  0.10100000352E+00 0.  1.
       -3    1    3    3    0  502  0.33828548777E+02  0.59013478612E+02  0.20491615998E+04  0.20502902804E+04  0.10100000352E+00 0. -1.
</event>
<event>
 5   0  0.2179625E-02  0.6010778E+03  0.7818609E-02  0.9903172E-01
        2   -1    0    0  501    0  0.00000000000E+00  0.00000000000E+00  0.18852222066E+03  0.18852222068E+03  0.25500000920E-02 0.  1.
       -2   -1    0    0    0  501  0.00000000000E+00  0.00000000000E+00 -0.47911399809E+03  0.47911399810E+03  0.25500000920E-02 0. -1.
    10030    2    1    2    0    0  0.00000000000E+00  0.00000000000E+00 -0.29059177743E+03  0.66763621878E+03  0.60107781486E+03 0.  0.
        1    1    3    3  502    0 -0.44472904611E+02 -0.22511327231E+03 -0.36087461723E+03  0.42764975622E+03  0.50400001928E-02 0.  1.
       -1    1    3    3    0  502  0.44472904611E+02  0.22511327231E+03  0.70282839795E+02  0.23998646255E+03  0.50400001928E-02 0. -1.
</event>
<event>
 5   0  0.2092587E-02  0.6033751E+03  0.7818609E-02  0.9898428E-01
        2   -1    0    0  501    0  0.00000000000E+00  0.00000000000E+00  0.12552821912E+04  0.12552821912E+04  0.25500000920E-02 0. -1.
       -2   -1    0    0    0  501  0.00000000000E+00  0.00000000000E+00 -0.72505904403E+02  0.72505904447E+02  0.25500000920E-02 0.  1.
    10030    2    1    2    0    0  0.00000000000E+00  0.00000000000E+00  0.11827762868E+04  0.13277880957E+04  0.60337507600E+03 0.  0.
        3    1    3    3  502    0 -0.10371479109E+03 -0.27384885015E+03  0.43170558167E+03  0.52165090824E+03  0.10100000352E+00 0.  1.
       -3    1    3    3    0  502  0.10371479109E+03  0.27384885015E+03  0.75107070513E+03  0.80613718741E+03  0.10100000352E+00 0. -1.
</event>
<event>
 5   0  0.2126207E-02  0.6032111E+03  0.7818609E-02  0.9898766E-01
       -2   -1    0    0    0  501  0.00000000000E+00  0.00000000000E+00  0.97156005826E+02  0.97156005860E+02  0.25500000920E-02 0. -1.
        2   -1    0    0  501    0  0.00000000000E+00  0.00000000000E+00 -0.93628691756E+03  0.93628691757E+03  0.25500000920E-02 0.  1.
    10030    2    1    2    0    0  0.00000000000E+00  0.00000000000E+00 -0.83913091174E+03  0.10334429234E+04  0.60321106501E+03 0.  0.
        5    1    3    3  502    0 -0.16931048709E+03  0.18660157328E+03 -0.13567641080E+03  0.28621035383E+03  0.46999998093E+01 0. -1.
       -5    1    3    3    0  502  0.16931048709E+03 -0.18660157328E+03 -0.70345450093E+03  0.74723256960E+03  0.46999998093E+01 0.  1.
</event>
<event>
 5   0  0.1250390E-02  0.6018377E+03  0.7818609E-02  0.9901601E-01
       -1   -1    0    0    0  501  0.00000000000E+00  0.00000000000E+00  0.11835746374E+03  0.11835746384E+03  0.50400001928E-02 0.  1.
        1   -1    0    0  501    0  0.00000000000E+00  0.00000000000E+00 -0.76507354447E+03  0.76507354448E+03  0.50400001928E-02 0. -1.
    10030    2    1    2    0    0  0.00000000000E+00  0.00000000000E+00 -0.64671608073E+03  0.88343100833E+03  0.60183773345E+03 0.  0.
        3    1    3    3  502    0  0.24211381560E+03 -0.78170582219E+02 -0.87477752098E+02  0.26903922938E+03  0.10100000352E+00 0.  1.
       -3    1    3    3    0  502 -0.24211381560E+03  0.78170582219E+02 -0.55923832863E+03  0.61439177895E+03  0.10100000352E+00 0. -1.
</event>
<event>
 5   0  0.8551000E-03  0.5955389E+03  0.7818609E-02  0.9914705E-01
       -3   -1    0    0    0  501  0.00000000000E+00  0.00000000000E+00  0.18121761242E+03  0.18121764057E+03  0.10100000352E+00 0. -1.
        3   -1    0    0  501    0  0.00000000000E+00  0.00000000000E+00 -0.48928268136E+03  0.48928269178E+03  0.10100000352E+00 0.  1.
    10030    2    1    2    0    0  0.00000000000E+00  0.00000000000E+00 -0.30806506893E+03  0.67050033235E+03  0.59553892315E+03 0.  0.
        3    1    3    3  502    0  0.13402487317E+03 -0.10472038852E+03 -0.42920995054E+03  0.46168194489E+03  0.10100000352E+00 0.  1.
       -3    1    3    3    0  502 -0.13402487317E+03  0.10472038852E+03  0.12114488161E+03  0.20881838746E+03  0.10100000352E+00 0. -1.
</event>
<event>
 5   0  0.1276705E-02  0.6012324E+03  0.7818609E-02  0.9902852E-01
        1   -1    0    0  501    0  0.00000000000E+00  0.00000000000E+00  0.22881718970E+03  0.22881718976E+03  0.50400001928E-02 0. -1.
       -1   -1    0    0    0  501  0.00000000000E+00  0.00000000000E+00 -0.39494455326E+03  0.39494455329E+03  0.50400001928E-02 0.  1.
    10030    2    1    2    0    0  0.00000000000E+00  0.00000000000E+00 -0.16612736356E+03  0.62376174305E+03  0.60123241028E+03 0.  0.
        1    1    3    3  502    0  0.45917948927E+02 -0.21505016548E+03  0.12959293595E+03  0.25524372819E+03  0.50400001928E-02 0. -1.
       -1    1    3    3    0  502 -0.45917948927E+02  0.21505016548E+03 -0.29572029951E+03  0.36851801486E+03  0.50400001928E-02 0.  1.
</event>
<event>
 5   0  0.1250390E-02  0.5972486E+03  0.7818609E-02  0.9911131E-01
        1   -1    0    0  501    0  0.00000000000E+00  0.00000000000E+00  0.73283510660E+03  0.73283510662E+03  0.50400001928E-02 0. -1.
       -1   -1    0    0    0  501  0.00000000000E+00  0.00000000000E+00 -0.12168696732E+03  0.12168696743E+03  0.50400001928E-02 0.  1.
    10030    2    1    2    0    0  0.00000000000E+00  0.00000000000E+00  0.61114813928E+03  0.85452207405E+03  0.59724863072E+03 0.  0.
        3    1    3    3  502    0  0.15520458004E+03  0.59533732503E+02  0.66051826771E+03  0.68111461529E+03  0.10100000352E+00 0. -1.
       -3    1    3    3    0  502 -0.15520458004E+03 -0.59533732503E+02 -0.49370128438E+02  0.17340745876E+03  0.10100000352E+00 0.  1.
</event>
<event>
 5   0  0.1303808E-02  0.5975598E+03  0.7818609E-02  0.9910482E-01
        1   -1    0    0  501    0  0.00000000000E+00  0.00000000000E+00  0.41235968628E+03  0.41235968631E+03  0.50400001928E-02 0.  1.
       -1   -1    0    0    0  501  0.00000000000E+00  0.00000000000E+00 -0.21648435397E+03  0.21648435402E+03  0.50400001928E-02 0. -1.
    10030    2    1    2    0    0  0.00000000000E+00  0.00000000000E+00  0.19587533231E+03  0.62884404033E+03  0.59755977212E+03 0.  0.
        4    1    3    3  502    0  0.10360282316E+03  0.15204803326E+03  0.34566723325E+03  0.39158600387E+03  0.12699999809E+01 0.  1.
       -4    1    3    3    0  502 -0.10360282316E+03 -0.15204803326E+03 -0.14979190093E+03  0.23725803647E+03  0.12699999809E+01 0. -1.
</event>
<event>
 5   0  0.1303808E-02  0.5979694E+03  0.7818609E-02  0.9909628E-01
        1   -1    0    0  501    0  0.00000000000E+00  0.00000000000E+00  0.19482654751E+03  0.19482654758E+03  0.50400001928E-02 0. -1.
       -1   -1    0    0    0  501  0.00000000000E+00  0.00000000000E+00 -0.45882784466E+03  0.45882784468E+03  0.50400001928E-02 0.  1.
    10030    2    1    2    0    0  0.00000000000E+00  0.00000000000E+00 -0.26400129715E+03  0.65365439226E+03  0.59796938017E+03 0.  0.
        4    1    3    3  502    0  0.91430241724E+02  0.19372861871E+03  0.95988245862E+02  0.23474586909E+03  0.12699999809E+01 0. -1.
       -4    1    3    3    0  502 -0.91430241724E+02 -0.19372861871E+03 -0.35998954301E+03  0.41890852317E+03  0.12699999809E+01 0.  1.
</event>
<event>
 5   0  0.2142838E-02  0.6000939E+03  0.7818609E-02  0.9905211E-01
        2   -1    0    0  501    0  0.00000000000E+00  0.00000000000E+00  0.67728217343E+03  0.67728217344E+03  0.25500000920E-02 0. -1.
       -2   -1    0    0    0  501  0.00000000000E+00  0.00000000000E+00 -0.13292566898E+03  0.13292566900E+03  0.25500000920E-02 0.  1.
    10030    2    1    2    0    0  0.00000000000E+00  0.00000000000E+00  0.54435650446E+03  0.81020784244E+03  0.60009394599E+03 0.  0.
        4    1    3    3  502    0 -0.17206398193E+03 -0.16455564020E+03  0.25646408273E+02  0.23946591356E+03  0.12699999809E+01 0. -1.
       -4    1    3    3    0  502  0.17206398193E+03  0.16455564020E+03  0.51871009618E+03  0.57074192888E+03  0.12699999809E+01 0.  1.
</event>
<event>
 5   0  0.2126207E-02  0.5988972E+03  0.7818609E-02  0.9907697E-01
        2   -1    0    0  501    0  0.00000000000E+00  0.00000000000E+00  0.37788986154E+03  0.37788986155E+03  0.25500000920E-02 0.  1.
       -2   -1    0    0    0  501  0.00000000000E+00  0.00000000000E+00 -0.23728994912E+03  0.23728994913E+03  0.25500000920E-02 0. -1.
    10030    2    1    2    0    0  0.00000000000E+00  0.00000000000E+00  0.14059991242E+03  0.61517981068E+03  0.59889720661E+03 0.  0.
        5    1    3    3  502    0 -0.14592290033E+03  0.24000741730E+03 -0.36202724585E+02  0.28324861953E+03  0.46999998093E+01 0. -1.
       -5    1    3    3    0  502  0.14592290033E+03 -0.24000741730E+03  0.17680263701E+03  0.33193119114E+03  0.46999998093E+01 0.  1.
</event>
<event>
 5   0  0.1303808E-02  0.5989813E+03  0.7818609E-02  0.9907522E-01
       -1   -1    0    0    0  501  0.00000000000E+00  0.00000000000E+00  0.93108863011E+03  0.93108863012E+03  0.50400001928E-02 0. -1.
        1   -1    0    0  501    0  0.00000000000E+00  0.00000000000E+00 -0.96333105149E+02  0.96333105281E+02  0.50400001928E-02 0.  1.
    10030    2    1    2    0    0  0.00000000000E+00  0.00000000000E+00  0.83475552496E+03  0.10274217354E+04  0.59898133187E+03 0.  0.
        4    1    3    3  502    0 -0.11954155238E+03  0.99998771258E+02  0.85604445375E+03  0.87011703621E+03  0.12699999809E+01 0. -1.
       -4    1    3    3    0  502  0.11954155238E+03 -0.99998771258E+02 -0.21288928797E+02  0.15730469919E+03  0.12699999809E+01 0.  1.
</event>
<event>
 5   0  0.2092587E-02  0.5986143E+03  0.7818609E-02  0.9908285E-01
        2   -1    0    0  501    0  0.00000000000E+00  0.00000000000E+00  0.27044172853E+03  0.27044172855E+03  0.25500000920E-02 0.  1.
       -2   -1    0    0    0  501  0.00000000000E+00  0.00000000000E+00 -0.33125355021E+03  0.33125355022E+03  0.25500000920E-02 0. -1.
    10030    2    1    2    0    0  0.00000000000E+00  0.00000000000E+00 -0.60811821673E+02  0.60169527876E+03  0.59861434232E+03 0.  0.
        3    1    3    3  502    0 -0.79965550200E+02 -0.10259972740E+03  0.24054329285E+03  0.27346348790E+03  0.10100000352E+00 0.  1.
       -3    1    3    3    0  502  0.79965550200E+02  0.10259972740E+03 -0.30135511452E+03  0.32823179086E+03  0.10100000352E+00 0. -1.
</event>
<event>
 5   0  0.2179625E-02  0.6049537E+03  0.7818609E-02  0.9895182E-01
        2   -1    0    0  501    0  0.00000000000E+00  0.00000000000E+00  0.49730676572E+03  0.49730676573E+03  0.25500000920E-02 0.  1.
       -2   -1    0    0    0  501  0.00000000000E+00  0.00000000000E+00 -0.18397548655E+03  0.18397548657E+03  0.25500000920E-02 0. -1.
    10030    2    1    2    0    0  0.00000000000E+00  0.00000000000E+00  0.31333127917E+03  0.68128225230E+03  0.60495373111E+03 0.  0.
        1    1    3    3  502    0  0.17372820157E+03 -0.24666952583E+03  0.18094794465E+03  0.35180889939E+03  0.50400001928E-02 0. -1.
       -1    1    3    3    0  502 -0.17372820157E+03  0.24666952583E+03  0.13238333452E+03  0.32947335291E+03  0.50400001928E-02 0.  1.
</event>
<event>
 5   0  0.8551000E-03  0.6002132E+03  0.7818609E-02  0.9904964E-01
        3   -1    0    0  501    0  0.00000000000E+00  0.00000000000E+00  0.61468991938E+03  0.61468992768E+03  0.10100000352E+00 0.  1.
       -3   -1    0    0    0  501  0.00000000000E+00  0.00000000000E+00 -0.14651932716E+03  0.14651936197E+03  0.10100000352E+00 0. -1.
    10030    2    1    2    0    0  0.00000000000E+00  0.00000000000E+00  0.46817059222E+03  0.76120928965E+03  0.60021319482E+03 0.  0.
        5    1    3    3  502    0 -0.17123214702E+02  0.19617033609E+02 -0.14503712584E+03  0.14743096812E+03  0.46999998093E+01 0. -1.
       -5    1    3    3    0  502  0.17123214702E+02 -0.19617033609E+02  0.61320771807E+03  0.61377832153E+03  0.46999998093E+01 0.  1.
</event>
<event>
 5   0  0.2141800E-02  0.5985621E+03  0.7818609E-02  0.9908394E-01
        2   -1    0    0  501    0  0.00000000000E+00  0.00000000000E+00  0.31465733300E+03  0.31465733301E+03  0.25500000920E-02 0.  1.
       -2   -1    0    0    0  501  0.00000000000E+00  0.00000000000E+00 -0.28465613222E+03  0.28465613223E+03  0.25500000920E-02 0. -1.
    10030    2    1    2    0    0  0.00000000000E+00  0.00000000000E+00  0.30001200781E+02  0.59931346524E+03  0.59856207495E+03 0.  0.
        2    1    3    3  502    0  0.74197172793E+02 -0.53555869667E+02  0.30030687400E+03  0.31393895936E+03  0.25500000920E-02 0.  1.
       -2    1    3    3    0  502 -0.74197172793E+02  0.53555869667E+02 -0.27030567322E+03  0.28537450588E+03  0.25500000920E-02 0. -1.
</event>
<event>
 5   0  0.8551000E-03  0.6003950E+03  0.7818609E-02  0.9904587E-01
        4   -1    0    0  501    0  0.00000000000E+00  0.00000000000E+00  0.10084819073E+04  0.10084827070E+04  0.12699999809E+01 0.  1.
       -4   -1    0    0    0  501  0.00000000000E+00  0.00000000000E+00 -0.89355234476E+02  0.89364259232E+02  0.12699999809E+01 0. -1.
    10030    2    1    2    0    0  0.00000000000E+00  0.00000000000E+00  0.91912667287E+03  0.10978469662E+04  0.60039497043E+03 0.  0.
        1    1    3    3  502    0  0.16123216793E+03  0.66931869195E+02  0.12999110384E+02  0.17505617380E+03  0.50400001928E-02 0. -1.
       -1    1    3    3    0  502 -0.16123216793E+03 -0.66931869195E+02  0.90612756249E+03  0.92279079244E+03  0.50400001928E-02 0.  1.
</event>
<event>
 5   0  0.1303808E-02  0.5925850E+03  0.7818609E-02  0.9920910E-01
       -1   -1    0    0    0  501  0.00000000000E+00  0.00000000000E+00  0.36254779622E+03  0.36254779625E+03  0.50400001928E-02 0. -1.
        1   -1    0    0  501    0  0.00000000000E+00  0.00000000000E+00 -0.24214529412E+03  0.24214529418E+03  0.50400001928E-02 0.  1.
    10030    2    1    2    0    0  0.00000000000E+00  0.00000000000E+00  0.12040250209E+03  0.60469309043E+03  0.59258499062E+03 0.  0.
        4    1    3    3  502    0 -0.13698509896E+03  0.30950173800E+02 -0.20602179183E+03  0.24933796783E+03  0.12699999809E+01 0.  1.
       -4    1    3    3    0  502  0.13698509896E+03 -0.30950173800E+02  0.32642429392E+03  0.35535512260E+03  0.12699999809E+01 0. -1.
</event>
<event>
 5   0  0.2126207E-02  0.6020535E+03  0.7818609E-02  0.9901155E-01
        2   -1    0    0  501    0  0.00000000000E+00  0.00000000000E+00  0.35486074185E+03  0.35486074186E+03  0.25500000920E-02 0. -1.
       -2   -1    0    0    0  501  0.00000000000E+00  0.00000000000E+00 -0.25535962396E+03  0.25535962398E+03  0.25500000920E-02 0.  1.
    10030    2    1    2    0    0  0.00000000000E+00  0.00000000000E+00  0.99501117891E+02  0.61022036584E+03  0.60205350462E+03 0.  0.
        5    1    3    3  502    0  0.24341537795E+03  0.16354121606E+03 -0.18979612664E+02  0.29390320051E+03  0.46999998093E+01 0. -1.
       -5    1    3    3    0  502 -0.24341537795E+03 -0.16354121606E+03  0.11848073055E+03  0.31631716533E+03  0.46999998093E+01 0.  1.
</event>
<event>
 5   0  0.8551000E-03  0.5965966E+03  0.7818609E-02  0.9912492E-01
        4   -1    0    0  501    0  0.00000000000E+00  0.00000000000E+00  0.19383078280E+03  0.19383494334E+03  0.12699999809E+01 0.  1.
       -4   -1    0    0    0  501  0.00000000000E+00  0.00000000000E+00 -0.45905997452E+03  0.45906173126E+03  0.12699999809E+01 0. -1.
    10030    2    1    2    0    0  0.00000000000E+00  0.00000000000E+00 -0.26522919173E+03  0.65289667460E+03  0.59659663388E+03 0.  0.
        4    1    3    3  502    0 -0.56474712179E+00  0.20460698967E+03  0.10493131539E+03  0.22994897915E+03  0.12699999809E+01 0.  1.
       -4    1    3    3    0  502  0.56474712179E+00 -0.20460698967E+03 -0.37016050711E+03  0.42294769545E+03  0.12699999809E+01 0. -1.
</event>
<event>
 5   0  0.1337051E-02  0.5830062E+03  0.7818609E-02  0.9941304E-01
        1   -1    0    0  501    0  0.00000000000E+00  0.00000000000E+00  0.10229480443E+03  0.10229480455E+03  0.50400001928E-02 0. -1.
       -1   -1    0    0    0  501  0.00000000000E+00  0.00000000000E+00 -0.83067803828E+03  0.83067803829E+03  0.50400001928E-02 0.  1.
    10030    2    1    2    0    0  0.00000000000E+00  0.00000000000E+00 -0.72838323385E+03  0.93297284285E+03  0.58300616647E+03 0.  0.
        5    1    3    3  502    0 -0.27925750791E+03 -0.80498974380E+01 -0.49714394490E+03  0.57028391922E+03  0.46999998093E+01 0. -1.
       -5    1    3    3    0  502  0.27925750791E+03  0.80498974380E+01 -0.23123928894E+03  0.36268892362E+03  0.46999998093E+01 0.  1.
</event>
<event>
 5   0  0.1303808E-02  0.6000022E+03  0.7818609E-02  0.9905402E-01
        1   -1    0    0  501    0  0.00000000000E+00  0.00000000000E+00  0.16356527607E+03  0.16356527615E+03  0.50400001928E-02 0. -1.
       -1   -1    0    0    0  501  0.00000000000E+00  0.00000000000E+00 -0.55024301217E+03  0.55024301220E+03  0.50400001928E-02 0.  1.
    10030    2    1    2    0    0  0.00000000000E+00  0.00000000000E+00 -0.38667773610E+03  0.71380828834E+03  0.60000216742E+03 0.  0.
        4    1    3    3  502    0  0.13408994868E+03  0.17208754815E+02  0.12526961132E+03  0.18431045548E+03  0.12699999809E+01 0. -1.
       -4    1    3    3    0  502 -0.13408994868E+03 -0.17208754815E+02 -0.51194734742E+03  0.52949783287E+03  0.12699999809E+01 0.  1.
</event>
<event>
 5   0  0.1250390E-02  0.5993670E+03  0.7818609E-02  0.9906720E-01
       -1   -1    0    0    0  501  0.00000000000E+00  0.00000000000E+00  0.14994054316E+03  0.14994054325E+03  0.50400001928E-02 0.  1.
        1   -1    0    0  501    0  0.00000000000E+00  0.00000000000E+00 -0.59897199042E+03  0.59897199044E+03  0.50400001928E-02 0. -1.
    10030    2    1    2    0    0  0.00000000000E+00  0.00000000000E+00 -0.44903144726E+03  0.74891253369E+03  0.59936695145E+03 0.  0.
        3    1    3    3  502    0 -0.17427483304E+03  0.22211463472E+03 -0.35011155932E+03  0.44976076147E+03  0.10100000352E+00 0. -1.
       -3    1    3    3    0  502  0.17427483304E+03 -0.22211463472E+03 -0.98919887934E+02  0.29915177221E+03  0.10100000352E+00 0.  1.
</event>
<event>
 5   0  0.8551000E-03  0.5980688E+03  0.7818609E-02  0.9909421E-01
       -3   -1    0    0    0  501  0.00000000000E+00  0.00000000000E+00  0.88784138274E+03  0.88784138848E+03  0.10100000352E+00 0.  1.
        3   -1    0    0  501    0  0.00000000000E+00  0.00000000000E+00 -0.10071791354E+03  0.10071796418E+03  0.10100000352E+00 0. -1.
    10030    2    1    2    0    0  0.00000000000E+00  0.00000000000E+00  0.78712346920E+03  0.98855935266E+03  0.59806875689E+03 0.  0.
        3    1    3    3  502    0 -0.29170902270E+03  0.33885489591E+02  0.30036333843E+03  0.42007204810E+03  0.10100000352E+00 0. -1.
       -3    1    3    3    0  502  0.29170902270E+03 -0.33885489591E+02  0.48676013077E+03  0.56848730455E+03  0.10100000352E+00 0.  1.
</event>
<event>
 5   0  0.8551000E-03  0.6001469E+03  0.7818609E-02  0.9905101E-01
       -3   -1    0    0    0  501  0.00000000000E+00  0.00000000000E+00  0.10316168753E+03  0.10316173697E+03  0.10100000352E+00 0. -1.
        3   -1    0    0  501    0  0.00000000000E+00  0.00000000000E+00 -0.87284400315E+03  0.87284400899E+03  0.10100000352E+00 0.  1.
    10030    2    1    2    0    0  0.00000000000E+00  0.00000000000E+00 -0.76968231562E+03  0.97600574596E+03  0.60014693965E+03 0.  0.
        4    1    3    3  502    0 -0.68355765958E+02  0.20437437291E+03 -0.45260145344E+02  0.22020783069E+03  0.12699999809E+01 0. -1.
       -4    1    3    3    0  502  0.68355765958E+02 -0.20437437291E+03 -0.72442217027E+03  0.75579791527E+03  0.12699999809E+01 0.  1.
</event>
<event>
 5   0  0.1337051E-02  0.5995096E+03  0.7818609E-02  0.9906424E-01
        1   -1    0    0  501    0  0.00000000000E+00  0.00000000000E+00  0.42076509476E+03  0.42076509479E+03  0.50400001928E-02 0. -1.
       -1   -1    0    0    0  501  0.00000000000E+00  0.00000000000E+00 -0.21354656708E+03  0.21354656714E+03  0.50400001928E-02 0.  1.
    10030    2    1    2    0    0  0.00000000000E+00  0.00000000000E+00  0.20721852768E+03  0.63431166193E+03  0.59950960480E+03 0.  0.
        5    1    3    3  502    0 -0.11417156121E+03  0.24973292956E+03  0.23070390135E+03  0.35867542652E+03  0.46999998093E+01 0. -1.
       -5    1    3    3    0  502  0.11417156121E+03 -0.24973292956E+03 -0.23485373666E+02  0.27563623541E+03  0.46999998093E+01 0.  1.
</event>
<event>
 5   0  0.1303808E-02  0.5972678E+03  0.7818609E-02  0.9911091E-01
       -1   -1    0    0    0  501  0.00000000000E+00  0.00000000000E+00  0.69945620468E+02  0.69945620650E+02  0.50400001928E-02 0. -1.
        1   -1    0    0  501    0  0.00000000000E+00  0.00000000000E+00 -0.12750220426E+04  0.12750220426E+04  0.50400001928E-02 0.  1.
    10030    2    1    2    0    0  0.00000000000E+00  0.00000000000E+00 -0.12050764221E+04  0.13449676632E+04  0.59726780595E+03 0.  0.
        4    1    3    3  502    0  0.18017129818E+03 -0.39851683756E+02 -0.11312751526E+04  0.11462263901E+04  0.12699999809E+01 0.  1.
       -4    1    3    3    0  502 -0.18017129818E+03  0.39851683756E+02 -0.73801269456E+02  0.19874127317E+03  0.12699999809E+01 0. -1.
</event>
<event>
 5   0  0.1337051E-02  0.6013336E+03  0.7818609E-02  0.9902643E-01
       -1   -1    0    0    0  501  0.00000000000E+00  0.00000000000E+00  0.15267613715E+03  0.15267613723E+03  0.50400001928E-02 0. -1.
        1   -1    0    0  501    0  0.00000000000E+00  0.00000000000E+00 -0.59210641401E+03  0.59210641403E+03  0.50400001928E-02 0.  1.
    10030    2    1    2    0    0  0.00000000000E+00  0.00000000000E+00 -0.43943027686E+03  0.74478255127E+03  0.60133358500E+03 0.  0.
        5    1    3    3  502    0  0.26515015523E+01 -0.28442675387E+03 -0.99168887971E+02  0.30126760051E+03  0.46999998093E+01 0. -1.
       -5    1    3    3    0  502 -0.26515015523E+01  0.28442675387E+03 -0.34026138889E+03  0.44351495076E+03  0.46999998093E+01 0.  1.
</event>
<event>
 5   0  0.2179625E-02  0.6001642E+03  0.7818609E-02  0.9905065E-01
        2   -1    0    0  501    0  0.00000000000E+00  0.00000000000E+00  0.64633105357E+03  0.64633105358E+03  0.25500000920E-02 0. -1.
       -2   -1    0    0    0  501  0.00000000000E+00  0.00000000000E+00 -0.13932374772E+03  0.13932374774E+03  0.25500000920E-02 0.  1.
    10030    2    1    2    0    0  0.00000000000E+00  0.00000000000E+00  0.50700730585E+03  0.78565480132E+03  0.60016419308E+03 0.  0.
        1    1    3    3  502    0  0.28641567025E+03  0.70537083173E+02  0.32567879521E+03  0.43940424889E+03  0.50400001928E-02 0.  1.
       -1    1    3    3    0  502 -0.28641567025E+03 -0.70537083173E+02  0.18132851064E+03  0.34625055243E+03  0.50400001928E-02 0. -1.
</event>
<event>
 5   0  0.1276705E-02  0.5999033E+03  0.7818609E-02  0.9905607E-01
        1   -1    0    0  501    0  0.00000000000E+00  0.00000000000E+00  0.13384103182E+04  0.13384103182E+04  0.50400001928E-02 0. -1.
       -1   -1    0    0    0  501  0.00000000000E+00  0.00000000000E+00 -0.67222289497E+02  0.67222289686E+02  0.50400001928E-02 0.  1.
    10030    2    1    2    0    0  0.00000000000E+00  0.00000000000E+00  0.12711880287E+04  0.14056326079E+04  0.59990334561E+03 0.  0.
        1    1    3    3  502    0  0.13581490942E+03  0.17338153204E+03  0.11127133082E+04  0.11343005561E+04  0.50400001928E-02 0.  1.
       -1    1    3    3    0  502 -0.13581490942E+03 -0.17338153204E+03  0.15847472049E+03  0.27133205179E+03  0.50400001928E-02 0. -1.
</event>
<event>
 5   0  0.2142838E-02  0.5989185E+03  0.7818609E-02  0.9907652E-01
        2   -1    0    0  501    0  0.00000000000E+00  0.00000000000E+00  0.58827301744E+03  0.58827301745E+03  0.25500000920E-02 0. -1.
       -2   -1    0    0    0  501  0.00000000000E+00  0.00000000000E+00 -0.15243915953E+03  0.15243915956E+03  0.25500000920E-02 0.  1.
    10030    2    1    2    0    0  0.00000000000E+00  0.00000000000E+00  0.43583385791E+03  0.74071217700E+03  0.59891850653E+03 0.  0.
        4    1    3    3  502    0  0.12327676744E+03 -0.25074627917E+03  0.35113829680E+03  0.44874332785E+03  0.12699999809E+01 0.  1.
       -4    1    3    3    0  502 -0.12327676744E+03  0.25074627917E+03  0.84695561101E+02  0.29196884915E+03  0.12699999809E+01 0. -1.
</event>
<event>
 5   0  0.2126207E-02  0.5912908E+03  0.7818609E-02  0.9923641E-01
        2   -1    0    0  501    0  0.00000000000E+00  0.00000000000E+00  0.77885127292E+03  0.77885127292E+03  0.25500000920E-02 0.  1.
       -2   -1    0    0    0  501  0.00000000000E+00  0.00000000000E+00 -0.11222450120E+03  0.11222450123E+03  0.25500000920E-02 0. -1.
    10030    2    1    2    0    0  0.00000000000E+00  0.00000000000E+00  0.66662677172E+03  0.89107577415E+03  0.59129077661E+03 0.  0.
        5    1    3    3  502    0 -0.66684068167E+02  0.26431607054E+03  0.50562862111E+03  0.57444942561E+03  0.46999998093E+01 0.  1.
       -5    1    3    3    0  502  0.66684068167E+02 -0.26431607054E+03  0.16099815061E+03  0.31662634854E+03  0.46999998093E+01 0. -1.
</event>
<event>
 5   0  0.8551000E-03  0.5995114E+03  0.7818609E-02  0.9906420E-01
        4   -1    0    0  501    0  0.00000000000E+00  0.00000000000E+00  0.75297120508E+02  0.75307829983E+02  0.12699999809E+01 0.  1.
       -4   -1    0    0    0  501  0.00000000000E+00  0.00000000000E+00 -0.11932231585E+04  0.11932238343E+04  0.12699999809E+01 0. -1.
    10030    2    1    2    0    0  0.00000000000E+00  0.00000000000E+00 -0.11179260380E+04  0.12685316643E+04  0.59951143192E+03 0.  0.
        3    1    3    3  502    0 -0.84219301964E+02 -0.19031820109E+03 -0.10154359503E+04  0.10365443009E+04  0.10100000352E+00 0. -1.
       -3    1    3    3    0  502  0.84219301964E+02  0.19031820109E+03 -0.10249008769E+03  0.23198736338E+03  0.10100000352E+00 0.  1.
</event>
<event>
 5   0  0.1276705E-02  0.5996601E+03  0.7818609E-02  0.9906112E-01
        1   -1    0    0  501    0  0.00000000000E+00  0.00000000000E+00  0.30220571033E+03  0.30220571038E+03  0.50400001928E-02 0.  1.
       -1   -1    0    0    0  501  0.00000000000E+00  0.00000000000E+00 -0.29747302998E+03  0.29747303003E+03  0.50400001928E-02 0. -1.
    10030    2    1    2    0    0  0.00000000000E+00  0.00000000000E+00  0.47326803506E+01  0.59967874040E+03  0.59966006489E+03 0.  0.
        1    1    3    3  502    0 -0.11487981827E+03 -0.94689042260E+00  0.27932221492E+03  0.30202511323E+03  0.50400001928E-02 0.  1.
       -1    1    3    3    0  502  0.11487981827E+03  0.94689042260E+00 -0.27458953457E+03  0.29765362717E+03  0.50400001928E-02 0. -1.
</event>
<event>
 5   0  0.2141800E-02  0.5993376E+03  0.7818609E-02  0.9906781E-01
       -2   -1    0    0    0  501  0.00000000000E+00  0.00000000000E+00  0.66522175891E+02  0.66522175940E+02  0.25500000920E-02 0.  1.
        2   -1    0    0  501    0  0.00000000000E+00  0.00000000000E+00 -0.13499468156E+04  0.13499468156E+04  0.25500000920E-02 0. -1.
    10030    2    1    2    0    0  0.00000000000E+00  0.00000000000E+00 -0.12834246397E+04  0.14164689916E+04  0.59933763288E+03 0.  0.
        2    1    3    3  502    0 -0.23493571550E+03  0.18367009773E+03 -0.57192605744E+03  0.64500303131E+03  0.25500000920E-02 0.  1.
       -2    1    3    3    0  502  0.23493571550E+03 -0.18367009773E+03 -0.71149858228E+03  0.77146596024E+03  0.25500000920E-02 0. -1.
</event>
<event>
 5   0  0.1250390E-02  0.5939937E+03  0.7818609E-02  0.9917946E-01
        1   -1    0    0  501    0  0.00000000000E+00  0.00000000000E+00  0.13081527914E+04  0.13081527915E+04  0.50400001928E-02 0.  1.
       -1   -1    0    0    0  501  0.00000000000E+00  0.00000000000E+00 -0.67428767845E+02  0.67428768033E+02  0.50400001928E-02 0. -1.
    10030    2    1    2    0    0  0.00000000000E+00  0.00000000000E+00  0.12407240236E+04  0.13755815595E+04  0.59399370709E+03 0.  0.
        3    1    3    3  502    0  0.85628618714E+02 -0.98683466453E+02  0.12380235324E+04  0.12448987766E+04  0.10100000352E+00 0.  1.
       -3    1    3    3    0  502 -0.85628618714E+02  0.98683466453E+02  0.27004911718E+01  0.13068278290E+03  0.10100000352E+00 0. -1.
</event>
<event>
 5   0  0.1250390E-02  0.6002664E+03  0.7818609E-02  0.9904853E-01
       -1   -1    0    0    0  501  0.00000000000E+00  0.00000000000E+00  0.36192468001E+03  0.36192468004E+03  0.50400001928E-02 0. -1.
        1   -1    0    0  501    0  0.00000000000E+00  0.00000000000E+00 -0.24889140941E+03  0.24889140946E+03  0.50400001928E-02 0.  1.
    10030    2    1    2    0    0  0.00000000000E+00  0.00000000000E+00  0.11303327060E+03  0.61081608950E+03  0.60026641996E+03 0.  0.
        3    1    3    3  502    0  0.23303456508E+03 -0.97910113260E+01  0.24872510436E+03  0.34097677365E+03  0.10100000352E+00 0. -1.
       -3    1    3    3    0  502 -0.23303456508E+03  0.97910113260E+01 -0.13569183376E+03  0.26983931585E+03  0.10100000352E+00 0.  1.
</event>
<event>
 5   0  0.2141800E-02  0.6009388E+03  0.7818609E-02  0.9903460E-01
        2   -1    0    0  501    0  0.00000000000E+00  0.00000000000E+00  0.53737894026E+03  0.53737894026E+03  0.25500000920E-02 0. -1.
       -2   -1    0    0    0  501  0.00000000000E+00  0.00000000000E+00 -0.16800411616E+03  0.16800411618E+03  0.25500000920E-02 0.  1.
    10030    2    1    2    0    0  0.00000000000E+00  0.00000000000E+00  0.36937482410E+03  0.70538305644E+03  0.60093884517E+03 0.  0.
        2    1    3    3  502    0  0.11697355471E+03  0.26594488389E+03  0.27463754836E+03  0.39979404291E+03  0.25500000920E-02 0. -1.
       -2    1    3    3    0  502 -0.11697355471E+03 -0.26594488389E+03  0.94737275736E+02  0.30558901353E+03  0.25500000920E-02 0.  1.
</event>
<event>
 5   0  0.1250390E-02  0.5991081E+03  0.7818609E-02  0.9907258E-01
       -1   -1    0    0    0  501  0.00000000000E+00  0.00000000000E+00  0.19120044704E+03  0.19120044711E+03  0.50400001928E-02 0.  1.
        1   -1    0    0  501    0  0.00000000000E+00  0.00000000000E+00 -0.46931188956E+03  0.46931188958E+03  0.50400001928E-02 0. -1.
    10030    2    1    2    0    0  0.00000000000E+00  0.00000000000E+00 -0.27811144252E+03  0.66051233669E+03  0.59910814755E+03 0.  0.
        3    1    3    3  502    0 -0.17948401468E+03 -0.23907869899E+03 -0.11815201043E+03  0.32145457472E+03  0.10100000352E+00 0.  1.
       -3    1    3    3    0  502  0.17948401468E+03  0.23907869899E+03 -0.15995943208E+03  0.33905776197E+03  0.10100000352E+00 0. -1.
</event>
<event>
 5   0  0.2092587E-02  0.6036820E+03  0.7818609E-02  0.9897796E-01
        2   -1    0    0  501    0  0.00000000000E+00  0.00000000000E+00  0.24923220903E+03  0.24923220905E+03  0.25500000920E-02 0.  1.
       -2   -1    0    0    0  501  0.00000000000E+00  0.00000000000E+00 -0.36555461785E+03  0.36555461786E+03  0.25500000920E-02 0. -1.
    10030    2    1    2    0    0  0.00000000000E+00  0.00000000000E+00 -0.11632240882E+03  0.61478682690E+03  0.60368198560E+03 0.  0.
        3    1    3    3  502    0  0.11563633731E+03  0.71515702824E+02 -0.33260258269E+03  0.35931983868E+03  0.10100000352E+00 0. -1.
       -3    1    3    3    0  502 -0.11563633731E+03 -0.71515702824E+02  0.21628017388E+03  0.25546698822E+03  0.10100000352E+00 0.  1.
</event>
<event>
 5   0  0.2092587E-02  0.5979897E+03  0.7818609E-02  0.9909586E-01
       -2   -1    0    0    0  501  0.00000000000E+00  0.00000000000E+00  0.13995013108E+03  0.13995013111E+03  0.25500000920E-02 0.  1.
        2   -1    0    0  501    0  0.00000000000E+00  0.00000000000E+00 -0.63878408834E+03  0.63878408835E+03  0.25500000920E-02 0. -1.
    10030    2    1    2    0    0  0.00000000000E+00  0.00000000000E+00 -0.49883395726E+03  0.77873421946E+03  0.59798968857E+03 0.  0.
        3    1    3    3  502    0  0.11657460910E+03 -0.21841284905E+03 -0.46773036337E+03  0.52921216458E+03  0.10100000352E+00 0. -1.
       -3    1    3    3    0  502 -0.11657460910E+03  0.21841284905E+03 -0.31103593889E+02  0.24952205488E+03  0.10100000352E+00 0.  1.
</event>
<event>
 5   0  0.2141800E-02  0.5999302E+03  0.7818609E-02  0.9905551E-01
        2   -1    0    0  501    0  0.00000000000E+00  0.00000000000E+00  0.56935323955E+03  0.56935323955E+03  0.25500000920E-02 0.  1.
       -2   -1    0    0    0  501  0.00000000000E+00  0.00000000000E+00 -0.15803731808E+03  0.15803731810E+03  0.25500000920E-02 0. -1.
    10030    2    1    2    0    0  0.00000000000E+00  0.00000000000E+00  0.41131592147E+03  0.72739055765E+03  0.59993019269E+03 0.  0.
        2    1    3    3  502    0  0.25593775326E+02  0.37502946309E+02  0.56516278306E+03  0.56698367144E+03  0.25500000920E-02 0.  1.
       -2    1    3    3    0  502 -0.25593775326E+02 -0.37502946309E+02 -0.15384686159E+03  0.16040688621E+03  0.25500000920E-02 0. -1.
</event>
<event>
 5   0  0.1303808E-02  0.5990180E+03  0.7818609E-02  0.9907445E-01
       -1   -1    0    0    0  501  0.00000000000E+00  0.00000000000E+00  0.29595461625E+03  0.29595461629E+03  0.50400001928E-02 0.  1.
        1   -1    0    0  501    0  0.00000000000E+00  0.00000000000E+00 -0.30310610254E+03  0.30310610258E+03  0.50400001928E-02 0. -1.
    10030    2    1    2    0    0  0.00000000000E+00  0.00000000000E+00 -0.71514862905E+01  0.59906071887E+03  0.59901803073E+03 0.  0.
        4    1    3    3  502    0 -0.18496035488E+03 -0.21218687204E+03 -0.10590818284E+03  0.30075198692E+03  0.12699999809E+01 0. -1.
       -4    1    3    3    0  502  0.18496035488E+03  0.21218687204E+03  0.98756696547E+02  0.29830873195E+03  0.12699999809E+01 0.  1.
</event>
<event>
 5   0  0.2179625E-02  0.6001744E+03  0.7818609E-02  0.9905044E-01
        2   -1    0    0  501    0  0.00000000000E+00  0.00000000000E+00  0.84232002870E+03  0.84232002871E+03  0.25500000920E-02 0.  1.
       -2   -1    0    0    0  501  0.00000000000E+00  0.00000000000E+00 -0.10690987836E+03  0.10690987839E+03  0.25500000920E-02 0. -1.
    10030    2    1    2    0    0  0.00000000000E+00  0.00000000000E+00  0.73541015034E+03  0.94922990710E+03  0.60017441408E+03 0.  0.
        1    1    3    3  502    0  0.19658169739E+03  0.13614796392E+03  0.65445612593E+03  0.69677360212E+03  0.50400001928E-02 0. -1.
       -1    1    3    3    0  502 -0.19658169739E+03 -0.13614796392E+03  0.80954024411E+02  0.25245630498E+03  0.50400001928E-02 0.  1.
</event>
<event>
 5   0  0.2141800E-02  0.6011960E+03  0.7818609E-02  0.9902928E-01
       -2   -1    0    0    0  501  0.00000000000E+00  0.00000000000E+00  0.10966762190E+03  0.10966762193E+03  0.25500000920E-02 0. -1.
        2   -1    0    0  501    0  0.00000000000E+00  0.00000000000E+00 -0.82393639587E+03  0.82393639587E+03  0.25500000920E-02 0.  1.
    10030    2    1    2    0    0  0.00000000000E+00  0.00000000000E+00 -0.71426877397E+03  0.93360401780E+03  0.60119595856E+03 0.  0.
        2    1    3    3  502    0  0.19768501606E+03 -0.30688334726E+02 -0.70554763669E+03  0.73336117098E+03  0.25500000920E-02 0.  1.
       -2    1    3    3    0  502 -0.19768501606E+03  0.30688334726E+02 -0.87211372795E+01  0.20024284682E+03  0.25500000920E-02 0. -1.
</event>
<event>
 5   0  0.2179625E-02  0.5970833E+03  0.7818609E-02  0.9911476E-01
        2   -1    0    0  501    0  0.00000000000E+00  0.00000000000E+00  0.75602552574E+03  0.75602552574E+03  0.25500000920E-02 0.  1.
       -2   -1    0    0    0  501  0.00000000000E+00  0.00000000000E+00 -0.11788904278E+03  0.11788904281E+03  0.25500000920E-02 0. -1.
    10030    2    1    2    0    0  0.00000000000E+00  0.00000000000E+00  0.63813648295E+03  0.87391456856E+03  0.59708332941E+03 0.  0.
        1    1    3    3  502    0  0.29576175984E+02 -0.21087061228E+03  0.12800347196E+02  0.21331904327E+03  0.50400001928E-02 0. -1.
       -1    1    3    3    0  502 -0.29576175984E+02  0.21087061228E+03  0.62533613576E+03  0.66059552528E+03  0.50400001928E-02 0.  1.
</event>
<event>
 5   0  0.2092587E-02  0.5966351E+03  0.7818609E-02  0.9912412E-01
        2   -1    0    0  501    0  0.00000000000E+00  0.00000000000E+00  0.21043270277E+03  0.21043270278E+03  0.25500000920E-02 0.  1.
       -2   -1    0    0    0  501  0.00000000000E+00  0.00000000000E+00 -0.42290653125E+03  0.42290653125E+03  0.25500000920E-02 0. -1.
    10030    2    1    2    0    0  0.00000000000E+00  0.00000000000E+00 -0.21247382848E+03  0.63333923404E+03  0.59663511259E+03 0.  0.
        3    1    3    3  502    0 -0.11696433916E+02 -0.65038892275E+02 -0.41503937218E+03  0.42026724205E+03  0.10100000352E+00 0. -1.
       -3    1    3    3    0  502  0.11696433916E+02  0.65038892275E+02  0.20256554370E+03  0.21307199199E+03  0.10100000352E+00 0.  1.
</event>
<event>
 5   0  0.8551000E-03  0.5977748E+03  0.7818609E-02  0.9910033E-01
        4   -1    0    0  501    0  0.00000000000E+00  0.00000000000E+00  0.61635523269E+03  0.61635654111E+03  0.12699999809E+01 0.  1.
       -4   -1    0    0    0  501  0.00000000000E+00  0.00000000000E+00 -0.14493436809E+03  0.14493993223E+03  0.12699999809E+01 0. -1.
    10030    2    1    2    0    0  0.00000000000E+00  0.00000000000E+00  0.47142086460E+03  0.76129647334E+03  0.59777478094E+03 0.  0.
        3    1    3    3  502    0  0.22697974848E+03 -0.13335017483E+03  0.41595986387E+03  0.49226486153E+03  0.10100000352E+00 0. -1.
       -3    1    3    3    0  502 -0.22697974848E+03  0.13335017483E+03  0.55461000731E+02  0.26903161181E+03  0.10100000352E+00 0.  1.
</event>
<event>
 5   0  0.2179625E-02  0.5958277E+03  0.7818609E-02  0.9914100E-01
        2   -1    0    0  501    0  0.00000000000E+00  0.00000000000E+00  0.89015183962E+03  0.89015183962E+03  0.25500000920E-02 0. -1.
       -2   -1    0    0    0  501  0.00000000000E+00  0.00000000000E+00 -0.99705068520E+02  0.99705068553E+02  0.25500000920E-02 0.  1.
    10030    2    1    2    0    0  0.00000000000E+00  0.00000000000E+00  0.79044677110E+03  0.98985690818E+03  0.59582766025E+03 0.  0.
        1    1    3    3  502    0 -0.16617596136E+03 -0.23394078526E+03  0.26221540794E+03  0.38871539888E+03  0.50400001928E-02 0.  1.
       -1    1    3    3    0  502  0.16617596136E+03  0.23394078526E+03  0.52823136316E+03  0.60114150929E+03  0.50400001928E-02 0. -1.
</event>
<event>
 5   0  0.2142838E-02  0.6039339E+03  0.7818609E-02  0.9897278E-01
        2   -1    0    0  501    0  0.00000000000E+00  0.00000000000E+00  0.80053888130E+02  0.80053888170E+02  0.25500000920E-02 0.  1.
       -2   -1    0    0    0  501  0.00000000000E+00  0.00000000000E+00 -0.11390333857E+04  0.11390333857E+04  0.25500000920E-02 0. -1.
    10030    2    1    2    0    0  0.00000000000E+00  0.00000000000E+00 -0.10589794976E+04  0.12190872739E+04  0.60393394096E+03 0.  0.
        4    1    3    3  502    0  0.77110744924E+02  0.96279551594E+02 -0.10858508525E+04  0.10928355346E+04  0.12699999809E+01 0. -1.
       -4    1    3    3    0  502 -0.77110744924E+02 -0.96279551594E+02  0.26871354934E+02  0.12625173921E+03  0.12699999809E+01 0.  1.
</event>
<event>
 5   0  0.1276705E-02  0.6066733E+03  0.7818609E-02  0.9891657E-01
        1   -1    0    0  501    0  0.00000000000E+00  0.00000000000E+00  0.69069857000E+03  0.69069857001E+03  0.50400001928E-02 0.  1.
       -1   -1    0    0    0  501  0.00000000000E+00  0.00000000000E+00 -0.13321746933E+03  0.13321746943E+03  0.50400001928E-02 0. -1.
    10030    2    1    2    0    0  0.00000000000E+00  0.00000000000E+00  0.55748110066E+03  0.82391603944E+03  0.60667327488E+03 0.  0.
        1    1    3    3  502    0  0.18531628841E+03 -0.33338229645E+02 -0.44243496170E+02  0.19341936637E+03  0.50400001928E-02 0. -1.
       -1    1    3    3    0  502 -0.18531628841E+03  0.33338229645E+02  0.60172459683E+03  0.63049667308E+03  0.50400001928E-02 0.  1.
</event>
<event>
 5   0  0.1332555E-02  0.6006630E+03  0.7818609E-02  0.9904031E-01
       -1   -1    0    0    0  501  0.00000000000E+00  0.00000000000E+00  0.85157934787E+02  0.85157934936E+02  0.50400001928E-02 0. -1.
        1   -1    0    0  501    0  0.00000000000E+00  0.00000000000E+00 -0.10591968612E+04  0.10591968612E+04  0.50400001928E-02 0.  1.
    10030    2    1    2    0    0  0.00000000000E+00  0.00000000000E+00 -0.97403892638E+03  0.11443547961E+04  0.60066302474E+03 0.  0.
        2    1    3    3  502    0  0.16086098360E+02 -0.12921712276E+03 -0.10026200712E+04  0.10110404712E+04  0.25500000920E-02 0.  1.
       -2    1    3    3    0  502 -0.16086098360E+02  0.12921712276E+03  0.28581144785E+02  0.13331432488E+03  0.25500000920E-02 0. -1.
</event>
<event>
 5   0  0.1337051E-02  0.5997336E+03  0.7818609E-02  0.9905959E-01
       -1   -1    0    0    0  501  0.00000000000E+00  0.00000000000E+00  0.13037241598E+03  0.13037241607E+03  0.50400001928E-02 0.  1.
        1   -1    0    0  501    0  0.00000000000E+00  0.00000000000E+00 -0.68971726656E+03  0.68971726657E+03  0.50400001928E-02 0. -1.
    10030    2    1    2    0    0  0.00000000000E+00  0.00000000000E+00 -0.55934485058E+03  0.82008968265E+03  0.59973362897E+03 0.  0.
        5    1    3    3  502    0  0.22693918382E+03  0.19516948255E+03 -0.25577198140E+03  0.39374346539E+03  0.46999998093E+01 0.  1.
       -5    1    3    3    0  502 -0.22693918382E+03 -0.19516948255E+03 -0.30357286918E+03  0.42634621726E+03  0.46999998093E+01 0. -1.
</event>
<event>
 5   0  0.1337051E-02  0.6021694E+03  0.7818609E-02  0.9900916E-01
        1   -1    0    0  501    0  0.00000000000E+00  0.00000000000E+00  0.46466489005E+03  0.46466489008E+03  0.50400001928E-02 0.  1.
       -1   -1    0    0    0  501  0.00000000000E+00  0.00000000000E+00 -0.19509110363E+03  0.19509110369E+03  0.50400001928E-02 0. -1.
    10030    2    1    2    0    0  0.00000000000E+00  0.00000000000E+00  0.26957378643E+03  0.65975599378E+03  0.60216936571E+03 0.  0.
        5    1    3    3  502    0 -0.15887011165E+03 -0.23770462574E+03  0.23807131408E+03  0.37207961790E+03  0.46999998093E+01 0. -1.
       -5    1    3    3    0  502  0.15887011165E+03  0.23770462574E+03  0.31502472347E+02  0.28767637587E+03  0.46999998093E+01 0.  1.
</event>
<event>
 5   0  0.1276705E-02  0.6005868E+03  0.7818609E-02  0.9904189E-01
        1   -1    0    0  501    0  0.00000000000E+00  0.00000000000E+00  0.19853692772E+04  0.19853692772E+04  0.50400001928E-02 0. -1.
       -1   -1    0    0    0  501  0.00000000000E+00  0.00000000000E+00 -0.45420326883E+02  0.45420327162E+02  0.50400001928E-02 0.  1.
    10030    2    1    2    0    0  0.00000000000E+00  0.00000000000E+00  0.19399489503E+04  0.20307896043E+04  0.60058678588E+03 0.  0.
        1    1    3    3  502    0  0.18300807064E+03 -0.23244818569E+03  0.79584325429E+03  0.84905276536E+03  0.50400001928E-02 0.  1.
       -1    1    3    3    0  502 -0.18300807064E+03  0.23244818569E+03  0.11441056960E+04  0.11817368390E+04  0.50400001928E-02 0. -1.
</event>
<event>
 5   0  0.2142838E-02  0.5978122E+03  0.7818609E-02  0.9909955E-01
       -2   -1    0    0    0  501  0.00000000000E+00  0.00000000000E+00  0.11110611737E+03  0.11110611740E+03  0.25500000920E-02 0. -1.
        2   -1    0    0  501    0  0.00000000000E+00  0.00000000000E+00 -0.80413986366E+03  0.80413986366E+03  0.25500000920E-02 0.  1.
    10030    2    1    2    0    0  0.00000000000E+00  0.00000000000E+00 -0.69303374629E+03  0.91524598106E+03  0.59781220491E+03 0.  0.
        4    1    3    3  502    0 -0.55632780378E+02  0.21811465222E+03 -0.64759827725E+03  0.68560495138E+03  0.12699999809E+01 0.  1.
       -4    1    3    3    0  502  0.55632780378E+02 -0.21811465222E+03 -0.45435469045E+02  0.22964102968E+03  0.12699999809E+01 0. -1.
</event>
<event>
 5   0  0.1276705E-02  0.5997156E+03  0.7818609E-02  0.9905996E-01
        1   -1    0    0  501    0  0.00000000000E+00  0.00000000000E+00  0.15170526104E+04  0.15170526105E+04  0.50400001928E-02 0.  1.
       -1   -1    0    0    0  501  0.00000000000E+00  0.00000000000E+00 -0.59269325673E+02  0.59269325887E+02  0.50400001928E-02 0. -1.
    10030    2    1    2    0    0  0.00000000000E+00  0.00000000000E+00  0.14577832848E+04  0.15763219363E+04  0.59971555059E+03 0.  0.
        1    1    3    3  502    0 -0.23014787458E+03 -0.15227699472E+03  0.10371983073E+04  0.10732831201E+04  0.50400001928E-02 0.  1.
       -1    1    3    3    0  502  0.23014787458E+03  0.15227699472E+03  0.42058497746E+03  0.50303881619E+03  0.50400001928E-02 0. -1.
</event>
<event>
 5   0  0.2126207E-02  0.5984214E+03  0.7818609E-02  0.9908687E-01
       -2   -1    0    0    0  501  0.00000000000E+00  0.00000000000E+00  0.16508669238E+03  0.16508669240E+03  0.25500000920E-02 0.  1.
        2   -1    0    0  501    0  0.00000000000E+00  0.00000000000E+00 -0.54230315237E+03  0.54230315237E+03  0.25500000920E-02 0. -1.
    10030    2    1    2    0    0  0.00000000000E+00  0.00000000000E+00 -0.37721645999E+03  0.70738984477E+03  0.59842136893E+03 0.  0.
        5    1    3    3  502    0  0.16359784991E+03  0.33071770149E+02  0.10489136618E+03  0.19718592032E+03  0.46999998093E+01 0.  1.
       -5    1    3    3    0  502 -0.16359784991E+03 -0.33071770149E+02 -0.48210782617E+03  0.51020392445E+03  0.46999998093E+01 0. -1.
</event>
<event>
 5   0  0.2126207E-02  0.6005262E+03  0.7818609E-02  0.9904315E-01
        2   -1    0    0  501    0  0.00000000000E+00  0.00000000000E+00  0.91802491819E+02  0.91802491854E+02  0.25500000920E-02 0.  1.
       -2   -1    0    0    0  501  0.00000000000E+00  0.00000000000E+00 -0.98208597032E+03  0.98208597033E+03  0.25500000920E-02 0. -1.
    10030    2    1    2    0    0  0.00000000000E+00  0.00000000000E+00 -0.89028347850E+03  0.10738884622E+04  0.60052623349E+03 0.  0.
        5    1    3    3  502    0 -0.34122792721E+02 -0.12500638881E+03 -0.92943911357E+03  0.93844025812E+03  0.46999998093E+01 0. -1.
       -5    1    3    3    0  502  0.34122792721E+02  0.12500638881E+03  0.39155635068E+02  0.13544820406E+03  0.46999998093E+01 0.  1.
</event>
<event>
 5   0  0.2126207E-02  0.6009669E+03  0.7818609E-02  0.9903402E-01
        2   -1    0    0  501    0  0.00000000000E+00  0.00000000000E+00  0.56773045417E+03  0.56773045418E+03  0.25500000920E-02 0.  1.
       -2   -1    0    0    0  501  0.00000000000E+00  0.00000000000E+00 -0.15903727260E+03  0.15903727262E+03  0.25500000920E-02 0. -1.
    10030    2    1    2    0    0  0.00000000000E+00  0.00000000000E+00  0.40869318158E+03  0.72676772680E+03  0.60096689763E+03 0.  0.
        5    1    3    3  502    0 -0.80809722836E+02 -0.28868366690E+03  0.22852540895E+03  0.37698066711E+03  0.46999998093E+01 0.  1.
       -5    1    3    3    0  502  0.80809722836E+02  0.28868366690E+03  0.18016777263E+03  0.34978705969E+03  0.46999998093E+01 0. -1.
</event>
<event>
 5   0  0.2141800E-02  0.5947888E+03  0.7818609E-02  0.9916277E-01
        2   -1    0    0  501    0  0.00000000000E+00  0.00000000000E+00  0.10294894315E+04  0.10294894315E+04  0.25500000920E-02 0. -1.
       -2   -1    0    0    0  501  0.00000000000E+00  0.00000000000E+00 -0.85909995951E+02  0.85909995989E+02  0.25500000920E-02 0.  1.
    10030    2    1    2    0    0  0.00000000000E+00  0.00000000000E+00  0.94357943555E+03  0.11153994275E+04  0.59478881266E+03 0.  0.
        2    1    3    3  502    0 -0.37043372345E+02 -0.24514065469E+03  0.77980106256E+03  0.81826392392E+03  0.25500000920E-02 0. -1.
       -2    1    3    3    0  502  0.37043372345E+02  0.24514065469E+03  0.16377837299E+03  0.29713550357E+03  0.25500000920E-02 0.  1.
</event>
<event>
 5   0  0.1303808E-02  0.5997882E+03  0.7818609E-02  0.9905846E-01
        1   -1    0    0  501    0  0.00000000000E+00  0.00000000000E+00  0.59082438245E+03  0.59082438247E+03  0.50400001928E-02 0.  1.
       -1   -1    0    0    0  501  0.00000000000E+00  0.00000000000E+00 -0.15222202022E+03  0.15222202030E+03  0.50400001928E-02 0. -1.
    10030    2    1    2    0    0  0.00000000000E+00  0.00000000000E+00  0.43860236224E+03  0.74304640278E+03  0.59978823306E+03 0.  0.
        4    1    3    3  502    0  0.18861918001E+03 -0.15303257448E+03  0.13952478602E+01  0.24289858694E+03  0.12699999809E+01 0. -1.
       -4    1    3    3    0  502 -0.18861918001E+03  0.15303257448E+03  0.43720711438E+03  0.50014781583E+03  0.12699999809E+01 0.  1.
</event>
<event>
 5   0  0.2179625E-02  0.6051368E+03  0.7818609E-02  0.9894806E-01
       -2   -1    0    0    0  501  0.00000000000E+00  0.00000000000E+00  0.12514227943E+03  0.12514227946E+03  0.25500000920E-02 0. -1.
        2   -1    0    0  501    0  0.00000000000E+00  0.00000000000E+00 -0.73154830089E+03  0.73154830090E+03  0.25500000920E-02 0.  1.
    10030    2    1    2    0    0  0.00000000000E+00  0.00000000000E+00 -0.60640602146E+03  0.85669058036E+03  0.60513675116E+03 0.  0.
        1    1    3    3  502    0 -0.25694939320E+03 -0.14935687640E+03 -0.38350132600E+03  0.48518422714E+03  0.50400001928E-02 0.  1.
       -1    1    3    3    0  502  0.25694939320E+03  0.14935687640E+03 -0.22290469546E+03  0.37150635322E+03  0.50400001928E-02 0. -1.
</event>
<event>
 5   0  0.2126207E-02  0.5967583E+03  0.7818609E-02  0.9912155E-01
       -2   -1    0    0    0  501  0.00000000000E+00  0.00000000000E+00  0.41377140031E+03  0.41377140031E+03  0.25500000920E-02 0.  1.
        2   -1    0    0  501    0  0.00000000000E+00  0.00000000000E+00 -0.21516736981E+03  0.21516736983E+03  0.25500000920E-02 0. -1.
    10030    2    1    2    0    0  0.00000000000E+00  0.00000000000E+00  0.19860403049E+03  0.62893877014E+03  0.59675825563E+03 0.  0.
        5    1    3    3  502    0  0.94478664739E+02 -0.17962904809E+03 -0.13115658712E+03  0.24169599366E+03  0.46999998093E+01 0. -1.
       -5    1    3    3    0  502 -0.94478664739E+02  0.17962904809E+03  0.32976061762E+03  0.38724277648E+03  0.46999998093E+01 0.  1.
</event>
<event>
 5   0  0.2142838E-02  0.6005788E+03  0.7818609E-02  0.9904206E-01
       -2   -1    0    0    0  501  0.00000000000E+00  0.00000000000E+00  0.21281360487E+03  0.21281360488E+03  0.25500000920E-02 0. -1.
        2   -1    0    0  501    0  0.00000000000E+00  0.00000000000E+00 -0.42372158027E+03  0.42372158027E+03  0.25500000920E-02 0.  1.
    10030    2    1    2    0    0  0.00000000000E+00  0.00000000000E+00 -0.21090797540E+03  0.63653518516E+03  0.60057877739E+03 0.  0.
        4    1    3    3  502    0  0.14294151189E+03 -0.61637500966E+02  0.16670898153E+03  0.22808979541E+03  0.12699999809E+01 0. -1.
       -4    1    3    3    0  502 -0.14294151189E+03  0.61637500966E+02 -0.37761695693E+03  0.40844538975E+03  0.12699999809E+01 0.  1.
</event>
<event>
 5   0  0.2092587E-02  0.5915237E+03  0.7818609E-02  0.9923149E-01
        2   -1    0    0  501    0  0.00000000000E+00  0.00000000000E+00  0.62801624019E+03  0.62801624019E+03  0.25500000920E-02 0. -1.
       -2   -1    0    0    0  501  0.00000000000E+00  0.00000000000E+00 -0.13928793228E+03  0.13928793231E+03  0.25500000920E-02 0.  1.
    10030    2    1    2    0    0  0.00000000000E+00  0.00000000000E+00  0.48872830791E+03  0.76730417250E+03  0.59152373933E+03 0.  0.
        3    1    3    3  502    0 -0.63591125056E+02 -0.26902600015E+03  0.38075944384E+03  0.47052798452E+03  0.10100000352E+00 0. -1.
       -3    1    3    3    0  502  0.63591125056E+02  0.26902600015E+03  0.10796886406E+03  0.29677618798E+03  0.10100000352E+00 0.  1.
</event>
<event>
 5   0  0.2126207E-02  0.5963505E+03  0.7818609E-02  0.9913007E-01
       -2   -1    0    0    0  501  0.00000000000E+00  0.00000000000E+00  0.70020583470E+02  0.70020583516E+02  0.25500000920E-02 0.  1.
        2   -1    0    0  501    0  0.00000000000E+00  0.00000000000E+00 -0.12697475624E+04  0.12697475624E+04  0.25500000920E-02 0. -1.
    10030    2    1    2    0    0  0.00000000000E+00  0.00000000000E+00 -0.11997269790E+04  0.13397681460E+04  0.59635045138E+03 0.  0.
        5    1    3    3  502    0 -0.69415402245E+02  0.26878858704E+03 -0.84412067772E+03  0.88860993194E+03  0.46999998093E+01 0. -1.
       -5    1    3    3    0  502  0.69415402245E+02 -0.26878858704E+03 -0.35560630125E+03  0.45115821402E+03  0.46999998093E+01 0.  1.
</event>
<event>
 5   0  0.1303808E-02  0.5996149E+03  0.7818609E-02  0.9906205E-01
       -1   -1    0    0    0  501  0.00000000000E+00  0.00000000000E+00  0.18903919288E+03  0.18903919295E+03  0.50400001928E-02 0. -1.
        1   -1    0    0  501    0  0.00000000000E+00  0.00000000000E+00 -0.47548080385E+03  0.47548080388E+03  0.50400001928E-02 0.  1.
    10030    2    1    2    0    0  0.00000000000E+00  0.00000000000E+00 -0.28644161096E+03  0.66451999683E+03  0.59961490116E+03 0.  0.
        4    1    3    3  502    0  0.15123386124E+03 -0.10645658643E+03 -0.40472476286E+03  0.44498138405E+03  0.12699999809E+01 0.  1.
       -4    1    3    3    0  502 -0.15123386124E+03  0.10645658643E+03  0.11828315190E+03  0.21953861278E+03  0.12699999809E+01 0. -1.
</event>
<event>
 5   0  0.1250390E-02  0.6005007E+03  0.7818609E-02  0.9904368E-01
        1   -1    0    0  501    0  0.00000000000E+00  0.00000000000E+00  0.28837013503E+03  0.28837013507E+03  0.50400001928E-02 0.  1.
       -1   -1    0    0    0  501  0.00000000000E+00  0.00000000000E+00 -0.31262002698E+03  0.31262002702E+03  0.50400001928E-02 0. -1.
    10030    2    1    2    0    0  0.00000000000E+00  0.00000000000E+00 -0.24249891956E+02  0.60099016210E+03  0.60050072246E+03 0.  0.
        3    1    3    3  502    0 -0.23098662311E+03  0.18070228726E+03 -0.76536803611E+02  0.30309409296E+03  0.10100000352E+00 0.  1.
       -3    1    3    3    0  502  0.23098662311E+03 -0.18070228726E+03  0.52286911655E+02  0.29789606914E+03  0.10100000352E+00 0. -1.
</event>
<event>
 5   0  0.1337051E-02  0.5990520E+03  0.7818609E-02  0.9907375E-01
        1   -1    0    0  501    0  0.00000000000E+00  0.00000000000E+00  0.14846372717E+03  0.14846372726E+03  0.50400001928E-02 0.  1.
       -1   -1    0    0    0  501  0.00000000000E+00  0.00000000000E+00 -0.60429452619E+03  0.60429452621E+03  0.50400001928E-02 0. -1.
    10030    2    1    2    0    0  0.00000000000E+00  0.00000000000E+00 -0.45583079902E+03  0.75275825347E+03  0.59905197674E+03 0.  0.
        5    1    3    3  502    0 -0.14413995882E+03  0.24672790984E+03 -0.34060737553E+03  0.44461945919E+03  0.46999998093E+01 0. -1.
       -5    1    3    3    0  502  0.14413995882E+03 -0.24672790984E+03 -0.11522342349E+03  0.30813879428E+03  0.46999998093E+01 0.  1.
</event>
<event>
 5   0  0.2179625E-02  0.5991971E+03  0.7818609E-02  0.9907073E-01
        2   -1    0    0  501    0  0.00000000000E+00  0.00000000000E+00  0.19559886428E+04  0.19559886428E+04  0.25500000920E-02 0.  1.
       -2   -1    0    0    0  501  0.00000000000E+00  0.00000000000E+00 -0.45889482008E+02  0.45889482079E+02  0.25500000920E-02 0. -1.
    10030    2    1    2    0    0  0.00000000000E+00  0.00000000000E+00  0.19100991608E+04  0.20018781249E+04  0.59919714854E+03 0.  0.
        1    1    3    3  502    0  0.21121215186E+03 -0.46493749629E+02  0.16477361816E+04  0.16618684563E+04  0.50400001928E-02 0.  1.
       -1    1    3    3    0  502 -0.21121215186E+03  0.46493749629E+02  0.26236297915E+03  0.34000966855E+03  0.50400001928E-02 0. -1.
</event>
<event>
 5   0  0.2126207E-02  0.5991086E+03  0.7818609E-02  0.9907257E-01
       -2   -1    0    0    0  501  0.00000000000E+00  0.00000000000E+00  0.29288440820E+03  0.29288440821E+03  0.25500000920E-02 0.  1.
        2   -1    0    0  501    0  0.00000000000E+00  0.00000000000E+00 -0.30637608297E+03  0.30637608299E+03  0.25500000920E-02 0. -1.
    10030    2    1    2    0    0  0.00000000000E+00  0.00000000000E+00 -0.13491674774E+02  0.59926049120E+03  0.59910859702E+03 0.  0.
        5    1    3    3  502    0 -0.75214175833E+02  0.31359192747E+02 -0.29503777973E+03  0.30612081386E+03  0.46999998093E+01 0. -1.
       -5    1    3    3    0  502  0.75214175833E+02 -0.31359192747E+02  0.28154610495E+03  0.29313967734E+03  0.46999998093E+01 0.  1.
</event>
<event>
 5   0  0.1337051E-02  0.5986715E+03  0.7818609E-02  0.9908166E-01
        1   -1    0    0  501    0  0.00000000000E+00  0.00000000000E+00  0.81575429281E+03  0.81575429283E+03  0.50400001928E-02 0. -1.
       -1   -1    0    0    0  501  0.00000000000E+00  0.00000000000E+00 -0.10983929500E+03  0.10983929511E+03  0.50400001928E-02 0.  1.
    10030    2    1    2    0    0  0.00000000000E+00  0.00000000000E+00  0.70591499781E+03  0.92559358794E+03  0.59867145071E+03 0.  0.
        5    1    3    3  502    0  0.49285534568E+02 -0.71552507178E+01 -0.10333116833E+03  0.11480279560E+03  0.46999998093E+01 0.  1.
       -5    1    3    3    0  502 -0.49285534568E+02  0.71552507178E+01  0.80924616614E+03  0.81079079234E+03  0.46999998093E+01 0. -1.
</event>
<event>
 5   0  0.1276705E-02  0.5998045E+03  0.7818609E-02  0.9905812E-01
        1   -1    0    0  501    0  0.00000000000E+00  0.00000000000E+00  0.19967883010E+03  0.19967883016E+03  0.50400001928E-02 0. -1.
       -1   -1    0    0    0  501  0.00000000000E+00  0.00000000000E+00 -0.45043016829E+03  0.45043016832E+03  0.50400001928E-02 0.  1.
    10030    2    1    2    0    0  0.00000000000E+00  0.00000000000E+00 -0.25075133819E+03  0.65010899848E+03  0.59980453175E+03 0.  0.
        1    1    3    3  502    0 -0.16131313525E+03  0.31008822181E+02  0.14658213889E+03  0.22015857495E+03  0.50400001928E-02 0. -1.
       -1    1    3    3    0  502  0.16131313525E+03 -0.31008822181E+02 -0.39733347709E+03  0.42995042353E+03  0.50400001928E-02 0.  1.
</event>
<event>
 5   0  0.2142838E-02  0.6005588E+03  0.7818609E-02  0.9904247E-01
        2   -1    0    0  501    0  0.00000000000E+00  0.00000000000E+00  0.86105484363E+03  0.86105484364E+03  0.25500000920E-02 0.  1.
       -2   -1    0    0    0  501  0.00000000000E+00  0.00000000000E+00 -0.10471772776E+03  0.10471772780E+03  0.25500000920E-02 0. -1.
    10030    2    1    2    0    0  0.00000000000E+00  0.00000000000E+00  0.75633711587E+03  0.96577257143E+03  0.60055876223E+03 0.  0.
        4    1    3    3  502    0 -0.10389230586E+03 -0.19260228525E+01 -0.74879415990E+02  0.12808536458E+03  0.12699999809E+01 0. -1.
       -4    1    3    3    0  502  0.10389230586E+03  0.19260228525E+01  0.83121653186E+03  0.83768720685E+03  0.12699999809E+01 0.  1.
</event>
<event>
 5   0  0.1303808E-02  0.6034590E+03  0.7818609E-02  0.9898256E-01
        1   -1    0    0  501    0  0.00000000000E+00  0.00000000000E+00  0.34296718332E+03  0.34296718336E+03  0.50400001928E-02 0.  1.
       -1   -1    0    0    0  501  0.00000000000E+00  0.00000000000E+00 -0.26545018425E+03  0.26545018430E+03  0.50400001928E-02 0. -1.
    10030    2    1    2    0    0  0.00000000000E+00  0.00000000000E+00  0.77516999073E+02  0.60841736766E+03  0.60345903599E+03 0.  0.
        4    1    3    3  502    0 -0.15798920799E+03  0.10955004170E+03  0.27321444939E+03  0.33408015466E+03  0.12699999809E+01 0.  1.
       -4    1    3    3    0  502  0.15798920799E+03 -0.10955004170E+03 -0.19569745032E+03  0.27433721300E+03  0.12699999809E+01 0. -1.
</event>
<event>
 5   0  0.2142838E-02  0.5997756E+03  0.7818609E-02  0.9905872E-01
       -2   -1    0    0    0  501  0.00000000000E+00  0.00000000000E+00  0.14983276647E+04  0.14983276647E+04  0.25500000920E-02 0. -1.
        2   -1    0    0  501    0  0.00000000000E+00  0.00000000000E+00 -0.60022054744E+02  0.60022054798E+02  0.25500000920E-02 0.  1.
    10030    2    1    2    0    0  0.00000000000E+00  0.00000000000E+00  0.14383056100E+04  0.15583497195E+04  0.59977564192E+03 0.  0.
        4    1    3    3  502    0 -0.10343249465E+03 -0.23338497512E+03  0.11280261711E+04  0.11565515480E+04  0.12699999809E+01 0. -1.
       -4    1    3    3    0  502  0.10343249465E+03  0.23338497512E+03  0.31027943887E+03  0.40179817153E+03  0.12699999809E+01 0.  1.
</event>
<event>
 5   0  0.2179625E-02  0.5955522E+03  0.7818609E-02  0.9914677E-01
        2   -1    0    0  501    0  0.00000000000E+00  0.00000000000E+00  0.50462650155E+03  0.50462650156E+03  0.25500000920E-02 0.  1.
       -2   -1    0    0    0  501  0.00000000000E+00  0.00000000000E+00 -0.17571531337E+03  0.17571531339E+03  0.25500000920E-02 0. -1.
    10030    2    1    2    0    0  0.00000000000E+00  0.00000000000E+00  0.32891118818E+03  0.68034181494E+03  0.59555219372E+03 0.  0.
        1    1    3    3  502    0  0.33716694866E+02  0.14010405089E+03 -0.13322948808E+03  0.19625508174E+03  0.50400001928E-02 0. -1.
       -1    1    3    3    0  502 -0.33716694866E+02 -0.14010405089E+03  0.46214067626E+03  0.48408673321E+03  0.50400001928E-02 0.  1.
</event>
<event>
 5   0  0.8551000E-03  0.5971183E+03  0.7818609E-02  0.9911403E-01
        4   -1    0    0  501    0  0.00000000000E+00  0.00000000000E+00  0.91313072175E+02  0.91321903451E+02  0.12699999809E+01 0. -1.
       -4   -1    0    0    0  501  0.00000000000E+00  0.00000000000E+00 -0.97611897775E+03  0.97611980393E+03  0.12699999809E+01 0.  1.
    10030    2    1    2    0    0  0.00000000000E+00  0.00000000000E+00 -0.88480590558E+03  0.10674417074E+04  0.59711833678E+03 0.  0.
        2    1    3    3  502    0  0.20605072636E+03  0.20767610627E+03 -0.54893445628E+03  0.62202516367E+03  0.25500000920E-02 0.  1.
       -2    1    3    3    0  502 -0.20605072636E+03 -0.20767610627E+03 -0.33587144930E+03  0.44541654371E+03  0.25500000920E-02 0. -1.
</event>
<event>
 5   0  0.1276705E-02  0.5988477E+03  0.7818609E-02  0.9907800E-01
       -1   -1    0    0    0  501  0.00000000000E+00  0.00000000000E+00  0.17561776366E+03  0.17561776373E+03  0.50400001928E-02 0. -1.
        1   -1    0    0  501    0  0.00000000000E+00  0.00000000000E+00 -0.51051013842E+03  0.51051013844E+03  0.50400001928E-02 0.  1.
    10030    2    1    2    0    0  0.00000000000E+00  0.00000000000E+00 -0.33489237476E+03  0.68612790217E+03  0.59884772310E+03 0.  0.
        1    1    3    3  502    0 -0.19551929583E+03 -0.20127409798E+03 -0.28715119289E+03  0.40149080334E+03  0.50400001928E-02 0.  1.
       -1    1    3    3    0  502  0.19551929583E+03  0.20127409798E+03 -0.47741181869E+02  0.28463709883E+03  0.50400001928E-02 0. -1.
</event>
<event>
 5   0  0.1337051E-02  0.6079867E+03  0.7818609E-02  0.9888973E-01
        1   -1    0    0  501    0  0.00000000000E+00  0.00000000000E+00  0.64030333213E+03  0.64030333215E+03  0.50400001928E-02 0. -1.
       -1   -1    0    0    0  501  0.00000000000E+00  0.00000000000E+00 -0.14432528952E+03  0.14432528961E+03  0.50400001928E-02 0.  1.
    10030    2    1    2    0    0  0.00000000000E+00  0.00000000000E+00  0.49597804261E+03  0.78462862176E+03  0.60798672298E+03 0.  0.
        5    1    3    3  502    0  0.43786117061E+02  0.21194822035E+03  0.52342274268E+03  0.56642098276E+03  0.46999998093E+01 0. -1.
       -5    1    3    3    0  502 -0.43786117061E+02 -0.21194822035E+03 -0.27444700063E+02  0.21820763900E+03  0.46999998093E+01 0.  1.
</event>
<event>
 5   0  0.2142838E-02  0.5989858E+03  0.7818609E-02  0.9907512E-01
       -2   -1    0    0    0  501  0.00000000000E+00  0.00000000000E+00  0.24540280342E+03  0.24540280343E+03  0.25500000920E-02 0. -1.
        2   -1    0    0  501    0  0.00000000000E+00  0.00000000000E+00 -0.36550520402E+03  0.36550520403E+03  0.25500000920E-02 0.  1.
    10030    2    1    2    0    0  0.00000000000E+00  0.00000000000E+00 -0.12010240060E+03  0.61090800746E+03  0.59898581531E+03 0.  0.
        4    1    3    3  502    0  0.20863121036E+03 -0.17674601166E+03 -0.18466432653E+03  0.32995251320E+03  0.12699999809E+01 0. -1.
       -4    1    3    3    0  502 -0.20863121036E+03  0.17674601166E+03  0.64561925928E+02  0.28095549426E+03  0.12699999809E+01 0.  1.
</event>
<event>
 5   0  0.8551000E-03  0.6102607E+03  0.7818609E-02  0.9884344E-01
        3   -1    0    0  501    0  0.00000000000E+00  0.00000000000E+00  0.66099403539E+02  0.66099480703E+02  0.10100000352E+00 0.  1.
       -3   -1    0    0    0  501  0.00000000000E+00  0.00000000000E+00 -0.14085524375E+04  0.14085524411E+04  0.10100000352E+00 0. -1.
    10030    2    1    2    0    0  0.00000000000E+00  0.00000000000E+00 -0.13424530339E+04  0.14746519218E+04  0.61026071653E+03 0.  0.
        3    1    3    3  502    0  0.15730189098E+03 -0.79420763134E+02 -0.69283420928E+02  0.18934557069E+03  0.10100000352E+00 0.  1.
       -3    1    3    3    0  502 -0.15730189098E+03  0.79420763134E+02 -0.12731696130E+04  0.12853063511E+04  0.10100000352E+00 0. -1.
</event>
<event>
 5   0  0.1303808E-02  0.5996383E+03  0.7818609E-02  0.9906157E-01
       -1   -1    0    0    0  501  0.00000000000E+00  0.00000000000E+00  0.19316260609E+03  0.19316260615E+03  0.50400001928E-02 0. -1.
        1   -1    0    0  501    0  0.00000000000E+00  0.00000000000E+00 -0.46536713122E+03  0.46536713125E+03  0.50400001928E-02 0.  1.
    10030    2    1    2    0    0  0.00000000000E+00  0.00000000000E+00 -0.27220452513E+03  0.65852973740E+03  0.59963831727E+03 0.  0.
        4    1    3    3  502    0 -0.10085623236E+01  0.56469318399E+02 -0.45946937493E+03  0.46292928242E+03  0.12699999809E+01 0.  1.
       -4    1    3    3    0  502  0.10085623236E+01 -0.56469318399E+02  0.18726484980E+03  0.19560045498E+03  0.12699999809E+01 0. -1.
</event>
<event>
 5   0  0.2142838E-02  0.6000013E+03  0.7818609E-02  0.9905403E-01
       -2   -1    0    0    0  501  0.00000000000E+00  0.00000000000E+00  0.55167178975E+03  0.55167178976E+03  0.25500000920E-02 0.  1.
        2   -1    0    0  501    0  0.00000000000E+00  0.00000000000E+00 -0.16314120265E+03  0.16314120267E+03  0.25500000920E-02 0. -1.
    10030    2    1    2    0    0  0.00000000000E+00  0.00000000000E+00  0.38853058711E+03  0.71481299243E+03  0.60000133085E+03 0.  0.
        4    1    3    3  502    0 -0.13773483381E+03  0.71549723853E+02  0.50011711138E+03  0.52364967815E+03  0.12699999809E+01 0.  1.
       -4    1    3    3    0  502  0.13773483381E+03 -0.71549723853E+02 -0.11158652427E+03  0.19116331428E+03  0.12699999809E+01 0. -1.
</event>
<event>
 5   0  0.8551000E-03  0.5983729E+03  0.7818609E-02  0.9908788E-01
        4   -1    0    0  501    0  0.00000000000E+00  0.00000000000E+00  0.36928537086E+03  0.36928755467E+03  0.12699999809E+01 0. -1.
       -4   -1    0    0    0  501  0.00000000000E+00  0.00000000000E+00 -0.24238932495E+03  0.24239265201E+03  0.12699999809E+01 0.  1.
    10030    2    1    2    0    0  0.00000000000E+00  0.00000000000E+00  0.12689604592E+03  0.61168020667E+03  0.59837285096E+03 0.  0.
        3    1    3    3  502    0 -0.25695842864E+03 -0.10388282587E+03  0.17861783177E+03  0.32973264259E+03  0.10100000352E+00 0. -1.
       -3    1    3    3    0  502  0.25695842864E+03  0.10388282587E+03 -0.51721785854E+02  0.28194756409E+03  0.10100000352E+00 0.  1.
</event>
<event>
 5   0  0.2179625E-02  0.5951067E+03  0.7818609E-02  0.9915610E-01
        2   -1    0    0  501    0  0.00000000000E+00  0.00000000000E+00  0.94568760944E+03  0.94568760944E+03  0.25500000920E-02 0.  1.
       -2   -1    0    0    0  501  0.00000000000E+00  0.00000000000E+00 -0.93622887801E+02  0.93622887835E+02  0.25500000920E-02 0. -1.
    10030    2    1    2    0    0  0.00000000000E+00  0.00000000000E+00  0.85206472164E+03  0.10393104973E+04  0.59510672983E+03 0.  0.
        1    1    3    3  502    0  0.44147208146E+02  0.27434424350E+03  0.24018539955E+03  0.36729111902E+03  0.50400001928E-02 0. -1.
       -1    1    3    3    0  502 -0.44147208146E+02 -0.27434424350E+03  0.61187932209E+03  0.67201937826E+03  0.50400001928E-02 0.  1.
</event>
<event>
 5   0  0.1276705E-02  0.5636121E+03  0.7818609E-02  0.9983915E-01
       -1   -1    0    0    0  501  0.00000000000E+00  0.00000000000E+00  0.13266106115E+03  0.13266106125E+03  0.50400001928E-02 0. -1.
        1   -1    0    0  501    0  0.00000000000E+00  0.00000000000E+00 -0.59862821444E+03  0.59862821446E+03  0.50400001928E-02 0.  1.
    10030    2    1    2    0    0  0.00000000000E+00  0.00000000000E+00 -0.46596715329E+03  0.73128927571E+03  0.56361211558E+03 0.  0.
        1    1    3    3  502    0  0.17956290053E+03 -0.36753144592E+02  0.44758248899E+02  0.18867148633E+03  0.50400001928E-02 0. -1.
       -1    1    3    3    0  502 -0.17956290053E+03  0.36753144592E+02 -0.51072540219E+03  0.54261778938E+03  0.50400001928E-02 0.  1.
</event>
<event>
 5   0  0.1276705E-02  0.5979306E+03  0.7818609E-02  0.9909709E-01
        1   -1    0    0  501    0  0.00000000000E+00  0.00000000000E+00  0.20726558585E+03  0.20726558591E+03  0.50400001928E-02 0.  1.
       -1   -1    0    0    0  501  0.00000000000E+00  0.00000000000E+00 -0.43123540198E+03  0.43123540201E+03  0.50400001928E-02 0. -1.
    10030    2    1    2    0    0  0.00000000000E+00  0.00000000000E+00 -0.22396981613E+03  0.63850098792E+03  0.59793062561E+03 0.  0.
        1    1    3    3  502    0  0.60163633632E+02  0.14802592305E+03 -0.38181324603E+03  0.41389937373E+03  0.50400001928E-02 0. -1.
       -1    1    3    3    0  502 -0.60163633632E+02 -0.14802592305E+03  0.15784342990E+03  0.22460161419E+03  0.50400001928E-02 0.  1.
</event>
<event>
 5   0  0.1250390E-02  0.5983932E+03  0.7818609E-02  0.9908745E-01
        1   -1    0    0  501    0  0.00000000000E+00  0.00000000000E+00  0.53281578315E+03  0.53281578318E+03  0.50400001928E-02 0.  1.
       -1   -1    0    0    0  501  0.00000000000E+00  0.00000000000E+00 -0.16801042665E+03  0.16801042672E+03  0.50400001928E-02 0. -1.
    10030    2    1    2    0    0  0.00000000000E+00  0.00000000000E+00  0.36480535651E+03  0.70082620990E+03  0.59839320546E+03 0.  0.
        3    1    3    3  502    0  0.40565448777E+02 -0.18156581338E+03  0.45683618231E+03  0.49326565651E+03  0.10100000352E+00 0.  1.
       -3    1    3    3    0  502 -0.40565448777E+02  0.18156581338E+03 -0.92030825801E+02  0.20756055339E+03  0.10100000352E+00 0. -1.
</event>
<event>
 5   0  0.2092587E-02  0.5911941E+03  0.7818609E-02  0.9923846E-01
       -2   -1    0    0    0  501  0.00000000000E+00  0.00000000000E+00  0.47535772669E+03  0.47535772670E+03  0.25500000920E-02 0.  1.
        2   -1    0    0  501    0  0.00000000000E+00  0.00000000000E+00 -0.18381442519E+03  0.18381442521E+03  0.25500000920E-02 0. -1.
    10030    2    1    2    0    0  0.00000000000E+00  0.00000000000E+00  0.29154330150E+03  0.65917215190E+03  0.59119407067E+03 0.  0.
        3    1    3    3  502    0 -0.98039200969E+02  0.43816910226E+02  0.45284002914E+03  0.46539844084E+03  0.10100000352E+00 0.  1.
       -3    1    3    3    0  502  0.98039200969E+02 -0.43816910226E+02 -0.16129672764E+03  0.19377371106E+03  0.10100000352E+00 0. -1.
</event>
<event>
 5   0  0.2141800E-02  0.6004758E+03  0.7818609E-02  0.9904419E-01
        2   -1    0    0  501    0  0.00000000000E+00  0.00000000000E+00  0.75399365971E+03  0.75399365972E+03  0.25500000920E-02 0.  1.
       -2   -1    0    0    0  501  0.00000000000E+00  0.00000000000E+00 -0.11955376995E+03  0.11955376998E+03  0.25500000920E-02 0. -1.
    10030    2    1    2    0    0  0.00000000000E+00  0.00000000000E+00  0.63443988976E+03  0.87354742969E+03  0.60047575989E+03 0.  0.
        2    1    3    3  502    0 -0.11290334378E+03 -0.21572585395E+03  0.57276926177E+03  0.62237403250E+03  0.25500000920E-02 0.  1.
       -2    1    3    3    0  502  0.11290334378E+03  0.21572585395E+03  0.61670627993E+02  0.25117339720E+03  0.25500000920E-02 0. -1.
</event>
<event>
 5   0  0.1332555E-02  0.5985196E+03  0.7818609E-02  0.9908482E-01
       -1   -1    0    0    0  501  0.00000000000E+00  0.00000000000E+00  0.91777843401E+02  0.91777843539E+02  0.50400001928E-02 0.  1.
        1   -1    0    0  501    0  0.00000000000E+00  0.00000000000E+00 -0.97579570993E+03  0.97579570994E+03  0.50400001928E-02 0. -1.
    10030    2    1    2    0    0  0.00000000000E+00  0.00000000000E+00 -0.88401786653E+03  0.10675735535E+04  0.59851959346E+03 0.  0.
        2    1    3    3  502    0  0.15218827826E+03  0.18094510188E+02  0.16464492983E+02  0.15414202176E+03  0.25500000920E-02 0.  1.
       -2    1    3    3    0  502 -0.15218827826E+03 -0.18094510188E+02 -0.90048235951E+03  0.91343153172E+03  0.25500000920E-02 0. -1.
</event>
<event>
 5   0  0.2179625E-02  0.6006098E+03  0.7818609E-02  0.9904142E-01
       -2   -1    0    0    0  501  0.00000000000E+00  0.00000000000E+00  0.12177374102E+03  0.12177374104E+03  0.25500000920E-02 0.  1.
        2   -1    0    0  501    0  0.00000000000E+00  0.00000000000E+00 -0.74057865322E+03  0.74057865322E+03  0.25500000920E-02 0. -1.
    10030    2    1    2    0    0  0.00000000000E+00  0.00000000000E+00 -0.61880491220E+03  0.86235239426E+03  0.60060980056E+03 0.  0.
        1    1    3    3  502    0  0.18148434671E+03  0.23202002942E+03 -0.22551995343E+03  0.37098397752E+03  0.50400001928E-02 0. -1.
       -1    1    3    3    0  502 -0.18148434671E+03 -0.23202002942E+03 -0.39328495877E+03  0.49136841675E+03  0.50400001928E-02 0.  1.
</event>
<event>
 5   0  0.2126207E-02  0.5995326E+03  0.7818609E-02  0.9906376E-01
        2   -1    0    0  501    0  0.00000000000E+00  0.00000000000E+00  0.16721196831E+04  0.16721196831E+04  0.25500000920E-02 0.  1.
       -2   -1    0    0    0  501  0.00000000000E+00  0.00000000000E+00 -0.53740070187E+02  0.53740070248E+02  0.25500000920E-02 0. -1.
    10030    2    1    2    0    0  0.00000000000E+00  0.00000000000E+00  0.16183796129E+04  0.17258597533E+04  0.59953258188E+03 0.  0.
        5    1    3    3  502    0 -0.36820186522E+02 -0.22212995342E+03  0.13787042840E+04  0.13969771062E+04  0.46999998093E+01 0.  1.
       -5    1    3    3    0  502  0.36820186522E+02  0.22212995342E+03  0.23967532884E+03  0.32888264715E+03  0.46999998093E+01 0. -1.
</event>
<event>
 5   0  0.1303808E-02  0.5985521E+03  0.7818609E-02  0.9908414E-01
       -1   -1    0    0    0  501  0.00000000000E+00  0.00000000000E+00  0.12701821122E+04  0.12701821122E+04  0.50400001928E-02 0. -1.
        1   -1    0    0  501    0  0.00000000000E+00  0.00000000000E+00 -0.70514430432E+02  0.70514430612E+02  0.50400001928E-02 0.  1.
    10030    2    1    2    0    0  0.00000000000E+00  0.00000000000E+00  0.11996676817E+04  0.13406965428E+04  0.59855214748E+03 0.  0.
        4    1    3    3  502    0  0.84657326012E+02 -0.47692151827E+02 -0.34192800460E+02  0.10301536146E+03  0.12699999809E+01 0.  1.
       -4    1    3    3    0  502 -0.84657326012E+02  0.47692151827E+02  0.12338604822E+04  0.12376811813E+04  0.12699999809E+01 0. -1.
</event>
<event>
 5   0  0.2179625E-02  0.6001373E+03  0.7818609E-02  0.9905121E-01
       -2   -1    0    0    0  501  0.00000000000E+00  0.00000000000E+00  0.11346832402E+03  0.11346832405E+03  0.25500000920E-02 0.  1.
        2   -1    0    0  501    0  0.00000000000E+00  0.00000000000E+00 -0.79353595206E+03  0.79353595206E+03  0.25500000920E-02 0. -1.
    10030    2    1    2    0    0  0.00000000000E+00  0.00000000000E+00 -0.68006762804E+03  0.90700427611E+03  0.60013729944E+03 0.  0.
        1    1    3    3  502    0 -0.25406053373E+02 -0.29865252995E+03 -0.36153472250E+03  0.46962342019E+03  0.50400001928E-02 0.  1.
       -1    1    3    3    0  502  0.25406053373E+02  0.29865252995E+03 -0.31853290554E+03  0.43738085592E+03  0.50400001928E-02 0. -1.
</event>
<event>
 5   0  0.1276705E-02  0.5967337E+03  0.7818609E-02  0.9912206E-01
        1   -1    0    0  501    0  0.00000000000E+00  0.00000000000E+00  0.20927597817E+03  0.20927597823E+03  0.50400001928E-02 0.  1.
       -1   -1    0    0    0  501  0.00000000000E+00  0.00000000000E+00 -0.42538461441E+03  0.42538461444E+03  0.50400001928E-02 0. -1.
    10030    2    1    2    0    0  0.00000000000E+00  0.00000000000E+00 -0.21610863624E+03  0.63466059267E+03  0.59673371384E+03 0.  0.
        1    1    3    3  502    0 -0.93990328960E+02  0.35482926944E+00  0.19311930314E+03  0.21477749676E+03  0.50400001928E-02 0.  1.
       -1    1    3    3    0  502  0.93990328960E+02 -0.35482926944E+00 -0.40922793938E+03  0.41988309592E+03  0.50400001928E-02 0. -1.
</event>
<event>
 5   0  0.2179625E-02  0.6018410E+03  0.7818609E-02  0.9901594E-01
        2   -1    0    0  501    0  0.00000000000E+00  0.00000000000E+00  0.94294645922E+03  0.94294645922E+03  0.25500000920E-02 0. -1.
       -2   -1    0    0    0  501  0.00000000000E+00  0.00000000000E+00 -0.96032126979E+02  0.96032127013E+02  0.25500000920E-02 0.  1.
    10030    2    1    2    0    0  0.00000000000E+00  0.00000000000E+00  0.84691433224E+03  0.10389785862E+04  0.60184102261E+03 0.  0.
        1    1    3    3  502    0 -0.25826847809E+03 -0.48312630528E+02  0.67668415372E+03  0.72590506333E+03  0.50400001928E-02 0.  1.
       -1    1    3    3    0  502  0.25826847809E+03  0.48312630528E+02  0.17023017852E+03  0.31307352291E+03  0.50400001928E-02 0. -1.
</event>
<event>
 5   0  0.1332555E-02  0.5991712E+03  0.7818609E-02  0.9907127E-01
       -1   -1    0    0    0  501  0.00000000000E+00  0.00000000000E+00  0.30494890321E+03  0.30494890325E+03  0.50400001928E-02 0. -1.
        1   -1    0    0  501    0  0.00000000000E+00  0.00000000000E+00 -0.29431664382E+03  0.29431664387E+03  0.50400001928E-02 0.  1.
    10030    2    1    2    0    0  0.00000000000E+00  0.00000000000E+00  0.10632259390E+02  0.59926554712E+03  0.59917122013E+03 0.  0.
        2    1    3    3  502    0 -0.36545895574E+02 -0.11319325694E+03  0.28031981698E+03  0.30451193031E+03  0.25500000920E-02 0. -1.
       -2    1    3    3    0  502  0.36545895574E+02  0.11319325694E+03 -0.26968755759E+03  0.29475361682E+03  0.25500000920E-02 0.  1.
</event>
<event>
 5   0  0.2141800E-02  0.5990886E+03  0.7818609E-02  0.9907299E-01
       -2   -1    0    0    0  501  0.00000000000E+00  0.00000000000E+00  0.72706485647E+02  0.72706485691E+02  0.25500000920E-02 0.  1.
        2   -1    0    0  501    0  0.00000000000E+00  0.00000000000E+00 -0.12340959355E+04  0.12340959355E+04  0.25500000920E-02 0. -1.
    10030    2    1    2    0    0  0.00000000000E+00  0.00000000000E+00 -0.11613894498E+04  0.13068024212E+04  0.59908856925E+03 0.  0.
        2    1    3    3  502    0  0.12236749205E+03 -0.96998328057E+02 -0.11382947070E+04  0.11489548811E+04  0.25500000920E-02 0. -1.
       -2    1    3    3    0  502 -0.12236749205E+03  0.96998328057E+02 -0.23094742816E+02  0.15784754008E+03  0.25500000920E-02 0.  1.
</event>
<event>
 5   0  0.2141800E-02  0.5971293E+03  0.7818609E-02  0.9911380E-01
       -2   -1    0    0    0  501  0.00000000000E+00  0.00000000000E+00  0.10382285622E+03  0.10382285625E+03  0.25500000920E-02 0.  1.
        2   -1    0    0  501    0  0.00000000000E+00  0.00000000000E+00 -0.85858593008E+03  0.85858593008E+03  0.25500000920E-02 0. -1.
    10030    2    1    2    0    0  0.00000000000E+00  0.00000000000E+00 -0.75476307386E+03  0.96240878633E+03  0.59712927775E+03 0.  0.
        2    1    3    3  502    0  0.19163175795E+03  0.22519173082E+03 -0.44396742357E+03  0.53342395848E+03  0.25500000920E-02 0. -1.
       -2    1    3    3    0  502 -0.19163175795E+03 -0.22519173082E+03 -0.31079565029E+03  0.42898482785E+03  0.25500000920E-02 0.  1.
</event>
<event>
 5   0  0.1303808E-02  0.6002861E+03  0.7818609E-02  0.9904813E-01
       -1   -1    0    0    0  501  0.00000000000E+00  0.00000000000E+00  0.64707432147E+03  0.64707432149E+03  0.50400001928E-02 0. -1.
        1   -1    0    0  501    0  0.00000000000E+00  0.00000000000E+00 -0.13922025983E+03  0.13922025993E+03  0.50400001928E-02 0.  1.
    10030    2    1    2    0    0  0.00000000000E+00  0.00000000000E+00  0.50785406163E+03  0.78629458141E+03  0.60028611582E+03 0.  0.
        4    1    3    3  502    0  0.16328347476E+03  0.25172038766E+03  0.24381509887E+03  0.38661616887E+03  0.12699999809E+01 0.  1.
       -4    1    3    3    0  502 -0.16328347476E+03 -0.25172038766E+03  0.26403896276E+03  0.39967841254E+03  0.12699999809E+01 0. -1.
</event>
<event>
 5   0  0.1337051E-02  0.5993076E+03  0.7818609E-02  0.9906844E-01
       -1   -1    0    0    0  501  0.00000000000E+00  0.00000000000E+00  0.31539219790E+03  0.31539219794E+03  0.50400001928E-02 0.  1.
        1   -1    0    0  501    0  0.00000000000E+00  0.00000000000E+00 -0.28470073610E+03  0.28470073615E+03  0.50400001928E-02 0. -1.
    10030    2    1    2    0    0  0.00000000000E+00  0.00000000000E+00  0.30691461799E+02  0.60009293409E+03  0.59930757021E+03 0.  0.
        5    1    3    3  502    0  0.86860639544E+02 -0.13514720721E+03 -0.23789033976E+03  0.28709483114E+03  0.46999998093E+01 0. -1.
       -5    1    3    3    0  502 -0.86860639544E+02  0.13514720721E+03  0.26858180156E+03  0.31299810294E+03  0.46999998093E+01 0.  1.
</event>
<event>
 5   0  0.8551000E-03  0.6012868E+03  0.7818609E-02  0.9902740E-01
        4   -1    0    0  501    0  0.00000000000E+00  0.00000000000E+00  0.31479207935E+03  0.31479464119E+03  0.12699999809E+01 0. -1.
       -4   -1    0    0    0  501  0.00000000000E+00  0.00000000000E+00 -0.28712554535E+03  0.28712835404E+03  0.12699999809E+01 0.  1.
    10030    2    1    2    0    0  0.00000000000E+00  0.00000000000E+00  0.27666534005E+02  0.60192299523E+03  0.60128683262E+03 0.  0.
        3    1    3    3  502    0  0.13527016253E+02  0.26435337851E+03  0.15653500571E+03  0.30752057999E+03  0.10100000352E+00 0. -1.
       -3    1    3    3    0  502 -0.13527016253E+02 -0.26435337851E+03 -0.12886847171E+03  0.29440241524E+03  0.10100000352E+00 0.  1.
</event>
<event>
 5   0  0.2092587E-02  0.5994347E+03  0.7818609E-02  0.9906580E-01
        2   -1    0    0  501    0  0.00000000000E+00  0.00000000000E+00  0.23351458144E+03  0.23351458145E+03  0.25500000920E-02 0.  1.
       -2   -1    0    0    0  501  0.00000000000E+00  0.00000000000E+00 -0.38468901077E+03  0.38468901078E+03  0.25500000920E-02 0. -1.
    10030    2    1    2    0    0  0.00000000000E+00  0.00000000000E+00 -0.15117442933E+03  0.61820359223E+03  0.59943471151E+03 0.  0.
        3    1    3    3  502    0 -0.22669903519E+03 -0.11610464302E+03  0.87339494513E+02  0.26925998253E+03  0.10100000352E+00 0.  1.
       -3    1    3    3    0  502  0.22669903519E+03  0.11610464302E+03 -0.23851392385E+03  0.34894360971E+03  0.10100000352E+00 0. -1.
</event>
<event>
 5   0  0.8551000E-03  0.6001719E+03  0.7818609E-02  0.9905050E-01
        4   -1    0    0  501    0  0.00000000000E+00  0.00000000000E+00  0.27140053518E+03  0.27140350660E+03  0.12699999809E+01 0. -1.
       -4   -1    0    0    0  501  0.00000000000E+00  0.00000000000E+00 -0.33179719955E+03  0.33179963009E+03  0.12699999809E+01 0.  1.
    10030    2    1    2    0    0  0.00000000000E+00  0.00000000000E+00 -0.60396664367E+02  0.60320313669E+03  0.60017186459E+03 0.  0.
        5    1    3    3  502    0 -0.23266690706E+03 -0.16985264602E+03  0.54164077728E+02  0.29315464915E+03  0.46999998093E+01 0. -1.
       -5    1    3    3    0  502  0.23266690706E+03  0.16985264602E+03 -0.11456074210E+03  0.31004848755E+03  0.46999998093E+01 0.  1.
</event>
<event>
 5   0  0.1276705E-02  0.6003580E+03  0.7818609E-02  0.9904664E-01
       -1   -1    0    0    0  501  0.00000000000E+00  0.00000000000E+00  0.22794496060E+03  0.22794496066E+03  0.50400001928E-02 0. -1.
        1   -1    0    0  501    0  0.00000000000E+00  0.00000000000E+00 -0.39530350584E+03  0.39530350588E+03  0.50400001928E-02 0.  1.
    10030    2    1    2    0    0  0.00000000000E+00  0.00000000000E+00 -0.16735854524E+03  0.62324846654E+03  0.60035803349E+03 0.  0.
        1    1    3    3  502    0  0.84338941583E+02 -0.17974983187E+03 -0.31739501925E+03  0.37438303566E+03  0.50400001928E-02 0.  1.
       -1    1    3    3    0  502 -0.84338941583E+02  0.17974983187E+03  0.15003647401E+03  0.24886543087E+03  0.50400001928E-02 0. -1.
</event>
<event>
 5   0  0.2179625E-02  0.5997982E+03  0.7818609E-02  0.9905825E-01
       -2   -1    0    0    0  501  0.00000000000E+00  0.00000000000E+00  0.59122341591E+02  0.59122341646E+02  0.25500000920E-02 0. -1.
        2   -1    0    0  501    0  0.00000000000E+00  0.00000000000E+00 -0.15212432464E+04  0.15212432464E+04  0.25500000920E-02 0.  1.
    10030    2    1    2    0    0  0.00000000000E+00  0.00000000000E+00 -0.14621209048E+04  0.15803655880E+04  0.59979817573E+03 0.  0.
        1    1    3    3  502    0  0.21888479704E+03  0.29550601075E+02 -0.12655845200E+04  0.12847131857E+04  0.50400001928E-02 0.  1.
       -1    1    3    3    0  502 -0.21888479704E+03 -0.29550601075E+02 -0.19653638484E+03  0.29565240231E+03  0.50400001928E-02 0. -1.
</event>
<event>
 5   0  0.1337051E-02  0.5967525E+03  0.7818609E-02  0.9912166E-01
        1   -1    0    0  501    0  0.00000000000E+00  0.00000000000E+00  0.38466202251E+03  0.38466202254E+03  0.50400001928E-02 0.  1.
       -1   -1    0    0    0  501  0.00000000000E+00  0.00000000000E+00 -0.23144577351E+03  0.23144577357E+03  0.50400001928E-02 0. -1.
    10030    2    1    2    0    0  0.00000000000E+00  0.00000000000E+00  0.15321624900E+03  0.61610779611E+03  0.59675254291E+03 0.  0.
        5    1    3    3  502    0  0.23401675109E+03 -0.32851472757E+02  0.26462246276E+03  0.35481008560E+03  0.46999998093E+01 0.  1.
       -5    1    3    3    0  502 -0.23401675109E+03  0.32851472757E+02 -0.11140621376E+03  0.26129771050E+03  0.46999998093E+01 0. -1.
</event>
<event>
 5   0  0.1337051E-02  0.5961959E+03  0.7818609E-02  0.9913330E-01
       -1   -1    0    0    0  501  0.00000000000E+00  0.00000000000E+00  0.17259428556E+03  0.17259428563E+03  0.50400001928E-02 0. -1.
        1   -1    0    0  501    0  0.00000000000E+00  0.00000000000E+00 -0.51486281218E+03  0.51486281221E+03  0.50400001928E-02 0.  1.
    10030    2    1    2    0    0  0.00000000000E+00  0.00000000000E+00 -0.34226852662E+03  0.68745709784E+03  0.59619587138E+03 0.  0.
        5    1    3    3  502    0 -0.39746908949E+02  0.19060611912E+03 -0.43135537957E+03  0.47328644910E+03  0.46999998093E+01 0.  1.
       -5    1    3    3    0  502  0.39746908949E+02 -0.19060611912E+03  0.89086852948E+02  0.21417064874E+03  0.46999998093E+01 0. -1.
</event>
<event>
 5   0  0.2141800E-02  0.6108889E+03  0.7818609E-02  0.9883069E-01
        2   -1    0    0  501    0  0.00000000000E+00  0.00000000000E+00  0.25856653884E+03  0.25856653885E+03  0.25500000920E-02 0.  1.
       -2   -1    0    0    0  501  0.00000000000E+00  0.00000000000E+00 -0.36082133089E+03  0.36082133090E+03  0.25500000920E-02 0. -1.
    10030    2    1    2    0    0  0.00000000000E+00  0.00000000000E+00 -0.10225479206E+03  0.61938786975E+03  0.61088893483E+03 0.  0.
        2    1    3    3  502    0 -0.17743909424E+03  0.84090821783E+02  0.18609435993E+03  0.27053097656E+03  0.25500000920E-02 0.  1.
       -2    1    3    3    0  502  0.17743909424E+03 -0.84090821783E+02 -0.28834915198E+03  0.34885689320E+03  0.25500000920E-02 0. -1.
</event>
<event>
 5   0  0.2141800E-02  0.5986390E+03  0.7818609E-02  0.9908234E-01
       -2   -1    0    0    0  501  0.00000000000E+00  0.00000000000E+00  0.11289099351E+03  0.11289099354E+03  0.25500000920E-02 0.  1.
        2   -1    0    0  501    0  0.00000000000E+00  0.00000000000E+00 -0.79361664384E+03  0.79361664384E+03  0.25500000920E-02 0. -1.
    10030    2    1    2    0    0  0.00000000000E+00  0.00000000000E+00 -0.68072565033E+03  0.90650763738E+03  0.59863902781E+03 0.  0.
        2    1    3    3  502    0 -0.10858146734E+03  0.27716268813E+03 -0.29288388498E+03  0.41760036019E+03  0.25500000920E-02 0. -1.
       -2    1    3    3    0  502  0.10858146734E+03 -0.27716268813E+03 -0.38784176534E+03  0.48890727719E+03  0.25500000920E-02 0.  1.
</event>
<event>
 5   0  0.1276705E-02  0.5983894E+03  0.7818609E-02  0.9908753E-01
        1   -1    0    0  501    0  0.00000000000E+00  0.00000000000E+00  0.32784811234E+03  0.32784811238E+03  0.50400001928E-02 0.  1.
       -1   -1    0    0    0  501  0.00000000000E+00  0.00000000000E+00 -0.27304551002E+03  0.27304551007E+03  0.50400001928E-02 0. -1.
    10030    2    1    2    0    0  0.00000000000E+00  0.00000000000E+00  0.54802602324E+02  0.60089362245E+03  0.59838935508E+03 0.  0.
        1    1    3    3  502    0 -0.72796015251E+02  0.78104073771E+02  0.30806687859E+03  0.32604402752E+03  0.50400001928E-02 0.  1.
       -1    1    3    3    0  502  0.72796015251E+02 -0.78104073771E+02 -0.25326427626E+03  0.27484959493E+03  0.50400001928E-02 0. -1.
</event>
<event>
 5   0  0.2126207E-02  0.6000631E+03  0.7818609E-02  0.9905275E-01
        2   -1    0    0  501    0  0.00000000000E+00  0.00000000000E+00  0.83466365911E+03  0.83466365911E+03  0.25500000920E-02 0.  1.
       -2   -1    0    0    0  501  0.00000000000E+00  0.00000000000E+00 -0.10785055260E+03  0.10785055263E+03  0.25500000920E-02 0. -1.
    10030    2    1    2    0    0  0.00000000000E+00  0.00000000000E+00  0.72681310651E+03  0.94251421174E+03  0.60006311963E+03 0.  0.
        5    1    3    3  502    0 -0.87371042239E+02 -0.24614698297E+03  0.13163071232E+03  0.29252482061E+03  0.46999998093E+01 0. -1.
       -5    1    3    3    0  502  0.87371042239E+02  0.24614698297E+03  0.59518239418E+03  0.64998939113E+03  0.46999998093E+01 0.  1.
</event>
<event>
 5   0  0.1303808E-02  0.6008541E+03  0.7818609E-02  0.9903636E-01
        1   -1    0    0  501    0  0.00000000000E+00  0.00000000000E+00  0.18604664832E+03  0.18604664839E+03  0.50400001928E-02 0.  1.
       -1   -1    0    0    0  501  0.00000000000E+00  0.00000000000E+00 -0.48512786542E+03  0.48512786545E+03  0.50400001928E-02 0. -1.
    10030    2    1    2    0    0  0.00000000000E+00  0.00000000000E+00 -0.29908121710E+03  0.67117451384E+03  0.60085410342E+03 0.  0.
        4    1    3    3  502    0  0.13921504196E+03  0.20601585668E+03 -0.33789070590E+03  0.41951770302E+03  0.12699999809E+01 0. -1.
       -4    1    3    3    0  502 -0.13921504196E+03 -0.20601585668E+03  0.38809488798E+02  0.25165681082E+03  0.12699999809E+01 0.  1.
</event>
<event>
 5   0  0.2141800E-02  0.6002703E+03  0.7818609E-02  0.9904845E-01
        2   -1    0    0  501    0  0.00000000000E+00  0.00000000000E+00  0.71554150195E+03  0.71554150196E+03  0.25500000920E-02 0. -1.
       -2   -1    0    0    0  501  0.00000000000E+00  0.00000000000E+00 -0.12589222669E+03  0.12589222672E+03  0.25500000920E-02 0.  1.
    10030    2    1    2    0    0  0.00000000000E+00  0.00000000000E+00  0.58964927526E+03  0.84143372868E+03  0.60027031573E+03 0.  0.
        2    1    3    3  502    0 -0.22884776157E+02  0.88983420221E+02  0.69534335883E+03  0.70138730294E+03  0.25500000920E-02 0. -1.
       -2    1    3    3    0  502  0.22884776157E+02 -0.88983420221E+02 -0.10569408357E+03  0.14004642574E+03  0.25500000920E-02 0.  1.
</event>
<event>
 5   0  0.1250390E-02  0.6005291E+03  0.7818609E-02  0.9904309E-01
       -1   -1    0    0    0  501  0.00000000000E+00  0.00000000000E+00  0.59832836034E+02  0.59832836246E+02  0.50400001928E-02 0.  1.
        1   -1    0    0  501    0  0.00000000000E+00  0.00000000000E+00 -0.15068450306E+04  0.15068450306E+04  0.50400001928E-02 0. -1.
    10030    2    1    2    0    0  0.00000000000E+00  0.00000000000E+00 -0.14470121946E+04  0.15666778669E+04  0.60052913941E+03 0.  0.
        3    1    3    3  502    0  0.14821783973E+03 -0.81492747180E+02 -0.13707334295E+04  0.13811298783E+04  0.10100000352E+00 0. -1.
       -3    1    3    3    0  502 -0.14821783973E+03  0.81492747180E+02 -0.76278765118E+02  0.18554798858E+03  0.10100000352E+00 0.  1.
</event>
<event>
 5   0  0.1337051E-02  0.6041202E+03  0.7818609E-02  0.9896895E-01
        1   -1    0    0  501    0  0.00000000000E+00  0.00000000000E+00  0.43815204414E+03  0.43815204417E+03  0.50400001928E-02 0.  1.
       -1   -1    0    0    0  501  0.00000000000E+00  0.00000000000E+00 -0.20823891492E+03  0.20823891498E+03  0.50400001928E-02 0. -1.
    10030    2    1    2    0    0  0.00000000000E+00  0.00000000000E+00  0.22991312922E+03  0.64639095914E+03  0.60412020747E+03 0.  0.
        5    1    3    3  502    0 -0.87449121763E+02  0.74402913746E+02  0.41385031425E+03  0.42950822469E+03  0.46999998093E+01 0.  1.
       -5    1    3    3    0  502  0.87449121763E+02 -0.74402913746E+02 -0.18393718503E+03  0.21688273446E+03  0.46999998093E+01 0. -1.
</event>
<event>
 5   0  0.8551000E-03  0.6009467E+03  0.7818609E-02  0.9903444E-01
       -4   -1    0    0    0  501  0.00000000000E+00  0.00000000000E+00  0.13455975257E+03  0.13456574568E+03  0.12699999809E+01 0.  1.
        4   -1    0    0  501    0  0.00000000000E+00  0.00000000000E+00 -0.67093869804E+03  0.67093990001E+03  0.12699999809E+01 0. -1.
    10030    2    1    2    0    0  0.00000000000E+00  0.00000000000E+00 -0.53637894547E+03  0.80550564569E+03  0.60094672984E+03 0.  0.
        5    1    3    3  502    0 -0.78116780949E+02  0.71050790919E+02 -0.64519957644E+03  0.65380045105E+03  0.46999998093E+01 0. -1.
       -5    1    3    3    0  502  0.78116780949E+02 -0.71050790919E+02  0.10882063098E+03  0.15170519464E+03  0.46999998093E+01 0.  1.
</event>
<event>
 5   0  0.1337051E-02  0.5682105E+03  0.7818609E-02  0.9973646E-01
        1   -1    0    0  501    0  0.00000000000E+00  0.00000000000E+00  0.17651759558E+04  0.17651759558E+04  0.50400001928E-02 0. -1.
       -1   -1    0    0    0  501  0.00000000000E+00  0.00000000000E+00 -0.45726768825E+02  0.45726769103E+02  0.50400001928E-02 0.  1.
    10030    2    1    2    0    0  0.00000000000E+00  0.00000000000E+00  0.17194491869E+04  0.18109027249E+04  0.56821050016E+03 0.  0.
        5    1    3    3  502    0 -0.93866335913E+02  0.19649224667E+03  0.14410721287E+04  0.14574399000E+04  0.46999998093E+01 0. -1.
       -5    1    3    3    0  502  0.93866335913E+02 -0.19649224667E+03  0.27837705828E+03  0.35346282491E+03  0.46999998093E+01 0.  1.
</event>
<event>
 5   0  0.2141800E-02  0.6021699E+03  0.7818609E-02  0.9900914E-01
       -2   -1    0    0    0  501  0.00000000000E+00  0.00000000000E+00  0.50680369231E+03  0.50680369232E+03  0.25500000920E-02 0. -1.
        2   -1    0    0  501    0  0.00000000000E+00  0.00000000000E+00 -0.17887033955E+03  0.17887033957E+03  0.25500000920E-02 0.  1.
    10030    2    1    2    0    0  0.00000000000E+00  0.00000000000E+00  0.32793335276E+03  0.68567403189E+03  0.60216990473E+03 0.  0.
        2    1    3    3  502    0  0.16223315998E+03  0.15787624367E+02 -0.12428450351E+03  0.20497679161E+03  0.25500000920E-02 0.  1.
       -2    1    3    3    0  502 -0.16223315998E+03 -0.15787624367E+02  0.45221785627E+03  0.48069724028E+03  0.25500000920E-02 0. -1.
</event>
<event>
 5   0  0.2141800E-02  0.6002376E+03  0.7818609E-02  0.9904913E-01
       -2   -1    0    0    0  501  0.00000000000E+00  0.00000000000E+00  0.63354541442E+02  0.63354541494E+02  0.25500000920E-02 0. -1.
        2   -1    0    0  501    0  0.00000000000E+00  0.00000000000E+00 -0.14217022238E+04  0.14217022238E+04  0.25500000920E-02 0.  1.
    10030    2    1    2    0    0  0.00000000000E+00  0.00000000000E+00 -0.13583476824E+04  0.14850567653E+04  0.60023759461E+03 0.  0.
        2    1    3    3  502    0  0.25637632649E+03  0.15596381013E+03 -0.68960088876E+03  0.75206576616E+03  0.25500000920E-02 0. -1.
       -2    1    3    3    0  502 -0.25637632649E+03 -0.15596381013E+03 -0.66874679360E+03  0.73299099913E+03  0.25500000920E-02 0.  1.
</event>
<event>
 5   0  0.1332555E-02  0.6012148E+03  0.7818609E-02  0.9902889E-01
       -1   -1    0    0    0  501  0.00000000000E+00  0.00000000000E+00  0.44153556537E+03  0.44153556540E+03  0.50400001928E-02 0. -1.
        1   -1    0    0  501    0  0.00000000000E+00  0.00000000000E+00 -0.20466028688E+03  0.20466028695E+03  0.50400001928E-02 0.  1.
    10030    2    1    2    0    0  0.00000000000E+00  0.00000000000E+00  0.23687527848E+03  0.64619585234E+03  0.60121475533E+03 0.  0.
        2    1    3    3  502    0 -0.72524065904E+02 -0.20398884340E+03 -0.10571675088E+03  0.24092990638E+03  0.25500000920E-02 0.  1.
       -2    1    3    3    0  502  0.72524065904E+02  0.20398884340E+03  0.34259202936E+03  0.40526594596E+03  0.25500000920E-02 0. -1.
</event>
<event>
 5   0  0.2142838E-02  0.6028853E+03  0.7818609E-02  0.9899438E-01
       -2   -1    0    0    0  501  0.00000000000E+00  0.00000000000E+00  0.44960455862E+02  0.44960455934E+02  0.25500000920E-02 0. -1.
        2   -1    0    0  501    0  0.00000000000E+00  0.00000000000E+00 -0.20210576209E+04  0.20210576209E+04  0.25500000920E-02 0.  1.
    10030    2    1    2    0    0  0.00000000000E+00  0.00000000000E+00 -0.19760971650E+04  0.20660180768E+04  0.60288530264E+03 0.  0.
        4    1    3    3  502    0 -0.74806072163E+02  0.19292236718E+03 -0.23685657891E+03  0.31451174869E+03  0.12699999809E+01 0. -1.
       -4    1    3    3    0  502  0.74806072163E+02 -0.19292236718E+03 -0.17392405861E+04  0.17515063281E+04  0.12699999809E+01 0.  1.
</event>
<event>
 5   0  0.1337051E-02  0.6007268E+03  0.7818609E-02  0.9903899E-01
        1   -1    0    0  501    0  0.00000000000E+00  0.00000000000E+00  0.70987253295E+03  0.70987253297E+03  0.50400001928E-02 0. -1.
       -1   -1    0    0    0  501  0.00000000000E+00  0.00000000000E+00 -0.12709064559E+03  0.12709064569E+03  0.50400001928E-02 0.  1.
    10030    2    1    2    0    0  0.00000000000E+00  0.00000000000E+00  0.58278188736E+03  0.83696317866E+03  0.60072675502E+03 0.  0.
        5    1    3    3  502    0 -0.23538948596E+03 -0.17037971758E+03  0.39711850658E+03  0.49210025049E+03  0.46999998093E+01 0. -1.
       -5    1    3    3    0  502  0.23538948596E+03  0.17037971758E+03  0.18566338077E+03  0.34486292817E+03  0.46999998093E+01 0.  1.
</event>
<event>
 5   0  0.1337051E-02  0.6050878E+03  0.7818609E-02  0.9894906E-01
       -1   -1    0    0    0  501  0.00000000000E+00  0.00000000000E+00  0.12328426519E+03  0.12328426530E+03  0.50400001928E-02 0.  1.
        1   -1    0    0  501    0  0.00000000000E+00  0.00000000000E+00 -0.74245336934E+03  0.74245336936E+03  0.50400001928E-02 0. -1.
    10030    2    1    2    0    0  0.00000000000E+00  0.00000000000E+00 -0.61916910415E+03  0.86573763466E+03  0.60508782216E+03 0.  0.
        5    1    3    3  502    0 -0.26077838479E+03 -0.14892620252E+03 -0.25747747798E+03  0.39560222628E+03  0.46999998093E+01 0.  1.
       -5    1    3    3    0  502  0.26077838479E+03  0.14892620252E+03 -0.36169162617E+03  0.47013540838E+03  0.46999998093E+01 0. -1.
</event>
<event>
 5   0  0.1250390E-02  0.6084405E+03  0.7818609E-02  0.9888048E-01
       -1   -1    0    0    0  501  0.00000000000E+00  0.00000000000E+00  0.76850405139E+02  0.76850405305E+02  0.50400001928E-02 0. -1.
        1   -1    0    0  501    0  0.00000000000E+00  0.00000000000E+00 -0.12042872968E+04  0.12042872968E+04  0.50400001928E-02 0.  1.
    10030    2    1    2    0    0  0.00000000000E+00  0.00000000000E+00 -0.11274368917E+04  0.12811377021E+04  0.60844052060E+03 0.  0.
        3    1    3    3  502    0 -0.27862677475E+02  0.29467505739E+03 -0.71171501008E+03  0.77080995324E+03  0.10100000352E+00 0.  1.
       -3    1    3    3    0  502  0.27862677475E+02 -0.29467505739E+03 -0.41572188159E+03  0.51032774888E+03  0.10100000352E+00 0. -1.
</event>
<event>
 5   0  0.2141800E-02  0.5993942E+03  0.7818609E-02  0.9906664E-01
       -2   -1    0    0    0  501  0.00000000000E+00  0.00000000000E+00  0.68248047426E+02  0.68248047474E+02  0.25500000920E-02 0.  1.
        2   -1    0    0  501    0  0.00000000000E+00  0.00000000000E+00 -0.13160575138E+04  0.13160575138E+04  0.25500000920E-02 0. -1.
    10030    2    1    2    0    0  0.00000000000E+00  0.00000000000E+00 -0.12478094664E+04  0.13843055613E+04  0.59939421303E+03 0.  0.
        2    1    3    3  502    0 -0.23354501090E+02  0.16101822079E+03 -0.12051764696E+04  0.12161096262E+04  0.25500000920E-02 0. -1.
       -2    1    3    3    0  502  0.23354501090E+02 -0.16101822079E+03 -0.42632996792E+02  0.16819593506E+03  0.25500000920E-02 0.  1.
</event>
<event>
 5   0  0.1276705E-02  0.6001301E+03  0.7818609E-02  0.9905136E-01
        1   -1    0    0  501    0  0.00000000000E+00  0.00000000000E+00  0.14169974560E+03  0.14169974569E+03  0.50400001928E-02 0. -1.
       -1   -1    0    0    0  501  0.00000000000E+00  0.00000000000E+00 -0.63542124737E+03  0.63542124739E+03  0.50400001928E-02 0.  1.
    10030    2    1    2    0    0  0.00000000000E+00  0.00000000000E+00 -0.49372150177E+03  0.77712099307E+03  0.60013008304E+03 0.  0.
        1    1    3    3  502    0 -0.27571344134E+03 -0.49353361355E+02 -0.38624004350E+03  0.47711112672E+03  0.50400001928E-02 0.  1.
       -1    1    3    3    0  502  0.27571344134E+03  0.49353361355E+02 -0.10748145827E+03  0.30000986635E+03  0.50400001928E-02 0. -1.
</event>
<event>
 5   0  0.2141800E-02  0.5988986E+03  0.7818609E-02  0.9907694E-01
       -2   -1    0    0    0  501  0.00000000000E+00  0.00000000000E+00  0.46526200253E+03  0.46526200254E+03  0.25500000920E-02 0.  1.
        2   -1    0    0  501    0  0.00000000000E+00  0.00000000000E+00 -0.19272986653E+03  0.19272986654E+03  0.25500000920E-02 0. -1.
    10030    2    1    2    0    0  0.00000000000E+00  0.00000000000E+00  0.27253213601E+03  0.65799186908E+03  0.59889860129E+03 0.  0.
        2    1    3    3  502    0 -0.26234608963E+03  0.13806415598E+03  0.89877969343E+02  0.30978255485E+03  0.25500000920E-02 0.  1.
       -2    1    3    3    0  502  0.26234608963E+03 -0.13806415598E+03  0.18265416666E+03  0.34820931423E+03  0.25500000920E-02 0. -1.
</event>
<event>
 5   0  0.2141800E-02  0.5964812E+03  0.7818609E-02  0.9912734E-01
        2   -1    0    0  501    0  0.00000000000E+00  0.00000000000E+00  0.12589988295E+04  0.12589988295E+04  0.25500000920E-02 0.  1.
       -2   -1    0    0    0  501  0.00000000000E+00  0.00000000000E+00 -0.70649344060E+02  0.70649344106E+02  0.25500000920E-02 0. -1.
    10030    2    1    2    0    0  0.00000000000E+00  0.00000000000E+00  0.11883494854E+04  0.13296481736E+04  0.59648115313E+03 0.  0.
        2    1    3    3  502    0  0.27400524833E+03  0.37127948796E+02  0.34504668649E+03  0.44217030266E+03  0.25500000920E-02 0. -1.
       -2    1    3    3    0  502 -0.27400524833E+03 -0.37127948796E+02  0.84330279895E+03  0.88747787094E+03  0.25500000920E-02 0.  1.
</event>
<event>
 5   0  0.1250390E-02  0.5996085E+03  0.7818609E-02  0.9906219E-01
        1   -1    0    0  501    0  0.00000000000E+00  0.00000000000E+00  0.46754753993E+03  0.46754753995E+03  0.50400001928E-02 0. -1.
       -1   -1    0    0    0  501  0.00000000000E+00  0.00000000000E+00 -0.19224266106E+03  0.19224266112E+03  0.50400001928E-02 0.  1.
    10030    2    1    2    0    0  0.00000000000E+00  0.00000000000E+00  0.27530487887E+03  0.65979020108E+03  0.59960848318E+03 0.  0.
        3    1    3    3  502    0 -0.14040185306E+03  0.13398378523E+03 -0.11379614759E+03  0.22497535077E+03  0.10100000352E+00 0.  1.
       -3    1    3    3    0  502  0.14040185306E+03 -0.13398378523E+03  0.38910102646E+03  0.43481485030E+03  0.10100000352E+00 0. -1.
</event>
<event>
 5   0  0.1276705E-02  0.6003538E+03  0.7818609E-02  0.9904672E-01
        1   -1    0    0  501    0  0.00000000000E+00  0.00000000000E+00  0.29892754041E+03  0.29892754045E+03  0.50400001928E-02 0. -1.
       -1   -1    0    0    0  501  0.00000000000E+00  0.00000000000E+00 -0.30143147467E+03  0.30143147472E+03  0.50400001928E-02 0.  1.
    10030    2    1    2    0    0  0.00000000000E+00  0.00000000000E+00 -0.25039342636E+01  0.60035901517E+03  0.60035379353E+03 0.  0.
        1    1    3    3  502    0 -0.19706825244E+03  0.22437897704E+03 -0.31655321338E+02  0.30030631171E+03  0.50400001928E-02 0. -1.
       -1    1    3    3    0  502  0.19706825244E+03 -0.22437897704E+03  0.29151387074E+02  0.30005270346E+03  0.50400001928E-02 0.  1.
</event>
<event>
 5   0  0.1250390E-02  0.6000393E+03  0.7818609E-02  0.9905325E-01
        1   -1    0    0  501    0  0.00000000000E+00  0.00000000000E+00  0.12245664482E+04  0.12245664483E+04  0.50400001928E-02 0.  1.
       -1   -1    0    0    0  501  0.00000000000E+00  0.00000000000E+00 -0.73505022470E+02  0.73505022643E+02  0.50400001928E-02 0. -1.
    10030    2    1    2    0    0  0.00000000000E+00  0.00000000000E+00  0.11510614258E+04  0.12980714709E+04  0.60003928009E+03 0.  0.
        3    1    3    3  502    0 -0.38133163739E+02 -0.77014984663E+02  0.11973699910E+04  0.12004500621E+04  0.10100000352E+00 0.  1.
       -3    1    3    3    0  502  0.38133163739E+02  0.77014984663E+02 -0.46308565235E+02  0.97621408792E+02  0.10100000352E+00 0. -1.
</event>
<event>
 5   0  0.1337051E-02  0.5977898E+03  0.7818609E-02  0.9910002E-01
        1   -1    0    0  501    0  0.00000000000E+00  0.00000000000E+00  0.89469832418E+02  0.89469832560E+02  0.50400001928E-02 0.  1.
       -1   -1    0    0    0  501  0.00000000000E+00  0.00000000000E+00 -0.99852837741E+03  0.99852837742E+03  0.50400001928E-02 0. -1.
    10030    2    1    2    0    0  0.00000000000E+00  0.00000000000E+00 -0.90905854499E+03  0.10879982100E+04  0.59778981816E+03 0.  0.
        5    1    3    3  502    0  0.23292471461E+01  0.22421066171E+03 -0.81414266206E+03  0.84446800437E+03  0.46999998093E+01 0. -1.
       -5    1    3    3    0  502 -0.23292471461E+01 -0.22421066171E+03 -0.94915882927E+02  0.24353020561E+03  0.46999998093E+01 0.  1.
</event>
<event>
 5   0  0.1303808E-02  0.6013858E+03  0.7818609E-02  0.9902535E-01
        1   -1    0    0  501    0  0.00000000000E+00  0.00000000000E+00  0.21004529857E+03  0.21004529864E+03  0.50400001928E-02 0.  1.
       -1   -1    0    0    0  501  0.00000000000E+00  0.00000000000E+00 -0.43046053786E+03  0.43046053789E+03  0.50400001928E-02 0. -1.
    10030    2    1    2    0    0  0.00000000000E+00  0.00000000000E+00 -0.22041523928E+03  0.64050583652E+03  0.60138577378E+03 0.  0.
        4    1    3    3  502    0  0.26990951888E+03 -0.16820535677E+02 -0.25021416878E+03  0.36843292736E+03  0.12699999809E+01 0. -1.
       -4    1    3    3    0  502 -0.26990951888E+03  0.16820535677E+02  0.29798929500E+02  0.27207290916E+03  0.12699999809E+01 0.  1.
</event>
<event>
 5   0  0.1303808E-02  0.6038105E+03  0.7818609E-02  0.9897532E-01
       -1   -1    0    0    0  501  0.00000000000E+00  0.00000000000E+00  0.42610864642E+03  0.42610864645E+03  0.50400001928E-02 0. -1.
        1   -1    0    0  501    0  0.00000000000E+00  0.00000000000E+00 -0.21390505260E+03  0.21390505266E+03  0.50400001928E-02 0.  1.
    10030    2    1    2    0    0  0.00000000000E+00  0.00000000000E+00  0.21220359382E+03  0.64001369910E+03  0.60381054132E+03 0.  0.
        4    1    3    3  502    0 -0.77348200504E+02  0.13605936749E+03  0.37974809744E+03  0.41073729562E+03  0.12699999809E+01 0. -1.
       -4    1    3    3    0  502  0.77348200504E+02 -0.13605936749E+03 -0.16754450362E+03  0.22927640349E+03  0.12699999809E+01 0.  1.
</event>
<event>
 5   0  0.2179625E-02  0.6008395E+03  0.7818609E-02  0.9903666E-01
        2   -1    0    0  501    0  0.00000000000E+00  0.00000000000E+00  0.35094226703E+03  0.35094226704E+03  0.25500000920E-02 0.  1.
       -2   -1    0    0    0  501  0.00000000000E+00  0.00000000000E+00 -0.25717058859E+03  0.25717058861E+03  0.25500000920E-02 0. -1.
    10030    2    1    2    0    0  0.00000000000E+00  0.00000000000E+00  0.93771678438E+02  0.60811285565E+03  0.60083951062E+03 0.  0.
        1    1    3    3  502    0  0.12773785586E+03  0.25470304958E+03  0.14322968466E+03  0.31891275590E+03  0.50400001928E-02 0. -1.
       -1    1    3    3    0  502 -0.12773785586E+03 -0.25470304958E+03 -0.49458006218E+02  0.28920009974E+03  0.50400001928E-02 0.  1.
</event>
<event>
 5   0  0.2092587E-02  0.5979983E+03  0.7818609E-02  0.9909568E-01
       -2   -1    0    0    0  501  0.00000000000E+00  0.00000000000E+00  0.16300888363E+03  0.16300888365E+03  0.25500000920E-02 0.  1.
        2   -1    0    0  501    0  0.00000000000E+00  0.00000000000E+00 -0.54843931116E+03  0.54843931116E+03  0.25500000920E-02 0. -1.
    10030    2    1    2    0    0  0.00000000000E+00  0.00000000000E+00 -0.38543042753E+03  0.71144819481E+03  0.59799826040E+03 0.  0.
        3    1    3    3  502    0 -0.13680794369E+03  0.24737798357E+03 -0.30860229769E+03  0.41850647373E+03  0.10100000352E+00 0.  1.
       -3    1    3    3    0  502  0.13680794369E+03 -0.24737798357E+03 -0.76828129836E+02  0.29294172108E+03  0.10100000352E+00 0. -1.
</event>
<event>
 5   0  0.1337051E-02  0.5995873E+03  0.7818609E-02  0.9906263E-01
        1   -1    0    0  501    0  0.00000000000E+00  0.00000000000E+00  0.11307299145E+04  0.11307299145E+04  0.50400001928E-02 0. -1.
       -1   -1    0    0    0  501  0.00000000000E+00  0.00000000000E+00 -0.79485138658E+02  0.79485138818E+02  0.50400001928E-02 0.  1.
    10030    2    1    2    0    0  0.00000000000E+00  0.00000000000E+00  0.10512447758E+04  0.12102150533E+04  0.59958727186E+03 0.  0.
        5    1    3    3  502    0  0.19747468677E+02  0.17474651374E+03  0.10155933708E+04  0.10307173674E+04  0.46999998093E+01 0. -1.
       -5    1    3    3    0  502 -0.19747468677E+02 -0.17474651374E+03  0.35651405030E+02  0.17949768595E+03  0.46999998093E+01 0.  1.
</event>
<event>
 5   0  0.2141800E-02  0.6035078E+03  0.7818609E-02  0.9898155E-01
       -2   -1    0    0    0  501  0.00000000000E+00  0.00000000000E+00  0.80361934500E+02  0.80361934541E+02  0.25500000920E-02 0.  1.
        2   -1    0    0  501    0  0.00000000000E+00  0.00000000000E+00 -0.11330666478E+04  0.11330666478E+04  0.25500000920E-02 0. -1.
    10030    2    1    2    0    0  0.00000000000E+00  0.00000000000E+00 -0.10527047133E+04  0.12134285824E+04  0.60350783843E+03 0.  0.
        2    1    3    3  502    0  0.13154762743E+03  0.12427468807E+03 -0.10118527774E+04  0.10279080793E+04  0.25500000920E-02 0. -1.
       -2    1    3    3    0  502 -0.13154762743E+03 -0.12427468807E+03 -0.40851935916E+02  0.18552050305E+03  0.25500000920E-02 0.  1.
</event>
<event>
 5   0  0.2142838E-02  0.5940150E+03  0.7818609E-02  0.9917901E-01
       -2   -1    0    0    0  501  0.00000000000E+00  0.00000000000E+00  0.25536118451E+03  0.25536118452E+03  0.25500000920E-02 0. -1.
        2   -1    0    0  501    0  0.00000000000E+00  0.00000000000E+00 -0.34544578204E+03  0.34544578205E+03  0.25500000920E-02 0.  1.
    10030    2    1    2    0    0  0.00000000000E+00  0.00000000000E+00 -0.90084597533E+02  0.60080696658E+03  0.59401496309E+03 0.  0.
        4    1    3    3  502    0  0.19906899092E+03 -0.11749263999E+03  0.14358092742E+03  0.27212144203E+03  0.12699999809E+01 0. -1.
       -4    1    3    3    0  502 -0.19906899092E+03  0.11749263999E+03 -0.23366552495E+03  0.32868552455E+03  0.12699999809E+01 0.  1.
</event>
<event>
 5   0  0.1303808E-02  0.5868079E+03  0.7818609E-02  0.9933160E-01
       -1   -1    0    0    0  501  0.00000000000E+00  0.00000000000E+00  0.78889512785E+02  0.78889512946E+02  0.50400001928E-02 0.  1.
        1   -1    0    0  501    0  0.00000000000E+00  0.00000000000E+00 -0.10912208808E+04  0.10912208808E+04  0.50400001928E-02 0. -1.
    10030    2    1    2    0    0  0.00000000000E+00  0.00000000000E+00 -0.10123313681E+04  0.11701103938E+04  0.58680791996E+03 0.  0.
        4    1    3    3  502    0 -0.17188897621E+03 -0.47849801686E+02 -0.41729415505E+02  0.18324404679E+03  0.12699999809E+01 0.  1.
       -4    1    3    3    0  502  0.17188897621E+03  0.47849801686E+02 -0.97060195255E+03  0.98686634701E+03  0.12699999809E+01 0. -1.
</event>
<event>
 5   0  0.2126207E-02  0.5998171E+03  0.7818609E-02  0.9905786E-01
        2   -1    0    0  501    0  0.00000000000E+00  0.00000000000E+00  0.10170318364E+03  0.10170318367E+03  0.25500000920E-02 0.  1.
       -2   -1    0    0    0  501  0.00000000000E+00  0.00000000000E+00 -0.88438861699E+03  0.88438861699E+03  0.25500000920E-02 0. -1.
    10030    2    1    2    0    0  0.00000000000E+00  0.00000000000E+00 -0.78268543335E+03  0.98609180066E+03  0.59981709858E+03 0.  0.
        5    1    3    3  502    0 -0.13173616851E+03 -0.42895672651E+02  0.45873245937E+02  0.14601678505E+03  0.46999998093E+01 0.  1.
       -5    1    3    3    0  502  0.13173616851E+03  0.42895672651E+02 -0.82855867929E+03  0.84007501561E+03  0.46999998093E+01 0. -1.
</event>
<event>
 5   0  0.2092587E-02  0.5998120E+03  0.7818609E-02  0.9905796E-01
        2   -1    0    0  501    0  0.00000000000E+00  0.00000000000E+00  0.86889304981E+03  0.86889304981E+03  0.25500000920E-02 0. -1.
       -2   -1    0    0    0  501  0.00000000000E+00  0.00000000000E+00 -0.10351517877E+03  0.10351517880E+03  0.25500000920E-02 0.  1.
    10030    2    1    2    0    0  0.00000000000E+00  0.00000000000E+00  0.76537787104E+03  0.97240822861E+03  0.59981203521E+03 0.  0.
        3    1    3    3  502    0 -0.94836790167E+02  0.12614943644E+03 -0.30748756290E+02  0.16078928229E+03  0.10100000352E+00 0.  1.
       -3    1    3    3    0  502  0.94836790167E+02 -0.12614943644E+03  0.79612662733E+03  0.81161894632E+03  0.10100000352E+00 0. -1.
</event>
<event>
 5   0  0.1303808E-02  0.5995614E+03  0.7818609E-02  0.9906316E-01
       -1   -1    0    0    0  501  0.00000000000E+00  0.00000000000E+00  0.47238657171E+02  0.47238657440E+02  0.50400001928E-02 0. -1.
        1   -1    0    0  501    0  0.00000000000E+00  0.00000000000E+00 -0.19024351193E+04  0.19024351193E+04  0.50400001928E-02 0.  1.
    10030    2    1    2    0    0  0.00000000000E+00  0.00000000000E+00 -0.18551964621E+04  0.19496737767E+04  0.59956144192E+03 0.  0.
        4    1    3    3  502    0  0.30960475738E+02 -0.26881842829E+03 -0.50806172749E+03  0.57563028958E+03  0.12699999809E+01 0. -1.
       -4    1    3    3    0  502 -0.30960475738E+02  0.26881842829E+03 -0.13471347346E+04  0.13740434871E+04  0.12699999809E+01 0.  1.
</event>
<event>
 5   0  0.8551000E-03  0.6003285E+03  0.7818609E-02  0.9904725E-01
        3   -1    0    0  501    0  0.00000000000E+00  0.00000000000E+00  0.33325405778E+03  0.33325407308E+03  0.10100000352E+00 0. -1.
       -3   -1    0    0    0  501  0.00000000000E+00  0.00000000000E+00 -0.27035997772E+03  0.27035999659E+03  0.10100000352E+00 0.  1.
    10030    2    1    2    0    0  0.00000000000E+00  0.00000000000E+00  0.62894080059E+02  0.60361406967E+03  0.60032847658E+03 0.  0.
        4    1    3    3  502    0  0.28496529942E+03  0.17772764096E+02  0.12455983283E+03  0.31150900127E+03  0.12699999809E+01 0. -1.
       -4    1    3    3    0  502 -0.28496529942E+03 -0.17772764096E+02 -0.61665752769E+02  0.29210506840E+03  0.12699999809E+01 0.  1.
</event>
<event>
 5   0  0.1276705E-02  0.5992251E+03  0.7818609E-02  0.9907015E-01
       -1   -1    0    0    0  501  0.00000000000E+00  0.00000000000E+00  0.20639636961E+03  0.20639636967E+03  0.50400001928E-02 0.  1.
        1   -1    0    0  501    0  0.00000000000E+00  0.00000000000E+00 -0.43492855180E+03  0.43492855183E+03  0.50400001928E-02 0. -1.
    10030    2    1    2    0    0  0.00000000000E+00  0.00000000000E+00 -0.22853218219E+03  0.64132492150E+03  0.59922508011E+03 0.  0.
        1    1    3    3  502    0 -0.13379718510E+03 -0.18022502272E+03  0.98133250246E+02  0.24497526484E+03  0.50400001928E-02 0.  1.
       -1    1    3    3    0  502  0.13379718510E+03  0.18022502272E+03 -0.32666543244E+03  0.39634965665E+03  0.50400001928E-02 0. -1.
</event>
<event>
 5   0  0.2142838E-02  0.5995636E+03  0.7818609E-02  0.9906312E-01
       -2   -1    0    0    0  501  0.00000000000E+00  0.00000000000E+00  0.38093635139E+03  0.38093635140E+03  0.25500000920E-02 0. -1.
        2   -1    0    0  501    0  0.00000000000E+00  0.00000000000E+00 -0.23591638980E+03  0.23591638982E+03  0.25500000920E-02 0.  1.
    10030    2    1    2    0    0  0.00000000000E+00  0.00000000000E+00  0.14501996159E+03  0.61685274121E+03  0.59956360387E+03 0.  0.
        4    1    3    3  502    0 -0.14769522919E+03 -0.25380538429E+03  0.10467983910E+02  0.29384051015E+03  0.12699999809E+01 0.  1.
       -4    1    3    3    0  502  0.14769522919E+03  0.25380538429E+03  0.13455197768E+03  0.32301223106E+03  0.12699999809E+01 0. -1.
</event>
<event>
 5   0  0.2092587E-02  0.5995404E+03  0.7818609E-02  0.9906360E-01
        2   -1    0    0  501    0  0.00000000000E+00  0.00000000000E+00  0.10426143575E+04  0.10426143575E+04  0.25500000920E-02 0. -1.
       -2   -1    0    0    0  501  0.00000000000E+00  0.00000000000E+00 -0.86189277060E+02  0.86189277098E+02  0.25500000920E-02 0.  1.
    10030    2    1    2    0    0  0.00000000000E+00  0.00000000000E+00  0.95642508042E+03  0.11288036346E+04  0.59954041647E+03 0.  0.
        3    1    3    3  502    0  0.15454196892E+03 -0.62248026946E+02  0.90101921457E+01  0.16685092382E+03  0.10100000352E+00 0.  1.
       -3    1    3    3    0  502 -0.15454196892E+03  0.62248026946E+02  0.94741488827E+03  0.96195271076E+03  0.10100000352E+00 0. -1.
</event>
<event>
 5   0  0.2141800E-02  0.5985049E+03  0.7818609E-02  0.9908513E-01
       -2   -1    0    0    0  501  0.00000000000E+00  0.00000000000E+00  0.12657504429E+03  0.12657504432E+03  0.25500000920E-02 0.  1.
        2   -1    0    0  501    0  0.00000000000E+00  0.00000000000E+00 -0.70750135704E+03  0.70750135704E+03  0.25500000920E-02 0. -1.
    10030    2    1    2    0    0  0.00000000000E+00  0.00000000000E+00 -0.58092631274E+03  0.83407640136E+03  0.59850485585E+03 0.  0.
        2    1    3    3  502    0 -0.80018407455E+02 -0.31189911782E+02 -0.68995814891E+03  0.69528267876E+03  0.25500000920E-02 0. -1.
       -2    1    3    3    0  502  0.80018407455E+02  0.31189911782E+02  0.10903183617E+03  0.13879372260E+03  0.25500000920E-02 0.  1.
</event>
<event>
 5   0  0.2141800E-02  0.6018351E+03  0.7818609E-02  0.9901606E-01
       -2   -1    0    0    0  501  0.00000000000E+00  0.00000000000E+00  0.70943351698E+02  0.70943351744E+02  0.25500000920E-02 0.  1.
        2   -1    0    0  501    0  0.00000000000E+00  0.00000000000E+00 -0.12763900061E+04  0.12763900061E+04  0.25500000920E-02 0. -1.
    10030    2    1    2    0    0  0.00000000000E+00  0.00000000000E+00 -0.12054466544E+04  0.13473333578E+04  0.60183514399E+03 0.  0.
        2    1    3    3  502    0 -0.21770623790E+02 -0.11648172335E+03  0.16510980881E+02  0.11964348888E+03  0.25500000920E-02 0.  1.
       -2    1    3    3    0  502  0.21770623790E+02  0.11648172335E+03 -0.12219576352E+04  0.12276898689E+04  0.25500000920E-02 0. -1.
</event>
<event>
 5   0  0.2142838E-02  0.5992600E+03  0.7818609E-02  0.9906942E-01
       -2   -1    0    0    0  501  0.00000000000E+00  0.00000000000E+00  0.95039242541E+02  0.95039242575E+02  0.25500000920E-02 0.  1.
        2   -1    0    0  501    0  0.00000000000E+00  0.00000000000E+00 -0.94464290232E+03  0.94464290233E+03  0.25500000920E-02 0. -1.
    10030    2    1    2    0    0  0.00000000000E+00  0.00000000000E+00 -0.84960365978E+03  0.10396821449E+04  0.59926003013E+03 0.  0.
        4    1    3    3  502    0 -0.15195519339E+03  0.12518939066E+03 -0.32943594732E+02  0.19962379033E+03  0.12699999809E+01 0.  1.
       -4    1    3    3    0  502  0.15195519339E+03 -0.12518939066E+03 -0.81666006505E+03  0.84005835457E+03  0.12699999809E+01 0. -1.
</event>
<event>
 5   0  0.2126207E-02  0.6003301E+03  0.7818609E-02  0.9904722E-01
       -2   -1    0    0    0  501  0.00000000000E+00  0.00000000000E+00  0.46558576318E+03  0.46558576318E+03  0.25500000920E-02 0. -1.
        2   -1    0    0  501    0  0.00000000000E+00  0.00000000000E+00 -0.19351760644E+03  0.19351760646E+03  0.25500000920E-02 0.  1.
    10030    2    1    2    0    0  0.00000000000E+00  0.00000000000E+00  0.27206815673E+03  0.65910336964E+03  0.60033005086E+03 0.  0.
        5    1    3    3  502    0  0.27655166500E+02 -0.32338748589E+02  0.46221685961E+03  0.46419512944E+03  0.46999998093E+01 0. -1.
       -5    1    3    3    0  502 -0.27655166500E+02  0.32338748589E+02 -0.19014870288E+03  0.19490824020E+03  0.46999998093E+01 0.  1.
</event>
<event>
 5   0  0.2126207E-02  0.5986004E+03  0.7818609E-02  0.9908314E-01
       -2   -1    0    0    0  501  0.00000000000E+00  0.00000000000E+00  0.15148371880E+03  0.15148371883E+03  0.25500000920E-02 0. -1.
        2   -1    0    0  501    0  0.00000000000E+00  0.00000000000E+00 -0.59135477627E+03  0.59135477628E+03  0.25500000920E-02 0.  1.
    10030    2    1    2    0    0  0.00000000000E+00  0.00000000000E+00 -0.43987105747E+03  0.74283849510E+03  0.59860043653E+03 0.  0.
        5    1    3    3  502    0  0.22175921411E+03 -0.19913941043E+03 -0.25334652914E+03  0.39120353738E+03  0.46999998093E+01 0. -1.
       -5    1    3    3    0  502 -0.22175921411E+03  0.19913941043E+03 -0.18652452833E+03  0.35163495773E+03  0.46999998093E+01 0.  1.
</event>
<event>
 5   0  0.2092587E-02  0.6030097E+03  0.7818609E-02  0.9899182E-01
       -2   -1    0    0    0  501  0.00000000000E+00  0.00000000000E+00  0.54417034074E+02  0.54417034134E+02  0.25500000920E-02 0. -1.
        2   -1    0    0  501    0  0.00000000000E+00  0.00000000000E+00 -0.16705278168E+04  0.16705278168E+04  0.25500000920E-02 0.  1.
    10030    2    1    2    0    0  0.00000000000E+00  0.00000000000E+00 -0.16161107827E+04  0.17249448509E+04  0.60300968211E+03 0.  0.
        3    1    3    3  502    0  0.19001128843E+03  0.12905610382E+03 -0.13667467659E+04  0.13859135975E+04  0.10100000352E+00 0.  1.
       -3    1    3    3    0  502 -0.19001128843E+03 -0.12905610382E+03 -0.24936401683E+03  0.33903125336E+03  0.10100000352E+00 0. -1.
</event>
<event>
 5   0  0.1303808E-02  0.5994503E+03  0.7818609E-02  0.9906547E-01
        1   -1    0    0  501    0  0.00000000000E+00  0.00000000000E+00  0.50271938372E+03  0.50271938374E+03  0.50400001928E-02 0. -1.
       -1   -1    0    0    0  501  0.00000000000E+00  0.00000000000E+00 -0.17869842102E+03  0.17869842109E+03  0.50400001928E-02 0.  1.
    10030    2    1    2    0    0  0.00000000000E+00  0.00000000000E+00  0.32402096270E+03  0.68141780483E+03  0.59945028190E+03 0.  0.
        4    1    3    3  502    0  0.10801917175E+03  0.27132406214E+03  0.85344623238E+02  0.30425352221E+03  0.12699999809E+01 0.  1.
       -4    1    3    3    0  502 -0.10801917175E+03 -0.27132406214E+03  0.23867633946E+03  0.37716428262E+03  0.12699999809E+01 0. -1.
</event>
<event>
 5   0  0.1276705E-02  0.5971707E+03  0.7818609E-02  0.9911293E-01
       -1   -1    0    0    0  501  0.00000000000E+00  0.00000000000E+00  0.14034294979E+03  0.14034294988E+03  0.50400001928E-02 0. -1.
        1   -1    0    0  501    0  0.00000000000E+00  0.00000000000E+00 -0.63525258420E+03  0.63525258422E+03  0.50400001928E-02 0.  1.
    10030    2    1    2    0    0  0.00000000000E+00  0.00000000000E+00 -0.49490963442E+03  0.77559553410E+03  0.59717073462E+03 0.  0.
        1    1    3    3  502    0  0.43638797327E+01 -0.79677909942E+02  0.12623753240E+03  0.14934365534E+03  0.50400001928E-02 0. -1.
       -1    1    3    3    0  502 -0.43638797327E+01  0.79677909942E+02 -0.62114716682E+03  0.62625187876E+03  0.50400001928E-02 0.  1.
</event>
<event>
 5   0  0.2141800E-02  0.6009771E+03  0.7818609E-02  0.9903381E-01
        2   -1    0    0  501    0  0.00000000000E+00  0.00000000000E+00  0.12077866915E+04  0.12077866915E+04  0.25500000920E-02 0.  1.
       -2   -1    0    0    0  501  0.00000000000E+00  0.00000000000E+00 -0.74759356893E+02  0.74759356936E+02  0.25500000920E-02 0. -1.
    10030    2    1    2    0    0  0.00000000000E+00  0.00000000000E+00  0.11330273346E+04  0.12825460485E+04  0.60097705897E+03 0.  0.
        2    1    3    3  502    0 -0.74212838970E+02 -0.14420613847E+03  0.11063628983E+04  0.11181868442E+04  0.25500000920E-02 0.  1.
       -2    1    3    3    0  502  0.74212838970E+02  0.14420613847E+03  0.26664436300E+02  0.16435920421E+03  0.25500000920E-02 0. -1.
</event>
<event>
 5   0  0.2142838E-02  0.5940254E+03  0.7818609E-02  0.9917880E-01
       -2   -1    0    0    0  501  0.00000000000E+00  0.00000000000E+00  0.39557960557E+03  0.39557960558E+03  0.25500000920E-02 0. -1.
        2   -1    0    0  501    0  0.00000000000E+00  0.00000000000E+00 -0.22300577447E+03  0.22300577449E+03  0.25500000920E-02 0.  1.
    10030    2    1    2    0    0  0.00000000000E+00  0.00000000000E+00  0.17257383110E+03  0.61858538007E+03  0.59402537425E+03 0.  0.
        4    1    3    3  502    0 -0.12332448747E+03  0.21934238833E+03 -0.78017767847E+02  0.26345473525E+03  0.12699999809E+01 0. -1.
       -4    1    3    3    0  502  0.12332448747E+03 -0.21934238833E+03  0.25059159894E+03  0.35513064482E+03  0.12699999809E+01 0.  1.
</event>
<event>
 5   0  0.1337051E-02  0.6150689E+03  0.7818609E-02  0.9874627E-01
        1   -1    0    0  501    0  0.00000000000E+00  0.00000000000E+00  0.23183139214E+04  0.23183139214E+04  0.50400001928E-02 0. -1.
       -1   -1    0    0    0  501  0.00000000000E+00  0.00000000000E+00 -0.40795789661E+02  0.40795789972E+02  0.50400001928E-02 0.  1.
    10030    2    1    2    0    0  0.00000000000E+00  0.00000000000E+00  0.22775181317E+04  0.23591097113E+04  0.61506893103E+03 0.  0.
        5    1    3    3  502    0 -0.33863432174E+02 -0.13476243950E+03  0.86625216127E+02  0.16380984466E+03  0.46999998093E+01 0.  1.
       -5    1    3    3    0  502  0.33863432174E+02  0.13476243950E+03  0.21908929156E+04  0.21952998667E+04  0.46999998093E+01 0. -1.
</event>
<event>
 5   0  0.8551000E-03  0.6028044E+03  0.7818609E-02  0.9899605E-01
        3   -1    0    0  501    0  0.00000000000E+00  0.00000000000E+00  0.96899328395E+03  0.96899328922E+03  0.10100000352E+00 0.  1.
       -3   -1    0    0    0  501  0.00000000000E+00  0.00000000000E+00 -0.93750148852E+02  0.93750203257E+02  0.10100000352E+00 0. -1.
    10030    2    1    2    0    0  0.00000000000E+00  0.00000000000E+00  0.87524313510E+03  0.10627434925E+04  0.60280443367E+03 0.  0.
        2    1    3    3  502    0  0.16577549917E+02 -0.30075133021E+03  0.41854216332E+03  0.51565853069E+03  0.25500000920E-02 0. -1.
       -2    1    3    3    0  502 -0.16577549917E+02  0.30075133021E+03  0.45670097178E+03  0.54708496179E+03  0.25500000920E-02 0.  1.
</event>
<event>
 5   0  0.2179625E-02  0.6018871E+03  0.7818609E-02  0.9901499E-01
        2   -1    0    0  501    0  0.00000000000E+00  0.00000000000E+00  0.63455760190E+03  0.63455760191E+03  0.25500000920E-02 0.  1.
       -2   -1    0    0    0  501  0.00000000000E+00  0.00000000000E+00 -0.14272466802E+03  0.14272466804E+03  0.25500000920E-02 0. -1.
    10030    2    1    2    0    0  0.00000000000E+00  0.00000000000E+00  0.49183293388E+03  0.77728226995E+03  0.60188710929E+03 0.  0.
        1    1    3    3  502    0  0.16691056905E+03  0.15273741885E+03 -0.10353065023E+02  0.22648409030E+03  0.50400001928E-02 0. -1.
       -1    1    3    3    0  502 -0.16691056905E+03 -0.15273741885E+03  0.50218599890E+03  0.55079817965E+03  0.50400001928E-02 0.  1.
</event>
<event>
 5   0  0.1337051E-02  0.5968726E+03  0.7818609E-02  0.9911916E-01
       -1   -1    0    0    0  501  0.00000000000E+00  0.00000000000E+00  0.15296273825E+03  0.15296273833E+03  0.50400001928E-02 0. -1.
        1   -1    0    0  501    0  0.00000000000E+00  0.00000000000E+00 -0.58226095694E+03  0.58226095696E+03  0.50400001928E-02 0.  1.
    10030    2    1    2    0    0  0.00000000000E+00  0.00000000000E+00 -0.42929821869E+03  0.73522369529E+03  0.59687261752E+03 0.  0.
        5    1    3    3  502    0 -0.22146107034E+03 -0.12008937834E+03 -0.17655834495E+02  0.25258717892E+03  0.46999998093E+01 0. -1.
       -5    1    3    3    0  502  0.22146107034E+03  0.12008937834E+03 -0.41164238420E+03  0.48263651637E+03  0.46999998093E+01 0.  1.
</event>
<event>
 5   0  0.1303808E-02  0.5959361E+03  0.7818609E-02  0.9913873E-01
       -1   -1    0    0    0  501  0.00000000000E+00  0.00000000000E+00  0.19073191462E+03  0.19073191469E+03  0.50400001928E-02 0. -1.
        1   -1    0    0  501    0  0.00000000000E+00  0.00000000000E+00 -0.46549603598E+03  0.46549603600E+03  0.50400001928E-02 0.  1.
    10030    2    1    2    0    0  0.00000000000E+00  0.00000000000E+00 -0.27476412136E+03  0.65622795069E+03  0.59593607114E+03 0.  0.
        4    1    3    3  502    0 -0.29591681096E+03 -0.26686228785E+02 -0.11265043257E+03  0.31775878694E+03  0.12699999809E+01 0. -1.
       -4    1    3    3    0  502  0.29591681096E+03  0.26686228785E+02 -0.16211368878E+03  0.33846916375E+03  0.12699999809E+01 0.  1.
</event>
<event>
 5   0  0.1303808E-02  0.5908357E+03  0.7818609E-02  0.9924604E-01
        1   -1    0    0  501    0  0.00000000000E+00  0.00000000000E+00  0.10349485329E+04  0.10349485329E+04  0.50400001928E-02 0. -1.
       -1   -1    0    0    0  501  0.00000000000E+00  0.00000000000E+00 -0.84324677798E+02  0.84324677949E+02  0.50400001928E-02 0.  1.
    10030    2    1    2    0    0  0.00000000000E+00  0.00000000000E+00  0.95062385510E+03  0.11192732109E+04  0.59083568499E+03 0.  0.
        4    1    3    3  502    0 -0.18261823925E+03  0.18612029086E+03  0.73835195065E+03  0.78304239982E+03  0.12699999809E+01 0. -1.
       -4    1    3    3    0  502  0.18261823925E+03 -0.18612029086E+03  0.21227190445E+03  0.33623081105E+03  0.12699999809E+01 0.  1.
</event>
<event>
 5   0  0.1276705E-02  0.6113520E+03  0.7818609E-02  0.9882130E-01
        1   -1    0    0  501    0  0.00000000000E+00  0.00000000000E+00  0.41298371371E+03  0.41298371374E+03  0.50400001928E-02 0.  1.
       -1   -1    0    0    0  501  0.00000000000E+00  0.00000000000E+00 -0.22625061015E+03  0.22625061020E+03  0.50400001928E-02 0. -1.
    10030    2    1    2    0    0  0.00000000000E+00  0.00000000000E+00  0.18673310356E+03  0.63923432394E+03  0.61135200085E+03 0.  0.
        1    1    3    3  502    0  0.10626872136E+03  0.24101010954E+02 -0.20525268872E+03  0.23238452212E+03  0.50400001928E-02 0. -1.
       -1    1    3    3    0  502 -0.10626872136E+03 -0.24101010954E+02  0.39198579228E+03  0.40684980182E+03  0.50400001928E-02 0.  1.
</event>
<event>
 5   0  0.1276705E-02  0.5976543E+03  0.7818609E-02  0.9910285E-01
        1   -1    0    0  501    0  0.00000000000E+00  0.00000000000E+00  0.11513389772E+04  0.11513389772E+04  0.50400001928E-02 0.  1.
       -1   -1    0    0    0  501  0.00000000000E+00  0.00000000000E+00 -0.77559847124E+02  0.77559847288E+02  0.50400001928E-02 0. -1.
    10030    2    1    2    0    0  0.00000000000E+00  0.00000000000E+00  0.10737791301E+04  0.12288988245E+04  0.59765433210E+03 0.  0.
        1    1    3    3  502    0  0.16087481446E+03 -0.17664198993E+03  0.90594556554E+03  0.93692073639E+03  0.50400001928E-02 0.  1.
       -1    1    3    3    0  502 -0.16087481446E+03  0.17664198993E+03  0.16783356457E+03  0.29197808815E+03  0.50400001928E-02 0. -1.
</event>
<event>
 5   0  0.8551000E-03  0.5996305E+03  0.7818609E-02  0.9906173E-01
       -4   -1    0    0    0  501  0.00000000000E+00  0.00000000000E+00  0.11762432299E+04  0.11762439155E+04  0.12699999809E+01 0. -1.
        4   -1    0    0  501    0  0.00000000000E+00  0.00000000000E+00 -0.76414593417E+02  0.76425146300E+02  0.12699999809E+01 0.  1.
    10030    2    1    2    0    0  0.00000000000E+00  0.00000000000E+00  0.10998286365E+04  0.12526690618E+04  0.59963051023E+03 0.  0.
        1    1    3    3  502    0 -0.18086581135E+03  0.49286433372E+02  0.10387187602E+04  0.10554990559E+04  0.50400001928E-02 0. -1.
       -1    1    3    3    0  502  0.18086581135E+03 -0.49286433372E+02  0.61109876322E+02  0.19717000593E+03  0.50400001928E-02 0.  1.
</event>
<event>
 5   0  0.1337051E-02  0.5944170E+03  0.7818609E-02  0.9917057E-01
       -1   -1    0    0    0  501  0.00000000000E+00  0.00000000000E+00  0.83356308423E+02  0.83356308575E+02  0.50400001928E-02 0. -1.
        1   -1    0    0  501    0  0.00000000000E+00  0.00000000000E+00 -0.10597024815E+04  0.10597024815E+04  0.50400001928E-02 0.  1.
    10030    2    1    2    0    0  0.00000000000E+00  0.00000000000E+00 -0.97634617307E+03  0.11430587901E+04  0.59441698151E+03 0.  0.
        5    1    3    3  502    0  0.18966489911E+03 -0.73398889872E+02 -0.90484867097E+03  0.92743375955E+03  0.46999998093E+01 0.  1.
       -5    1    3    3    0  502 -0.18966489911E+03  0.73398889872E+02 -0.71497502099E+02  0.21562503053E+03  0.46999998093E+01 0. -1.
</event>
<event>
 5   0  0.2092587E-02  0.5986746E+03  0.7818609E-02  0.9908160E-01
       -2   -1    0    0    0  501  0.00000000000E+00  0.00000000000E+00  0.33382643990E+03  0.33382643991E+03  0.25500000920E-02 0. -1.
        2   -1    0    0  501    0  0.00000000000E+00  0.00000000000E+00 -0.26841140229E+03  0.26841140230E+03  0.25500000920E-02 0.  1.
    10030    2    1    2    0    0  0.00000000000E+00  0.00000000000E+00  0.65415037619E+02  0.60223784221E+03  0.59867461233E+03 0.  0.
        3    1    3    3  502    0 -0.13048072002E+03  0.92878507564E+02 -0.22168332236E+03  0.27348700348E+03  0.10100000352E+00 0.  1.
       -3    1    3    3    0  502  0.13048072002E+03 -0.92878507564E+02  0.28709835997E+03  0.32875083873E+03  0.10100000352E+00 0. -1.
</event>
<event>
 5   0  0.1250390E-02  0.6028637E+03  0.7818609E-02  0.9899483E-01
        1   -1    0    0  501    0  0.00000000000E+00  0.00000000000E+00  0.54665934172E+03  0.54665934175E+03  0.50400001928E-02 0.  1.
       -1   -1    0    0    0  501  0.00000000000E+00  0.00000000000E+00 -0.16621164234E+03  0.16621164242E+03  0.50400001928E-02 0. -1.
    10030    2    1    2    0    0  0.00000000000E+00  0.00000000000E+00  0.38044769938E+03  0.71287098416E+03  0.60286365631E+03 0.  0.
        3    1    3    3  502    0 -0.11642679010E+03 -0.37522338931E+02 -0.13554311348E+03  0.18257893960E+03  0.10100000352E+00 0. -1.
       -3    1    3    3    0  502  0.11642679010E+03  0.37522338931E+02  0.51599081286E+03  0.53029204457E+03  0.10100000352E+00 0.  1.
</event>
<event>
 5   0  0.8551000E-03  0.6032826E+03  0.7818609E-02  0.9898619E-01
       -3   -1    0    0    0  501  0.00000000000E+00  0.00000000000E+00  0.85047127991E+03  0.85047128591E+03  0.10100000352E+00 0. -1.
        3   -1    0    0  501    0  0.00000000000E+00  0.00000000000E+00 -0.10698474879E+03  0.10698479647E+03  0.10100000352E+00 0.  1.
    10030    2    1    2    0    0  0.00000000000E+00  0.00000000000E+00  0.74348653112E+03  0.95745608238E+03  0.60328262674E+03 0.  0.
        3    1    3    3  502    0 -0.20915137784E+03 -0.14703889606E+03  0.11769818237E+03  0.28145622776E+03  0.10100000352E+00 0.  1.
       -3    1    3    3    0  502  0.20915137784E+03  0.14703889606E+03  0.62578834875E+03  0.67599985462E+03  0.10100000352E+00 0. -1.
</event>
<event>
 5   0  0.8551000E-03  0.6002588E+03  0.7818609E-02  0.9904869E-01
       -4   -1    0    0    0  501  0.00000000000E+00  0.00000000000E+00  0.65757231514E+03  0.65757354155E+03  0.12699999809E+01 0. -1.
        4   -1    0    0  501    0  0.00000000000E+00  0.00000000000E+00 -0.13698089692E+03  0.13698678411E+03  0.12699999809E+01 0.  1.
    10030    2    1    2    0    0  0.00000000000E+00  0.00000000000E+00  0.52059141822E+03  0.79456032566E+03  0.60025884948E+03 0.  0.
        5    1    3    3  502    0 -0.61799283711E+02 -0.29547067684E+02  0.64704022054E+03  0.65067297291E+03  0.46999998093E+01 0. -1.
       -5    1    3    3    0  502  0.61799283711E+02  0.29547067684E+02 -0.12644880232E+03  0.14388735275E+03  0.46999998093E+01 0.  1.
</event>
<event>
 5   0  0.2126207E-02  0.5985266E+03  0.7818609E-02  0.9908468E-01
        2   -1    0    0  501    0  0.00000000000E+00  0.00000000000E+00  0.88695604440E+03  0.88695604440E+03  0.25500000920E-02 0.  1.
       -2   -1    0    0    0  501  0.00000000000E+00  0.00000000000E+00 -0.10097289362E+03  0.10097289366E+03  0.25500000920E-02 0. -1.
    10030    2    1    2    0    0  0.00000000000E+00  0.00000000000E+00  0.78598315077E+03  0.98792893806E+03  0.59852658533E+03 0.  0.
        5    1    3    3  502    0  0.48994637987E+02  0.90267598342E+02  0.85688907850E+03  0.86303516540E+03  0.46999998093E+01 0.  1.
       -5    1    3    3    0  502 -0.48994637987E+02 -0.90267598342E+02 -0.70905927733E+02  0.12489377265E+03  0.46999998093E+01 0. -1.
</event>
<event>
 5   0  0.2092587E-02  0.5989722E+03  0.7818609E-02  0.9907541E-01
        2   -1    0    0  501    0  0.00000000000E+00  0.00000000000E+00  0.26400365513E+04  0.26400365513E+04  0.25500000920E-02 0.  1.
       -2   -1    0    0    0  501  0.00000000000E+00  0.00000000000E+00 -0.33973741176E+02  0.33973741272E+02  0.25500000920E-02 0. -1.
    10030    2    1    2    0    0  0.00000000000E+00  0.00000000000E+00  0.26060628102E+04  0.26740102926E+04  0.59897218173E+03 0.  0.
        3    1    3    3  502    0 -0.13904615095E+03 -0.11372689859E+03  0.23322754891E+03  0.29438535855E+03  0.10100000352E+00 0. -1.
       -3    1    3    3    0  502  0.13904615095E+03  0.11372689859E+03  0.23728352613E+04  0.23796249341E+04  0.10100000352E+00 0.  1.
</event>
<event>
 5   0  0.1276705E-02  0.5999050E+03  0.7818609E-02  0.9905603E-01
        1   -1    0    0  501    0  0.00000000000E+00  0.00000000000E+00  0.12443388606E+04  0.12443388606E+04  0.50400001928E-02 0.  1.
       -1   -1    0    0    0  501  0.00000000000E+00  0.00000000000E+00 -0.72304651982E+02  0.72304652158E+02  0.50400001928E-02 0. -1.
    10030    2    1    2    0    0  0.00000000000E+00  0.00000000000E+00  0.11720342086E+04  0.13166435128E+04  0.59990495376E+03 0.  0.
        1    1    3    3  502    0  0.50578945915E+02  0.16949597470E+03  0.11176930234E+04  0.11316027614E+04  0.50400001928E-02 0.  1.
       -1    1    3    3    0  502 -0.50578945915E+02 -0.16949597470E+03  0.54341185252E+02  0.18504075132E+03  0.50400001928E-02 0. -1.
</event>
<event>
 5   0  0.2142838E-02  0.5964000E+03  0.7818609E-02  0.9912903E-01
       -2   -1    0    0    0  501  0.00000000000E+00  0.00000000000E+00  0.27764651979E+03  0.27764651980E+03  0.25500000920E-02 0. -1.
        2   -1    0    0  501    0  0.00000000000E+00  0.00000000000E+00 -0.32027498751E+03  0.32027498752E+03  0.25500000920E-02 0.  1.
    10030    2    1    2    0    0  0.00000000000E+00  0.00000000000E+00 -0.42628467720E+02  0.59792150731E+03  0.59639998545E+03 0.  0.
        4    1    3    3  502    0  0.17560797616E+03 -0.86278105613E+02 -0.24692066207E+03  0.31504523335E+03  0.12699999809E+01 0.  1.
       -4    1    3    3    0  502 -0.17560797616E+03  0.86278105613E+02  0.20429219435E+03  0.28287627396E+03  0.12699999809E+01 0. -1.
</event>
<event>
 5   0  0.2179625E-02  0.5993339E+03  0.7818609E-02  0.9906789E-01
        2   -1    0    0  501    0  0.00000000000E+00  0.00000000000E+00  0.12861312872E+04  0.12861312872E+04  0.25500000920E-02 0.  1.
       -2   -1    0    0    0  501  0.00000000000E+00  0.00000000000E+00 -0.69822017476E+02  0.69822017523E+02  0.25500000920E-02 0. -1.
    10030    2    1    2    0    0  0.00000000000E+00  0.00000000000E+00  0.12163092697E+04  0.13559533047E+04  0.59933390107E+03 0.  0.
        1    1    3    3  502    0  0.29808738540E+03  0.95989136801E+01  0.67419494878E+03  0.73721574689E+03  0.50400001928E-02 0.  1.
       -1    1    3    3    0  502 -0.29808738540E+03 -0.95989136801E+01  0.54211432093E+03  0.61873755782E+03  0.50400001928E-02 0. -1.
</event>
<event>
 5   0  0.2092587E-02  0.5925493E+03  0.7818609E-02  0.9920985E-01
        2   -1    0    0  501    0  0.00000000000E+00  0.00000000000E+00  0.14793444608E+03  0.14793444610E+03  0.25500000920E-02 0.  1.
       -2   -1    0    0    0  501  0.00000000000E+00  0.00000000000E+00 -0.59336202489E+03  0.59336202489E+03  0.25500000920E-02 0. -1.
    10030    2    1    2    0    0  0.00000000000E+00  0.00000000000E+00 -0.44542757881E+03  0.74129647100E+03  0.59254934812E+03 0.  0.
        3    1    3    3  502    0 -0.12915910592E+03  0.10346824943E+03  0.84721153202E+02  0.18591782401E+03  0.10100000352E+00 0.  1.
       -3    1    3    3    0  502  0.12915910592E+03 -0.10346824943E+03 -0.53014873201E+03  0.55537864699E+03  0.10100000352E+00 0. -1.
</event>
<event>
 5   0  0.1337051E-02  0.5973120E+03  0.7818609E-02  0.9910999E-01
        1   -1    0    0  501    0  0.00000000000E+00  0.00000000000E+00  0.17065839277E+03  0.17065839284E+03  0.50400001928E-02 0. -1.
       -1   -1    0    0    0  501  0.00000000000E+00  0.00000000000E+00 -0.52265464636E+03  0.52265464638E+03  0.50400001928E-02 0.  1.
    10030    2    1    2    0    0  0.00000000000E+00  0.00000000000E+00 -0.35199625359E+03  0.69331303923E+03  0.59731198533E+03 0.  0.
        5    1    3    3  502    0  0.16285136323E+03 -0.22708428123E+03 -0.53788537108E+02  0.28461049525E+03  0.46999998093E+01 0. -1.
       -5    1    3    3    0  502 -0.16285136323E+03  0.22708428123E+03 -0.29820771648E+03  0.40870254397E+03  0.46999998093E+01 0.  1.
</event>
<event>
 5   0  0.1332555E-02  0.5955705E+03  0.7818609E-02  0.9914639E-01
        1   -1    0    0  501    0  0.00000000000E+00  0.00000000000E+00  0.19186064084E+04  0.19186064084E+04  0.50400001928E-02 0. -1.
       -1   -1    0    0    0  501  0.00000000000E+00  0.00000000000E+00 -0.46218989971E+02  0.46218990246E+02  0.50400001928E-02 0.  1.
    10030    2    1    2    0    0  0.00000000000E+00  0.00000000000E+00  0.18723874184E+04  0.19648253986E+04  0.59557048491E+03 0.  0.
        2    1    3    3  502    0 -0.85525449984E+02  0.14043058055E+03  0.11711699819E+03  0.20187060663E+03  0.25500000920E-02 0.  1.
       -2    1    3    3    0  502  0.85525449984E+02 -0.14043058055E+03  0.17552704202E+04  0.17629547920E+04  0.25500000920E-02 0. -1.
</event>
<event>
 5   0  0.1276705E-02  0.5998726E+03  0.7818609E-02  0.9905670E-01
       -1   -1    0    0    0  501  0.00000000000E+00  0.00000000000E+00  0.16947625205E+03  0.16947625212E+03  0.50400001928E-02 0. -1.
        1   -1    0    0  501    0  0.00000000000E+00  0.00000000000E+00 -0.53082231849E+03  0.53082231851E+03  0.50400001928E-02 0.  1.
    10030    2    1    2    0    0  0.00000000000E+00  0.00000000000E+00 -0.36134606644E+03  0.70029857064E+03  0.59987257672E+03 0.  0.
        1    1    3    3  502    0  0.22876583330E+03  0.37618257289E+02  0.41481667897E+02  0.23551999610E+03  0.50400001928E-02 0. -1.
       -1    1    3    3    0  502 -0.22876583330E+03 -0.37618257289E+02 -0.40282773434E+03  0.46477857453E+03  0.50400001928E-02 0.  1.
</event>
<event>
 5   0  0.2141800E-02  0.6018577E+03  0.7818609E-02  0.9901559E-01
        2   -1    0    0  501    0  0.00000000000E+00  0.00000000000E+00  0.43949577956E+03  0.43949577957E+03  0.25500000920E-02 0. -1.
       -2   -1    0    0    0  501  0.00000000000E+00  0.00000000000E+00 -0.20605018495E+03  0.20605018497E+03  0.25500000920E-02 0.  1.
    10030    2    1    2    0    0  0.00000000000E+00  0.00000000000E+00  0.23344559461E+03  0.64554596453E+03  0.60185774622E+03 0.  0.
        2    1    3    3  502    0  0.19819290326E+02  0.17470773624E+03 -0.14522307591E+03  0.22804679159E+03  0.25500000920E-02 0.  1.
       -2    1    3    3    0  502 -0.19819290326E+02 -0.17470773624E+03  0.37866867052E+03  0.41749917294E+03  0.25500000920E-02 0. -1.
</event>
<event>
 5   0  0.2142838E-02  0.5997097E+03  0.7818609E-02  0.9906009E-01
       -2   -1    0    0    0  501  0.00000000000E+00  0.00000000000E+00  0.13978458847E+03  0.13978458850E+03  0.25500000920E-02 0.  1.
        2   -1    0    0  501    0  0.00000000000E+00  0.00000000000E+00 -0.64322490584E+03  0.64322490584E+03  0.25500000920E-02 0. -1.
    10030    2    1    2    0    0  0.00000000000E+00  0.00000000000E+00 -0.50344031736E+03  0.78300949434E+03  0.59970969233E+03 0.  0.
        4    1    3    3  502    0 -0.25057113634E+03 -0.13524488326E+03 -0.37443882652E+03  0.47040739845E+03  0.12699999809E+01 0. -1.
       -4    1    3    3    0  502  0.25057113634E+03  0.13524488326E+03 -0.12900149084E+03  0.31260209589E+03  0.12699999809E+01 0.  1.
</event>
<event>
 5   0  0.1332555E-02  0.6010173E+03  0.7818609E-02  0.9903298E-01
        1   -1    0    0  501    0  0.00000000000E+00  0.00000000000E+00  0.70990559194E+03  0.70990559196E+03  0.50400001928E-02 0.  1.
       -1   -1    0    0    0  501  0.00000000000E+00  0.00000000000E+00 -0.12720770221E+03  0.12720770231E+03  0.50400001928E-02 0. -1.
    10030    2    1    2    0    0  0.00000000000E+00  0.00000000000E+00  0.58269788973E+03  0.83711329427E+03  0.60101733482E+03 0.  0.
        2    1    3    3  502    0 -0.26154871331E+03 -0.23366635311E+02  0.87825813354E+02  0.27688824926E+03  0.25500000920E-02 0. -1.
       -2    1    3    3    0  502  0.26154871331E+03  0.23366635311E+02  0.49487207638E+03  0.56022504502E+03  0.25500000920E-02 0.  1.
</event>
<event>
 5   0  0.8551000E-03  0.5998376E+03  0.7818609E-02  0.9905743E-01
        3   -1    0    0  501    0  0.00000000000E+00  0.00000000000E+00  0.36904961011E+03  0.36904962393E+03  0.10100000352E+00 0. -1.
       -3   -1    0    0    0  501  0.00000000000E+00  0.00000000000E+00 -0.24373759988E+03  0.24373762081E+03  0.10100000352E+00 0.  1.
    10030    2    1    2    0    0  0.00000000000E+00  0.00000000000E+00  0.12531201023E+03  0.61278724475E+03  0.59983756753E+03 0.  0.
        1    1    3    3  502    0 -0.13608436152E+03  0.11039712677E+03  0.31131327762E+03  0.35724282484E+03  0.50400001928E-02 0. -1.
       -1    1    3    3    0  502  0.13608436152E+03 -0.11039712677E+03 -0.18600126739E+03  0.25554441991E+03  0.50400001928E-02 0.  1.
</event>
<event>
 5   0  0.1337051E-02  0.5970645E+03  0.7818609E-02  0.9911515E-01
       -1   -1    0    0    0  501  0.00000000000E+00  0.00000000000E+00  0.38093658674E+03  0.38093658677E+03  0.50400001928E-02 0. -1.
        1   -1    0    0  501    0  0.00000000000E+00  0.00000000000E+00 -0.23395367652E+03  0.23395367657E+03  0.50400001928E-02 0.  1.
    10030    2    1    2    0    0  0.00000000000E+00  0.00000000000E+00  0.14698291022E+03  0.61489026334E+03  0.59706453592E+03 0.  0.
        5    1    3    3  502    0 -0.14308077836E+03  0.23100402993E+03 -0.53746587033E+02  0.27703024492E+03  0.46999998093E+01 0.  1.
       -5    1    3    3    0  502  0.14308077836E+03 -0.23100402993E+03  0.20072949725E+03  0.33786001842E+03  0.46999998093E+01 0. -1.
</event>
<event>
 5   0  0.1332555E-02  0.5972992E+03  0.7818609E-02  0.9911025E-01
       -1   -1    0    0    0  501  0.00000000000E+00  0.00000000000E+00  0.32216388782E+03  0.32216388786E+03  0.50400001928E-02 0. -1.
        1   -1    0    0  501    0  0.00000000000E+00  0.00000000000E+00 -0.27685160646E+03  0.27685160651E+03  0.50400001928E-02 0.  1.
    10030    2    1    2    0    0  0.00000000000E+00  0.00000000000E+00  0.45312281364E+02  0.59901549437E+03  0.59729922120E+03 0.  0.
        2    1    3    3  502    0 -0.14991115204E+03  0.12141359392E+03  0.25129582429E+03  0.31680310227E+03  0.25500000920E-02 0. -1.
       -2    1    3    3    0  502  0.14991115204E+03 -0.12141359392E+03 -0.20598354292E+03  0.28221239210E+03  0.25500000920E-02 0.  1.
</event>
<event>
 5   0  0.8551000E-03  0.6055593E+03  0.7818609E-02  0.9893939E-01
       -3   -1    0    0    0  501  0.00000000000E+00  0.00000000000E+00  0.37463666170E+03  0.37463667531E+03  0.10100000352E+00 0.  1.
        3   -1    0    0  501    0  0.00000000000E+00  0.00000000000E+00 -0.24470512214E+03  0.24470514298E+03  0.10100000352E+00 0. -1.
    10030    2    1    2    0    0  0.00000000000E+00  0.00000000000E+00  0.12993153956E+03  0.61934181829E+03  0.60555931412E+03 0.  0.
        2    1    3    3  502    0  0.26109610278E+03 -0.13617816860E+03 -0.70633462781E+01  0.29455994188E+03  0.25500000920E-02 0. -1.
       -2    1    3    3    0  502 -0.26109610278E+03  0.13617816860E+03  0.13699488584E+03  0.32478187641E+03  0.25500000920E-02 0.  1.
</event>
<event>
 5   0  0.2141800E-02  0.6021496E+03  0.7818609E-02  0.9900956E-01
       -2   -1    0    0    0  501  0.00000000000E+00  0.00000000000E+00  0.22702556480E+03  0.22702556481E+03  0.25500000920E-02 0.  1.
        2   -1    0    0  501    0  0.00000000000E+00  0.00000000000E+00 -0.39927680271E+03  0.39927680272E+03  0.25500000920E-02 0. -1.
    10030    2    1    2    0    0  0.00000000000E+00  0.00000000000E+00 -0.17225123791E+03  0.62630236753E+03  0.60214962145E+03 0.  0.
        2    1    3    3  502    0 -0.29683518703E+03 -0.28718590110E+01 -0.33843457029E+02  0.29877207939E+03  0.25500000920E-02 0.  1.
       -2    1    3    3    0  502  0.29683518703E+03  0.28718590110E+01 -0.13840778089E+03  0.32753028814E+03  0.25500000920E-02 0. -1.
</event>
<event>
 5   0  0.2092587E-02  0.5979387E+03  0.7818609E-02  0.9909692E-01
       -2   -1    0    0    0  501  0.00000000000E+00  0.00000000000E+00  0.63245892287E+02  0.63245892338E+02  0.25500000920E-02 0. -1.
        2   -1    0    0  501    0  0.00000000000E+00  0.00000000000E+00 -0.14132563274E+04  0.14132563274E+04  0.25500000920E-02 0.  1.
    10030    2    1    2    0    0  0.00000000000E+00  0.00000000000E+00 -0.13500104351E+04  0.14765022197E+04  0.59793865068E+03 0.  0.
        3    1    3    3  502    0  0.36713161685E+02  0.12106519774E+03 -0.61063836919E+01  0.12665676637E+03  0.10100000352E+00 0. -1.
       -3    1    3    3    0  502 -0.36713161685E+02 -0.12106519774E+03 -0.13439040514E+04  0.13498454534E+04  0.10100000352E+00 0.  1.
</event>
<event>
 5   0  0.2141800E-02  0.5932894E+03  0.7818609E-02  0.9919427E-01
        2   -1    0    0  501    0  0.00000000000E+00  0.00000000000E+00  0.40175277846E+03  0.40175277847E+03  0.25500000920E-02 0. -1.
       -2   -1    0    0    0  501  0.00000000000E+00  0.00000000000E+00 -0.21903536893E+03  0.21903536894E+03  0.25500000920E-02 0.  1.
    10030    2    1    2    0    0  0.00000000000E+00  0.00000000000E+00  0.18271740954E+03  0.62078814741E+03  0.59328936635E+03 0.  0.
        2    1    3    3  502    0  0.63289817270E+02  0.96065297766E+02  0.37746202671E+03  0.39460324887E+03  0.25500000920E-02 0. -1.
       -2    1    3    3    0  502 -0.63289817270E+02 -0.96065297766E+02 -0.19474461717E+03  0.22618489854E+03  0.25500000920E-02 0.  1.
</event>
<event>
 5   0  0.1250390E-02  0.5997016E+03  0.7818609E-02  0.9906025E-01
       -1   -1    0    0    0  501  0.00000000000E+00  0.00000000000E+00  0.63001747825E+03  0.63001747827E+03  0.50400001928E-02 0. -1.
        1   -1    0    0  501    0  0.00000000000E+00  0.00000000000E+00 -0.14271111761E+03  0.14271111770E+03  0.50400001928E-02 0.  1.
    10030    2    1    2    0    0  0.00000000000E+00  0.00000000000E+00  0.48730636064E+03  0.77272859597E+03  0.59970158738E+03 0.  0.
        3    1    3    3  502    0 -0.26887089747E+03  0.12124580193E+03  0.31326180046E+03  0.43026162950E+03  0.10100000352E+00 0. -1.
       -3    1    3    3    0  502  0.26887089747E+03 -0.12124580193E+03  0.17404456018E+03  0.34246696646E+03  0.10100000352E+00 0.  1.
</event>
<event>
 5   0  0.1337051E-02  0.6007787E+03  0.7818609E-02  0.9903792E-01
        1   -1    0    0  501    0  0.00000000000E+00  0.00000000000E+00  0.38854626735E+03  0.38854626738E+03  0.50400001928E-02 0. -1.
       -1   -1    0    0    0  501  0.00000000000E+00  0.00000000000E+00 -0.23223426101E+03  0.23223426106E+03  0.50400001928E-02 0.  1.
    10030    2    1    2    0    0  0.00000000000E+00  0.00000000000E+00  0.15631200634E+03  0.62078052845E+03  0.60077867902E+03 0.  0.
        5    1    3    3  502    0 -0.25277468339E+03  0.40329216131E+02 -0.84206483600E+02  0.26950752886E+03  0.46999998093E+01 0.  1.
       -5    1    3    3    0  502  0.25277468339E+03 -0.40329216131E+02  0.24051848994E+03  0.35127299958E+03  0.46999998093E+01 0. -1.
</event>
<event>
 5   0  0.2126207E-02  0.6006787E+03  0.7818609E-02  0.9903999E-01
       -2   -1    0    0    0  501  0.00000000000E+00  0.00000000000E+00  0.41269901776E+02  0.41269901855E+02  0.25500000920E-02 0.  1.
        2   -1    0    0  501    0  0.00000000000E+00  0.00000000000E+00 -0.21857023963E+04  0.21857023963E+04  0.25500000920E-02 0. -1.
    10030    2    1    2    0    0  0.00000000000E+00  0.00000000000E+00 -0.21444324945E+04  0.22269722981E+04  0.60067869380E+03 0.  0.
        5    1    3    3  502    0  0.19349733586E+03 -0.11348163247E+03 -0.18124245389E+04  0.18262595925E+04  0.46999998093E+01 0. -1.
       -5    1    3    3    0  502 -0.19349733586E+03  0.11348163247E+03 -0.33200795559E+03  0.40071270565E+03  0.46999998093E+01 0.  1.
</event>
<event>
 5   0  0.1337051E-02  0.6002001E+03  0.7818609E-02  0.9904991E-01
        1   -1    0    0  501    0  0.00000000000E+00  0.00000000000E+00  0.11126543554E+04  0.11126543554E+04  0.50400001928E-02 0.  1.
       -1   -1    0    0    0  501  0.00000000000E+00  0.00000000000E+00 -0.80941602229E+02  0.80941602386E+02  0.50400001928E-02 0. -1.
    10030    2    1    2    0    0  0.00000000000E+00  0.00000000000E+00  0.10317127532E+04  0.11935959578E+04  0.60020005450E+03 0.  0.
        5    1    3    3  502    0  0.89763915832E+02  0.27097263486E+03  0.33192696365E+03  0.43781426271E+03  0.46999998093E+01 0.  1.
       -5    1    3    3    0  502 -0.89763915832E+02 -0.27097263486E+03  0.69978578953E+03  0.75578169510E+03  0.46999998093E+01 0. -1.
</event>
<event>
 5   0  0.1332555E-02  0.6069097E+03  0.7818609E-02  0.9891173E-01
        1   -1    0    0  501    0  0.00000000000E+00  0.00000000000E+00  0.83063798815E+03  0.83063798817E+03  0.50400001928E-02 0. -1.
       -1   -1    0    0    0  501  0.00000000000E+00  0.00000000000E+00 -0.11086039174E+03  0.11086039185E+03  0.50400001928E-02 0.  1.
    10030    2    1    2    0    0  0.00000000000E+00  0.00000000000E+00  0.71977759642E+03  0.94149838002E+03  0.60690972251E+03 0.  0.
        2    1    3    3  502    0  0.21521829398E+03  0.86600678589E+02  0.56427369494E+02  0.23875225576E+03  0.25500000920E-02 0.  1.
       -2    1    3    3    0  502 -0.21521829398E+03 -0.86600678589E+02  0.66335022692E+03  0.70274612426E+03  0.25500000920E-02 0. -1.
</event>
<event>
 5   0  0.2126207E-02  0.5872208E+03  0.7818609E-02  0.9932279E-01
       -2   -1    0    0    0  501  0.00000000000E+00  0.00000000000E+00  0.25027986073E+03  0.25027986074E+03  0.25500000920E-02 0.  1.
        2   -1    0    0  501    0  0.00000000000E+00  0.00000000000E+00 -0.34444268642E+03  0.34444268643E+03  0.25500000920E-02 0. -1.
    10030    2    1    2    0    0  0.00000000000E+00  0.00000000000E+00 -0.94162825694E+02  0.59472254717E+03  0.58722080206E+03 0.  0.
        5    1    3    3  502    0 -0.15138462522E+03  0.24261960828E+03  0.20124420079E+02  0.28672052832E+03  0.46999998093E+01 0. -1.
       -5    1    3    3    0  502  0.15138462522E+03 -0.24261960828E+03 -0.11428724577E+03  0.30800201886E+03  0.46999998093E+01 0.  1.
</event>
<event>
 5   0  0.1276705E-02  0.6229754E+03  0.7818609E-02  0.9858854E-01
        1   -1    0    0  501    0  0.00000000000E+00  0.00000000000E+00  0.20178062226E+04  0.20178062226E+04  0.50400001928E-02 0.  1.
       -1   -1    0    0    0  501  0.00000000000E+00  0.00000000000E+00 -0.48084187364E+02  0.48084187628E+02  0.50400001928E-02 0. -1.
    10030    2    1    2    0    0  0.00000000000E+00  0.00000000000E+00  0.19697220352E+04  0.20658904102E+04  0.62297535344E+03 0.  0.
        1    1    3    3  502    0  0.10152333173E+03 -0.45625927313E+02  0.19496084286E+04  0.19527830748E+04  0.50400001928E-02 0.  1.
       -1    1    3    3    0  502 -0.10152333173E+03  0.45625927313E+02  0.20113606557E+02  0.11310733541E+03  0.50400001928E-02 0. -1.
</event>
<event>
 5   0  0.2092587E-02  0.5959030E+03  0.7818609E-02  0.9913943E-01
        2   -1    0    0  501    0  0.00000000000E+00  0.00000000000E+00  0.16496731305E+03  0.16496731307E+03  0.25500000920E-02 0. -1.
       -2   -1    0    0    0  501  0.00000000000E+00  0.00000000000E+00 -0.53813753535E+03  0.53813753535E+03  0.25500000920E-02 0.  1.
    10030    2    1    2    0    0  0.00000000000E+00  0.00000000000E+00 -0.37317022230E+03  0.70310484842E+03  0.59590302321E+03 0.  0.
        3    1    3    3  502    0  0.76815289298E+02  0.24723901878E+03 -0.36058456917E+03  0.44390197432E+03  0.10100000352E+00 0.  1.
       -3    1    3    3    0  502 -0.76815289298E+02 -0.24723901878E+03 -0.12585653128E+02  0.25920287411E+03  0.10100000352E+00 0. -1.
</event>
<event>
 5   0  0.2179625E-02  0.5994584E+03  0.7818609E-02  0.9906530E-01
       -2   -1    0    0    0  501  0.00000000000E+00  0.00000000000E+00  0.93533506805E+02  0.93533506840E+02  0.25500000920E-02 0. -1.
        2   -1    0    0  501    0  0.00000000000E+00  0.00000000000E+00 -0.96048580375E+03  0.96048580375E+03  0.25500000920E-02 0.  1.
    10030    2    1    2    0    0  0.00000000000E+00  0.00000000000E+00 -0.86695229694E+03  0.10540193106E+04  0.59945844053E+03 0.  0.
        1    1    3    3  502    0 -0.80043124365E+02  0.22489768078E+03 -0.11478598724E+03  0.26488052301E+03  0.50400001928E-02 0. -1.
       -1    1    3    3    0  502  0.80043124365E+02 -0.22489768078E+03 -0.75216630970E+03  0.78913878758E+03  0.50400001928E-02 0.  1.
</event>
<event>
 5   0  0.2092587E-02  0.6036348E+03  0.7818609E-02  0.9897893E-01
        2   -1    0    0  501    0  0.00000000000E+00  0.00000000000E+00  0.70405294171E+03  0.70405294172E+03  0.25500000920E-02 0.  1.
       -2   -1    0    0    0  501  0.00000000000E+00  0.00000000000E+00 -0.12938481212E+03  0.12938481215E+03  0.25500000920E-02 0. -1.
    10030    2    1    2    0    0  0.00000000000E+00  0.00000000000E+00  0.57466812959E+03  0.83343775386E+03  0.60363484856E+03 0.  0.
        3    1    3    3  502    0 -0.26517718059E+03  0.14412504662E+03  0.28963665814E+03  0.41830655041E+03  0.10100000352E+00 0.  1.
       -3    1    3    3    0  502  0.26517718059E+03 -0.14412504662E+03  0.28503147145E+03  0.41513120346E+03  0.10100000352E+00 0. -1.
</event>
<event>
 5   0  0.8551000E-03  0.6002496E+03  0.7818609E-02  0.9904888E-01
       -4   -1    0    0    0  501  0.00000000000E+00  0.00000000000E+00  0.17987596683E+03  0.17988045014E+03  0.12699999809E+01 0.  1.
        4   -1    0    0  501    0  0.00000000000E+00  0.00000000000E+00 -0.50074959318E+03  0.50075120367E+03  0.12699999809E+01 0. -1.
    10030    2    1    2    0    0  0.00000000000E+00  0.00000000000E+00 -0.32087362636E+03  0.68063165380E+03  0.60024958481E+03 0.  0.
        1    1    3    3  502    0  0.16100455483E+03  0.19555244287E+03  0.22090535853E+02  0.25426603467E+03  0.50400001928E-02 0.  1.
       -1    1    3    3    0  502 -0.16100455483E+03 -0.19555244287E+03 -0.34296416221E+03  0.42636561913E+03  0.50400001928E-02 0. -1.
</event>
<event>
 5   0  0.2142838E-02  0.5975694E+03  0.7818609E-02  0.9910462E-01
        2   -1    0    0  501    0  0.00000000000E+00  0.00000000000E+00  0.11948164337E+04  0.11948164337E+04  0.25500000920E-02 0. -1.
       -2   -1    0    0    0  501  0.00000000000E+00  0.00000000000E+00 -0.74716339745E+02  0.74716339788E+02  0.25500000920E-02 0.  1.
    10030    2    1    2    0    0  0.00000000000E+00  0.00000000000E+00  0.11201000939E+04  0.12695327735E+04  0.59756944574E+03 0.  0.
        4    1    3    3  502    0  0.12188213824E+03  0.23044615041E+03  0.24991746173E+03  0.36113852528E+03  0.12699999809E+01 0.  1.
       -4    1    3    3    0  502 -0.12188213824E+03 -0.23044615041E+03  0.87018263220E+03  0.90839424819E+03  0.12699999809E+01 0. -1.
</event>
<event>
 5   0  0.1337051E-02  0.6051997E+03  0.7818609E-02  0.9894677E-01
       -1   -1    0    0    0  501  0.00000000000E+00  0.00000000000E+00  0.95825649550E+02  0.95825649682E+02  0.50400001928E-02 0. -1.
        1   -1    0    0  501    0  0.00000000000E+00  0.00000000000E+00 -0.95555480030E+03  0.95555480031E+03  0.50400001928E-02 0.  1.
    10030    2    1    2    0    0  0.00000000000E+00  0.00000000000E+00 -0.85972915075E+03  0.10513804500E+04  0.60519966786E+03 0.  0.
        5    1    3    3  502    0 -0.12253699156E+03  0.24706755219E+03 -0.21367080245E+03  0.34890541908E+03  0.46999998093E+01 0. -1.
       -5    1    3    3    0  502  0.12253699156E+03 -0.24706755219E+03 -0.64605834830E+03  0.70247503091E+03  0.46999998093E+01 0.  1.
</event>
<event>
 5   0  0.8551000E-03  0.5995284E+03  0.7818609E-02  0.9906385E-01
        4   -1    0    0  501    0  0.00000000000E+00  0.00000000000E+00  0.10428363829E+04  0.10428371563E+04  0.12699999809E+01 0. -1.
       -4   -1    0    0    0  501  0.00000000000E+00  0.00000000000E+00 -0.86161986644E+02  0.86171345831E+02  0.12699999809E+01 0.  1.
    10030    2    1    2    0    0  0.00000000000E+00  0.00000000000E+00  0.95667439629E+03  0.11290085021E+04  0.59952839572E+03 0.  0.
        4    1    3    3  502    0 -0.28284858478E+03 -0.47034991999E+02  0.64295336072E+03  0.70399307479E+03  0.12699999809E+01 0. -1.
       -4    1    3    3    0  502  0.28284858478E+03  0.47034991999E+02  0.31372103556E+03  0.42501542730E+03  0.12699999809E+01 0.  1.
</event>
<event>
 5   0  0.8551000E-03  0.5998926E+03  0.7818609E-02  0.9905629E-01
        3   -1    0    0  501    0  0.00000000000E+00  0.00000000000E+00  0.21035082126E+03  0.21035084551E+03  0.10100000352E+00 0.  1.
       -3   -1    0    0    0  501  0.00000000000E+00  0.00000000000E+00 -0.42770349582E+03  0.42770350775E+03  0.10100000352E+00 0. -1.
    10030    2    1    2    0    0  0.00000000000E+00  0.00000000000E+00 -0.21735267456E+03  0.63805435326E+03  0.59989263420E+03 0.  0.
        4    1    3    3  502    0 -0.19619912624E+03 -0.20511541903E+03 -0.21179618226E+03  0.35415486441E+03  0.12699999809E+01 0. -1.
       -4    1    3    3    0  502  0.19619912624E+03  0.20511541903E+03 -0.55564922995E+01  0.28389948885E+03  0.12699999809E+01 0.  1.
</event>
<event>
 5   0  0.8551000E-03  0.6002386E+03  0.7818609E-02  0.9904911E-01
        3   -1    0    0  501    0  0.00000000000E+00  0.00000000000E+00  0.40437546787E+02  0.40437672920E+02  0.10100000352E+00 0.  1.
       -3   -1    0    0    0  501  0.00000000000E+00  0.00000000000E+00 -0.22274208842E+04  0.22274208865E+04  0.10100000352E+00 0. -1.
    10030    2    1    2    0    0  0.00000000000E+00  0.00000000000E+00 -0.21869833374E+04  0.22678585594E+04  0.60023855871E+03 0.  0.
        1    1    3    3  502    0  0.26419061533E+03  0.10464258975E+03 -0.14583401247E+04  0.14857666951E+04  0.50400001928E-02 0.  1.
       -1    1    3    3    0  502 -0.26419061533E+03 -0.10464258975E+03 -0.72864321269E+03  0.78209186432E+03  0.50400001928E-02 0. -1.
</event>
<event>
 5   0  0.1337051E-02  0.6032923E+03  0.7818609E-02  0.9898599E-01
       -1   -1    0    0    0  501  0.00000000000E+00  0.00000000000E+00  0.14107073967E+03  0.14107073976E+03  0.50400001928E-02 0. -1.
        1   -1    0    0  501    0  0.00000000000E+00  0.00000000000E+00 -0.64499840257E+03  0.64499840259E+03  0.50400001928E-02 0.  1.
    10030    2    1    2    0    0  0.00000000000E+00  0.00000000000E+00 -0.50392766290E+03  0.78606914235E+03  0.60329230653E+03 0.  0.
        5    1    3    3  502    0  0.56221037581E+02  0.79921701500E+02 -0.62375458589E+03  0.63137956639E+03  0.46999998093E+01 0.  1.
       -5    1    3    3    0  502 -0.56221037581E+02 -0.79921701500E+02  0.11982692299E+03  0.15468957596E+03  0.46999998093E+01 0. -1.
</event>
<event>
 5   0  0.8551000E-03  0.5997456E+03  0.7818609E-02  0.9905934E-01
       -4   -1    0    0    0  501  0.00000000000E+00  0.00000000000E+00  0.34611255186E+03  0.34611488187E+03  0.12699999809E+01 0.  1.
        4   -1    0    0  501    0  0.00000000000E+00  0.00000000000E+00 -0.25980584031E+03  0.25980894434E+03  0.12699999809E+01 0. -1.
    10030    2    1    2    0    0  0.00000000000E+00  0.00000000000E+00  0.86306711549E+02  0.60592382621E+03  0.59974564168E+03 0.  0.
        5    1    3    3  502    0  0.29360809238E+03 -0.49983330658E+02  0.78115817556E+02  0.30794190394E+03  0.46999998093E+01 0.  1.
       -5    1    3    3    0  502 -0.29360809238E+03  0.49983330658E+02  0.81908939929E+01  0.29798192227E+03  0.46999998093E+01 0. -1.
</event>
<event>
 5   0  0.1250390E-02  0.5997780E+03  0.7818609E-02  0.9905867E-01
        1   -1    0    0  501    0  0.00000000000E+00  0.00000000000E+00  0.74350546401E+03  0.74350546402E+03  0.50400001928E-02 0. -1.
       -1   -1    0    0    0  501  0.00000000000E+00  0.00000000000E+00 -0.12095864880E+03  0.12095864891E+03  0.50400001928E-02 0.  1.
    10030    2    1    2    0    0  0.00000000000E+00  0.00000000000E+00  0.62254681521E+03  0.86446411293E+03  0.59977801345E+03 0.  0.
        3    1    3    3  502    0 -0.15019315945E+03  0.68664589596E+02 -0.49515922320E+02  0.17240837501E+03  0.10100000352E+00 0.  1.
       -3    1    3    3    0  502  0.15019315945E+03 -0.68664589596E+02  0.67206273753E+03  0.69205573792E+03  0.10100000352E+00 0. -1.
</event>
<event>
 5   0  0.1337051E-02  0.6008607E+03  0.7818609E-02  0.9903622E-01
       -1   -1    0    0    0  501  0.00000000000E+00  0.00000000000E+00  0.11082079124E+04  0.11082079124E+04  0.50400001928E-02 0. -1.
        1   -1    0    0  501    0  0.00000000000E+00  0.00000000000E+00 -0.81445354623E+02  0.81445354779E+02  0.50400001928E-02 0.  1.
    10030    2    1    2    0    0  0.00000000000E+00  0.00000000000E+00  0.10267625577E+04  0.11896532672E+04  0.60086067110E+03 0.  0.
        5    1    3    3  502    0 -0.28354082974E+02  0.57787805730E+02 -0.67557439071E+02  0.93431697428E+02  0.46999998093E+01 0.  1.
       -5    1    3    3    0  502  0.28354082974E+02 -0.57787805730E+02  0.10943199968E+04  0.10962215697E+04  0.46999998093E+01 0. -1.
</event>
<event>
 5   0  0.2126207E-02  0.5820152E+03  0.7818609E-02  0.9943438E-01
        2   -1    0    0  501    0  0.00000000000E+00  0.00000000000E+00  0.83504421385E+03  0.83504421385E+03  0.25500000920E-02 0.  1.
       -2   -1    0    0    0  501  0.00000000000E+00  0.00000000000E+00 -0.10141429239E+03  0.10141429242E+03  0.25500000920E-02 0. -1.
    10030    2    1    2    0    0  0.00000000000E+00  0.00000000000E+00  0.73362992146E+03  0.93645850627E+03  0.58201518219E+03 0.  0.
        5    1    3    3  502    0  0.35523233480E+02  0.10049899023E+03  0.80243746113E+03  0.80949979381E+03  0.46999998093E+01 0.  1.
       -5    1    3    3    0  502 -0.35523233480E+02 -0.10049899023E+03 -0.68807539672E+02  0.12695871246E+03  0.46999998093E+01 0. -1.
</event>
<event>
 5   0  0.1276705E-02  0.6036984E+03  0.7818609E-02  0.9897763E-01
        1   -1    0    0  501    0  0.00000000000E+00  0.00000000000E+00  0.89923645277E+03  0.89923645278E+03  0.50400001928E-02 0. -1.
       -1   -1    0    0    0  501  0.00000000000E+00  0.00000000000E+00 -0.10132254793E+03  0.10132254805E+03  0.50400001928E-02 0.  1.
    10030    2    1    2    0    0  0.00000000000E+00  0.00000000000E+00  0.79791390484E+03  0.10005590008E+04  0.60369836393E+03 0.  0.
        1    1    3    3  502    0 -0.29936220673E+03  0.34559869311E+02  0.37021136541E+03  0.47735581121E+03  0.50400001928E-02 0.  1.
       -1    1    3    3    0  502  0.29936220673E+03 -0.34559869311E+02  0.42770253942E+03  0.52320318963E+03  0.50400001928E-02 0. -1.
</event>
<event>
 5   0  0.1337051E-02  0.5990389E+03  0.7818609E-02  0.9907402E-01
       -1   -1    0    0    0  501  0.00000000000E+00  0.00000000000E+00  0.92835834748E+03  0.92835834749E+03  0.50400001928E-02 0. -1.
        1   -1    0    0  501    0  0.00000000000E+00  0.00000000000E+00 -0.96634979918E+02  0.96634980049E+02  0.50400001928E-02 0.  1.
    10030    2    1    2    0    0  0.00000000000E+00  0.00000000000E+00  0.83172336756E+03  0.10249933275E+04  0.59903886465E+03 0.  0.
        5    1    3    3  502    0  0.11111969025E+03  0.65991867336E+02 -0.46401868917E+02  0.13739627197E+03  0.46999998093E+01 0.  1.
       -5    1    3    3    0  502 -0.11111969025E+03 -0.65991867336E+02  0.87812523648E+03  0.88759705557E+03  0.46999998093E+01 0. -1.
</event>
<event>
 5   0  0.1303808E-02  0.6020070E+03  0.7818609E-02  0.9901251E-01
        1   -1    0    0  501    0  0.00000000000E+00  0.00000000000E+00  0.35418492542E+03  0.35418492546E+03  0.50400001928E-02 0. -1.
       -1   -1    0    0    0  501  0.00000000000E+00  0.00000000000E+00 -0.25580730858E+03  0.25580730863E+03  0.50400001928E-02 0.  1.
    10030    2    1    2    0    0  0.00000000000E+00  0.00000000000E+00  0.98377616846E+02  0.60999223409E+03  0.60200695191E+03 0.  0.
        4    1    3    3  502    0  0.29126024536E+03  0.56400912432E+02  0.10073485783E+03  0.31330930075E+03  0.12699999809E+01 0. -1.
       -4    1    3    3    0  502 -0.29126024536E+03 -0.56400912432E+02 -0.23572409827E+01  0.29668293334E+03  0.12699999809E+01 0.  1.
</event>
<event>
 5   0  0.1332555E-02  0.5953374E+03  0.7818609E-02  0.9915127E-01
       -1   -1    0    0    0  501  0.00000000000E+00  0.00000000000E+00  0.27403676574E+03  0.27403676578E+03  0.50400001928E-02 0.  1.
        1   -1    0    0  501    0  0.00000000000E+00  0.00000000000E+00 -0.32333854524E+03  0.32333854527E+03  0.50400001928E-02 0. -1.
    10030    2    1    2    0    0  0.00000000000E+00  0.00000000000E+00 -0.49301779499E+02  0.59737531106E+03  0.59533738065E+03 0.  0.
        2    1    3    3  502    0 -0.29156990731E+03 -0.56312202182E+02 -0.45277868554E+02  0.30039001373E+03  0.25500000920E-02 0. -1.
       -2    1    3    3    0  502  0.29156990731E+03  0.56312202182E+02 -0.40239109450E+01  0.29698529733E+03  0.25500000920E-02 0.  1.
</event>
<event>
 5   0  0.2141800E-02  0.5977779E+03  0.7818609E-02  0.9910027E-01
       -2   -1    0    0    0  501  0.00000000000E+00  0.00000000000E+00  0.10891912482E+03  0.10891912485E+03  0.25500000920E-02 0. -1.
        2   -1    0    0  501    0  0.00000000000E+00  0.00000000000E+00 -0.82019203003E+03  0.82019203003E+03  0.25500000920E-02 0.  1.
    10030    2    1    2    0    0  0.00000000000E+00  0.00000000000E+00 -0.71127290521E+03  0.92911115488E+03  0.59777787885E+03 0.  0.
        2    1    3    3  502    0  0.10186645911E+03 -0.13186038741E+03  0.30032556536E+02  0.16931004612E+03  0.25500000920E-02 0. -1.
       -2    1    3    3    0  502 -0.10186645911E+03  0.13186038741E+03 -0.74130546174E+03  0.75980110876E+03  0.25500000920E-02 0.  1.
</event>
<event>
 5   0  0.2092587E-02  0.6042567E+03  0.7818609E-02  0.9896614E-01
       -2   -1    0    0    0  501  0.00000000000E+00  0.00000000000E+00  0.17089417607E+03  0.17089417609E+03  0.25500000920E-02 0.  1.
        2   -1    0    0  501    0  0.00000000000E+00  0.00000000000E+00 -0.53414075455E+03  0.53414075456E+03  0.25500000920E-02 0. -1.
    10030    2    1    2    0    0  0.00000000000E+00  0.00000000000E+00 -0.36324657848E+03  0.70503493065E+03  0.60425671420E+03 0.  0.
        3    1    3    3  502    0  0.75688050338E+02  0.11359475368E+03  0.13286481597E+03  0.19048758110E+03  0.10100000352E+00 0.  1.
       -3    1    3    3    0  502 -0.75688050338E+02 -0.11359475368E+03 -0.49611139445E+03  0.51454734956E+03  0.10100000352E+00 0. -1.
</event>
<event>
 5   0  0.2142838E-02  0.5987778E+03  0.7818609E-02  0.9907945E-01
       -2   -1    0    0    0  501  0.00000000000E+00  0.00000000000E+00  0.64338015267E+02  0.64338015317E+02  0.25500000920E-02 0.  1.
        2   -1    0    0  501    0  0.00000000000E+00  0.00000000000E+00 -0.13931688601E+04  0.13931688601E+04  0.25500000920E-02 0. -1.
    10030    2    1    2    0    0  0.00000000000E+00  0.00000000000E+00 -0.13288308448E+04  0.14575068754E+04  0.59877781999E+03 0.  0.
        4    1    3    3  502    0  0.82202750535E+02  0.21189212450E+03 -0.11387694750E+04  0.11612291310E+04  0.12699999809E+01 0. -1.
       -4    1    3    3    0  502 -0.82202750535E+02 -0.21189212450E+03 -0.19006136981E+03  0.29627774438E+03  0.12699999809E+01 0.  1.
</event>
<event>
 5   0  0.1250390E-02  0.6003495E+03  0.7818609E-02  0.9904681E-01
        1   -1    0    0  501    0  0.00000000000E+00  0.00000000000E+00  0.12528868537E+04  0.12528868537E+04  0.50400001928E-02 0. -1.
       -1   -1    0    0    0  501  0.00000000000E+00  0.00000000000E+00 -0.71917813414E+02  0.71917813590E+02  0.50400001928E-02 0.  1.
    10030    2    1    2    0    0  0.00000000000E+00  0.00000000000E+00  0.11809690403E+04  0.13248046673E+04  0.60034950853E+03 0.  0.
        3    1    3    3  502    0 -0.24205913864E+03  0.61116325852E+02  0.22270234241E+03  0.33455070677E+03  0.10100000352E+00 0.  1.
       -3    1    3    3    0  502  0.24205913864E+03 -0.61116325852E+02  0.95826669790E+03  0.99025396055E+03  0.10100000352E+00 0. -1.
</event>
<event>
 5   0  0.2179625E-02  0.6067640E+03  0.7818609E-02  0.9891471E-01
       -2   -1    0    0    0  501  0.00000000000E+00  0.00000000000E+00  0.14038718683E+03  0.14038718685E+03  0.25500000920E-02 0.  1.
        2   -1    0    0  501    0  0.00000000000E+00  0.00000000000E+00 -0.65561996698E+03  0.65561996698E+03  0.25500000920E-02 0. -1.
    10030    2    1    2    0    0  0.00000000000E+00  0.00000000000E+00 -0.51523278015E+03  0.79600715384E+03  0.60676401609E+03 0.  0.
        1    1    3    3  502    0 -0.16169615428E+03 -0.24508877716E+03 -0.35775477292E+03  0.46282030268E+03  0.50400001928E-02 0. -1.
       -1    1    3    3    0  502  0.16169615428E+03  0.24508877716E+03 -0.15747800722E+03  0.33318685116E+03  0.50400001928E-02 0.  1.
</event>
<event>
 5   0  0.2126207E-02  0.6017040E+03  0.7818609E-02  0.9901877E-01
        2   -1    0    0  501    0  0.00000000000E+00  0.00000000000E+00  0.19888312355E+03  0.19888312357E+03  0.25500000920E-02 0.  1.
       -2   -1    0    0    0  501  0.00000000000E+00  0.00000000000E+00 -0.45510106135E+03  0.45510106135E+03  0.25500000920E-02 0. -1.
    10030    2    1    2    0    0  0.00000000000E+00  0.00000000000E+00 -0.25621793780E+03  0.65398418492E+03  0.60170398243E+03 0.  0.
        5    1    3    3  502    0 -0.28901247956E+03 -0.73541792442E+02 -0.17094420183E+03  0.34377408092E+03  0.46999998093E+01 0. -1.
       -5    1    3    3    0  502  0.28901247956E+03  0.73541792442E+02 -0.85273735969E+02  0.31021010400E+03  0.46999998093E+01 0.  1.
</event>
<event>
 5   0  0.1303808E-02  0.5992390E+03  0.7818609E-02  0.9906986E-01
       -1   -1    0    0    0  501  0.00000000000E+00  0.00000000000E+00  0.76529425567E+02  0.76529425733E+02  0.50400001928E-02 0.  1.
        1   -1    0    0  501    0  0.00000000000E+00  0.00000000000E+00 -0.11730368267E+04  0.11730368267E+04  0.50400001928E-02 0. -1.
    10030    2    1    2    0    0  0.00000000000E+00  0.00000000000E+00 -0.10965074011E+04  0.12495662524E+04  0.59923896610E+03 0.  0.
        4    1    3    3  502    0  0.17853282201E+03  0.69245781242E+02 -0.67733426801E+02  0.20312158123E+03  0.12699999809E+01 0.  1.
       -4    1    3    3    0  502 -0.17853282201E+03 -0.69245781242E+02 -0.10287739743E+04  0.10464446712E+04  0.12699999809E+01 0. -1.
</event>
<event>
 5   0  0.1332555E-02  0.6005548E+03  0.7818609E-02  0.9904256E-01
        1   -1    0    0  501    0  0.00000000000E+00  0.00000000000E+00  0.49845046591E+03  0.49845046593E+03  0.50400001928E-02 0. -1.
       -1   -1    0    0    0  501  0.00000000000E+00  0.00000000000E+00 -0.18089366567E+03  0.18089366574E+03  0.50400001928E-02 0.  1.
    10030    2    1    2    0    0  0.00000000000E+00  0.00000000000E+00  0.31755680024E+03  0.67934413167E+03  0.60055485000E+03 0.  0.
        2    1    3    3  502    0  0.59450961915E+02 -0.29233584713E+03  0.19750206176E+03  0.35777329246E+03  0.25500000920E-02 0. -1.
       -2    1    3    3    0  502 -0.59450961915E+02  0.29233584713E+03  0.12005473848E+03  0.32157083921E+03  0.25500000920E-02 0.  1.
</event>
<event>
 5   0  0.1332555E-02  0.5971900E+03  0.7818609E-02  0.9911253E-01
        1   -1    0    0  501    0  0.00000000000E+00  0.00000000000E+00  0.13611586705E+03  0.13611586714E+03  0.50400001928E-02 0.  1.
       -1   -1    0    0    0  501  0.00000000000E+00  0.00000000000E+00 -0.65502269172E+03  0.65502269174E+03  0.50400001928E-02 0. -1.
    10030    2    1    2    0    0  0.00000000000E+00  0.00000000000E+00 -0.51890682467E+03  0.79113855888E+03  0.59719002559E+03 0.  0.
        2    1    3    3  502    0 -0.67570721438E+02 -0.25468383457E+01  0.12583950815E+03  0.14285611852E+03  0.25500000920E-02 0.  1.
       -2    1    3    3    0  502  0.67570721438E+02  0.25468383457E+01 -0.64474633282E+03  0.64828244036E+03  0.25500000920E-02 0. -1.
</event>
<event>
 5   0  0.1250390E-02  0.6000776E+03  0.7818609E-02  0.9905245E-01
        1   -1    0    0  501    0  0.00000000000E+00  0.00000000000E+00  0.29902279742E+03  0.29902279747E+03  0.50400001928E-02 0.  1.
       -1   -1    0    0    0  501  0.00000000000E+00  0.00000000000E+00 -0.30105827871E+03  0.30105827875E+03  0.50400001928E-02 0. -1.
    10030    2    1    2    0    0  0.00000000000E+00  0.00000000000E+00 -0.20354812812E+01  0.60008107622E+03  0.60007762402E+03 0.  0.
        3    1    3    3  502    0 -0.28209166677E+03  0.13595436377E+02 -0.10232347712E+03  0.30038416822E+03  0.10100000352E+00 0. -1.
       -3    1    3    3    0  502  0.28209166677E+03 -0.13595436377E+02  0.10028799584E+03  0.29969690799E+03  0.10100000352E+00 0.  1.
</event>
<event>
 5   0  0.1332555E-02  0.6049959E+03  0.7818609E-02  0.9895095E-01
        1   -1    0    0  501    0  0.00000000000E+00  0.00000000000E+00  0.69138407929E+03  0.69138407931E+03  0.50400001928E-02 0.  1.
       -1   -1    0    0    0  501  0.00000000000E+00  0.00000000000E+00 -0.13235045467E+03  0.13235045477E+03  0.50400001928E-02 0. -1.
    10030    2    1    2    0    0  0.00000000000E+00  0.00000000000E+00  0.55903362461E+03  0.82373453408E+03  0.60499585881E+03 0.  0.
        2    1    3    3  502    0 -0.14665170151E+03 -0.13222690369E+03  0.59153057565E+03  0.62361774955E+03  0.25500000920E-02 0.  1.
       -2    1    3    3    0  502  0.14665170151E+03  0.13222690369E+03 -0.32496951033E+02  0.20011678453E+03  0.25500000920E-02 0. -1.
</event>
<event>
 5   0  0.2141800E-02  0.5965476E+03  0.7818609E-02  0.9912595E-01
        2   -1    0    0  501    0  0.00000000000E+00  0.00000000000E+00  0.16029046640E+04  0.16029046640E+04  0.25500000920E-02 0. -1.
       -2   -1    0    0    0  501  0.00000000000E+00  0.00000000000E+00 -0.55503771329E+02  0.55503771388E+02  0.25500000920E-02 0.  1.
    10030    2    1    2    0    0  0.00000000000E+00  0.00000000000E+00  0.15474008927E+04  0.16584084354E+04  0.59654758062E+03 0.  0.
        2    1    3    3  502    0 -0.20839060795E+03  0.14205921080E+03  0.12164103407E+04  0.12422807983E+04  0.25500000920E-02 0.  1.
       -2    1    3    3    0  502  0.20839060795E+03 -0.14205921080E+03  0.33099055201E+03  0.41612763713E+03  0.25500000920E-02 0. -1.
</event>
<event>
 5   0  0.2141800E-02  0.5989586E+03  0.7818609E-02  0.9907569E-01
       -2   -1    0    0    0  501  0.00000000000E+00  0.00000000000E+00  0.17539523261E+03  0.17539523263E+03  0.25500000920E-02 0. -1.
        2   -1    0    0  501    0  0.00000000000E+00  0.00000000000E+00 -0.51134720644E+03  0.51134720645E+03  0.25500000920E-02 0.  1.
    10030    2    1    2    0    0  0.00000000000E+00  0.00000000000E+00 -0.33595197383E+03  0.68674243908E+03  0.59895863706E+03 0.  0.
        2    1    3    3  502    0  0.10661324879E+03  0.28089930377E+01 -0.48883601179E+03  0.50033480960E+03  0.25500000920E-02 0.  1.
       -2    1    3    3    0  502 -0.10661324879E+03 -0.28089930377E+01  0.15288403797E+03  0.18640762948E+03  0.25500000920E-02 0. -1.
</event>
<event>
 5   0  0.2092587E-02  0.6013889E+03  0.7818609E-02  0.9902529E-01
        2   -1    0    0  501    0  0.00000000000E+00  0.00000000000E+00  0.20874780647E+03  0.20874780648E+03  0.25500000920E-02 0.  1.
       -2   -1    0    0    0  501  0.00000000000E+00  0.00000000000E+00 -0.43314066684E+03  0.43314066685E+03  0.25500000920E-02 0. -1.
    10030    2    1    2    0    0  0.00000000000E+00  0.00000000000E+00 -0.22439286038E+03  0.64188847333E+03  0.60138893938E+03 0.  0.
        3    1    3    3  502    0 -0.80155858821E+02 -0.15522508376E+03  0.14902451785E+03  0.22962601215E+03  0.10100000352E+00 0.  1.
       -3    1    3    3    0  502  0.80155858821E+02  0.15522508376E+03 -0.37341737823E+03  0.41226246118E+03  0.10100000352E+00 0. -1.
</event>
<event>
 5   0  0.8551000E-03  0.5963378E+03  0.7818609E-02  0.9913033E-01
        3   -1    0    0  501    0  0.00000000000E+00  0.00000000000E+00  0.41471082127E+03  0.41471083357E+03  0.10100000352E+00 0.  1.
       -3   -1    0    0    0  501  0.00000000000E+00  0.00000000000E+00 -0.21437753007E+03  0.21437755386E+03  0.10100000352E+00 0. -1.
    10030    2    1    2    0    0  0.00000000000E+00  0.00000000000E+00  0.20033329121E+03  0.62908838743E+03  0.59633779994E+03 0.  0.
        1    1    3    3  502    0  0.22976071196E+03 -0.18160284767E+03  0.15923379164E+03  0.33335413522E+03  0.50400001928E-02 0. -1.
       -1    1    3    3    0  502 -0.22976071196E+03  0.18160284767E+03  0.41099499562E+02  0.29573425221E+03  0.50400001928E-02 0.  1.
</event>
<event>
 5   0  0.1303808E-02  0.5964669E+03  0.7818609E-02  0.9912763E-01
        1   -1    0    0  501    0  0.00000000000E+00  0.00000000000E+00  0.34249375710E+03  0.34249375714E+03  0.50400001928E-02 0. -1.
       -1   -1    0    0    0  501  0.00000000000E+00  0.00000000000E+00 -0.25969288547E+03  0.25969288552E+03  0.50400001928E-02 0.  1.
    10030    2    1    2    0    0  0.00000000000E+00  0.00000000000E+00  0.82800871627E+02  0.60218664265E+03  0.59646690457E+03 0.  0.
        4    1    3    3  502    0  0.24118474476E+03  0.15527215692E+03  0.12380454797E+03  0.31242391525E+03  0.12699999809E+01 0.  1.
       -4    1    3    3    0  502 -0.24118474476E+03 -0.15527215692E+03 -0.41003676340E+02  0.28976272741E+03  0.12699999809E+01 0. -1.
</event>
<event>
 5   0  0.1332555E-02  0.6022813E+03  0.7818609E-02  0.9900684E-01
       -1   -1    0    0    0  501  0.00000000000E+00  0.00000000000E+00  0.66351101928E+03  0.66351101930E+03  0.50400001928E-02 0. -1.
        1   -1    0    0  501    0  0.00000000000E+00  0.00000000000E+00 -0.13667547475E+03  0.13667547484E+03  0.50400001928E-02 0.  1.
    10030    2    1    2    0    0  0.00000000000E+00  0.00000000000E+00  0.52683554454E+03  0.80018649414E+03  0.60228127517E+03 0.  0.
        2    1    3    3  502    0  0.10873888717E+03  0.85485679092E+02 -0.91974528420E+02  0.16610617327E+03  0.25500000920E-02 0.  1.
       -2    1    3    3    0  502 -0.10873888717E+03 -0.85485679092E+02  0.61881007296E+03  0.63408032087E+03  0.25500000920E-02 0. -1.
</event>
<event>
 5   0  0.8551000E-03  0.5995946E+03  0.7818609E-02  0.9906248E-01
        3   -1    0    0  501    0  0.00000000000E+00  0.00000000000E+00  0.80027927914E+02  0.80027991648E+02  0.10100000352E+00 0. -1.
       -3   -1    0    0    0  501  0.00000000000E+00  0.00000000000E+00 -0.11230876238E+04  0.11230876284E+04  0.10100000352E+00 0.  1.
    10030    2    1    2    0    0  0.00000000000E+00  0.00000000000E+00 -0.10430596959E+04  0.12031156200E+04  0.59959458461E+03 0.  0.
        3    1    3    3  502    0  0.26891373869E+03 -0.97653049447E+02 -0.70131132431E+03  0.75742214170E+03  0.10100000352E+00 0.  1.
       -3    1    3    3    0  502 -0.26891373869E+03  0.97653049447E+02 -0.34174837160E+03  0.44569347832E+03  0.10100000352E+00 0. -1.
</event>
<event>
 5   0  0.1332555E-02  0.6020673E+03  0.7818609E-02  0.9901126E-01
       -1   -1    0    0    0  501  0.00000000000E+00  0.00000000000E+00  0.94996745174E+03  0.94996745175E+03  0.50400001928E-02 0. -1.
        1   -1    0    0  501    0  0.00000000000E+00  0.00000000000E+00 -0.95394064239E+02  0.95394064372E+02  0.50400001928E-02 0.  1.
    10030    2    1    2    0    0  0.00000000000E+00  0.00000000000E+00  0.85457338750E+03  0.10453615161E+04  0.60206729256E+03 0.  0.
        2    1    3    3  502    0  0.15213478115E+03 -0.72377548703E+02  0.86044678106E+03  0.87678513002E+03  0.25500000920E-02 0. -1.
       -2    1    3    3    0  502 -0.15213478115E+03  0.72377548703E+02 -0.58733935625E+01  0.16857638610E+03  0.25500000920E-02 0.  1.
</event>
<event>
 5   0  0.2092587E-02  0.5994090E+03  0.7818609E-02  0.9906633E-01
       -2   -1    0    0    0  501  0.00000000000E+00  0.00000000000E+00  0.12147484460E+03  0.12147484462E+03  0.25500000920E-02 0.  1.
        2   -1    0    0  501    0  0.00000000000E+00  0.00000000000E+00 -0.73943540639E+03  0.73943540639E+03  0.25500000920E-02 0. -1.
    10030    2    1    2    0    0  0.00000000000E+00  0.00000000000E+00 -0.61796056179E+03  0.86091025101E+03  0.59940904596E+03 0.  0.
        3    1    3    3  502    0  0.20217522129E+03 -0.16481046064E+03 -0.52097165079E+03  0.58262232979E+03  0.10100000352E+00 0. -1.
       -3    1    3    3    0  502 -0.20217522129E+03  0.16481046064E+03 -0.96988911001E+02  0.27828792123E+03  0.10100000352E+00 0.  1.
</event>
<event>
 5   0  0.2141800E-02  0.5978585E+03  0.7818609E-02  0.9909859E-01
        2   -1    0    0  501    0  0.00000000000E+00  0.00000000000E+00  0.10546557880E+04  0.10546557880E+04  0.25500000920E-02 0. -1.
       -2   -1    0    0    0  501  0.00000000000E+00  0.00000000000E+00 -0.84727842466E+02  0.84727842505E+02  0.25500000920E-02 0.  1.
    10030    2    1    2    0    0  0.00000000000E+00  0.00000000000E+00  0.96992794552E+03  0.11393836305E+04  0.59785854342E+03 0.  0.
        2    1    3    3  502    0 -0.14797951193E+03  0.39512643727E+02  0.97419351763E+03  0.98616032914E+03  0.25500000920E-02 0. -1.
       -2    1    3    3    0  502  0.14797951193E+03 -0.39512643727E+02 -0.42655721136E+01  0.15322330135E+03  0.25500000920E-02 0.  1.
</event>
<event>
 5   0  0.2141800E-02  0.5997111E+03  0.7818609E-02  0.9906006E-01
       -2   -1    0    0    0  501  0.00000000000E+00  0.00000000000E+00  0.97851097949E+02  0.97851097982E+02  0.25500000920E-02 0.  1.
        2   -1    0    0  501    0  0.00000000000E+00  0.00000000000E+00 -0.91887939239E+03  0.91887939239E+03  0.25500000920E-02 0. -1.
    10030    2    1    2    0    0  0.00000000000E+00  0.00000000000E+00 -0.82102829444E+03  0.10167304904E+04  0.59971112195E+03 0.  0.
        2    1    3    3  502    0 -0.96725818496E+02  0.17990356657E+03 -0.78269329032E+03  0.80890664724E+03  0.25500000920E-02 0. -1.
       -2    1    3    3    0  502  0.96725818496E+02 -0.17990356657E+03 -0.38335004119E+02  0.20782384313E+03  0.25500000920E-02 0.  1.
</event>
<event>
 5   0  0.1332555E-02  0.5979673E+03  0.7818609E-02  0.9909632E-01
        1   -1    0    0  501    0  0.00000000000E+00  0.00000000000E+00  0.81652909310E+03  0.81652909311E+03  0.50400001928E-02 0.  1.
       -1   -1    0    0    0  501  0.00000000000E+00  0.00000000000E+00 -0.10947709095E+03  0.10947709107E+03  0.50400001928E-02 0. -1.
    10030    2    1    2    0    0  0.00000000000E+00  0.00000000000E+00  0.70705200215E+03  0.92600618418E+03  0.59796732302E+03 0.  0.
        2    1    3    3  502    0  0.28363547874E+02  0.29646437279E+03  0.31268270353E+03  0.43181719312E+03  0.25500000920E-02 0. -1.
       -2    1    3    3    0  502 -0.28363547874E+02 -0.29646437279E+03  0.39436929862E+03  0.49418899106E+03  0.25500000920E-02 0.  1.
</event>
<event>
 5   0  0.1337051E-02  0.6055270E+03  0.7818609E-02  0.9894005E-01
       -1   -1    0    0    0  501  0.00000000000E+00  0.00000000000E+00  0.45631731760E+02  0.45631732038E+02  0.50400001928E-02 0.  1.
        1   -1    0    0  501    0  0.00000000000E+00  0.00000000000E+00 -0.20088155455E+04  0.20088155455E+04  0.50400001928E-02 0. -1.
    10030    2    1    2    0    0  0.00000000000E+00  0.00000000000E+00 -0.19631838137E+04  0.20544472775E+04  0.60552698509E+03 0.  0.
        5    1    3    3  502    0  0.26541034721E+01  0.29238256917E+03 -0.12476428813E+04  0.12814559923E+04  0.46999998093E+01 0. -1.
       -5    1    3    3    0  502 -0.26541034721E+01 -0.29238256917E+03 -0.71554093243E+03  0.77299128521E+03  0.46999998093E+01 0.  1.
</event>
<event>
 5   0  0.2179625E-02  0.5983253E+03  0.7818609E-02  0.9908887E-01
        2   -1    0    0  501    0  0.00000000000E+00  0.00000000000E+00  0.34879916590E+03  0.34879916591E+03  0.25500000920E-02 0. -1.
       -2   -1    0    0    0  501  0.00000000000E+00  0.00000000000E+00 -0.25658978932E+03  0.25658978933E+03  0.25500000920E-02 0.  1.
    10030    2    1    2    0    0  0.00000000000E+00  0.00000000000E+00  0.92209376587E+02  0.60538895524E+03  0.59832534461E+03 0.  0.
        1    1    3    3  502    0 -0.46944281081E+02  0.13462899943E+03  0.31221066955E+03  0.34322621581E+03  0.50400001928E-02 0. -1.
       -1    1    3    3    0  502  0.46944281081E+02 -0.13462899943E+03 -0.22000129296E+03  0.26216273943E+03  0.50400001928E-02 0.  1.
</event>
<event>
 5   0  0.2092587E-02  0.6005558E+03  0.7818609E-02  0.9904254E-01
       -2   -1    0    0    0  501  0.00000000000E+00  0.00000000000E+00  0.45177488604E+02  0.45177488676E+02  0.25500000920E-02 0.  1.
        2   -1    0    0  501    0  0.00000000000E+00  0.00000000000E+00 -0.19958348965E+04  0.19958348965E+04  0.25500000920E-02 0. -1.
    10030    2    1    2    0    0  0.00000000000E+00  0.00000000000E+00 -0.19506574078E+04  0.20410123851E+04  0.60055577048E+03 0.  0.
        3    1    3    3  502    0 -0.16800937284E+03 -0.18926055353E+03 -0.15245908182E+04  0.15454526455E+04  0.10100000352E+00 0. -1.
       -3    1    3    3    0  502  0.16800937284E+03  0.18926055353E+03 -0.42606658965E+03  0.49555973959E+03  0.10100000352E+00 0.  1.
</event>
<event>
 5   0  0.8551000E-03  0.5994299E+03  0.7818609E-02  0.9906590E-01
        4   -1    0    0  501    0  0.00000000000E+00  0.00000000000E+00  0.11685043120E+03  0.11685733255E+03  0.12699999809E+01 0. -1.
       -4   -1    0    0    0  501  0.00000000000E+00  0.00000000000E+00 -0.76872231832E+03  0.76872336740E+03  0.12699999809E+01 0.  1.
    10030    2    1    2    0    0  0.00000000000E+00  0.00000000000E+00 -0.65187188712E+03  0.88558069995E+03  0.59942991159E+03 0.  0.
        1    1    3    3  502    0 -0.39919110357E+02 -0.12026826998E+03  0.75330416179E+02  0.14742002497E+03  0.50400001928E-02 0. -1.
       -1    1    3    3    0  502  0.39919110357E+02  0.12026826998E+03 -0.72720230330E+03  0.73816067498E+03  0.50400001928E-02 0.  1.
</event>
<event>
 5   0  0.2092587E-02  0.5963005E+03  0.7818609E-02  0.9913111E-01
        2   -1    0    0  501    0  0.00000000000E+00  0.00000000000E+00  0.15814169554E+03  0.15814169556E+03  0.25500000920E-02 0.  1.
       -2   -1    0    0    0  501  0.00000000000E+00  0.00000000000E+00 -0.56211349799E+03  0.56211349800E+03  0.25500000920E-02 0. -1.
    10030    2    1    2    0    0  0.00000000000E+00  0.00000000000E+00 -0.40397180246E+03  0.72025519356E+03  0.59630053385E+03 0.  0.
        3    1    3    3  502    0 -0.14554646936E+03  0.25980332410E+03 -0.21957401848E+03  0.36999229958E+03  0.10100000352E+00 0.  1.
       -3    1    3    3    0  502  0.14554646936E+03 -0.25980332410E+03 -0.18439778398E+03  0.35026289397E+03  0.10100000352E+00 0. -1.
</event>
<event>
 5   0  0.2141800E-02  0.6033029E+03  0.7818609E-02  0.9898577E-01
       -2   -1    0    0    0  501  0.00000000000E+00  0.00000000000E+00  0.16603598873E+03  0.16603598875E+03  0.25500000920E-02 0.  1.
        2   -1    0    0  501    0  0.00000000000E+00  0.00000000000E+00 -0.54803538674E+03  0.54803538675E+03  0.25500000920E-02 0. -1.
    10030    2    1    2    0    0  0.00000000000E+00  0.00000000000E+00 -0.38199939802E+03  0.71407137550E+03  0.60330290006E+03 0.  0.
        2    1    3    3  502    0 -0.17734594156E+03 -0.16714834613E+03  0.19413714671E+02  0.24447299427E+03  0.25500000920E-02 0.  1.
       -2    1    3    3    0  502  0.17734594156E+03  0.16714834613E+03 -0.40141311269E+03  0.46959838123E+03  0.25500000920E-02 0. -1.
</event>
<event>
 5   0  0.2126207E-02  0.5967130E+03  0.7818609E-02  0.9912249E-01
       -2   -1    0    0    0  501  0.00000000000E+00  0.00000000000E+00  0.37261233598E+03  0.37261233599E+03  0.25500000920E-02 0. -1.
        2   -1    0    0  501    0  0.00000000000E+00  0.00000000000E+00 -0.23889866661E+03  0.23889866663E+03  0.25500000920E-02 0.  1.
    10030    2    1    2    0    0  0.00000000000E+00  0.00000000000E+00  0.13371366936E+03  0.61151100261E+03  0.59671296361E+03 0.  0.
        5    1    3    3  502    0 -0.17022143759E+03  0.20596579900E+03 -0.69087536426E+02  0.27602975539E+03  0.46999998093E+01 0.  1.
       -5    1    3    3    0  502  0.17022143759E+03 -0.20596579900E+03  0.20280120579E+03  0.33548124723E+03  0.46999998093E+01 0. -1.
</event>
<event>
 5   0  0.1250390E-02  0.5997423E+03  0.7818609E-02  0.9905941E-01
       -1   -1    0    0    0  501  0.00000000000E+00  0.00000000000E+00  0.37637486096E+03  0.37637486099E+03  0.50400001928E-02 0.  1.
        1   -1    0    0  501    0  0.00000000000E+00  0.00000000000E+00 -0.23891791571E+03  0.23891791576E+03  0.50400001928E-02 0. -1.
    10030    2    1    2    0    0  0.00000000000E+00  0.00000000000E+00  0.13745694525E+03  0.61529277675E+03  0.59974226908E+03 0.  0.
        3    1    3    3  502    0 -0.65199412136E+02 -0.28505542174E+03  0.55915888377E+00  0.29241730398E+03  0.10100000352E+00 0. -1.
       -3    1    3    3    0  502  0.65199412136E+02  0.28505542174E+03  0.13689778636E+03  0.32287547277E+03  0.10100000352E+00 0.  1.
</event>
<event>
 5   0  0.1337051E-02  0.6032037E+03  0.7818609E-02  0.9898782E-01
       -1   -1    0    0    0  501  0.00000000000E+00  0.00000000000E+00  0.33539552074E+03  0.33539552078E+03  0.50400001928E-02 0.  1.
        1   -1    0    0  501    0  0.00000000000E+00  0.00000000000E+00 -0.27121311144E+03  0.27121311149E+03  0.50400001928E-02 0. -1.
    10030    2    1    2    0    0  0.00000000000E+00  0.00000000000E+00  0.64182409302E+02  0.60660863226E+03  0.60320365638E+03 0.  0.
        5    1    3    3  502    0  0.95452570733E+02 -0.71806025138E+02  0.31055546146E+03  0.33276731081E+03  0.46999998093E+01 0.  1.
       -5    1    3    3    0  502 -0.95452570733E+02  0.71806025138E+02 -0.24637305216E+03  0.27384132145E+03  0.46999998093E+01 0. -1.
</event>
<event>
 5   0  0.2179625E-02  0.5997373E+03  0.7818609E-02  0.9905951E-01
       -2   -1    0    0    0  501  0.00000000000E+00  0.00000000000E+00  0.80348360917E+02  0.80348360958E+02  0.25500000920E-02 0.  1.
        2   -1    0    0  501    0  0.00000000000E+00  0.00000000000E+00 -0.11191419039E+04  0.11191419039E+04  0.25500000920E-02 0. -1.
    10030    2    1    2    0    0  0.00000000000E+00  0.00000000000E+00 -0.10387935430E+04  0.11994902649E+04  0.59973733464E+03 0.  0.
        1    1    3    3  502    0  0.22440636742E+03 -0.13080497363E+03 -0.81908756299E+03  0.85928609598E+03  0.50400001928E-02 0. -1.
       -1    1    3    3    0  502 -0.22440636742E+03  0.13080497363E+03 -0.21970598002E+03  0.34020416891E+03  0.50400001928E-02 0.  1.
</event>
<event>
 5   0  0.1332555E-02  0.6010926E+03  0.7818609E-02  0.9903142E-01
       -1   -1    0    0    0  501  0.00000000000E+00  0.00000000000E+00  0.26034698989E+03  0.26034698994E+03  0.50400001928E-02 0.  1.
        1   -1    0    0  501    0  0.00000000000E+00  0.00000000000E+00 -0.34695263372E+03  0.34695263375E+03  0.50400001928E-02 0. -1.
    10030    2    1    2    0    0  0.00000000000E+00  0.00000000000E+00 -0.86605643826E+02  0.60729962369E+03  0.60109258471E+03 0.  0.
        2    1    3    3  502    0  0.23074241154E+02  0.14125418826E+03  0.22370427013E+03  0.26557252642E+03  0.25500000920E-02 0.  1.
       -2    1    3    3    0  502 -0.23074241154E+02 -0.14125418826E+03 -0.31030991396E+03  0.34172709727E+03  0.25500000920E-02 0. -1.
</event>
<event>
 5   0  0.2141800E-02  0.5994178E+03  0.7818609E-02  0.9906615E-01
       -2   -1    0    0    0  501  0.00000000000E+00  0.00000000000E+00  0.11459493902E+03  0.11459493905E+03  0.25500000920E-02 0. -1.
        2   -1    0    0  501    0  0.00000000000E+00  0.00000000000E+00 -0.78385146849E+03  0.78385146850E+03  0.25500000920E-02 0.  1.
    10030    2    1    2    0    0  0.00000000000E+00  0.00000000000E+00 -0.66925652947E+03  0.89844640754E+03  0.59941775498E+03 0.  0.
        2    1    3    3  502    0  0.27741043280E+03  0.85219218229E+02 -0.44685862073E+03  0.53282407069E+03  0.25500000920E-02 0.  1.
       -2    1    3    3    0  502 -0.27741043280E+03 -0.85219218229E+02 -0.22239790875E+03  0.36562233685E+03  0.25500000920E-02 0. -1.
</event>
<event>
 5   0  0.1276705E-02  0.5982815E+03  0.7818609E-02  0.9908978E-01
       -1   -1    0    0    0  501  0.00000000000E+00  0.00000000000E+00  0.86421819793E+02  0.86421819940E+02  0.50400001928E-02 0.  1.
        1   -1    0    0  501    0  0.00000000000E+00  0.00000000000E+00 -0.10354466100E+04  0.10354466100E+04  0.50400001928E-02 0. -1.
    10030    2    1    2    0    0  0.00000000000E+00  0.00000000000E+00 -0.94902479016E+03  0.11218684299E+04  0.59828147362E+03 0.  0.
        1    1    3    3  502    0 -0.26192372578E+03  0.22817363943E+02 -0.20694653437E+03  0.33459159932E+03  0.50400001928E-02 0.  1.
       -1    1    3    3    0  502  0.26192372578E+03 -0.22817363943E+02 -0.74207825580E+03  0.78727683059E+03  0.50400001928E-02 0. -1.
</event>
<event>
 5   0  0.2142838E-02  0.5992650E+03  0.7818609E-02  0.9906932E-01
       -2   -1    0    0    0  501  0.00000000000E+00  0.00000000000E+00  0.10941867791E+03  0.10941867794E+03  0.25500000920E-02 0. -1.
        2   -1    0    0  501    0  0.00000000000E+00  0.00000000000E+00 -0.82051466151E+03  0.82051466151E+03  0.25500000920E-02 0.  1.
    10030    2    1    2    0    0  0.00000000000E+00  0.00000000000E+00 -0.71109598360E+03  0.92993333945E+03  0.59926498141E+03 0.  0.
        4    1    3    3  502    0  0.22760352106E+03  0.79890324822E+02 -0.79729878824E+02  0.25405568932E+03  0.12699999809E+01 0. -1.
       -4    1    3    3    0  502 -0.22760352106E+03 -0.79890324822E+02 -0.63136610477E+03  0.67587765014E+03  0.12699999809E+01 0.  1.
</event>
<event>
 5   0  0.1303808E-02  0.6308419E+03  0.7818609E-02  0.9843407E-01
       -1   -1    0    0    0  501  0.00000000000E+00  0.00000000000E+00  0.10883474789E+03  0.10883474800E+03  0.50400001928E-02 0. -1.
        1   -1    0    0  501    0  0.00000000000E+00  0.00000000000E+00 -0.91414175208E+03  0.91414175209E+03  0.50400001928E-02 0.  1.
    10030    2    1    2    0    0  0.00000000000E+00  0.00000000000E+00 -0.80530700419E+03  0.10229765001E+04  0.63084193642E+03 0.  0.
        4    1    3    3  502    0  0.97388057428E+00  0.25485512203E+03 -0.70401340944E+03  0.74872463245E+03  0.12699999809E+01 0.  1.
       -4    1    3    3    0  502 -0.97388057428E+00 -0.25485512203E+03 -0.10129359475E+03  0.27425186765E+03  0.12699999809E+01 0. -1.
</event>
<event>
 5   0  0.2126207E-02  0.5981643E+03  0.7818609E-02  0.9909222E-01
        2   -1    0    0  501    0  0.00000000000E+00  0.00000000000E+00  0.92341239483E+03  0.92341239483E+03  0.25500000920E-02 0.  1.
       -2   -1    0    0    0  501  0.00000000000E+00  0.00000000000E+00 -0.96869099099E+02  0.96869099133E+02  0.25500000920E-02 0. -1.
    10030    2    1    2    0    0  0.00000000000E+00  0.00000000000E+00  0.82654329573E+03  0.10202814940E+04  0.59816428112E+03 0.  0.
        5    1    3    3  502    0  0.75634469447E+02  0.25203963760E+03  0.65559630710E+03  0.70645110218E+03  0.46999998093E+01 0.  1.
       -5    1    3    3    0  502 -0.75634469447E+02 -0.25203963760E+03  0.17094698863E+03  0.31383039179E+03  0.46999998093E+01 0. -1.
</event>
<event>
 5   0  0.1332555E-02  0.5692485E+03  0.7818609E-02  0.9971343E-01
       -1   -1    0    0    0  501  0.00000000000E+00  0.00000000000E+00  0.47022220921E+03  0.47022220924E+03  0.50400001928E-02 0. -1.
        1   -1    0    0  501    0  0.00000000000E+00  0.00000000000E+00 -0.17228227173E+03  0.17228227181E+03  0.50400001928E-02 0.  1.
    10030    2    1    2    0    0  0.00000000000E+00  0.00000000000E+00  0.29793993747E+03  0.64250448104E+03  0.56924845350E+03 0.  0.
        2    1    3    3  502    0 -0.12463235242E+03  0.10668004453E+03 -0.11354935374E+03  0.19951769573E+03  0.25500000920E-02 0.  1.
       -2    1    3    3    0  502  0.12463235242E+03 -0.10668004453E+03  0.41148929122E+03  0.44298678531E+03  0.25500000920E-02 0. -1.
</event>
<event>
 5   0  0.1250390E-02  0.5992028E+03  0.7818609E-02  0.9907061E-01
        1   -1    0    0  501    0  0.00000000000E+00  0.00000000000E+00  0.46064668683E+03  0.46064668686E+03  0.50400001928E-02 0.  1.
       -1   -1    0    0    0  501  0.00000000000E+00  0.00000000000E+00 -0.19485869354E+03  0.19485869361E+03  0.50400001928E-02 0. -1.
    10030    2    1    2    0    0  0.00000000000E+00  0.00000000000E+00  0.26578799329E+03  0.65550538046E+03  0.59920284248E+03 0.  0.
        3    1    3    3  502    0  0.50042361605E+02 -0.25693641165E+03 -0.26541195481E+02  0.26310644775E+03  0.10100000352E+00 0. -1.
       -3    1    3    3    0  502 -0.50042361605E+02  0.25693641165E+03  0.29232918877E+03  0.39239893271E+03  0.10100000352E+00 0.  1.
</event>
<event>
 5   0  0.2179625E-02  0.6004480E+03  0.7818609E-02  0.9904477E-01
       -2   -1    0    0    0  501  0.00000000000E+00  0.00000000000E+00  0.50340999951E+02  0.50341000015E+02  0.25500000920E-02 0.  1.
        2   -1    0    0  501    0  0.00000000000E+00  0.00000000000E+00 -0.17904777855E+04  0.17904777855E+04  0.25500000920E-02 0. -1.
    10030    2    1    2    0    0  0.00000000000E+00  0.00000000000E+00 -0.17401367856E+04  0.18408187855E+04  0.60044797335E+03 0.  0.
        1    1    3    3  502    0  0.50200913354E+02  0.16130617242E+02 -0.17761709061E+04  0.17769534085E+04  0.50400001928E-02 0. -1.
       -1    1    3    3    0  502 -0.50200913354E+02 -0.16130617242E+02  0.36034120499E+02  0.63865377002E+02  0.50400001928E-02 0.  1.
</event>
<event>
 5   0  0.1250390E-02  0.5756361E+03  0.7818609E-02  0.9957284E-01
        1   -1    0    0  501    0  0.00000000000E+00  0.00000000000E+00  0.55233891044E+03  0.55233891046E+03  0.50400001928E-02 0.  1.
       -1   -1    0    0    0  501  0.00000000000E+00  0.00000000000E+00 -0.14997897558E+03  0.14997897567E+03  0.50400001928E-02 0. -1.
    10030    2    1    2    0    0  0.00000000000E+00  0.00000000000E+00  0.40235993486E+03  0.70231788613E+03  0.57563607948E+03 0.  0.
        3    1    3    3  502    0  0.18522364008E+03  0.14285265289E+03  0.40579069954E+03  0.46838101938E+03  0.10100000352E+00 0. -1.
       -3    1    3    3    0  502 -0.18522364008E+03 -0.14285265289E+03 -0.34307646769E+01  0.23393686676E+03  0.10100000352E+00 0.  1.
</event>
<event>
 5   0  0.2179625E-02  0.6001917E+03  0.7818609E-02  0.9905008E-01
        2   -1    0    0  501    0  0.00000000000E+00  0.00000000000E+00  0.80639303999E+03  0.80639303999E+03  0.25500000920E-02 0. -1.
       -2   -1    0    0    0  501  0.00000000000E+00  0.00000000000E+00 -0.11167943373E+03  0.11167943375E+03  0.25500000920E-02 0.  1.
    10030    2    1    2    0    0  0.00000000000E+00  0.00000000000E+00  0.69471360627E+03  0.91807247375E+03  0.60019169631E+03 0.  0.
        1    1    3    3  502    0 -0.11285943624E+03 -0.32361202990E+02  0.76980401670E+03  0.77870580064E+03  0.50400001928E-02 0. -1.
       -1    1    3    3    0  502  0.11285943624E+03  0.32361202990E+02 -0.75090410431E+02  0.13936667311E+03  0.50400001928E-02 0.  1.
</event>
<event>
 5   0  0.1250390E-02  0.5994339E+03  0.7818609E-02  0.9906581E-01
       -1   -1    0    0    0  501  0.00000000000E+00  0.00000000000E+00  0.62029690150E+02  0.62029690355E+02  0.50400001928E-02 0. -1.
        1   -1    0    0  501    0  0.00000000000E+00  0.00000000000E+00 -0.14481817101E+04  0.14481817101E+04  0.50400001928E-02 0.  1.
    10030    2    1    2    0    0  0.00000000000E+00  0.00000000000E+00 -0.13861520199E+04  0.15102114004E+04  0.59943394271E+03 0.  0.
        3    1    3    3  502    0  0.26311619823E+02  0.28362536908E+03 -0.92799669120E+03  0.97072834532E+03  0.10100000352E+00 0.  1.
       -3    1    3    3    0  502 -0.26311619823E+02 -0.28362536908E+03 -0.45815532872E+03  0.53948305512E+03  0.10100000352E+00 0. -1.
</event>
<event>
 5   0  0.1337051E-02  0.6005391E+03  0.7818609E-02  0.9904288E-01
       -1   -1    0    0    0  501  0.00000000000E+00  0.00000000000E+00  0.65920911126E+02  0.65920911319E+02  0.50400001928E-02 0. -1.
        1   -1    0    0  501    0  0.00000000000E+00  0.00000000000E+00 -0.13677269731E+04  0.13677269731E+04  0.50400001928E-02 0.  1.
    10030    2    1    2    0    0  0.00000000000E+00  0.00000000000E+00 -0.13018060619E+04  0.14336478844E+04  0.60053911906E+03 0.  0.
        5    1    3    3  502    0 -0.13264348218E+03  0.17501506679E+03 -0.11396529689E+04  0.11606272212E+04  0.46999998093E+01 0.  1.
       -5    1    3    3    0  502  0.13264348218E+03 -0.17501506679E+03 -0.16215309301E+03  0.27302066321E+03  0.46999998093E+01 0. -1.
</event>
<event>
 5   0  0.2142838E-02  0.6253370E+03  0.7818609E-02  0.9854191E-01
       -2   -1    0    0    0  501  0.00000000000E+00  0.00000000000E+00  0.32274243934E+03  0.32274243935E+03  0.25500000920E-02 0. -1.
        2   -1    0    0  501    0  0.00000000000E+00  0.00000000000E+00 -0.30290901764E+03  0.30290901765E+03  0.25500000920E-02 0.  1.
    10030    2    1    2    0    0  0.00000000000E+00  0.00000000000E+00  0.19833421704E+02  0.62565145700E+03  0.62533701396E+03 0.  0.
        4    1    3    3  502    0  0.15938433229E+03  0.24224193268E+03  0.12691764917E+03  0.31653470883E+03  0.12699999809E+01 0. -1.
       -4    1    3    3    0  502 -0.15938433229E+03 -0.24224193268E+03 -0.10708422746E+03  0.30911674817E+03  0.12699999809E+01 0.  1.
</event>
<event>
 5   0  0.2141800E-02  0.5986847E+03  0.7818609E-02  0.9908139E-01
        2   -1    0    0  501    0  0.00000000000E+00  0.00000000000E+00  0.19916363858E+04  0.19916363859E+04  0.25500000920E-02 0.  1.
       -2   -1    0    0    0  501  0.00000000000E+00  0.00000000000E+00 -0.44991063887E+02  0.44991063959E+02  0.25500000920E-02 0. -1.
    10030    2    1    2    0    0  0.00000000000E+00  0.00000000000E+00  0.19466453220E+04  0.20366274498E+04  0.59868469147E+03 0.  0.
        2    1    3    3  502    0 -0.21951123549E+03 -0.37930282572E+02  0.16535364500E+04  0.16684743571E+04  0.25500000920E-02 0.  1.
       -2    1    3    3    0  502  0.21951123549E+03  0.37930282572E+02  0.29310887199E+03  0.36815309273E+03  0.25500000920E-02 0. -1.
</event>
<event>
 5   0  0.1303808E-02  0.6007934E+03  0.7818609E-02  0.9903761E-01
        1   -1    0    0  501    0  0.00000000000E+00  0.00000000000E+00  0.94268737111E+03  0.94268737113E+03  0.50400001928E-02 0.  1.
       -1   -1    0    0    0  501  0.00000000000E+00  0.00000000000E+00 -0.95724407457E+02  0.95724407589E+02  0.50400001928E-02 0. -1.
    10030    2    1    2    0    0  0.00000000000E+00  0.00000000000E+00  0.84696296366E+03  0.10384117787E+04  0.60079344235E+03 0.  0.
        4    1    3    3  502    0 -0.19954745449E+02  0.22047576367E+03  0.77443119367E+03  0.80545207236E+03  0.12699999809E+01 0.  1.
       -4    1    3    3    0  502  0.19954745449E+02 -0.22047576367E+03  0.72531769986E+02  0.23295970636E+03  0.12699999809E+01 0. -1.
</event>
<event>
 5   0  0.8551000E-03  0.5983604E+03  0.7818609E-02  0.9908813E-01
        3   -1    0    0  501    0  0.00000000000E+00  0.00000000000E+00  0.20549999151E+03  0.20550001633E+03  0.10100000352E+00 0.  1.
       -3   -1    0    0    0  501  0.00000000000E+00  0.00000000000E+00 -0.43556590551E+03  0.43556591722E+03  0.10100000352E+00 0. -1.
    10030    2    1    2    0    0  0.00000000000E+00  0.00000000000E+00 -0.23006591400E+03  0.64106593355E+03  0.59836043183E+03 0.  0.
        4    1    3    3  502    0  0.24766702301E+03  0.16684911439E+03 -0.13448379568E+03  0.32751348897E+03  0.12699999809E+01 0.  1.
       -4    1    3    3    0  502 -0.24766702301E+03 -0.16684911439E+03 -0.95582118319E+02  0.31355244458E+03  0.12699999809E+01 0. -1.
</event>
<event>
 5   0  0.2126207E-02  0.5869392E+03  0.7818609E-02  0.9932880E-01
        2   -1    0    0  501    0  0.00000000000E+00  0.00000000000E+00  0.37321160490E+03  0.37321160491E+03  0.25500000920E-02 0.  1.
       -2   -1    0    0    0  501  0.00000000000E+00  0.00000000000E+00 -0.23076559144E+03  0.23076559145E+03  0.25500000920E-02 0. -1.
    10030    2    1    2    0    0  0.00000000000E+00  0.00000000000E+00  0.14244601346E+03  0.60397719636E+03  0.58693916803E+03 0.  0.
        5    1    3    3  502    0 -0.62763318627E+02 -0.69988900187E+02 -0.21481108862E+03  0.23452840789E+03  0.46999998093E+01 0. -1.
       -5    1    3    3    0  502  0.62763318627E+02  0.69988900187E+02  0.35725710209E+03  0.36944878847E+03  0.46999998093E+01 0.  1.
</event>
<event>
 5   0  0.1303808E-02  0.5991818E+03  0.7818609E-02  0.9907105E-01
       -1   -1    0    0    0  501  0.00000000000E+00  0.00000000000E+00  0.63614632637E+02  0.63614632836E+02  0.50400001928E-02 0. -1.
        1   -1    0    0  501    0  0.00000000000E+00  0.00000000000E+00 -0.14109128407E+04  0.14109128407E+04  0.50400001928E-02 0.  1.
    10030    2    1    2    0    0  0.00000000000E+00  0.00000000000E+00 -0.13472982081E+04  0.14745274736E+04  0.59918178276E+03 0.  0.
        4    1    3    3  502    0 -0.64148938876E+00 -0.20880990994E+03 -0.14497834136E+03  0.25420920983E+03  0.12699999809E+01 0. -1.
       -4    1    3    3    0  502  0.64148938876E+00  0.20880990994E+03 -0.12023198667E+04  0.12203182637E+04  0.12699999809E+01 0.  1.
</event>
<event>
 5   0  0.2142838E-02  0.5982883E+03  0.7818609E-02  0.9908964E-01
       -2   -1    0    0    0  501  0.00000000000E+00  0.00000000000E+00  0.60369482206E+02  0.60369482260E+02  0.25500000920E-02 0. -1.
        2   -1    0    0  501    0  0.00000000000E+00  0.00000000000E+00 -0.14823254392E+04  0.14823254392E+04  0.25500000920E-02 0.  1.
    10030    2    1    2    0    0  0.00000000000E+00  0.00000000000E+00 -0.14219559570E+04  0.15426949214E+04  0.59828828927E+03 0.  0.
        4    1    3    3  502    0 -0.97634074734E+02 -0.15732715041E+03 -0.10515681235E+03  0.21294086712E+03  0.12699999809E+01 0. -1.
       -4    1    3    3    0  502  0.97634074734E+02  0.15732715041E+03 -0.13167991446E+04  0.13297540543E+04  0.12699999809E+01 0.  1.
</event>
<event>
 5   0  0.1332555E-02  0.6021213E+03  0.7818609E-02  0.9901015E-01
        1   -1    0    0  501    0  0.00000000000E+00  0.00000000000E+00  0.71080453242E+03  0.71080453244E+03  0.50400001928E-02 0.  1.
       -1   -1    0    0    0  501  0.00000000000E+00  0.00000000000E+00 -0.12751399288E+03  0.12751399298E+03  0.50400001928E-02 0. -1.
    10030    2    1    2    0    0  0.00000000000E+00  0.00000000000E+00  0.58329053954E+03  0.83831852541E+03  0.60212133041E+03 0.  0.
        2    1    3    3  502    0 -0.11119870201E+03  0.99819750449E+02  0.65552852925E+03  0.67234424707E+03  0.25500000920E-02 0.  1.
       -2    1    3    3    0  502  0.11119870201E+03 -0.99819750449E+02 -0.72237989706E+02  0.16597427834E+03  0.25500000920E-02 0. -1.
</event>
<event>
 5   0  0.1332555E-02  0.5965317E+03  0.7818609E-02  0.9912628E-01
       -1   -1    0    0    0  501  0.00000000000E+00  0.00000000000E+00  0.67139639277E+02  0.67139639466E+02  0.50400001928E-02 0. -1.
        1   -1    0    0  501    0  0.00000000000E+00  0.00000000000E+00 -0.13250369768E+04  0.13250369768E+04  0.50400001928E-02 0.  1.
    10030    2    1    2    0    0  0.00000000000E+00  0.00000000000E+00 -0.12578973375E+04  0.13921766162E+04  0.59653165813E+03 0.  0.
        2    1    3    3  502    0 -0.16633868776E+03  0.17345663774E+03 -0.21667552661E+03  0.32358004892E+03  0.25500000920E-02 0. -1.
       -2    1    3    3    0  502  0.16633868776E+03 -0.17345663774E+03 -0.10412218109E+04  0.10685965673E+04  0.25500000920E-02 0.  1.
</event>
<event>
 5   0  0.2141800E-02  0.5979200E+03  0.7818609E-02  0.9909731E-01
        2   -1    0    0  501    0  0.00000000000E+00  0.00000000000E+00  0.11282076625E+04  0.11282076625E+04  0.25500000920E-02 0.  1.
       -2   -1    0    0    0  501  0.00000000000E+00  0.00000000000E+00 -0.79220423308E+02  0.79220423349E+02  0.25500000920E-02 0. -1.
    10030    2    1    2    0    0  0.00000000000E+00  0.00000000000E+00  0.10489872392E+04  0.12074280859E+04  0.59792002352E+03 0.  0.
        2    1    3    3  502    0 -0.15960446392E+03 -0.18066562547E+03  0.88154977657E+03  0.91391666016E+03  0.25500000920E-02 0.  1.
       -2    1    3    3    0  502  0.15960446392E+03  0.18066562547E+03  0.16743746266E+03  0.29351142573E+03  0.25500000920E-02 0. -1.
</event>
<event>
 5   0  0.1337051E-02  0.5995877E+03  0.7818609E-02  0.9906262E-01
       -1   -1    0    0    0  501  0.00000000000E+00  0.00000000000E+00  0.15342353884E+04  0.15342353884E+04  0.50400001928E-02 0.  1.
        1   -1    0    0  501    0  0.00000000000E+00  0.00000000000E+00 -0.58580541636E+02  0.58580541853E+02  0.50400001928E-02 0. -1.
    10030    2    1    2    0    0  0.00000000000E+00  0.00000000000E+00  0.14756548468E+04  0.15928159303E+04  0.59958765908E+03 0.  0.
        5    1    3    3  502    0  0.22486943011E+03  0.17133232599E+03  0.10025908623E+04  0.10416964786E+04  0.46999998093E+01 0.  1.
       -5    1    3    3    0  502 -0.22486943011E+03 -0.17133232599E+03  0.47306398454E+03  0.55111945166E+03  0.46999998093E+01 0. -1.
</event>
<event>
 5   0  0.1303808E-02  0.5974270E+03  0.7818609E-02  0.9910759E-01
       -1   -1    0    0    0  501  0.00000000000E+00  0.00000000000E+00  0.93059078604E+02  0.93059078741E+02  0.50400001928E-02 0. -1.
        1   -1    0    0  501    0  0.00000000000E+00  0.00000000000E+00 -0.95885057071E+03  0.95885057072E+03  0.50400001928E-02 0.  1.
    10030    2    1    2    0    0  0.00000000000E+00  0.00000000000E+00 -0.86579149211E+03  0.10519096495E+04  0.59742698536E+03 0.  0.
        4    1    3    3  502    0 -0.32472677272E+02 -0.18767773672E+03 -0.27732930754E+02  0.19247892347E+03  0.12699999809E+01 0. -1.
       -4    1    3    3    0  502  0.32472677272E+02  0.18767773672E+03 -0.83805856135E+03  0.85943072600E+03  0.12699999809E+01 0.  1.
</event>
<event>
 5   0  0.1337051E-02  0.5985012E+03  0.7818609E-02  0.9908521E-01
        1   -1    0    0  501    0  0.00000000000E+00  0.00000000000E+00  0.47510356759E+03  0.47510356762E+03  0.50400001928E-02 0.  1.
       -1   -1    0    0    0  501  0.00000000000E+00  0.00000000000E+00 -0.18848714507E+03  0.18848714514E+03  0.50400001928E-02 0. -1.
    10030    2    1    2    0    0  0.00000000000E+00  0.00000000000E+00  0.28661642252E+03  0.66359071276E+03  0.59850117828E+03 0.  0.
        5    1    3    3  502    0  0.22623598478E+03  0.10394579466E+03  0.32731256847E+03  0.41127005302E+03  0.46999998093E+01 0.  1.
       -5    1    3    3    0  502 -0.22623598478E+03 -0.10394579466E+03 -0.40696145950E+02  0.25232065974E+03  0.46999998093E+01 0. -1.
</event>
<event>
 5   0  0.2141800E-02  0.6018099E+03  0.7818609E-02  0.9901658E-01
       -2   -1    0    0    0  501  0.00000000000E+00  0.00000000000E+00  0.18913135897E+03  0.18913135899E+03  0.25500000920E-02 0. -1.
        2   -1    0    0  501    0  0.00000000000E+00  0.00000000000E+00 -0.47873494907E+03  0.47873494908E+03  0.25500000920E-02 0.  1.
    10030    2    1    2    0    0  0.00000000000E+00  0.00000000000E+00 -0.28960359011E+03  0.66786630807E+03  0.60180990857E+03 0.  0.
        2    1    3    3  502    0 -0.97293046714E+02  0.19761299024E+03 -0.37230849603E+03  0.43258576845E+03  0.25500000920E-02 0.  1.
       -2    1    3    3    0  502  0.97293046714E+02 -0.19761299024E+03  0.82704905921E+02  0.23528053961E+03  0.25500000920E-02 0. -1.
</event>
<event>
 5   0  0.2141800E-02  0.6051140E+03  0.7818609E-02  0.9894852E-01
       -2   -1    0    0    0  501  0.00000000000E+00  0.00000000000E+00  0.52466156140E+02  0.52466156201E+02  0.25500000920E-02 0.  1.
        2   -1    0    0  501    0  0.00000000000E+00  0.00000000000E+00 -0.17447581065E+04  0.17447581065E+04  0.25500000920E-02 0. -1.
    10030    2    1    2    0    0  0.00000000000E+00  0.00000000000E+00 -0.16922919503E+04  0.17972242627E+04  0.60511404313E+03 0.  0.
        2    1    3    3  502    0 -0.24576910826E+03 -0.16327539246E+03 -0.10449279703E+04  0.10857880877E+04  0.25500000920E-02 0. -1.
       -2    1    3    3    0  502  0.24576910826E+03  0.16327539246E+03 -0.64736398008E+03  0.71143617498E+03  0.25500000920E-02 0.  1.
</event>
<event>
 5   0  0.1303808E-02  0.5999106E+03  0.7818609E-02  0.9905592E-01
        1   -1    0    0  501    0  0.00000000000E+00  0.00000000000E+00  0.45186156830E+03  0.45186156833E+03  0.50400001928E-02 0.  1.
       -1   -1    0    0    0  501  0.00000000000E+00  0.00000000000E+00 -0.19911670880E+03  0.19911670886E+03  0.50400001928E-02 0. -1.
    10030    2    1    2    0    0  0.00000000000E+00  0.00000000000E+00  0.25274485950E+03  0.65097827719E+03  0.59991062115E+03 0.  0.
        4    1    3    3  502    0 -0.71206865498E+02  0.17773961700E+03 -0.12417122967E+03  0.22821458394E+03  0.12699999809E+01 0. -1.
       -4    1    3    3    0  502  0.71206865498E+02 -0.17773961700E+03  0.37691608918E+03  0.42276369324E+03  0.12699999809E+01 0.  1.
</event>
<event>
 5   0  0.2092587E-02  0.5994418E+03  0.7818609E-02  0.9906565E-01
       -2   -1    0    0    0  501  0.00000000000E+00  0.00000000000E+00  0.53555496802E+03  0.53555496803E+03  0.25500000920E-02 0.  1.
        2   -1    0    0  501    0  0.00000000000E+00  0.00000000000E+00 -0.16773743442E+03  0.16773743444E+03  0.25500000920E-02 0. -1.
    10030    2    1    2    0    0  0.00000000000E+00  0.00000000000E+00  0.36781753360E+03  0.70329240247E+03  0.59944179479E+03 0.  0.
        3    1    3    3  502    0 -0.93186750107E+02  0.17336167465E+03 -0.81292907204E+02  0.21294738223E+03  0.10100000352E+00 0. -1.
       -3    1    3    3    0  502  0.93186750107E+02 -0.17336167465E+03  0.44911044081E+03  0.49034502024E+03  0.10100000352E+00 0.  1.
</event>
<event>
 5   0  0.2092587E-02  0.5992393E+03  0.7818609E-02  0.9906985E-01
       -2   -1    0    0    0  501  0.00000000000E+00  0.00000000000E+00  0.21222188146E+03  0.21222188147E+03  0.25500000920E-02 0. -1.
        2   -1    0    0  501    0  0.00000000000E+00  0.00000000000E+00 -0.42300986083E+03  0.42300986084E+03  0.25500000920E-02 0.  1.
    10030    2    1    2    0    0  0.00000000000E+00  0.00000000000E+00 -0.21078797937E+03  0.63523174231E+03  0.59923934633E+03 0.  0.
        3    1    3    3  502    0 -0.25068661663E+03  0.77132155522E+02 -0.25893418163E+03  0.36856487867E+03  0.10100000352E+00 0.  1.
       -3    1    3    3    0  502  0.25068661663E+03 -0.77132155522E+02  0.48146202254E+02  0.26666686364E+03  0.10100000352E+00 0. -1.
</event>
<event>
 5   0  0.2142838E-02  0.5990547E+03  0.7818609E-02  0.9907369E-01
        2   -1    0    0  501    0  0.00000000000E+00  0.00000000000E+00  0.21115340190E+04  0.21115340190E+04  0.25500000920E-02 0.  1.
       -2   -1    0    0    0  501  0.00000000000E+00  0.00000000000E+00 -0.42488843771E+02  0.42488843848E+02  0.25500000920E-02 0. -1.
    10030    2    1    2    0    0  0.00000000000E+00  0.00000000000E+00  0.20690451753E+04  0.21540228629E+04  0.59905471916E+03 0.  0.
        4    1    3    3  502    0 -0.28063134293E+03 -0.61458615421E+02  0.13392870915E+04  0.13697527655E+04  0.12699999809E+01 0.  1.
       -4    1    3    3    0  502  0.28063134293E+03  0.61458615421E+02  0.72975808374E+03  0.78427009743E+03  0.12699999809E+01 0. -1.
</event>
<event>
 5   0  0.1303808E-02  0.5957983E+03  0.7818609E-02  0.9914162E-01
        1   -1    0    0  501    0  0.00000000000E+00  0.00000000000E+00  0.53651131176E+03  0.53651131178E+03  0.50400001928E-02 0. -1.
       -1   -1    0    0    0  501  0.00000000000E+00  0.00000000000E+00 -0.16540918049E+03  0.16540918057E+03  0.50400001928E-02 0.  1.
    10030    2    1    2    0    0  0.00000000000E+00  0.00000000000E+00  0.37110213126E+03  0.70192049235E+03  0.59579827605E+03 0.  0.
        4    1    3    3  502    0 -0.12978768661E+03  0.21671528604E+03 -0.47190827550E+00  0.25261075669E+03  0.12699999809E+01 0.  1.
       -4    1    3    3    0  502  0.12978768661E+03 -0.21671528604E+03  0.37157403954E+03  0.44930973566E+03  0.12699999809E+01 0. -1.
</event>
<event>
 5   0  0.1303808E-02  0.5990683E+03  0.7818609E-02  0.9907341E-01
       -1   -1    0    0    0  501  0.00000000000E+00  0.00000000000E+00  0.66639760030E+02  0.66639760220E+02  0.50400001928E-02 0.  1.
        1   -1    0    0  501    0  0.00000000000E+00  0.00000000000E+00 -0.13463537853E+04  0.13463537853E+04  0.50400001928E-02 0. -1.
    10030    2    1    2    0    0  0.00000000000E+00  0.00000000000E+00 -0.12797140253E+04  0.14129935455E+04  0.59906825424E+03 0.  0.
        4    1    3    3  502    0 -0.29104203875E+03 -0.32322830076E+02 -0.78844922079E+03  0.84107313614E+03  0.12699999809E+01 0.  1.
       -4    1    3    3    0  502  0.29104203875E+03  0.32322830076E+02 -0.49126480449E+03  0.57192040940E+03  0.12699999809E+01 0. -1.
</event>
<event>
 5   0  0.2126207E-02  0.5980612E+03  0.7818609E-02  0.9909437E-01
        2   -1    0    0  501    0  0.00000000000E+00  0.00000000000E+00  0.65423805047E+03  0.65423805047E+03  0.25500000920E-02 0.  1.
       -2   -1    0    0    0  501  0.00000000000E+00  0.00000000000E+00 -0.13667700789E+03  0.13667700791E+03  0.25500000920E-02 0. -1.
    10030    2    1    2    0    0  0.00000000000E+00  0.00000000000E+00  0.51756104258E+03  0.79091505838E+03  0.59806119819E+03 0.  0.
        5    1    3    3  502    0  0.17530255389E+03 -0.90731849236E+02  0.55577319241E+03  0.58980436185E+03  0.46999998093E+01 0.  1.
       -5    1    3    3    0  502 -0.17530255389E+03  0.90731849236E+02 -0.38212149827E+02  0.20111069653E+03  0.46999998093E+01 0. -1.
</event>
<event>
 5   0  0.1303808E-02  0.5997862E+03  0.7818609E-02  0.9905850E-01
       -1   -1    0    0    0  501  0.00000000000E+00  0.00000000000E+00  0.25858094398E+03  0.25858094403E+03  0.50400001928E-02 0. -1.
        1   -1    0    0  501    0  0.00000000000E+00  0.00000000000E+00 -0.34780545152E+03  0.34780545155E+03  0.50400001928E-02 0.  1.
    10030    2    1    2    0    0  0.00000000000E+00  0.00000000000E+00 -0.89224507538E+02  0.60638639558E+03  0.59978616856E+03 0.  0.
        4    1    3    3  502    0  0.22051542535E+03 -0.60899428907E+02  0.15142472794E+03  0.27434805338E+03  0.12699999809E+01 0. -1.
       -4    1    3    3    0  502 -0.22051542535E+03  0.60899428907E+02 -0.24064923548E+03  0.33203834221E+03  0.12699999809E+01 0.  1.
</event>
<event>
 5   0  0.2092587E-02  0.5983685E+03  0.7818609E-02  0.9908797E-01
        2   -1    0    0  501    0  0.00000000000E+00  0.00000000000E+00  0.28091382366E+03  0.28091382367E+03  0.25500000920E-02 0.  1.
       -2   -1    0    0    0  501  0.00000000000E+00  0.00000000000E+00 -0.31864301144E+03  0.31864301145E+03  0.25500000920E-02 0. -1.
    10030    2    1    2    0    0  0.00000000000E+00  0.00000000000E+00 -0.37729187780E+02  0.59955683512E+03  0.59836853771E+03 0.  0.
        3    1    3    3  502    0  0.27777244754E+03 -0.10691416563E+03 -0.49306586085E+02  0.30169408522E+03  0.10100000352E+00 0.  1.
       -3    1    3    3    0  502 -0.27777244754E+03  0.10691416563E+03  0.11577398305E+02  0.29786274990E+03  0.10100000352E+00 0. -1.
</event>
<event>
 5   0  0.2092587E-02  0.5996868E+03  0.7818609E-02  0.9906056E-01
        2   -1    0    0  501    0  0.00000000000E+00  0.00000000000E+00  0.12616815268E+03  0.12616815271E+03  0.25500000920E-02 0. -1.
       -2   -1    0    0    0  501  0.00000000000E+00  0.00000000000E+00 -0.71258926441E+03  0.71258926441E+03  0.25500000920E-02 0.  1.
    10030    2    1    2    0    0  0.00000000000E+00  0.00000000000E+00 -0.58642111173E+03  0.83875741712E+03  0.59968682201E+03 0.  0.
        3    1    3    3  502    0  0.85638158562E+02  0.10810149547E+03 -0.66559610422E+03  0.67973378000E+03  0.10100000352E+00 0.  1.
       -3    1    3    3    0  502 -0.85638158562E+02 -0.10810149547E+03  0.79174992490E+02  0.15902363712E+03  0.10100000352E+00 0. -1.
</event>
<event>
 5   0  0.1303808E-02  0.6033046E+03  0.7818609E-02  0.9898574E-01
        1   -1    0    0  501    0  0.00000000000E+00  0.00000000000E+00  0.32702815271E+03  0.32702815275E+03  0.50400001928E-02 0. -1.
       -1   -1    0    0    0  501  0.00000000000E+00  0.00000000000E+00 -0.27824550777E+03  0.27824550782E+03  0.50400001928E-02 0.  1.
    10030    2    1    2    0    0  0.00000000000E+00  0.00000000000E+00  0.48782644940E+02  0.60527366056E+03  0.60330461437E+03 0.  0.
        4    1    3    3  502    0 -0.14943142779E+03 -0.29320435392E+02  0.28563138667E+03  0.32369173838E+03  0.12699999809E+01 0. -1.
       -4    1    3    3    0  502  0.14943142779E+03  0.29320435392E+02 -0.23684874173E+03  0.28158192219E+03  0.12699999809E+01 0.  1.
</event>
<event>
 5   0  0.1250390E-02  0.6018493E+03  0.7818609E-02  0.9901577E-01
        1   -1    0    0  501    0  0.00000000000E+00  0.00000000000E+00  0.54889457022E+03  0.54889457024E+03  0.50400001928E-02 0. -1.
       -1   -1    0    0    0  501  0.00000000000E+00  0.00000000000E+00 -0.16497820286E+03  0.16497820294E+03  0.50400001928E-02 0.  1.
    10030    2    1    2    0    0  0.00000000000E+00  0.00000000000E+00  0.38391636736E+03  0.71387277319E+03  0.60184928277E+03 0.  0.
        3    1    3    3  502    0  0.26401670797E+03 -0.14439742440E+03  0.19143935069E+03  0.35665736141E+03  0.10100000352E+00 0. -1.
       -3    1    3    3    0  502 -0.26401670797E+03  0.14439742440E+03  0.19247701667E+03  0.35721541177E+03  0.10100000352E+00 0.  1.
</event>
<event>
 5   0  0.1303808E-02  0.6086696E+03  0.7818609E-02  0.9887581E-01
       -1   -1    0    0    0  501  0.00000000000E+00  0.00000000000E+00  0.21374520229E+03  0.21374520235E+03  0.50400001928E-02 0. -1.
        1   -1    0    0  501    0  0.00000000000E+00  0.00000000000E+00 -0.43331811707E+03  0.43331811710E+03  0.50400001928E-02 0.  1.
    10030    2    1    2    0    0  0.00000000000E+00  0.00000000000E+00 -0.21957291478E+03  0.64706331945E+03  0.60866959384E+03 0.  0.
        4    1    3    3  502    0 -0.75717089327E+02 -0.17157452897E+03 -0.36458647440E+03  0.40999488633E+03  0.12699999809E+01 0.  1.
       -4    1    3    3    0  502  0.75717089327E+02  0.17157452897E+03  0.14501355962E+03  0.23706843312E+03  0.12699999809E+01 0. -1.
</event>
<event>
 5   0  0.2126207E-02  0.6037712E+03  0.7818609E-02  0.9897613E-01
       -2   -1    0    0    0  501  0.00000000000E+00  0.00000000000E+00  0.17058929590E+03  0.17058929592E+03  0.25500000920E-02 0. -1.
        2   -1    0    0  501    0  0.00000000000E+00  0.00000000000E+00 -0.53423578055E+03  0.53423578056E+03  0.25500000920E-02 0.  1.
    10030    2    1    2    0    0  0.00000000000E+00  0.00000000000E+00 -0.36364648466E+03  0.70482507648E+03  0.60377116744E+03 0.  0.
        5    1    3    3  502    0  0.24159022289E+03  0.17522003832E+03 -0.23461266708E+03  0.37964864175E+03  0.46999998093E+01 0. -1.
       -5    1    3    3    0  502 -0.24159022289E+03 -0.17522003832E+03 -0.12903381757E+03  0.32517643473E+03  0.46999998093E+01 0.  1.
</event>
<event>
 5   0  0.1303808E-02  0.6358136E+03  0.7818609E-02  0.9833769E-01
        1   -1    0    0  501    0  0.00000000000E+00  0.00000000000E+00  0.75414935713E+02  0.75414935881E+02  0.50400001928E-02 0.  1.
       -1   -1    0    0    0  501  0.00000000000E+00  0.00000000000E+00 -0.13401154911E+04  0.13401154911E+04  0.50400001928E-02 0. -1.
    10030    2    1    2    0    0  0.00000000000E+00  0.00000000000E+00 -0.12647005554E+04  0.14155304270E+04  0.63581356932E+03 0.  0.
        4    1    3    3  502    0 -0.15849988789E+03 -0.19655959705E+03 -0.10623559915E+04  0.10919522678E+04  0.12699999809E+01 0. -1.
       -4    1    3    3    0  502  0.15849988789E+03  0.19655959705E+03 -0.20234456391E+03  0.32357815918E+03  0.12699999809E+01 0.  1.
</event>
<event>
 5   0  0.8551000E-03  0.6019086E+03  0.7818609E-02  0.9901454E-01
       -3   -1    0    0    0  501  0.00000000000E+00  0.00000000000E+00  0.19761988845E+03  0.19761991426E+03  0.10100000352E+00 0. -1.
        3   -1    0    0  501    0  0.00000000000E+00  0.00000000000E+00 -0.45832172263E+03  0.45832173375E+03  0.10100000352E+00 0.  1.
    10030    2    1    2    0    0  0.00000000000E+00  0.00000000000E+00 -0.26070183418E+03  0.65594164801E+03  0.60190863032E+03 0.  0.
        2    1    3    3  502    0  0.19628965412E+03 -0.21810220937E+03 -0.57447882800E+02  0.29899575463E+03  0.25500000920E-02 0. -1.
       -2    1    3    3    0  502 -0.19628965412E+03  0.21810220937E+03 -0.20325395138E+03  0.35694589338E+03  0.25500000920E-02 0.  1.
</event>
<event>
 5   0  0.1332555E-02  0.6012723E+03  0.7818609E-02  0.9902770E-01
        1   -1    0    0  501    0  0.00000000000E+00  0.00000000000E+00  0.18081229341E+04  0.18081229341E+04  0.50400001928E-02 0. -1.
       -1   -1    0    0    0  501  0.00000000000E+00  0.00000000000E+00 -0.49986693314E+02  0.49986693569E+02  0.50400001928E-02 0.  1.
    10030    2    1    2    0    0  0.00000000000E+00  0.00000000000E+00  0.17581362408E+04  0.18581096277E+04  0.60127227385E+03 0.  0.
        2    1    3    3  502    0 -0.26442243773E+03  0.28853462082E+02  0.13120443509E+04  0.13387352713E+04  0.25500000920E-02 0. -1.
       -2    1    3    3    0  502  0.26442243773E+03 -0.28853462082E+02  0.44609188991E+03  0.51937435642E+03  0.25500000920E-02 0.  1.
</event>
<event>
 5   0  0.1337051E-02  0.5999361E+03  0.7818609E-02  0.9905539E-01
        1   -1    0    0  501    0  0.00000000000E+00  0.00000000000E+00  0.34918729877E+03  0.34918729881E+03  0.50400001928E-02 0. -1.
       -1   -1    0    0    0  501  0.00000000000E+00  0.00000000000E+00 -0.25768641861E+03  0.25768641866E+03  0.50400001928E-02 0.  1.
    10030    2    1    2    0    0  0.00000000000E+00  0.00000000000E+00  0.91500880159E+02  0.60687371747E+03  0.59993607817E+03 0.  0.
        5    1    3    3  502    0  0.24990855280E+03  0.50003675457E+02 -0.11420492385E+03  0.27931972173E+03  0.46999998093E+01 0.  1.
       -5    1    3    3    0  502 -0.24990855280E+03 -0.50003675457E+02  0.20570580401E+03  0.32755399573E+03  0.46999998093E+01 0. -1.
</event>
<event>
 5   0  0.2141800E-02  0.6011939E+03  0.7818609E-02  0.9902932E-01
        2   -1    0    0  501    0  0.00000000000E+00  0.00000000000E+00  0.18747883552E+04  0.18747883552E+04  0.25500000920E-02 0.  1.
       -2   -1    0    0    0  501  0.00000000000E+00  0.00000000000E+00 -0.48196654305E+02  0.48196654372E+02  0.25500000920E-02 0. -1.
    10030    2    1    2    0    0  0.00000000000E+00  0.00000000000E+00  0.18265917009E+04  0.19229850096E+04  0.60119389990E+03 0.  0.
        2    1    3    3  502    0 -0.58371121259E+02  0.29312409240E+03  0.10159311249E+04  0.10589829895E+04  0.25500000920E-02 0.  1.
       -2    1    3    3    0  502  0.58371121259E+02 -0.29312409240E+03  0.81066057600E+03  0.86400202015E+03  0.25500000920E-02 0. -1.
</event>
<event>
 5   0  0.2142838E-02  0.6014906E+03  0.7818609E-02  0.9902318E-01
       -2   -1    0    0    0  501  0.00000000000E+00  0.00000000000E+00  0.62629220017E+03  0.62629220017E+03  0.25500000920E-02 0. -1.
        2   -1    0    0  501    0  0.00000000000E+00  0.00000000000E+00 -0.14441778186E+03  0.14441778188E+03  0.25500000920E-02 0.  1.
    10030    2    1    2    0    0  0.00000000000E+00  0.00000000000E+00  0.48187441831E+03  0.77070998205E+03  0.60149058298E+03 0.  0.
        4    1    3    3  502    0 -0.11612497911E+03  0.25740015766E+03  0.37351816826E+03  0.46824917176E+03  0.12699999809E+01 0. -1.
       -4    1    3    3    0  502  0.11612497911E+03 -0.25740015766E+03  0.10835625004E+03  0.30246081029E+03  0.12699999809E+01 0.  1.
</event>
<event>
 5   0  0.2092587E-02  0.6008153E+03  0.7818609E-02  0.9903716E-01
        2   -1    0    0  501    0  0.00000000000E+00  0.00000000000E+00  0.10054710293E+04  0.10054710293E+04  0.25500000920E-02 0. -1.
       -2   -1    0    0    0  501  0.00000000000E+00  0.00000000000E+00 -0.89753704230E+02  0.89753704266E+02  0.25500000920E-02 0.  1.
    10030    2    1    2    0    0  0.00000000000E+00  0.00000000000E+00  0.91571732508E+03  0.10952247336E+04  0.60081527743E+03 0.  0.
        3    1    3    3  502    0  0.83903682648E+02 -0.16064663531E+03  0.21132682509E+02  0.18246580466E+03  0.10100000352E+00 0.  1.
       -3    1    3    3    0  502 -0.83903682648E+02  0.16064663531E+03  0.89458464257E+03  0.91275892892E+03  0.10100000352E+00 0. -1.
</event>
<event>
 5   0  0.1303808E-02  0.6050671E+03  0.7818609E-02  0.9894949E-01
       -1   -1    0    0    0  501  0.00000000000E+00  0.00000000000E+00  0.15653836300E+03  0.15653836309E+03  0.50400001928E-02 0.  1.
        1   -1    0    0  501    0  0.00000000000E+00  0.00000000000E+00 -0.58469082398E+03  0.58469082400E+03  0.50400001928E-02 0. -1.
    10030    2    1    2    0    0  0.00000000000E+00  0.00000000000E+00 -0.42815246097E+03  0.74122918709E+03  0.60506708550E+03 0.  0.
        4    1    3    3  502    0  0.84811258833E+02  0.27570661047E+03 -0.32580228041E+03  0.43515034586E+03  0.12699999809E+01 0. -1.
       -4    1    3    3    0  502 -0.84811258833E+02 -0.27570661047E+03 -0.10235018057E+03  0.30607884123E+03  0.12699999809E+01 0.  1.
</event>
<event>
 5   0  0.1250390E-02  0.6054430E+03  0.7818609E-02  0.9894177E-01
        1   -1    0    0  501    0  0.00000000000E+00  0.00000000000E+00  0.80501741631E+03  0.80501741633E+03  0.50400001928E-02 0. -1.
       -1   -1    0    0    0  501  0.00000000000E+00  0.00000000000E+00 -0.11383643684E+03  0.11383643695E+03  0.50400001928E-02 0.  1.
    10030    2    1    2    0    0  0.00000000000E+00  0.00000000000E+00  0.69118097948E+03  0.91885385328E+03  0.60544302564E+03 0.  0.
        3    1    3    3  502    0  0.25410085768E+03  0.12741455084E+03  0.18758958857E+03  0.34057536255E+03  0.10100000352E+00 0.  1.
       -3    1    3    3    0  502 -0.25410085768E+03 -0.12741455084E+03  0.50359139091E+03  0.57827849073E+03  0.10100000352E+00 0. -1.
</event>
<event>
 5   0  0.1337051E-02  0.5962906E+03  0.7818609E-02  0.9913132E-01
       -1   -1    0    0    0  501  0.00000000000E+00  0.00000000000E+00  0.14318153289E+03  0.14318153298E+03  0.50400001928E-02 0.  1.
        1   -1    0    0  501    0  0.00000000000E+00  0.00000000000E+00 -0.62082451557E+03  0.62082451559E+03  0.50400001928E-02 0. -1.
    10030    2    1    2    0    0  0.00000000000E+00  0.00000000000E+00 -0.47764298268E+03  0.76400604858E+03  0.59629055280E+03 0.  0.
        5    1    3    3  502    0 -0.23437978032E+03  0.12051494214E+03 -0.41733060635E+03  0.49360374563E+03  0.46999998093E+01 0. -1.
       -5    1    3    3    0  502  0.23437978032E+03 -0.12051494214E+03 -0.60312376334E+02  0.27040230295E+03  0.46999998093E+01 0.  1.
</event>
<event>
 5   0  0.1337051E-02  0.6002301E+03  0.7818609E-02  0.9904929E-01
       -1   -1    0    0    0  501  0.00000000000E+00  0.00000000000E+00  0.64137348349E+03  0.64137348351E+03  0.50400001928E-02 0.  1.
        1   -1    0    0  501    0  0.00000000000E+00  0.00000000000E+00 -0.14043151975E+03  0.14043151984E+03  0.50400001928E-02 0. -1.
    10030    2    1    2    0    0  0.00000000000E+00  0.00000000000E+00  0.50094196374E+03  0.78180500335E+03  0.60023013272E+03 0.  0.
        5    1    3    3  502    0  0.18710265338E+03  0.22775235337E+03  0.17715436536E+03  0.34392484140E+03  0.46999998093E+01 0. -1.
       -5    1    3    3    0  502 -0.18710265338E+03 -0.22775235337E+03  0.32378759837E+03  0.43788016195E+03  0.46999998093E+01 0.  1.
</event>
<event>
 5   0  0.2141800E-02  0.6052065E+03  0.7818609E-02  0.9894663E-01
       -2   -1    0    0    0  501  0.00000000000E+00  0.00000000000E+00  0.13357313581E+03  0.13357313583E+03  0.25500000920E-02 0.  1.
        2   -1    0    0  501    0  0.00000000000E+00  0.00000000000E+00 -0.68553259325E+03  0.68553259325E+03  0.25500000920E-02 0. -1.
    10030    2    1    2    0    0  0.00000000000E+00  0.00000000000E+00 -0.55195945744E+03  0.81910572908E+03  0.60520653727E+03 0.  0.
        2    1    3    3  502    0 -0.11466662393E+03 -0.20688478391E+02  0.10199450066E+03  0.15485259427E+03  0.25500000920E-02 0.  1.
       -2    1    3    3    0  502  0.11466662393E+03  0.20688478391E+02 -0.65395395810E+03  0.66425313481E+03  0.25500000920E-02 0. -1.
</event>
<event>
 5   0  0.2141800E-02  0.6127169E+03  0.7818609E-02  0.9879368E-01
        2   -1    0    0  501    0  0.00000000000E+00  0.00000000000E+00  0.62136452253E+03  0.62136452253E+03  0.25500000920E-02 0. -1.
       -2   -1    0    0    0  501  0.00000000000E+00  0.00000000000E+00 -0.15104740010E+03  0.15104740012E+03  0.25500000920E-02 0.  1.
    10030    2    1    2    0    0  0.00000000000E+00  0.00000000000E+00  0.47031712243E+03  0.77241192266E+03  0.61271688618E+03 0.  0.
        2    1    3    3  502    0  0.14067224716E+03  0.24683937401E+03  0.90667992732E+02  0.29822649546E+03  0.25500000920E-02 0.  1.
       -2    1    3    3    0  502 -0.14067224716E+03 -0.24683937401E+03  0.37964912970E+03  0.47418542720E+03  0.25500000920E-02 0. -1.
</event>
<event>
 5   0  0.1276705E-02  0.6002700E+03  0.7818609E-02  0.9904846E-01
       -1   -1    0    0    0  501  0.00000000000E+00  0.00000000000E+00  0.33491434970E+03  0.33491434973E+03  0.50400001928E-02 0. -1.
        1   -1    0    0  501    0  0.00000000000E+00  0.00000000000E+00 -0.26896729609E+03  0.26896729614E+03  0.50400001928E-02 0.  1.
    10030    2    1    2    0    0  0.00000000000E+00  0.00000000000E+00  0.65947053605E+02  0.60388164587E+03  0.60026996289E+03 0.  0.
        1    1    3    3  502    0  0.30916412092E+02  0.55286190287E+02  0.32811323054E+03  0.33417163173E+03  0.50400001928E-02 0. -1.
       -1    1    3    3    0  502 -0.30916412092E+02 -0.55286190287E+02 -0.26216617694E+03  0.26971001414E+03  0.50400001928E-02 0.  1.
</event>
<event>
 5   0  0.1276705E-02  0.5998676E+03  0.7818609E-02  0.9905681E-01
        1   -1    0    0  501    0  0.00000000000E+00  0.00000000000E+00  0.18345419049E+03  0.18345419056E+03  0.50400001928E-02 0. -1.
       -1   -1    0    0    0  501  0.00000000000E+00  0.00000000000E+00 -0.49036924705E+03  0.49036924707E+03  0.50400001928E-02 0.  1.
    10030    2    1    2    0    0  0.00000000000E+00  0.00000000000E+00 -0.30691505656E+03  0.67382343764E+03  0.59986762970E+03 0.  0.
        1    1    3    3  502    0  0.39175611935E+02  0.12296853712E+03  0.15066978271E+03  0.19838692784E+03  0.50400001928E-02 0. -1.
       -1    1    3    3    0  502 -0.39175611935E+02 -0.12296853712E+03 -0.45758483927E+03  0.47543650979E+03  0.50400001928E-02 0.  1.
</event>
<event>
 5   0  0.2179625E-02  0.5991279E+03  0.7818609E-02  0.9907217E-01
        2   -1    0    0  501    0  0.00000000000E+00  0.00000000000E+00  0.15649492921E+04  0.15649492921E+04  0.25500000920E-02 0.  1.
       -2   -1    0    0    0  501  0.00000000000E+00  0.00000000000E+00 -0.57342784626E+02  0.57342784683E+02  0.25500000920E-02 0. -1.
    10030    2    1    2    0    0  0.00000000000E+00  0.00000000000E+00  0.15076065075E+04  0.16222920768E+04  0.59912786700E+03 0.  0.
        1    1    3    3  502    0 -0.28599854659E+02 -0.54090118724E+02  0.15478494464E+04  0.15490582950E+04  0.50400001928E-02 0.  1.
       -1    1    3    3    0  502  0.28599854659E+02  0.54090118724E+02 -0.40242938936E+02  0.73233781752E+02  0.50400001928E-02 0. -1.
</event>
<event>
 5   0  0.2126207E-02  0.5936440E+03  0.7818609E-02  0.9918681E-01
        2   -1    0    0  501    0  0.00000000000E+00  0.00000000000E+00  0.65663158299E+03  0.65663158300E+03  0.25500000920E-02 0.  1.
       -2   -1    0    0    0  501  0.00000000000E+00  0.00000000000E+00 -0.13417463185E+03  0.13417463187E+03  0.25500000920E-02 0. -1.
    10030    2    1    2    0    0  0.00000000000E+00  0.00000000000E+00  0.52245695115E+03  0.79080621487E+03  0.59364400416E+03 0.  0.
        5    1    3    3  502    0 -0.10817501204E+02 -0.27784946366E+03  0.12302206996E+03  0.30409515367E+03  0.46999998093E+01 0. -1.
       -5    1    3    3    0  502  0.10817501204E+02  0.27784946366E+03  0.39943488118E+03  0.48671106120E+03  0.46999998093E+01 0.  1.
</event>
<event>
 5   0  0.1332555E-02  0.6011663E+03  0.7818609E-02  0.9902989E-01
        1   -1    0    0  501    0  0.00000000000E+00  0.00000000000E+00  0.17230262115E+03  0.17230262123E+03  0.50400001928E-02 0. -1.
       -1   -1    0    0    0  501  0.00000000000E+00  0.00000000000E+00 -0.52436942456E+03  0.52436942458E+03  0.50400001928E-02 0.  1.
    10030    2    1    2    0    0  0.00000000000E+00  0.00000000000E+00 -0.35206680341E+03  0.69667204581E+03  0.60116628761E+03 0.  0.
        2    1    3    3  502    0 -0.44008588228E+02 -0.25802873247E+03 -0.34727403349E+03  0.43487335738E+03  0.25500000920E-02 0.  1.
       -2    1    3    3    0  502  0.44008588228E+02  0.25802873247E+03 -0.47927699162E+01  0.26179868843E+03  0.25500000920E-02 0. -1.
</event>
<event>
 5   0  0.1332555E-02  0.6023986E+03  0.7818609E-02  0.9900442E-01
       -1   -1    0    0    0  501  0.00000000000E+00  0.00000000000E+00  0.99863153472E+02  0.99863153600E+02  0.50400001928E-02 0.  1.
        1   -1    0    0  501    0  0.00000000000E+00  0.00000000000E+00 -0.90845351828E+03  0.90845351829E+03  0.50400001928E-02 0. -1.
    10030    2    1    2    0    0  0.00000000000E+00  0.00000000000E+00 -0.80859036480E+03  0.10083166719E+04  0.60239864937E+03 0.  0.
        2    1    3    3  502    0  0.59866569966E+02  0.14463066869E+03 -0.83502432503E+03  0.84956910250E+03  0.25500000920E-02 0. -1.
       -2    1    3    3    0  502 -0.59866569966E+02 -0.14463066869E+03  0.26433960231E+02  0.15874756938E+03  0.25500000920E-02 0.  1.
</event>
<event>
 5   0  0.1250390E-02  0.6011407E+03  0.7818609E-02  0.9903042E-01
       -1   -1    0    0    0  501  0.00000000000E+00  0.00000000000E+00  0.66457865338E+02  0.66457865529E+02  0.50400001928E-02 0.  1.
        1   -1    0    0  501    0  0.00000000000E+00  0.00000000000E+00 -0.13593954935E+04  0.13593954935E+04  0.50400001928E-02 0. -1.
    10030    2    1    2    0    0  0.00000000000E+00  0.00000000000E+00 -0.12929376282E+04  0.14258533590E+04  0.60114065838E+03 0.  0.
        3    1    3    3  502    0 -0.28632017629E+02  0.21070772504E+03 -0.11503257560E+04  0.11698148969E+04  0.10100000352E+00 0. -1.
       -3    1    3    3    0  502  0.28632017629E+02 -0.21070772504E+03 -0.14261187215E+03  0.25603846216E+03  0.10100000352E+00 0.  1.
</event>
<event>
 5   0  0.2092587E-02  0.6000191E+03  0.7818609E-02  0.9905366E-01
       -2   -1    0    0    0  501  0.00000000000E+00  0.00000000000E+00  0.11432169216E+03  0.11432169219E+03  0.25500000920E-02 0. -1.
        2   -1    0    0  501    0  0.00000000000E+00  0.00000000000E+00 -0.78730232072E+03  0.78730232072E+03  0.25500000920E-02 0.  1.
    10030    2    1    2    0    0  0.00000000000E+00  0.00000000000E+00 -0.67298062856E+03  0.90162401292E+03  0.60001911157E+03 0.  0.
        3    1    3    3  502    0  0.23265372163E+03  0.17419008627E+03 -0.44829240261E+03  0.53426213489E+03  0.10100000352E+00 0.  1.
       -3    1    3    3    0  502 -0.23265372163E+03 -0.17419008627E+03 -0.22468822595E+03  0.36736187802E+03  0.10100000352E+00 0. -1.
</event>
<event>
 5   0  0.1337051E-02  0.5976264E+03  0.7818609E-02  0.9910343E-01
       -1   -1    0    0    0  501  0.00000000000E+00  0.00000000000E+00  0.17227649004E+03  0.17227649011E+03  0.50400001928E-02 0. -1.
        1   -1    0    0  501    0  0.00000000000E+00  0.00000000000E+00 -0.51829081773E+03  0.51829081775E+03  0.50400001928E-02 0.  1.
    10030    2    1    2    0    0  0.00000000000E+00  0.00000000000E+00 -0.34601432769E+03  0.69056730787E+03  0.59762638139E+03 0.  0.
        5    1    3    3  502    0 -0.22898079793E+03  0.30262004229E+02 -0.39200499445E+03  0.45501428592E+03  0.46999998093E+01 0.  1.
       -5    1    3    3    0  502  0.22898079793E+03 -0.30262004229E+02  0.45990666761E+02  0.23555302194E+03  0.46999998093E+01 0. -1.
</event>
<event>
 5   0  0.1332555E-02  0.5954948E+03  0.7818609E-02  0.9914797E-01
        1   -1    0    0  501    0  0.00000000000E+00  0.00000000000E+00  0.16535144570E+03  0.16535144578E+03  0.50400001928E-02 0.  1.
       -1   -1    0    0    0  501  0.00000000000E+00  0.00000000000E+00 -0.53615207091E+03  0.53615207094E+03  0.50400001928E-02 0. -1.
    10030    2    1    2    0    0  0.00000000000E+00  0.00000000000E+00 -0.37080062521E+03  0.70150351671E+03  0.59549481971E+03 0.  0.
        2    1    3    3  502    0  0.12218276414E+03  0.11494280421E+03 -0.47518562154E+03  0.50392643414E+03  0.25500000920E-02 0. -1.
       -2    1    3    3    0  502 -0.12218276414E+03 -0.11494280421E+03  0.10438499633E+03  0.19757708258E+03  0.25500000920E-02 0.  1.
</event>
<event>
 5   0  0.2092587E-02  0.6065349E+03  0.7818609E-02  0.9891940E-01
       -2   -1    0    0    0  501  0.00000000000E+00  0.00000000000E+00  0.94375084628E+02  0.94375084662E+02  0.25500000920E-02 0. -1.
        2   -1    0    0  501    0  0.00000000000E+00  0.00000000000E+00 -0.97452787528E+03  0.97452787529E+03  0.25500000920E-02 0.  1.
    10030    2    1    2    0    0  0.00000000000E+00  0.00000000000E+00 -0.88015279066E+03  0.10689029599E+04  0.60653491481E+03 0.  0.
        3    1    3    3  502    0  0.22549923955E+03  0.13646281027E+02 -0.79663419211E+03  0.82804720534E+03  0.10100000352E+00 0.  1.
       -3    1    3    3    0  502 -0.22549923955E+03 -0.13646281027E+02 -0.83518598545E+02  0.24085575461E+03  0.10100000352E+00 0. -1.
</event>
<event>
 5   0  0.2126207E-02  0.5952086E+03  0.7818609E-02  0.9915397E-01
        2   -1    0    0  501    0  0.00000000000E+00  0.00000000000E+00  0.18521264344E+04  0.18521264344E+04  0.25500000920E-02 0. -1.
       -2   -1    0    0    0  501  0.00000000000E+00  0.00000000000E+00 -0.47819808306E+02  0.47819808374E+02  0.25500000920E-02 0.  1.
    10030    2    1    2    0    0  0.00000000000E+00  0.00000000000E+00  0.18043066261E+04  0.18999462427E+04  0.59520863944E+03 0.  0.
        5    1    3    3  502    0  0.23553157103E+03 -0.13060221361E+03  0.13061003867E+04  0.13335862811E+04  0.46999998093E+01 0. -1.
       -5    1    3    3    0  502 -0.23553157103E+03  0.13060221361E+03  0.49820623938E+03  0.56635996160E+03  0.46999998093E+01 0.  1.
</event>
<event>
 5   0  0.2126207E-02  0.5994578E+03  0.7818609E-02  0.9906531E-01
        2   -1    0    0  501    0  0.00000000000E+00  0.00000000000E+00  0.25020787430E+03  0.25020787431E+03  0.25500000920E-02 0.  1.
       -2   -1    0    0    0  501  0.00000000000E+00  0.00000000000E+00 -0.35905116381E+03  0.35905116381E+03  0.25500000920E-02 0. -1.
    10030    2    1    2    0    0  0.00000000000E+00  0.00000000000E+00 -0.10884328951E+03  0.60925903813E+03  0.59945784995E+03 0.  0.
        5    1    3    3  502    0  0.76279382615E+02 -0.14388036180E+03  0.20127724345E+03  0.25894926424E+03  0.46999998093E+01 0.  1.
       -5    1    3    3    0  502 -0.76279382615E+02  0.14388036180E+03 -0.31012053295E+03  0.35030977389E+03  0.46999998093E+01 0. -1.
</event>
<event>
 5   0  0.2126207E-02  0.5954140E+03  0.7818609E-02  0.9914966E-01
        2   -1    0    0  501    0  0.00000000000E+00  0.00000000000E+00  0.12287506763E+04  0.12287506763E+04  0.25500000920E-02 0.  1.
       -2   -1    0    0    0  501  0.00000000000E+00  0.00000000000E+00 -0.72129737079E+02  0.72129737125E+02  0.25500000920E-02 0. -1.
    10030    2    1    2    0    0  0.00000000000E+00  0.00000000000E+00  0.11566209392E+04  0.13008804134E+04  0.59541401813E+03 0.  0.
        5    1    3    3  502    0 -0.25615572845E+03  0.13503527408E+03  0.72900206794E+03  0.78442105244E+03  0.46999998093E+01 0.  1.
       -5    1    3    3    0  502  0.25615572845E+03 -0.13503527408E+03  0.42761887124E+03  0.51645936094E+03  0.46999998093E+01 0. -1.
</event>
<event>
 5   0  0.2141800E-02  0.5968249E+03  0.7818609E-02  0.9912015E-01
        2   -1    0    0  501    0  0.00000000000E+00  0.00000000000E+00  0.45615745394E+03  0.45615745395E+03  0.25500000920E-02 0.  1.
       -2   -1    0    0    0  501  0.00000000000E+00  0.00000000000E+00 -0.19521767450E+03  0.19521767451E+03  0.25500000920E-02 0. -1.
    10030    2    1    2    0    0  0.00000000000E+00  0.00000000000E+00  0.26093977945E+03  0.65137512846E+03  0.59682492364E+03 0.  0.
        2    1    3    3  502    0  0.18756671536E+03 -0.10754952667E+03  0.35494271228E+03  0.41561099890E+03  0.25500000920E-02 0.  1.
       -2    1    3    3    0  502 -0.18756671536E+03  0.10754952667E+03 -0.94002932835E+02  0.23576412956E+03  0.25500000920E-02 0. -1.
</event>
<event>
 5   0  0.2142838E-02  0.5982372E+03  0.7818609E-02  0.9909070E-01
       -2   -1    0    0    0  501  0.00000000000E+00  0.00000000000E+00  0.22183535664E+03  0.22183535666E+03  0.25500000920E-02 0. -1.
        2   -1    0    0  501    0  0.00000000000E+00  0.00000000000E+00 -0.40332583778E+03  0.40332583779E+03  0.25500000920E-02 0.  1.
    10030    2    1    2    0    0  0.00000000000E+00  0.00000000000E+00 -0.18149048114E+03  0.62516119444E+03  0.59823718064E+03 0.  0.
        4    1    3    3  502    0 -0.88335862666E+02 -0.10481414382E+03 -0.36856953920E+03  0.39323574037E+03  0.12699999809E+01 0.  1.
       -4    1    3    3    0  502  0.88335862666E+02  0.10481414382E+03  0.18707905807E+03  0.23192545407E+03  0.12699999809E+01 0. -1.
</event>
<event>
 5   0  0.2092587E-02  0.6025679E+03  0.7818609E-02  0.9900093E-01
        2   -1    0    0  501    0  0.00000000000E+00  0.00000000000E+00  0.17622128048E+04  0.17622128048E+04  0.25500000920E-02 0.  1.
       -2   -1    0    0    0  501  0.00000000000E+00  0.00000000000E+00 -0.51510255839E+02  0.51510255902E+02  0.25500000920E-02 0. -1.
    10030    2    1    2    0    0  0.00000000000E+00  0.00000000000E+00  0.17107025490E+04  0.18137230607E+04  0.60256794630E+03 0.  0.
        3    1    3    3  502    0  0.22957629935E+02  0.27157810371E+03  0.46882477972E+03  0.54228996253E+03  0.10100000352E+00 0. -1.
       -3    1    3    3    0  502 -0.22957629935E+02 -0.27157810371E+03  0.12418777692E+04  0.12714330982E+04  0.10100000352E+00 0.  1.
</event>
<event>
 5   0  0.2126207E-02  0.6024248E+03  0.7818609E-02  0.9900388E-01
       -2   -1    0    0    0  501  0.00000000000E+00  0.00000000000E+00  0.24649254709E+03  0.24649254711E+03  0.25500000920E-02 0. -1.
        2   -1    0    0  501    0  0.00000000000E+00  0.00000000000E+00 -0.36807978394E+03  0.36807978395E+03  0.25500000920E-02 0.  1.
    10030    2    1    2    0    0  0.00000000000E+00  0.00000000000E+00 -0.12158723685E+03  0.61457233106E+03  0.60242484505E+03 0.  0.
        5    1    3    3  502    0  0.11249299198E+03  0.22653564319E+03  0.10600796645E+03  0.27428607297E+03  0.46999998093E+01 0. -1.
       -5    1    3    3    0  502 -0.11249299198E+03 -0.22653564319E+03 -0.22759520330E+03  0.34028625808E+03  0.46999998093E+01 0.  1.
</event>
<event>
 5   0  0.2179625E-02  0.6071331E+03  0.7818609E-02  0.9890717E-01
       -2   -1    0    0    0  501  0.00000000000E+00  0.00000000000E+00  0.15066732140E+03  0.15066732142E+03  0.25500000920E-02 0. -1.
        2   -1    0    0  501    0  0.00000000000E+00  0.00000000000E+00 -0.61162995746E+03  0.61162995747E+03  0.25500000920E-02 0.  1.
    10030    2    1    2    0    0  0.00000000000E+00  0.00000000000E+00 -0.46096263607E+03  0.76229727889E+03  0.60713309048E+03 0.  0.
        1    1    3    3  502    0 -0.81515991144E+02  0.12870097880E+03 -0.56015799747E+03  0.58050476390E+03  0.50400001928E-02 0.  1.
       -1    1    3    3    0  502  0.81515991144E+02 -0.12870097880E+03  0.99195361404E+02  0.18179251499E+03  0.50400001928E-02 0. -1.
</event>
<event>
 5   0  0.1337051E-02  0.6003256E+03  0.7818609E-02  0.9904731E-01
       -1   -1    0    0    0  501  0.00000000000E+00  0.00000000000E+00  0.25026433418E+03  0.25026433423E+03  0.50400001928E-02 0.  1.
        1   -1    0    0  501    0  0.00000000000E+00  0.00000000000E+00 -0.36001017988E+03  0.36001017991E+03  0.50400001928E-02 0. -1.
    10030    2    1    2    0    0  0.00000000000E+00  0.00000000000E+00 -0.10974584570E+03  0.61027451415E+03  0.60032560496E+03 0.  0.
        5    1    3    3  502    0 -0.21943599491E+02  0.29932181017E+03 -0.55627099728E+02  0.30527288092E+03  0.46999998093E+01 0.  1.
       -5    1    3    3    0  502  0.21943599491E+02 -0.29932181017E+03 -0.54118745972E+02  0.30500163322E+03  0.46999998093E+01 0. -1.
</event>
<event>
 5   0  0.2179625E-02  0.5984417E+03  0.7818609E-02  0.9908644E-01
       -2   -1    0    0    0  501  0.00000000000E+00  0.00000000000E+00  0.68288589676E+03  0.68288589676E+03  0.25500000920E-02 0.  1.
        2   -1    0    0  501    0  0.00000000000E+00  0.00000000000E+00 -0.13110990343E+03  0.13110990346E+03  0.25500000920E-02 0. -1.
    10030    2    1    2    0    0  0.00000000000E+00  0.00000000000E+00  0.55177599332E+03  0.81399580022E+03  0.59844165627E+03 0.  0.
        1    1    3    3  502    0  0.20116818491E+02  0.27941992724E+03  0.41888893837E+03  0.50393265903E+03  0.50400001928E-02 0.  1.
       -1    1    3    3    0  502 -0.20116818491E+02 -0.27941992724E+03  0.13288705496E+03  0.31006314119E+03  0.50400001928E-02 0. -1.
</event>
<event>
 5   0  0.1332555E-02  0.5982875E+03  0.7818609E-02  0.9908965E-01
       -1   -1    0    0    0  501  0.00000000000E+00  0.00000000000E+00  0.17436323906E+03  0.17436323913E+03  0.50400001928E-02 0.  1.
        1   -1    0    0  501    0  0.00000000000E+00  0.00000000000E+00 -0.51322160612E+03  0.51322160614E+03  0.50400001928E-02 0. -1.
    10030    2    1    2    0    0  0.00000000000E+00  0.00000000000E+00 -0.33885836706E+03  0.68758484527E+03  0.59828749487E+03 0.  0.
        2    1    3    3  502    0  0.16613257074E+03  0.13921457369E+03  0.67513215926E+02  0.22702150321E+03  0.25500000920E-02 0.  1.
       -2    1    3    3    0  502 -0.16613257074E+03 -0.13921457369E+03 -0.40637158299E+03  0.46056334207E+03  0.25500000920E-02 0. -1.
</event>
<event>
 5   0  0.2092587E-02  0.5998552E+03  0.7818609E-02  0.9905707E-01
        2   -1    0    0  501    0  0.00000000000E+00  0.00000000000E+00  0.10323067410E+04  0.10323067410E+04  0.25500000920E-02 0.  1.
       -2   -1    0    0    0  501  0.00000000000E+00  0.00000000000E+00 -0.87141299889E+02  0.87141299927E+02  0.25500000920E-02 0. -1.
    10030    2    1    2    0    0  0.00000000000E+00  0.00000000000E+00  0.94516544109E+03  0.11194480409E+04  0.59985515357E+03 0.  0.
        3    1    3    3  502    0  0.28255588435E+03 -0.86658857876E+02  0.37726121399E+03  0.47924275603E+03  0.10100000352E+00 0. -1.
       -3    1    3    3    0  502 -0.28255588435E+03  0.86658857876E+02  0.56790422710E+03  0.64020528488E+03  0.10100000352E+00 0.  1.
</event>
<event>
 5   0  0.1303808E-02  0.5695643E+03  0.7818609E-02  0.9970643E-01
       -1   -1    0    0    0  501  0.00000000000E+00  0.00000000000E+00  0.10272670933E+03  0.10272670945E+03  0.50400001928E-02 0.  1.
        1   -1    0    0  501    0  0.00000000000E+00  0.00000000000E+00 -0.78948175248E+03  0.78948175250E+03  0.50400001928E-02 0. -1.
    10030    2    1    2    0    0  0.00000000000E+00  0.00000000000E+00 -0.68675504315E+03  0.89220846195E+03  0.56956426352E+03 0.  0.
        4    1    3    3  502    0 -0.69754453316E+02  0.71368159014E+02  0.74434565120E+02  0.12450387650E+03  0.12699999809E+01 0.  1.
       -4    1    3    3    0  502  0.69754453316E+02 -0.71368159014E+02 -0.76118960827E+03  0.76770458545E+03  0.12699999809E+01 0. -1.
</event>
<event>
 5   0  0.1276705E-02  0.5994231E+03  0.7818609E-02  0.9906604E-01
       -1   -1    0    0    0  501  0.00000000000E+00  0.00000000000E+00  0.73151441455E+02  0.73151441628E+02  0.50400001928E-02 0. -1.
        1   -1    0    0  501    0  0.00000000000E+00  0.00000000000E+00 -0.12279593802E+04  0.12279593803E+04  0.50400001928E-02 0.  1.
    10030    2    1    2    0    0  0.00000000000E+00  0.00000000000E+00 -0.11548079388E+04  0.13011108219E+04  0.59942305205E+03 0.  0.
        1    1    3    3  502    0 -0.15385180266E+03 -0.15640692133E+03 -0.13418840037E+03  0.25717703832E+03  0.50400001928E-02 0. -1.
       -1    1    3    3    0  502  0.15385180266E+03  0.15640692133E+03 -0.10206195384E+04  0.10439337836E+04  0.50400001928E-02 0.  1.
</event>
<event>
 5   0  0.1337051E-02  0.6007611E+03  0.7818609E-02  0.9903828E-01
        1   -1    0    0  501    0  0.00000000000E+00  0.00000000000E+00  0.38443513293E+03  0.38443513297E+03  0.50400001928E-02 0.  1.
       -1   -1    0    0    0  501  0.00000000000E+00  0.00000000000E+00 -0.23470402224E+03  0.23470402230E+03  0.50400001928E-02 0. -1.
    10030    2    1    2    0    0  0.00000000000E+00  0.00000000000E+00  0.14973111069E+03  0.61913915526E+03  0.60076109068E+03 0.  0.
        5    1    3    3  502    0  0.75986150972E+02  0.26676986342E+03 -0.43837478731E+02  0.28086272396E+03  0.46999998093E+01 0. -1.
       -5    1    3    3    0  502 -0.75986150972E+02 -0.26676986342E+03  0.19356858942E+03  0.33827643131E+03  0.46999998093E+01 0.  1.
</event>
<event>
 5   0  0.2142838E-02  0.5976253E+03  0.7818609E-02  0.9910345E-01
       -2   -1    0    0    0  501  0.00000000000E+00  0.00000000000E+00  0.12243658671E+03  0.12243658673E+03  0.25500000920E-02 0. -1.
        2   -1    0    0  501    0  0.00000000000E+00  0.00000000000E+00 -0.72926732672E+03  0.72926732673E+03  0.25500000920E-02 0.  1.
    10030    2    1    2    0    0  0.00000000000E+00  0.00000000000E+00 -0.60683074002E+03  0.85170391346E+03  0.59762530834E+03 0.  0.
        4    1    3    3  502    0 -0.23256213601E+03  0.32502536043E+02 -0.40068304953E+02  0.23821973872E+03  0.12699999809E+01 0. -1.
       -4    1    3    3    0  502  0.23256213601E+03 -0.32502536043E+02 -0.56676243506E+03  0.61348417474E+03  0.12699999809E+01 0.  1.
</event>
<event>
 5   0  0.1332555E-02  0.6068688E+03  0.7818609E-02  0.9891257E-01
        1   -1    0    0  501    0  0.00000000000E+00  0.00000000000E+00  0.23363029107E+03  0.23363029113E+03  0.50400001928E-02 0. -1.
       -1   -1    0    0    0  501  0.00000000000E+00  0.00000000000E+00 -0.39409458046E+03  0.39409458049E+03  0.50400001928E-02 0.  1.
    10030    2    1    2    0    0  0.00000000000E+00  0.00000000000E+00 -0.16046428939E+03  0.62772487162E+03  0.60686878835E+03 0.  0.
        2    1    3    3  502    0  0.76347981848E+02  0.27819970582E+03 -0.17753049077E+03  0.33873465398E+03  0.25500000920E-02 0.  1.
       -2    1    3    3    0  502 -0.76347981848E+02 -0.27819970582E+03  0.17066201385E+02  0.28899021763E+03  0.25500000920E-02 0. -1.
</event>
<event>
 5   0  0.2141800E-02  0.5970655E+03  0.7818609E-02  0.9911513E-01
        2   -1    0    0  501    0  0.00000000000E+00  0.00000000000E+00  0.33022139467E+03  0.33022139468E+03  0.25500000920E-02 0.  1.
       -2   -1    0    0    0  501  0.00000000000E+00  0.00000000000E+00 -0.26988500697E+03  0.26988500698E+03  0.25500000920E-02 0. -1.
    10030    2    1    2    0    0  0.00000000000E+00  0.00000000000E+00  0.60336387708E+02  0.60010640166E+03  0.59706550196E+03 0.  0.
        2    1    3    3  502    0 -0.93653231540E+02 -0.11113377942E+03  0.29226470751E+03  0.32640512246E+03  0.25500000920E-02 0.  1.
       -2    1    3    3    0  502  0.93653231540E+02  0.11113377942E+03 -0.23192831980E+03  0.27370127920E+03  0.25500000920E-02 0. -1.
</event>
<event>
 5   0  0.8551000E-03  0.6005078E+03  0.7818609E-02  0.9904353E-01
        3   -1    0    0  501    0  0.00000000000E+00  0.00000000000E+00  0.12840277973E+04  0.12840278012E+04  0.10100000352E+00 0. -1.
       -3   -1    0    0    0  501  0.00000000000E+00  0.00000000000E+00 -0.70210599325E+02  0.70210671970E+02  0.10100000352E+00 0.  1.
    10030    2    1    2    0    0  0.00000000000E+00  0.00000000000E+00  0.12138171979E+04  0.13542384732E+04  0.60050782867E+03 0.  0.
        3    1    3    3  502    0  0.93135564037E+02 -0.60133762664E+02  0.12361822264E+04  0.12411433478E+04  0.10100000352E+00 0. -1.
       -3    1    3    3    0  502 -0.93135564037E+02  0.60133762664E+02 -0.22365028434E+02  0.11309512544E+03  0.10100000352E+00 0.  1.
</event>
<event>
 5   0  0.2179625E-02  0.5992258E+03  0.7818609E-02  0.9907014E-01
       -2   -1    0    0    0  501  0.00000000000E+00  0.00000000000E+00  0.19652369401E+03  0.19652369403E+03  0.25500000920E-02 0.  1.
        2   -1    0    0  501    0  0.00000000000E+00  0.00000000000E+00 -0.45677892698E+03  0.45677892699E+03  0.25500000920E-02 0. -1.
    10030    2    1    2    0    0  0.00000000000E+00  0.00000000000E+00 -0.26025523297E+03  0.65330262101E+03  0.59922577409E+03 0.  0.
        1    1    3    3  502    0  0.68205026883E+02 -0.25422364616E+03  0.25919452948E+02  0.26448706211E+03  0.50400001928E-02 0.  1.
       -1    1    3    3    0  502 -0.68205026883E+02  0.25422364616E+03 -0.28617468592E+03  0.38881555890E+03  0.50400001928E-02 0. -1.
</event>
<event>
 5   0  0.2126207E-02  0.6003438E+03  0.7818609E-02  0.9904693E-01
        2   -1    0    0  501    0  0.00000000000E+00  0.00000000000E+00  0.14774296275E+04  0.14774296275E+04  0.25500000920E-02 0.  1.
       -2   -1    0    0    0  501  0.00000000000E+00  0.00000000000E+00 -0.60986444293E+02  0.60986444346E+02  0.25500000920E-02 0. -1.
    10030    2    1    2    0    0  0.00000000000E+00  0.00000000000E+00  0.14164431832E+04  0.15384160718E+04  0.60034383386E+03 0.  0.
        5    1    3    3  502    0 -0.20927402014E+03  0.64065895164E+02  0.18192280177E+03  0.28463669867E+03  0.46999998093E+01 0. -1.
       -5    1    3    3    0  502  0.20927402014E+03 -0.64065895164E+02  0.12345203814E+04  0.12537793731E+04  0.46999998093E+01 0.  1.
</event>
<event>
 5   0  0.1332555E-02  0.6143795E+03  0.7818609E-02  0.9876014E-01
        1   -1    0    0  501    0  0.00000000000E+00  0.00000000000E+00  0.57005636892E+03  0.57005636894E+03  0.50400001928E-02 0. -1.
       -1   -1    0    0    0  501  0.00000000000E+00  0.00000000000E+00 -0.16553722541E+03  0.16553722548E+03  0.50400001928E-02 0.  1.
    10030    2    1    2    0    0  0.00000000000E+00  0.00000000000E+00  0.40451914351E+03  0.73559359442E+03  0.61437952333E+03 0.  0.
        2    1    3    3  502    0  0.13232482885E+03 -0.25151019919E+03  0.62640849409E+02  0.29101738204E+03  0.25500000920E-02 0.  1.
       -2    1    3    3    0  502 -0.13232482885E+03  0.25151019919E+03  0.34187829410E+03  0.44457621238E+03  0.25500000920E-02 0. -1.
</event>
<event>
 5   0  0.1303808E-02  0.5966196E+03  0.7818609E-02  0.9912444E-01
       -1   -1    0    0    0  501  0.00000000000E+00  0.00000000000E+00  0.14186876607E+03  0.14186876616E+03  0.50400001928E-02 0. -1.
        1   -1    0    0  501    0  0.00000000000E+00  0.00000000000E+00 -0.62726103084E+03  0.62726103086E+03  0.50400001928E-02 0.  1.
    10030    2    1    2    0    0  0.00000000000E+00  0.00000000000E+00 -0.48539226478E+03  0.76912979702E+03  0.59661963927E+03 0.  0.
        4    1    3    3  502    0  0.10644908035E+03 -0.23935402287E+03 -0.58725561005E+02  0.26846239846E+03  0.12699999809E+01 0. -1.
       -4    1    3    3    0  502 -0.10644908035E+03  0.23935402287E+03 -0.42666670377E+03  0.50066739856E+03  0.12699999809E+01 0.  1.
</event>
<event>
 5   0  0.2142838E-02  0.5963141E+03  0.7818609E-02  0.9913083E-01
        2   -1    0    0  501    0  0.00000000000E+00  0.00000000000E+00  0.18059028341E+04  0.18059028341E+04  0.25500000920E-02 0. -1.
       -2   -1    0    0    0  501  0.00000000000E+00  0.00000000000E+00 -0.49226144971E+02  0.49226145037E+02  0.25500000920E-02 0.  1.
    10030    2    1    2    0    0  0.00000000000E+00  0.00000000000E+00  0.17566766892E+04  0.18551289792E+04  0.59631412789E+03 0.  0.
        4    1    3    3  502    0 -0.11554356224E+03  0.26367857660E+03  0.11197023804E+04  0.11561192586E+04  0.12699999809E+01 0.  1.
       -4    1    3    3    0  502  0.11554356224E+03 -0.26367857660E+03  0.63697430877E+03  0.69900972058E+03  0.12699999809E+01 0. -1.
</event>
<event>
 5   0  0.2092587E-02  0.5986225E+03  0.7818609E-02  0.9908268E-01
        2   -1    0    0  501    0  0.00000000000E+00  0.00000000000E+00  0.22575515597E+03  0.22575515599E+03  0.25500000920E-02 0. -1.
       -2   -1    0    0    0  501  0.00000000000E+00  0.00000000000E+00 -0.39683354590E+03  0.39683354591E+03  0.25500000920E-02 0.  1.
    10030    2    1    2    0    0  0.00000000000E+00  0.00000000000E+00 -0.17107838993E+03  0.62258870190E+03  0.59862248223E+03 0.  0.
        3    1    3    3  502    0 -0.11359070542E+03 -0.11873913294E+03 -0.34572563229E+03  0.38278982885E+03  0.10100000352E+00 0.  1.
       -3    1    3    3    0  502  0.11359070542E+03  0.11873913294E+03  0.17464724236E+03  0.23979887305E+03  0.10100000352E+00 0. -1.
</event>
<event>
 5   0  0.1276705E-02  0.5986310E+03  0.7818609E-02  0.9908250E-01
        1   -1    0    0  501    0  0.00000000000E+00  0.00000000000E+00  0.21250361424E+03  0.21250361430E+03  0.50400001928E-02 0.  1.
       -1   -1    0    0    0  501  0.00000000000E+00  0.00000000000E+00 -0.42159172020E+03  0.42159172023E+03  0.50400001928E-02 0. -1.
    10030    2    1    2    0    0  0.00000000000E+00  0.00000000000E+00 -0.20908810596E+03  0.63409533453E+03  0.59863098585E+03 0.  0.
        1    1    3    3  502    0  0.18734259018E+03  0.42612377352E+02  0.13856697492E+03  0.23688365786E+03  0.50400001928E-02 0.  1.
       -1    1    3    3    0  502 -0.18734259018E+03 -0.42612377352E+02 -0.34765508088E+03  0.39721167667E+03  0.50400001928E-02 0. -1.
</event>
<event>
 5   0  0.1276705E-02  0.5947265E+03  0.7818609E-02  0.9916408E-01
       -1   -1    0    0    0  501  0.00000000000E+00  0.00000000000E+00  0.27289752551E+03  0.27289752556E+03  0.50400001928E-02 0. -1.
        1   -1    0    0  501    0  0.00000000000E+00  0.00000000000E+00 -0.32402238543E+03  0.32402238547E+03  0.50400001928E-02 0.  1.
    10030    2    1    2    0    0  0.00000000000E+00  0.00000000000E+00 -0.51124859918E+02  0.59691991103E+03  0.59472651604E+03 0.  0.
        1    1    3    3  502    0  0.23897171929E+03 -0.16907506850E+03 -0.78014575079E+02  0.30295236483E+03  0.50400001928E-02 0.  1.
       -1    1    3    3    0  502 -0.23897171929E+03  0.16907506850E+03  0.26889715161E+02  0.29396754619E+03  0.50400001928E-02 0. -1.
</event>
<event>
 5   0  0.1332555E-02  0.5964619E+03  0.7818609E-02  0.9912774E-01
       -1   -1    0    0    0  501  0.00000000000E+00  0.00000000000E+00  0.12522304598E+03  0.12522304608E+03  0.50400001928E-02 0. -1.
        1   -1    0    0  501    0  0.00000000000E+00  0.00000000000E+00 -0.71026621358E+03  0.71026621360E+03  0.50400001928E-02 0.  1.
    10030    2    1    2    0    0  0.00000000000E+00  0.00000000000E+00 -0.58504316760E+03  0.83548925968E+03  0.59646189742E+03 0.  0.
        2    1    3    3  502    0 -0.13526120030E+03 -0.26059628005E+03 -0.21925748155E+03  0.36644216011E+03  0.25500000920E-02 0. -1.
       -2    1    3    3    0  502  0.13526120030E+03  0.26059628005E+03 -0.36578568605E+03  0.46904709956E+03  0.25500000920E-02 0.  1.
</event>
<event>
 5   0  0.1332555E-02  0.6024246E+03  0.7818609E-02  0.9900389E-01
        1   -1    0    0  501    0  0.00000000000E+00  0.00000000000E+00  0.88626673040E+03  0.88626673042E+03  0.50400001928E-02 0. -1.
       -1   -1    0    0    0  501  0.00000000000E+00  0.00000000000E+00 -0.10237194613E+03  0.10237194626E+03  0.50400001928E-02 0.  1.
    10030    2    1    2    0    0  0.00000000000E+00  0.00000000000E+00  0.78389478427E+03  0.98863867667E+03  0.60242460127E+03 0.  0.
        2    1    3    3  502    0  0.28046681374E+03  0.62080258251E+01  0.57193550626E+03  0.63703249251E+03  0.25500000920E-02 0. -1.
       -2    1    3    3    0  502 -0.28046681374E+03 -0.62080258251E+01  0.21195927801E+03  0.35160618416E+03  0.25500000920E-02 0.  1.
</event>
<event>
 5   0  0.2126207E-02  0.6062680E+03  0.7818609E-02  0.9892487E-01
       -2   -1    0    0    0  501  0.00000000000E+00  0.00000000000E+00  0.33366829950E+03  0.33366829951E+03  0.25500000920E-02 0.  1.
        2   -1    0    0  501    0  0.00000000000E+00  0.00000000000E+00 -0.27539396161E+03  0.27539396162E+03  0.25500000920E-02 0. -1.
    10030    2    1    2    0    0  0.00000000000E+00  0.00000000000E+00  0.58274337890E+02  0.60906226112E+03  0.60626804259E+03 0.  0.
        5    1    3    3  502    0  0.20791319394E+03 -0.80315074999E+02  0.23548524551E+03  0.32427426407E+03  0.46999998093E+01 0.  1.
       -5    1    3    3    0  502 -0.20791319394E+03  0.80315074999E+02 -0.17721090762E+03  0.28478799705E+03  0.46999998093E+01 0. -1.
</event>
<event>
 5   0  0.1337051E-02  0.6001506E+03  0.7818609E-02  0.9905094E-01
        1   -1    0    0  501    0  0.00000000000E+00  0.00000000000E+00  0.10705789818E+04  0.10705789818E+04  0.50400001928E-02 0.  1.
       -1   -1    0    0    0  501  0.00000000000E+00  0.00000000000E+00 -0.84108855704E+02  0.84108855855E+02  0.50400001928E-02 0. -1.
    10030    2    1    2    0    0  0.00000000000E+00  0.00000000000E+00  0.98647012613E+03  0.11546878377E+04  0.60015055844E+03 0.  0.
        5    1    3    3  502    0  0.25718515073E+03  0.15303454143E+03  0.53446926544E+03  0.61257102309E+03  0.46999998093E+01 0.  1.
       -5    1    3    3    0  502 -0.25718515073E+03 -0.15303454143E+03  0.45200086069E+03  0.54211681462E+03  0.46999998093E+01 0. -1.
</event>
<event>
 5   0  0.1250390E-02  0.5966481E+03  0.7818609E-02  0.9912385E-01
       -1   -1    0    0    0  501  0.00000000000E+00  0.00000000000E+00  0.49441714505E+03  0.49441714508E+03  0.50400001928E-02 0. -1.
        1   -1    0    0  501    0  0.00000000000E+00  0.00000000000E+00 -0.18000432528E+03  0.18000432535E+03  0.50400001928E-02 0.  1.
    10030    2    1    2    0    0  0.00000000000E+00  0.00000000000E+00  0.31441281978E+03  0.67442147042E+03  0.59664805248E+03 0.  0.
        3    1    3    3  502    0  0.13377147674E+03 -0.61936033601E+02  0.45037135626E+03  0.47388315964E+03  0.10100000352E+00 0. -1.
       -3    1    3    3    0  502 -0.13377147674E+03  0.61936033601E+02 -0.13595853649E+03  0.20053831078E+03  0.10100000352E+00 0.  1.
</event>
<event>
 5   0  0.1250390E-02  0.5994324E+03  0.7818609E-02  0.9906584E-01
        1   -1    0    0  501    0  0.00000000000E+00  0.00000000000E+00  0.40262667047E+03  0.40262667050E+03  0.50400001928E-02 0.  1.
       -1   -1    0    0    0  501  0.00000000000E+00  0.00000000000E+00 -0.22310942618E+03  0.22310942624E+03  0.50400001928E-02 0. -1.
    10030    2    1    2    0    0  0.00000000000E+00  0.00000000000E+00  0.17951724429E+03  0.62573609673E+03  0.59943241634E+03 0.  0.
        3    1    3    3  502    0  0.12147728512E+03 -0.21038483456E+03 -0.93475307238E+02  0.26030012039E+03  0.10100000352E+00 0. -1.
       -3    1    3    3    0  502 -0.12147728512E+03  0.21038483456E+03  0.27299255153E+03  0.36543597634E+03  0.10100000352E+00 0.  1.
</event>
<event>
 5   0  0.1303808E-02  0.6007015E+03  0.7818609E-02  0.9903952E-01
       -1   -1    0    0    0  501  0.00000000000E+00  0.00000000000E+00  0.11262935390E+03  0.11262935402E+03  0.50400001928E-02 0. -1.
        1   -1    0    0  501    0  0.00000000000E+00  0.00000000000E+00 -0.80095080663E+03  0.80095080664E+03  0.50400001928E-02 0.  1.
    10030    2    1    2    0    0  0.00000000000E+00  0.00000000000E+00 -0.68832145272E+03  0.91358016066E+03  0.60070149631E+03 0.  0.
        4    1    3    3  502    0  0.25354883739E+03 -0.90818043244E+02 -0.14197256220E+03  0.30445484269E+03  0.12699999809E+01 0. -1.
       -4    1    3    3    0  502 -0.25354883739E+03  0.90818043244E+02 -0.54634889053E+03  0.60912531797E+03  0.12699999809E+01 0.  1.
</event>
<event>
 5   0  0.2141800E-02  0.5986627E+03  0.7818609E-02  0.9908184E-01
        2   -1    0    0  501    0  0.00000000000E+00  0.00000000000E+00  0.48083436962E+03  0.48083436963E+03  0.25500000920E-02 0.  1.
       -2   -1    0    0    0  501  0.00000000000E+00  0.00000000000E+00 -0.18634119819E+03  0.18634119821E+03  0.25500000920E-02 0. -1.
    10030    2    1    2    0    0  0.00000000000E+00  0.00000000000E+00  0.29449317143E+03  0.66717556784E+03  0.59866268491E+03 0.  0.
        2    1    3    3  502    0 -0.12118061749E+03 -0.78653259719E+02 -0.14491650594E+03  0.20462617384E+03  0.25500000920E-02 0. -1.
       -2    1    3    3    0  502  0.12118061749E+03  0.78653259719E+02  0.43940967737E+03  0.46254939400E+03  0.25500000920E-02 0.  1.
</event>
<event>
 5   0  0.2179625E-02  0.5947808E+03  0.7818609E-02  0.9916294E-01
        2   -1    0    0  501    0  0.00000000000E+00  0.00000000000E+00  0.66895323139E+03  0.66895323139E+03  0.25500000920E-02 0. -1.
       -2   -1    0    0    0  501  0.00000000000E+00  0.00000000000E+00 -0.13220813680E+03  0.13220813682E+03  0.25500000920E-02 0.  1.
    10030    2    1    2    0    0  0.00000000000E+00  0.00000000000E+00  0.53674509459E+03  0.80116136822E+03  0.59478083473E+03 0.  0.
        1    1    3    3  502    0  0.14712367185E+01  0.23574161325E+03  0.51256286964E+03  0.56417813509E+03  0.50400001928E-02 0. -1.
       -1    1    3    3    0  502 -0.14712367185E+01 -0.23574161325E+03  0.24182224944E+02  0.23698323312E+03  0.50400001928E-02 0.  1.
</event>
<event>
 5   0  0.1337051E-02  0.5989775E+03  0.7818609E-02  0.9907530E-01
       -1   -1    0    0    0  501  0.00000000000E+00  0.00000000000E+00  0.12953730659E+03  0.12953730669E+03  0.50400001928E-02 0.  1.
        1   -1    0    0  501    0  0.00000000000E+00  0.00000000000E+00 -0.69241460803E+03  0.69241460805E+03  0.50400001928E-02 0. -1.
    10030    2    1    2    0    0  0.00000000000E+00  0.00000000000E+00 -0.56287730144E+03  0.82195191474E+03  0.59897754021E+03 0.  0.
        5    1    3    3  502    0 -0.74265070809E+02 -0.38274717017E+02  0.11316896693E+03  0.14074643789E+03  0.46999998093E+01 0.  1.
       -5    1    3    3    0  502  0.74265070809E+02  0.38274717017E+02 -0.67604626838E+03  0.68120547685E+03  0.46999998093E+01 0. -1.
</event>
<event>
 5   0  0.1332555E-02  0.6005059E+03  0.7818609E-02  0.9904357E-01
        1   -1    0    0  501    0  0.00000000000E+00  0.00000000000E+00  0.32248513482E+03  0.32248513486E+03  0.50400001928E-02 0. -1.
       -1   -1    0    0    0  501  0.00000000000E+00  0.00000000000E+00 -0.27955343323E+03  0.27955343327E+03  0.50400001928E-02 0.  1.
    10030    2    1    2    0    0  0.00000000000E+00  0.00000000000E+00  0.42931701598E+02  0.60203856813E+03  0.60050587551E+03 0.  0.
        2    1    3    3  502    0 -0.10081488254E+03 -0.28280915771E+03  0.18782005872E+02  0.30082789761E+03  0.25500000920E-02 0.  1.
       -2    1    3    3    0  502  0.10081488254E+03  0.28280915771E+03  0.24149695726E+02  0.30121067053E+03  0.25500000920E-02 0. -1.
</event>
<event>
 5   0  0.1250390E-02  0.6003125E+03  0.7818609E-02  0.9904758E-01
       -1   -1    0    0    0  501  0.00000000000E+00  0.00000000000E+00  0.44841244986E+03  0.44841244989E+03  0.50400001928E-02 0. -1.
        1   -1    0    0  501    0  0.00000000000E+00  0.00000000000E+00 -0.20091719754E+03  0.20091719760E+03  0.50400001928E-02 0.  1.
    10030    2    1    2    0    0  0.00000000000E+00  0.00000000000E+00  0.24749525232E+03  0.64932964748E+03  0.60031249461E+03 0.  0.
        3    1    3    3  502    0 -0.31126848125E+01 -0.10571955233E+03  0.42758896040E+03  0.44047547242E+03  0.10100000352E+00 0. -1.
       -3    1    3    3    0  502  0.31126848125E+01  0.10571955233E+03 -0.18009370808E+03  0.20885417506E+03  0.10100000352E+00 0.  1.
</event>
<event>
 5   0  0.2141800E-02  0.6008556E+03  0.7818609E-02  0.9903632E-01
       -2   -1    0    0    0  501  0.00000000000E+00  0.00000000000E+00  0.18795702544E+03  0.18795702546E+03  0.25500000920E-02 0. -1.
        2   -1    0    0  501    0  0.00000000000E+00  0.00000000000E+00 -0.48019953277E+03  0.48019953277E+03  0.25500000920E-02 0.  1.
    10030    2    1    2    0    0  0.00000000000E+00  0.00000000000E+00 -0.29224250733E+03  0.66815655823E+03  0.60085564258E+03 0.  0.
        2    1    3    3  502    0 -0.26933466225E+03  0.48373393269E+02 -0.82334137032E+01  0.27376803059E+03  0.25500000920E-02 0. -1.
       -2    1    3    3    0  502  0.26933466225E+03 -0.48373393269E+02 -0.28400909363E+03  0.39438852764E+03  0.25500000920E-02 0.  1.
</event>
<event>
 5   0  0.2179625E-02  0.6003450E+03  0.7818609E-02  0.9904690E-01
       -2   -1    0    0    0  501  0.00000000000E+00  0.00000000000E+00  0.31526314411E+03  0.31526314412E+03  0.25500000920E-02 0. -1.
        2   -1    0    0  501    0  0.00000000000E+00  0.00000000000E+00 -0.28580423113E+03  0.28580423114E+03  0.25500000920E-02 0.  1.
    10030    2    1    2    0    0  0.00000000000E+00  0.00000000000E+00  0.29458912983E+02  0.60106737526E+03  0.60034503584E+03 0.  0.
        1    1    3    3  502    0 -0.24663922058E+03  0.73580932377E+01 -0.15641039253E+03  0.29214595253E+03  0.50400001928E-02 0.  1.
       -1    1    3    3    0  502  0.24663922058E+03 -0.73580932377E+01  0.18586930551E+03  0.30892142273E+03  0.50400001928E-02 0. -1.
</event>
<event>
 5   0  0.1276705E-02  0.5947818E+03  0.7818609E-02  0.9916292E-01
       -1   -1    0    0    0  501  0.00000000000E+00  0.00000000000E+00  0.32870899070E+03  0.32870899074E+03  0.50400001928E-02 0. -1.
        1   -1    0    0  501    0  0.00000000000E+00  0.00000000000E+00 -0.26905670878E+03  0.26905670883E+03  0.50400001928E-02 0.  1.
    10030    2    1    2    0    0  0.00000000000E+00  0.00000000000E+00  0.59652281923E+02  0.59776569956E+03  0.59478183970E+03 0.  0.
        1    1    3    3  502    0 -0.20625737824E+03 -0.18031392690E+03  0.14610506027E+03  0.31048656489E+03  0.50400001928E-02 0. -1.
       -1    1    3    3    0  502  0.20625737824E+03  0.18031392690E+03 -0.86452778347E+02  0.28727913468E+03  0.50400001928E-02 0.  1.
</event>
<event>
 5   0  0.2141800E-02  0.5998969E+03  0.7818609E-02  0.9905620E-01
       -2   -1    0    0    0  501  0.00000000000E+00  0.00000000000E+00  0.10576969189E+03  0.10576969192E+03  0.25500000920E-02 0.  1.
        2   -1    0    0  501    0  0.00000000000E+00  0.00000000000E+00 -0.85061290083E+03  0.85061290084E+03  0.25500000920E-02 0. -1.
    10030    2    1    2    0    0  0.00000000000E+00  0.00000000000E+00 -0.74484320895E+03  0.95638259275E+03  0.59989687264E+03 0.  0.
        2    1    3    3  502    0  0.21594852770E+03  0.14551241468E+03 -0.60975235042E+03  0.66302756978E+03  0.25500000920E-02 0. -1.
       -2    1    3    3    0  502 -0.21594852770E+03 -0.14551241468E+03 -0.13509085853E+03  0.29335502297E+03  0.25500000920E-02 0.  1.
</event>
<event>
 5   0  0.1332555E-02  0.6034146E+03  0.7818609E-02  0.9898347E-01
        1   -1    0    0  501    0  0.00000000000E+00  0.00000000000E+00  0.41346297560E+03  0.41346297563E+03  0.50400001928E-02 0. -1.
       -1   -1    0    0    0  501  0.00000000000E+00  0.00000000000E+00 -0.22015830648E+03  0.22015830654E+03  0.50400001928E-02 0.  1.
    10030    2    1    2    0    0  0.00000000000E+00  0.00000000000E+00  0.19330466911E+03  0.63362128217E+03  0.60341464526E+03 0.  0.
        2    1    3    3  502    0  0.18913306575E+03 -0.22070356427E+03  0.11695261038E+02  0.29089200570E+03  0.25500000920E-02 0. -1.
       -2    1    3    3    0  502 -0.18913306575E+03  0.22070356427E+03  0.18160940808E+03  0.34272927647E+03  0.25500000920E-02 0.  1.
</event>
<event>
 5   0  0.8551000E-03  0.6004112E+03  0.7818609E-02  0.9904553E-01
       -3   -1    0    0    0  501  0.00000000000E+00  0.00000000000E+00  0.60238001065E+03  0.60238001912E+03  0.10100000352E+00 0. -1.
        3   -1    0    0  501    0  0.00000000000E+00  0.00000000000E+00 -0.14961219454E+03  0.14961222864E+03  0.10100000352E+00 0.  1.
    10030    2    1    2    0    0  0.00000000000E+00  0.00000000000E+00  0.45276781611E+03  0.75199224776E+03  0.60041123023E+03 0.  0.
        4    1    3    3  502    0  0.76022636476E+02 -0.26885488468E+03  0.88844372285E+02  0.29318479780E+03  0.12699999809E+01 0.  1.
       -4    1    3    3    0  502 -0.76022636476E+02  0.26885488468E+03  0.36392344382E+03  0.45880744996E+03  0.12699999809E+01 0. -1.
</event>
<event>
 5   0  0.1250390E-02  0.6003621E+03  0.7818609E-02  0.9904655E-01
       -1   -1    0    0    0  501  0.00000000000E+00  0.00000000000E+00  0.33789253315E+03  0.33789253319E+03  0.50400001928E-02 0. -1.
        1   -1    0    0  501    0  0.00000000000E+00  0.00000000000E+00 -0.26667850893E+03  0.26667850898E+03  0.50400001928E-02 0.  1.
    10030    2    1    2    0    0  0.00000000000E+00  0.00000000000E+00  0.71214024223E+02  0.60457104217E+03  0.60036214719E+03 0.  0.
        3    1    3    3  502    0 -0.28630567979E+03  0.62326357812E+02  0.10128039202E+03  0.31002136243E+03  0.10100000352E+00 0. -1.
       -3    1    3    3    0  502  0.28630567979E+03 -0.62326357812E+02 -0.30066367798E+02  0.29454967973E+03  0.10100000352E+00 0.  1.
</event>
<event>
 5   0  0.2126207E-02  0.5768550E+03  0.7818609E-02  0.9954623E-01
        2   -1    0    0  501    0  0.00000000000E+00  0.00000000000E+00  0.15833043254E+03  0.15833043256E+03  0.25500000920E-02 0.  1.
       -2   -1    0    0    0  501  0.00000000000E+00  0.00000000000E+00 -0.52542273869E+03  0.52542273869E+03  0.25500000920E-02 0. -1.
    10030    2    1    2    0    0  0.00000000000E+00  0.00000000000E+00 -0.36709230614E+03  0.68375317126E+03  0.57685495401E+03 0.  0.
        5    1    3    3  502    0  0.15297128115E+03 -0.15344263067E+03  0.42047941463E+02  0.22075998991E+03  0.46999998093E+01 0.  1.
       -5    1    3    3    0  502 -0.15297128115E+03  0.15344263067E+03 -0.40914024761E+03  0.46299318135E+03  0.46999998093E+01 0. -1.
</event>
<event>
 5   0  0.2141800E-02  0.5998587E+03  0.7818609E-02  0.9905699E-01
        2   -1    0    0  501    0  0.00000000000E+00  0.00000000000E+00  0.14188644245E+04  0.14188644245E+04  0.25500000920E-02 0. -1.
       -2   -1    0    0    0  501  0.00000000000E+00  0.00000000000E+00 -0.63401138284E+02  0.63401138336E+02  0.25500000920E-02 0.  1.
    10030    2    1    2    0    0  0.00000000000E+00  0.00000000000E+00  0.13554632862E+04  0.14822655628E+04  0.59985871544E+03 0.  0.
        2    1    3    3  502    0 -0.17425668140E+03 -0.45234263610E+02  0.84963362830E+02  0.19907361112E+03  0.25500000920E-02 0.  1.
       -2    1    3    3    0  502  0.17425668140E+03  0.45234263610E+02  0.12704999234E+04  0.12831919517E+04  0.25500000920E-02 0. -1.
</event>
<event>
 5   0  0.1337051E-02  0.6287186E+03  0.7818609E-02  0.9847553E-01
       -1   -1    0    0    0  501  0.00000000000E+00  0.00000000000E+00  0.17177368088E+03  0.17177368096E+03  0.50400001928E-02 0. -1.
        1   -1    0    0  501    0  0.00000000000E+00  0.00000000000E+00 -0.57530213228E+03  0.57530213230E+03  0.50400001928E-02 0.  1.
    10030    2    1    2    0    0  0.00000000000E+00  0.00000000000E+00 -0.40352845140E+03  0.74707581326E+03  0.62871858543E+03 0.  0.
        5    1    3    3  502    0  0.57177336836E+02 -0.72299809419E+02 -0.55883956926E+03  0.56640997913E+03  0.46999998093E+01 0.  1.
       -5    1    3    3    0  502 -0.57177336836E+02  0.72299809419E+02  0.15531111786E+03  0.18066583412E+03  0.46999998093E+01 0. -1.
</event>
<event>
 5   0  0.8551000E-03  0.6005876E+03  0.7818609E-02  0.9904188E-01
       -3   -1    0    0    0  501  0.00000000000E+00  0.00000000000E+00  0.30830054006E+03  0.30830055660E+03  0.10100000352E+00 0.  1.
        3   -1    0    0  501    0  0.00000000000E+00  0.00000000000E+00 -0.29249498754E+03  0.29249500497E+03  0.10100000352E+00 0. -1.
    10030    2    1    2    0    0  0.00000000000E+00  0.00000000000E+00  0.15805552520E+02  0.60079556157E+03  0.60058762168E+03 0.  0.
        5    1    3    3  502    0 -0.53033937383E+02 -0.20291222077E+03 -0.20703975091E+03  0.29474313615E+03  0.46999998093E+01 0. -1.
       -5    1    3    3    0  502  0.53033937383E+02  0.20291222077E+03  0.22284530343E+03  0.30605242543E+03  0.46999998093E+01 0.  1.
</event>
<event>
 5   0  0.1337051E-02  0.5961957E+03  0.7818609E-02  0.9913330E-01
       -1   -1    0    0    0  501  0.00000000000E+00  0.00000000000E+00  0.58508474638E+02  0.58508474855E+02  0.50400001928E-02 0. -1.
        1   -1    0    0  501    0  0.00000000000E+00  0.00000000000E+00 -0.15187940095E+04  0.15187940095E+04  0.50400001928E-02 0.  1.
    10030    2    1    2    0    0  0.00000000000E+00  0.00000000000E+00 -0.14602855348E+04  0.15773024843E+04  0.59619567580E+03 0.  0.
        5    1    3    3  502    0 -0.10900606624E+03 -0.18473775242E+03 -0.12776622158E+04  0.12955513063E+04  0.46999998093E+01 0.  1.
       -5    1    3    3    0  502  0.10900606624E+03  0.18473775242E+03 -0.18262331900E+03  0.28175117797E+03  0.46999998093E+01 0. -1.
</event>
<event>
 5   0  0.1332555E-02  0.6002865E+03  0.7818609E-02  0.9904812E-01
        1   -1    0    0  501    0  0.00000000000E+00  0.00000000000E+00  0.13764080695E+04  0.13764080695E+04  0.50400001928E-02 0.  1.
       -1   -1    0    0    0  501  0.00000000000E+00  0.00000000000E+00 -0.65450043144E+02  0.65450043338E+02  0.50400001928E-02 0. -1.
    10030    2    1    2    0    0  0.00000000000E+00  0.00000000000E+00  0.13109580263E+04  0.14418581128E+04  0.60028649053E+03 0.  0.
        2    1    3    3  502    0  0.16644840050E+03 -0.24675511096E+03  0.56267502518E+03  0.63655034269E+03  0.25500000920E-02 0. -1.
       -2    1    3    3    0  502 -0.16644840050E+03  0.24675511096E+03  0.74828300115E+03  0.80530777013E+03  0.25500000920E-02 0.  1.
</event>
<event>
 5   0  0.1276705E-02  0.6008996E+03  0.7818609E-02  0.9903541E-01
       -1   -1    0    0    0  501  0.00000000000E+00  0.00000000000E+00  0.98828845860E+02  0.98828845989E+02  0.50400001928E-02 0. -1.
        1   -1    0    0  501    0  0.00000000000E+00  0.00000000000E+00 -0.91339808056E+03  0.91339808057E+03  0.50400001928E-02 0.  1.
    10030    2    1    2    0    0  0.00000000000E+00  0.00000000000E+00 -0.81456923470E+03  0.10122269266E+04  0.60089958623E+03 0.  0.
        1    1    3    3  502    0  0.21524676547E+03 -0.67265680130E+02 -0.74171254637E+03  0.77523760437E+03  0.50400001928E-02 0.  1.
       -1    1    3    3    0  502 -0.21524676547E+03  0.67265680130E+02 -0.72856688329E+02  0.23698932219E+03  0.50400001928E-02 0. -1.
</event>
<event>
 5   0  0.2141800E-02  0.5987033E+03  0.7818609E-02  0.9908100E-01
        2   -1    0    0  501    0  0.00000000000E+00  0.00000000000E+00  0.84118164635E+03  0.84118164636E+03  0.25500000920E-02 0.  1.
       -2   -1    0    0    0  501  0.00000000000E+00  0.00000000000E+00 -0.10653040798E+03  0.10653040801E+03  0.25500000920E-02 0. -1.
    10030    2    1    2    0    0  0.00000000000E+00  0.00000000000E+00  0.73465123837E+03  0.94771205436E+03  0.59870334552E+03 0.  0.
        2    1    3    3  502    0  0.20315877079E+03 -0.17912022692E+03  0.16551534485E+03  0.31741592781E+03  0.25500000920E-02 0. -1.
       -2    1    3    3    0  502 -0.20315877079E+03  0.17912022692E+03  0.56913589353E+03  0.63029612656E+03  0.25500000920E-02 0.  1.
</event>
<event>
 5   0  0.1276705E-02  0.5978973E+03  0.7818609E-02  0.9909778E-01
       -1   -1    0    0    0  501  0.00000000000E+00  0.00000000000E+00  0.65246908072E+03  0.65246908074E+03  0.50400001928E-02 0. -1.
        1   -1    0    0  501    0  0.00000000000E+00  0.00000000000E+00 -0.13697247241E+03  0.13697247251E+03  0.50400001928E-02 0.  1.
    10030    2    1    2    0    0  0.00000000000E+00  0.00000000000E+00  0.51549660831E+03  0.78944155325E+03  0.59789732632E+03 0.  0.
        1    1    3    3  502    0 -0.27305430287E+02  0.89199719999E+02  0.63275960614E+03  0.63959901170E+03  0.50400001928E-02 0. -1.
       -1    1    3    3    0  502  0.27305430287E+02 -0.89199719999E+02 -0.11726299784E+03  0.14984254155E+03  0.50400001928E-02 0.  1.
</event>
<event>
 5   0  0.8551000E-03  0.5967327E+03  0.7818609E-02  0.9912208E-01
        3   -1    0    0  501    0  0.00000000000E+00  0.00000000000E+00  0.86851874798E+03  0.86851875385E+03  0.10100000352E+00 0. -1.
       -3   -1    0    0    0  501  0.00000000000E+00  0.00000000000E+00 -0.10249916676E+03  0.10249921653E+03  0.10100000352E+00 0.  1.
    10030    2    1    2    0    0  0.00000000000E+00  0.00000000000E+00  0.76601958121E+03  0.97101797037E+03  0.59673268721E+03 0.  0.
        1    1    3    3  502    0 -0.18031376154E+03 -0.34737385875E+02  0.34302119842E+00  0.18362967153E+03  0.50400001928E-02 0.  1.
       -1    1    3    3    0  502  0.18031376154E+03  0.34737385875E+02  0.76567656001E+03  0.78738829884E+03  0.50400001928E-02 0. -1.
</event>
<event>
 5   0  0.2126207E-02  0.5993528E+03  0.7818609E-02  0.9906750E-01
       -2   -1    0    0    0  501  0.00000000000E+00  0.00000000000E+00  0.43640337165E+02  0.43640337240E+02  0.25500000920E-02 0.  1.
        2   -1    0    0  501    0  0.00000000000E+00  0.00000000000E+00 -0.20578656302E+04  0.20578656302E+04  0.25500000920E-02 0. -1.
    10030    2    1    2    0    0  0.00000000000E+00  0.00000000000E+00 -0.20142252930E+04  0.21015059674E+04  0.59935281770E+03 0.  0.
        5    1    3    3  502    0  0.15270669851E+03 -0.97546061070E+02 -0.18438559281E+04  0.18527442737E+04  0.46999998093E+01 0. -1.
       -5    1    3    3    0  502 -0.15270669851E+03  0.97546061070E+02 -0.17036936485E+03  0.24876169375E+03  0.46999998093E+01 0.  1.
</event>
<event>
 5   0  0.1250390E-02  0.6002191E+03  0.7818609E-02  0.9904952E-01
       -1   -1    0    0    0  501  0.00000000000E+00  0.00000000000E+00  0.12499266637E+03  0.12499266647E+03  0.50400001928E-02 0. -1.
        1   -1    0    0  501    0  0.00000000000E+00  0.00000000000E+00 -0.72056811005E+03  0.72056811007E+03  0.50400001928E-02 0.  1.
    10030    2    1    2    0    0  0.00000000000E+00  0.00000000000E+00 -0.59557544368E+03  0.84556077654E+03  0.60021905810E+03 0.  0.
        3    1    3    3  502    0 -0.78311529107E+02  0.86167102766E+02 -0.68745074313E+03  0.69724170818E+03  0.10100000352E+00 0.  1.
       -3    1    3    3    0  502  0.78311529107E+02 -0.86167102766E+02  0.91875299448E+02  0.14831906836E+03  0.10100000352E+00 0. -1.
</event>
<event>
 5   0  0.1337051E-02  0.5981491E+03  0.7818609E-02  0.9909254E-01
        1   -1    0    0  501    0  0.00000000000E+00  0.00000000000E+00  0.20873307827E+03  0.20873307833E+03  0.50400001928E-02 0.  1.
       -1   -1    0    0    0  501  0.00000000000E+00  0.00000000000E+00 -0.42851657512E+03  0.42851657515E+03  0.50400001928E-02 0. -1.
    10030    2    1    2    0    0  0.00000000000E+00  0.00000000000E+00 -0.21978349685E+03  0.63724965348E+03  0.59814909126E+03 0.  0.
        5    1    3    3  502    0 -0.11708156271E+03 -0.81973759949E+02  0.16994915006E+03  0.22210941729E+03  0.46999998093E+01 0.  1.
       -5    1    3    3    0  502  0.11708156271E+03  0.81973759949E+02 -0.38973264690E+03  0.41514023619E+03  0.46999998093E+01 0. -1.
</event>
<event>
 5   0  0.1337051E-02  0.6024122E+03  0.7818609E-02  0.9900414E-01
       -1   -1    0    0    0  501  0.00000000000E+00  0.00000000000E+00  0.26771329547E+03  0.26771329552E+03  0.50400001928E-02 0. -1.
        1   -1    0    0  501    0  0.00000000000E+00  0.00000000000E+00 -0.33888906130E+03  0.33888906133E+03  0.50400001928E-02 0.  1.
    10030    2    1    2    0    0  0.00000000000E+00  0.00000000000E+00 -0.71175765829E+02  0.60660235685E+03  0.60241217592E+03 0.  0.
        5    1    3    3  502    0 -0.77212623250E+02 -0.27557896912E+03 -0.13003506459E+03  0.31438315068E+03  0.46999998093E+01 0.  1.
       -5    1    3    3    0  502  0.77212623250E+02  0.27557896912E+03  0.58859298762E+02  0.29221920617E+03  0.46999998093E+01 0. -1.
</event>
<event>
 5   0  0.2141800E-02  0.6033049E+03  0.7818609E-02  0.9898573E-01
       -2   -1    0    0    0  501  0.00000000000E+00  0.00000000000E+00  0.32216316074E+03  0.32216316075E+03  0.25500000920E-02 0.  1.
        2   -1    0    0  501    0  0.00000000000E+00  0.00000000000E+00 -0.28244757717E+03  0.28244757718E+03  0.25500000920E-02 0. -1.
    10030    2    1    2    0    0  0.00000000000E+00  0.00000000000E+00  0.39715583569E+02  0.60461073793E+03  0.60330491200E+03 0.  0.
        2    1    3    3  502    0 -0.28190483752E+03 -0.30083732439E+02 -0.83412986024E+02  0.29552173290E+03  0.25500000920E-02 0. -1.
       -2    1    3    3    0  502  0.28190483752E+03  0.30083732439E+02  0.12312856959E+03  0.30908900503E+03  0.25500000920E-02 0.  1.
</event>
<event>
 5   0  0.1337051E-02  0.6151722E+03  0.7818609E-02  0.9874419E-01
        1   -1    0    0  501    0  0.00000000000E+00  0.00000000000E+00  0.10171639709E+04  0.10171639709E+04  0.50400001928E-02 0.  1.
       -1   -1    0    0    0  501  0.00000000000E+00  0.00000000000E+00 -0.93012751182E+02  0.93012751319E+02  0.50400001928E-02 0. -1.
    10030    2    1    2    0    0  0.00000000000E+00  0.00000000000E+00  0.92415121969E+03  0.11101767222E+04  0.61517223415E+03 0.  0.
        5    1    3    3  502    0 -0.94778248129E+02  0.26584466883E+03  0.24156103640E+03  0.37152406189E+03  0.46999998093E+01 0. -1.
       -5    1    3    3    0  502  0.94778248129E+02 -0.26584466883E+03  0.68259018329E+03  0.73865266031E+03  0.46999998093E+01 0.  1.
</event>
<event>
 5   0  0.1276705E-02  0.5998261E+03  0.7818609E-02  0.9905767E-01
        1   -1    0    0  501    0  0.00000000000E+00  0.00000000000E+00  0.73153915904E+03  0.73153915905E+03  0.50400001928E-02 0.  1.
       -1   -1    0    0    0  501  0.00000000000E+00  0.00000000000E+00 -0.12295695874E+03  0.12295695885E+03  0.50400001928E-02 0. -1.
    10030    2    1    2    0    0  0.00000000000E+00  0.00000000000E+00  0.60858220029E+03  0.85449611790E+03  0.59982607562E+03 0.  0.
        1    1    3    3  502    0 -0.21361343974E+03 -0.18264511949E+01  0.44064661484E+01  0.21366669027E+03  0.50400001928E-02 0. -1.
       -1    1    3    3    0  502  0.21361343974E+03  0.18264511949E+01  0.60417573415E+03  0.64082942763E+03  0.50400001928E-02 0.  1.
</event>
<event>
 5   0  0.2141800E-02  0.6002174E+03  0.7818609E-02  0.9904955E-01
        2   -1    0    0  501    0  0.00000000000E+00  0.00000000000E+00  0.52450620170E+03  0.52450620170E+03  0.25500000920E-02 0.  1.
       -2   -1    0    0    0  501  0.00000000000E+00  0.00000000000E+00 -0.17171435885E+03  0.17171435887E+03  0.25500000920E-02 0. -1.
    10030    2    1    2    0    0  0.00000000000E+00  0.00000000000E+00  0.35279184284E+03  0.69622056057E+03  0.60021744775E+03 0.  0.
        2    1    3    3  502    0  0.19975112340E+03  0.21691817534E+03  0.11169581591E+03  0.31532516771E+03  0.25500000920E-02 0. -1.
       -2    1    3    3    0  502 -0.19975112340E+03 -0.21691817534E+03  0.24109602694E+03  0.38089539286E+03  0.25500000920E-02 0.  1.
</event>
<event>
 5   0  0.8551000E-03  0.6115546E+03  0.7818609E-02  0.9881720E-01
       -4   -1    0    0    0  501  0.00000000000E+00  0.00000000000E+00  0.75169370929E+03  0.75169478214E+03  0.12699999809E+01 0. -1.
        4   -1    0    0  501    0  0.00000000000E+00  0.00000000000E+00 -0.12438105621E+03  0.12438753975E+03  0.12699999809E+01 0.  1.
    10030    2    1    2    0    0  0.00000000000E+00  0.00000000000E+00  0.62731265308E+03  0.87608232188E+03  0.61155463370E+03 0.  0.
        3    1    3    3  502    0  0.20085211212E+03  0.10772277608E+03  0.21634024233E+02  0.22894062250E+03  0.10100000352E+00 0.  1.
       -3    1    3    3    0  502 -0.20085211212E+03 -0.10772277608E+03  0.60567862885E+03  0.64714169938E+03  0.10100000352E+00 0. -1.
</event>
<event>
 5   0  0.1332555E-02  0.6030210E+03  0.7818609E-02  0.9899158E-01
        1   -1    0    0  501    0  0.00000000000E+00  0.00000000000E+00  0.18716792579E+03  0.18716792585E+03  0.50400001928E-02 0.  1.
       -1   -1    0    0    0  501  0.00000000000E+00  0.00000000000E+00 -0.48570604190E+03  0.48570604193E+03  0.50400001928E-02 0. -1.
    10030    2    1    2    0    0  0.00000000000E+00  0.00000000000E+00 -0.29853811611E+03  0.67287396778E+03  0.60302103590E+03 0.  0.
        2    1    3    3  502    0 -0.50315170525E+02  0.11286208757E+03  0.15761513043E+03  0.20027979564E+03  0.25500000920E-02 0.  1.
       -2    1    3    3    0  502  0.50315170525E+02 -0.11286208757E+03 -0.45615324655E+03  0.47259417214E+03  0.25500000920E-02 0. -1.
</event>
<event>
 5   0  0.1303808E-02  0.5981211E+03  0.7818609E-02  0.9909312E-01
       -1   -1    0    0    0  501  0.00000000000E+00  0.00000000000E+00  0.17808954802E+03  0.17808954809E+03  0.50400001928E-02 0. -1.
        1   -1    0    0  501    0  0.00000000000E+00  0.00000000000E+00 -0.50220358216E+03  0.50220358219E+03  0.50400001928E-02 0.  1.
    10030    2    1    2    0    0  0.00000000000E+00  0.00000000000E+00 -0.32411403414E+03  0.68029313028E+03  0.59812108806E+03 0.  0.
        4    1    3    3  502    0  0.34749782257E+02 -0.12670229175E+03  0.14350480941E+03  0.19456685567E+03  0.12699999809E+01 0. -1.
       -4    1    3    3    0  502 -0.34749782257E+02  0.12670229175E+03 -0.46761884355E+03  0.48572627461E+03  0.12699999809E+01 0.  1.
</event>
<event>
 5   0  0.1303808E-02  0.6024452E+03  0.7818609E-02  0.9900346E-01
        1   -1    0    0  501    0  0.00000000000E+00  0.00000000000E+00  0.68442171722E+03  0.68442171724E+03  0.50400001928E-02 0. -1.
       -1   -1    0    0    0  501  0.00000000000E+00  0.00000000000E+00 -0.13257185982E+03  0.13257185992E+03  0.50400001928E-02 0.  1.
    10030    2    1    2    0    0  0.00000000000E+00  0.00000000000E+00  0.55184985740E+03  0.81699357716E+03  0.60244521743E+03 0.  0.
        4    1    3    3  502    0  0.65455081769E+02 -0.23415932982E+03  0.34783612096E+02  0.24561447848E+03  0.12699999809E+01 0.  1.
       -4    1    3    3    0  502 -0.65455081769E+02  0.23415932982E+03  0.51706624530E+03  0.57137909867E+03  0.12699999809E+01 0. -1.
</event>
<event>
 5   0  0.1337051E-02  0.5989709E+03  0.7818609E-02  0.9907544E-01
        1   -1    0    0  501    0  0.00000000000E+00  0.00000000000E+00  0.99431827951E+02  0.99431828078E+02  0.50400001928E-02 0. -1.
       -1   -1    0    0    0  501  0.00000000000E+00  0.00000000000E+00 -0.90204034868E+03  0.90204034870E+03  0.50400001928E-02 0.  1.
    10030    2    1    2    0    0  0.00000000000E+00  0.00000000000E+00 -0.80260852073E+03  0.10014721768E+04  0.59897085347E+03 0.  0.
        5    1    3    3  502    0  0.63081339069E+02  0.15106184141E+03 -0.82053839876E+03  0.83672234888E+03  0.46999998093E+01 0.  1.
       -5    1    3    3    0  502 -0.63081339069E+02 -0.15106184141E+03  0.17929878030E+02  0.16474982790E+03  0.46999998093E+01 0. -1.
</event>
<event>
 5   0  0.1250390E-02  0.6007079E+03  0.7818609E-02  0.9903939E-01
        1   -1    0    0  501    0  0.00000000000E+00  0.00000000000E+00  0.27585605383E+03  0.27585605388E+03  0.50400001928E-02 0. -1.
       -1   -1    0    0    0  501  0.00000000000E+00  0.00000000000E+00 -0.32702738120E+03  0.32702738124E+03  0.50400001928E-02 0.  1.
    10030    2    1    2    0    0  0.00000000000E+00  0.00000000000E+00 -0.51171327363E+02  0.60288343512E+03  0.60070785877E+03 0.  0.
        3    1    3    3  502    0 -0.15641076765E+03 -0.13908452108E+03 -0.24178087204E+03  0.31979185813E+03  0.10100000352E+00 0.  1.
       -3    1    3    3    0  502  0.15641076765E+03  0.13908452108E+03  0.19060954467E+03  0.28309157699E+03  0.10100000352E+00 0. -1.
</event>
<event>
 5   0  0.2126207E-02  0.6008324E+03  0.7818609E-02  0.9903681E-01
        2   -1    0    0  501    0  0.00000000000E+00  0.00000000000E+00  0.85902636171E+03  0.85902636171E+03  0.25500000920E-02 0. -1.
       -2   -1    0    0    0  501  0.00000000000E+00  0.00000000000E+00 -0.10506066987E+03  0.10506066990E+03  0.25500000920E-02 0.  1.
    10030    2    1    2    0    0  0.00000000000E+00  0.00000000000E+00  0.75396569184E+03  0.96408703161E+03  0.60083237268E+03 0.  0.
        5    1    3    3  502    0  0.87747632949E+02  0.58499368312E+02  0.82828515114E+03  0.83498515243E+03  0.46999998093E+01 0. -1.
       -5    1    3    3    0  502 -0.87747632949E+02 -0.58499368312E+02 -0.74319459298E+02  0.12910187919E+03  0.46999998093E+01 0.  1.
</event>
<event>
 5   0  0.1337051E-02  0.5923046E+03  0.7818609E-02  0.9921501E-01
       -1   -1    0    0    0  501  0.00000000000E+00  0.00000000000E+00  0.99150992878E+02  0.99150993006E+02  0.50400001928E-02 0. -1.
        1   -1    0    0  501    0  0.00000000000E+00  0.00000000000E+00 -0.88457185225E+03  0.88457185227E+03  0.50400001928E-02 0.  1.
    10030    2    1    2    0    0  0.00000000000E+00  0.00000000000E+00 -0.78542085938E+03  0.98372284527E+03  0.59230457534E+03 0.  0.
        5    1    3    3  502    0  0.24309692692E+03  0.14270444184E+03 -0.54332040751E+03  0.61211096120E+03  0.46999998093E+01 0.  1.
       -5    1    3    3    0  502 -0.24309692692E+03 -0.14270444184E+03 -0.24210045186E+03  0.37161188408E+03  0.46999998093E+01 0. -1.
</event>
<event>
 5   0  0.2179625E-02  0.5955684E+03  0.7818609E-02  0.9914643E-01
        2   -1    0    0  501    0  0.00000000000E+00  0.00000000000E+00  0.61424380227E+03  0.61424380227E+03  0.25500000920E-02 0. -1.
       -2   -1    0    0    0  501  0.00000000000E+00  0.00000000000E+00 -0.14436518802E+03  0.14436518804E+03  0.25500000920E-02 0.  1.
    10030    2    1    2    0    0  0.00000000000E+00  0.00000000000E+00  0.46987861425E+03  0.75860899032E+03  0.59556837396E+03 0.  0.
        1    1    3    3  502    0 -0.14667451310E+03 -0.73161720275E+02  0.55161412008E+03  0.57545129038E+03  0.50400001928E-02 0. -1.
       -1    1    3    3    0  502  0.14667451310E+03  0.73161720275E+02 -0.81735505830E+02  0.18315769994E+03  0.50400001928E-02 0.  1.
</event>
<event>
 5   0  0.1250390E-02  0.6017148E+03  0.7818609E-02  0.9901855E-01
       -1   -1    0    0    0  501  0.00000000000E+00  0.00000000000E+00  0.74170781680E+02  0.74170781851E+02  0.50400001928E-02 0.  1.
        1   -1    0    0  501    0  0.00000000000E+00  0.00000000000E+00 -0.12203614349E+04  0.12203614349E+04  0.50400001928E-02 0. -1.
    10030    2    1    2    0    0  0.00000000000E+00  0.00000000000E+00 -0.11461906532E+04  0.12945322167E+04  0.60171475526E+03 0.  0.
        3    1    3    3  502    0 -0.28608351090E+03  0.53515165205E+02 -0.40914324447E+03  0.50210143678E+03  0.10100000352E+00 0. -1.
       -3    1    3    3    0  502  0.28608351090E+03 -0.53515165205E+02 -0.73704740873E+03  0.79243077996E+03  0.10100000352E+00 0.  1.
</event>
<event>
 5   0  0.1332555E-02  0.5985130E+03  0.7818609E-02  0.9908496E-01
        1   -1    0    0  501    0  0.00000000000E+00  0.00000000000E+00  0.15947507174E+03  0.15947507182E+03  0.50400001928E-02 0.  1.
       -1   -1    0    0    0  501  0.00000000000E+00  0.00000000000E+00 -0.56155777465E+03  0.56155777467E+03  0.50400001928E-02 0. -1.
    10030    2    1    2    0    0  0.00000000000E+00  0.00000000000E+00 -0.40208270290E+03  0.72103284649E+03  0.59851304559E+03 0.  0.
        2    1    3    3  502    0  0.20749613054E+00  0.85467633825E+02 -0.54654179397E+03  0.55318413937E+03  0.25500000920E-02 0. -1.
       -2    1    3    3    0  502 -0.20749613054E+00 -0.85467633825E+02  0.14445909106E+03  0.16784870712E+03  0.25500000920E-02 0.  1.
</event>
<event>
 5   0  0.8551000E-03  0.5991898E+03  0.7818609E-02  0.9907088E-01
        3   -1    0    0  501    0  0.00000000000E+00  0.00000000000E+00  0.12890500265E+03  0.12890504222E+03  0.10100000352E+00 0.  1.
       -3   -1    0    0    0  501  0.00000000000E+00  0.00000000000E+00 -0.69630408437E+03  0.69630409169E+03  0.10100000352E+00 0. -1.
    10030    2    1    2    0    0  0.00000000000E+00  0.00000000000E+00 -0.56739908172E+03  0.82520913391E+03  0.59918978359E+03 0.  0.
        4    1    3    3  502    0  0.87768326859E+02 -0.69373899421E+01  0.11068270521E+03  0.14143436892E+03  0.12699999809E+01 0.  1.
       -4    1    3    3    0  502 -0.87768326859E+02  0.69373899421E+01 -0.67808178693E+03  0.68377476499E+03  0.12699999809E+01 0. -1.
</event>
<event>
 5   0  0.2179625E-02  0.6039771E+03  0.7818609E-02  0.9897189E-01
        2   -1    0    0  501    0  0.00000000000E+00  0.00000000000E+00  0.52278018255E+03  0.52278018256E+03  0.25500000920E-02 0. -1.
       -2   -1    0    0    0  501  0.00000000000E+00  0.00000000000E+00 -0.17444632210E+03  0.17444632212E+03  0.25500000920E-02 0.  1.
    10030    2    1    2    0    0  0.00000000000E+00  0.00000000000E+00  0.34833386045E+03  0.69722650468E+03  0.60397708607E+03 0.  0.
        1    1    3    3  502    0 -0.78195794322E+02  0.26962514202E+03  0.45698154617E+02  0.28443034441E+03  0.50400001928E-02 0.  1.
       -1    1    3    3    0  502  0.78195794322E+02 -0.26962514202E+03  0.30263570583E+03  0.41279616027E+03  0.50400001928E-02 0. -1.
</event>
<event>
 5   0  0.2092587E-02  0.5995470E+03  0.7818609E-02  0.9906346E-01
        2   -1    0    0  501    0  0.00000000000E+00  0.00000000000E+00  0.47175178227E+03  0.47175178227E+03  0.25500000920E-02 0.  1.
       -2   -1    0    0    0  501  0.00000000000E+00  0.00000000000E+00 -0.19049033505E+03  0.19049033507E+03  0.25500000920E-02 0. -1.
    10030    2    1    2    0    0  0.00000000000E+00  0.00000000000E+00  0.28126144721E+03  0.66224211734E+03  0.59954701258E+03 0.  0.
        3    1    3    3  502    0 -0.23235494067E+03  0.18515329541E+03  0.96536572855E+02  0.31239379212E+03  0.10100000352E+00 0. -1.
       -3    1    3    3    0  502  0.23235494067E+03 -0.18515329541E+03  0.18472487435E+03  0.34984832522E+03  0.10100000352E+00 0.  1.
</event>
<event>
 5   0  0.2179625E-02  0.6008054E+03  0.7818609E-02  0.9903737E-01
        2   -1    0    0  501    0  0.00000000000E+00  0.00000000000E+00  0.12502551287E+04  0.12502551287E+04  0.25500000920E-02 0.  1.
       -2   -1    0    0    0  501  0.00000000000E+00  0.00000000000E+00 -0.72178683840E+02  0.72178683885E+02  0.25500000920E-02 0. -1.
    10030    2    1    2    0    0  0.00000000000E+00  0.00000000000E+00  0.11780764448E+04  0.13224338125E+04  0.60080535844E+03 0.  0.
        1    1    3    3  502    0  0.15515570226E+03  0.23628372651E+03  0.81284253855E+03  0.86059065987E+03  0.50400001928E-02 0. -1.
       -1    1    3    3    0  502 -0.15515570226E+03 -0.23628372651E+03  0.36523390627E+03  0.46184315267E+03  0.50400001928E-02 0.  1.
</event>
<event>
 5   0  0.2092587E-02  0.5929712E+03  0.7818609E-02  0.9920097E-01
       -2   -1    0    0    0  501  0.00000000000E+00  0.00000000000E+00  0.22872658679E+03  0.22872658680E+03  0.25500000920E-02 0. -1.
        2   -1    0    0  501    0  0.00000000000E+00  0.00000000000E+00 -0.38431786899E+03  0.38431786900E+03  0.25500000920E-02 0.  1.
    10030    2    1    2    0    0  0.00000000000E+00  0.00000000000E+00 -0.15559128220E+03  0.61304445580E+03  0.59297121152E+03 0.  0.
        3    1    3    3  502    0 -0.20403901249E+03 -0.16225002541E+03 -0.22380949024E+03  0.34358068556E+03  0.10100000352E+00 0.  1.
       -3    1    3    3    0  502  0.20403901249E+03  0.16225002541E+03  0.68218208044E+02  0.26946377024E+03  0.10100000352E+00 0. -1.
</event>
<event>
 5   0  0.2141800E-02  0.5994643E+03  0.7818609E-02  0.9906518E-01
       -2   -1    0    0    0  501  0.00000000000E+00  0.00000000000E+00  0.12295154540E+03  0.12295154543E+03  0.25500000920E-02 0.  1.
        2   -1    0    0  501    0  0.00000000000E+00  0.00000000000E+00 -0.73068912417E+03  0.73068912417E+03  0.25500000920E-02 0. -1.
    10030    2    1    2    0    0  0.00000000000E+00  0.00000000000E+00 -0.60773757876E+03  0.85364066960E+03  0.59946428430E+03 0.  0.
        2    1    3    3  502    0 -0.18817903806E+03  0.13366931958E+03 -0.31587395846E+02  0.23297339107E+03  0.25500000920E-02 0.  1.
       -2    1    3    3    0  502  0.18817903806E+03 -0.13366931958E+03 -0.57615018292E+03  0.62066727854E+03  0.25500000920E-02 0. -1.
</event>
<event>
 5   0  0.2179625E-02  0.5997575E+03  0.7818609E-02  0.9905909E-01
       -2   -1    0    0    0  501  0.00000000000E+00  0.00000000000E+00  0.17710277726E+03  0.17710277728E+03  0.25500000920E-02 0. -1.
        2   -1    0    0  501    0  0.00000000000E+00  0.00000000000E+00 -0.50776877101E+03  0.50776877102E+03  0.25500000920E-02 0.  1.
    10030    2    1    2    0    0  0.00000000000E+00  0.00000000000E+00 -0.33066599375E+03  0.68487154830E+03  0.59975748286E+03 0.  0.
        1    1    3    3  502    0  0.16682179383E+03  0.63513093838E+02  0.10982764250E+03  0.20958419565E+03  0.50400001928E-02 0. -1.
       -1    1    3    3    0  502 -0.16682179383E+03 -0.63513093838E+02 -0.44049363625E+03  0.47528735265E+03  0.50400001928E-02 0.  1.
</event>
<event>
 5   0  0.1337051E-02  0.5997073E+03  0.7818609E-02  0.9906014E-01
       -1   -1    0    0    0  501  0.00000000000E+00  0.00000000000E+00  0.23730145050E+03  0.23730145055E+03  0.50400001928E-02 0. -1.
        1   -1    0    0  501    0  0.00000000000E+00  0.00000000000E+00 -0.37889443278E+03  0.37889443281E+03  0.50400001928E-02 0.  1.
    10030    2    1    2    0    0  0.00000000000E+00  0.00000000000E+00 -0.14159298228E+03  0.61619588336E+03  0.59970725695E+03 0.  0.
        5    1    3    3  502    0  0.26712961005E+03  0.12210808073E+03 -0.13262994808E+03  0.32230638385E+03  0.46999998093E+01 0.  1.
       -5    1    3    3    0  502 -0.26712961005E+03 -0.12210808073E+03 -0.89630341992E+01  0.29388949951E+03  0.46999998093E+01 0. -1.
</event>
<event>
 5   0  0.1250390E-02  0.6004288E+03  0.7818609E-02  0.9904517E-01
       -1   -1    0    0    0  501  0.00000000000E+00  0.00000000000E+00  0.82737767088E+02  0.82737767241E+02  0.50400001928E-02 0.  1.
        1   -1    0    0  501    0  0.00000000000E+00  0.00000000000E+00 -0.10893293490E+04  0.10893293490E+04  0.50400001928E-02 0. -1.
    10030    2    1    2    0    0  0.00000000000E+00  0.00000000000E+00 -0.10065915819E+04  0.11720671163E+04  0.60042877365E+03 0.  0.
        3    1    3    3  502    0 -0.13969612522E+03 -0.18832072686E+03 -0.86926727867E+03  0.90033622361E+03  0.10100000352E+00 0. -1.
       -3    1    3    3    0  502  0.13969612522E+03  0.18832072686E+03 -0.13732430326E+03  0.27173089267E+03  0.10100000352E+00 0.  1.
</event>
<event>
 5   0  0.2141800E-02  0.6049249E+03  0.7818609E-02  0.9895241E-01
       -2   -1    0    0    0  501  0.00000000000E+00  0.00000000000E+00  0.99232393758E+02  0.99232393790E+02  0.25500000920E-02 0. -1.
        2   -1    0    0  501    0  0.00000000000E+00  0.00000000000E+00 -0.92191196763E+03  0.92191196763E+03  0.25500000920E-02 0.  1.
    10030    2    1    2    0    0  0.00000000000E+00  0.00000000000E+00 -0.82267957387E+03  0.10211443614E+04  0.60492489253E+03 0.  0.
        2    1    3    3  502    0 -0.15411762706E+03  0.57629249350E+02  0.17073439109E+02  0.16542332267E+03  0.25500000920E-02 0. -1.
       -2    1    3    3    0  502  0.15411762706E+03 -0.57629249350E+02 -0.83975301298E+03  0.85572103876E+03  0.25500000920E-02 0.  1.
</event>
<event>
 5   0  0.1250390E-02  0.5924028E+03  0.7818609E-02  0.9921294E-01
        1   -1    0    0  501    0  0.00000000000E+00  0.00000000000E+00  0.16911011672E+03  0.16911011680E+03  0.50400001928E-02 0. -1.
       -1   -1    0    0    0  501  0.00000000000E+00  0.00000000000E+00 -0.51880551507E+03  0.51880551510E+03  0.50400001928E-02 0.  1.
    10030    2    1    2    0    0  0.00000000000E+00  0.00000000000E+00 -0.34969539835E+03  0.68791563189E+03  0.59240277259E+03 0.  0.
        3    1    3    3  502    0  0.24525867480E+02  0.23588458192E+03  0.31224580141E+02  0.23920292383E+03  0.10100000352E+00 0. -1.
       -3    1    3    3    0  502 -0.24525867480E+02 -0.23588458192E+03 -0.38091997849E+03  0.44871270807E+03  0.10100000352E+00 0.  1.
</event>
<event>
 5   0  0.1250390E-02  0.6010472E+03  0.7818609E-02  0.9903236E-01
        1   -1    0    0  501    0  0.00000000000E+00  0.00000000000E+00  0.56176473612E+03  0.56176473614E+03  0.50400001928E-02 0.  1.
       -1   -1    0    0    0  501  0.00000000000E+00  0.00000000000E+00 -0.16076913283E+03  0.16076913291E+03  0.50400001928E-02 0. -1.
    10030    2    1    2    0    0  0.00000000000E+00  0.00000000000E+00  0.40099560329E+03  0.72253386905E+03  0.60104718457E+03 0.  0.
        3    1    3    3  502    0  0.24640710205E+02 -0.18871267885E+03  0.48009146223E+03  0.51643727796E+03  0.10100000352E+00 0.  1.
       -3    1    3    3    0  502 -0.24640710205E+02  0.18871267885E+03 -0.79095858943E+02  0.20609659110E+03  0.10100000352E+00 0. -1.
</event>
<event>
 5   0  0.8551000E-03  0.6009980E+03  0.7818609E-02  0.9903338E-01
       -4   -1    0    0    0  501  0.00000000000E+00  0.00000000000E+00  0.76349914489E+02  0.76360476311E+02  0.12699999809E+01 0.  1.
        4   -1    0    0  501    0  0.00000000000E+00  0.00000000000E+00 -0.11826153972E+04  0.11826160791E+04  0.12699999809E+01 0. -1.
    10030    2    1    2    0    0  0.00000000000E+00  0.00000000000E+00 -0.11062654827E+04  0.12589765554E+04  0.60099804399E+03 0.  0.
        2    1    3    3  502    0 -0.26684487334E+02  0.26428384013E+02  0.71419740597E+02  0.80692631010E+02  0.25500000920E-02 0.  1.
       -2    1    3    3    0  502  0.26684487334E+02 -0.26428384013E+02 -0.11776852233E+04  0.11782839244E+04  0.25500000920E-02 0. -1.
</event>
<event>
 5   0  0.2092587E-02  0.5936851E+03  0.7818609E-02  0.9918595E-01
        2   -1    0    0  501    0  0.00000000000E+00  0.00000000000E+00  0.78802046288E+03  0.78802046288E+03  0.25500000920E-02 0.  1.
       -2   -1    0    0    0  501  0.00000000000E+00  0.00000000000E+00 -0.11181881272E+03  0.11181881275E+03  0.25500000920E-02 0. -1.
    10030    2    1    2    0    0  0.00000000000E+00  0.00000000000E+00  0.67620165016E+03  0.89983927563E+03  0.59368514406E+03 0.  0.
        3    1    3    3  502    0 -0.10292524714E+03  0.14653888441E+03 -0.20730043855E+02  0.18026923215E+03  0.10100000352E+00 0. -1.
       -3    1    3    3    0  502  0.10292524714E+03 -0.14653888441E+03  0.69693169402E+03  0.71957004348E+03  0.10100000352E+00 0.  1.
</event>
<event>
 5   0  0.1337051E-02  0.6206279E+03  0.7818609E-02  0.9863510E-01
       -1   -1    0    0    0  501  0.00000000000E+00  0.00000000000E+00  0.14979697552E+03  0.14979697561E+03  0.50400001928E-02 0.  1.
        1   -1    0    0  501    0  0.00000000000E+00  0.00000000000E+00 -0.64283514508E+03  0.64283514510E+03  0.50400001928E-02 0. -1.
    10030    2    1    2    0    0  0.00000000000E+00  0.00000000000E+00 -0.49303816956E+03  0.79263212070E+03  0.62062794179E+03 0.  0.
        5    1    3    3  502    0 -0.26114774930E+03  0.96375850673E+02 -0.71469923816E+02  0.28743084658E+03  0.46999998093E+01 0.  1.
       -5    1    3    3    0  502  0.26114774930E+03 -0.96375850673E+02 -0.42156824574E+03  0.50520127412E+03  0.46999998093E+01 0. -1.
</event>
<event>
 5   0  0.2141800E-02  0.5898003E+03  0.7818609E-02  0.9926796E-01
        2   -1    0    0  501    0  0.00000000000E+00  0.00000000000E+00  0.38894169815E+03  0.38894169816E+03  0.25500000920E-02 0. -1.
       -2   -1    0    0    0  501  0.00000000000E+00  0.00000000000E+00 -0.22359673529E+03  0.22359673531E+03  0.25500000920E-02 0.  1.
    10030    2    1    2    0    0  0.00000000000E+00  0.00000000000E+00  0.16534496286E+03  0.61253843346E+03  0.58980028461E+03 0.  0.
        2    1    3    3  502    0  0.16715327684E+02 -0.23464778340E+03  0.26736874801E+03  0.35612502278E+03  0.25500000920E-02 0. -1.
       -2    1    3    3    0  502 -0.16715327684E+02  0.23464778340E+03 -0.10202378515E+03  0.25641341068E+03  0.25500000920E-02 0.  1.
</event>
<event>
 5   0  0.1276705E-02  0.6020494E+03  0.7818609E-02  0.9901163E-01
       -1   -1    0    0    0  501  0.00000000000E+00  0.00000000000E+00  0.18567523468E+03  0.18567523475E+03  0.50400001928E-02 0.  1.
        1   -1    0    0  501    0  0.00000000000E+00  0.00000000000E+00 -0.48803423646E+03  0.48803423649E+03  0.50400001928E-02 0. -1.
    10030    2    1    2    0    0  0.00000000000E+00  0.00000000000E+00 -0.30235900178E+03  0.67370947123E+03  0.60204940468E+03 0.  0.
        1    1    3    3  502    0 -0.77360816944E+02  0.14839394886E+03  0.12882421837E+03  0.21118981822E+03  0.50400001928E-02 0.  1.
       -1    1    3    3    0  502  0.77360816944E+02 -0.14839394886E+03 -0.43118322015E+03  0.46251965301E+03  0.50400001928E-02 0. -1.
</event>
<event>
 5   0  0.8551000E-03  0.5992232E+03  0.7818609E-02  0.9907019E-01
       -3   -1    0    0    0  501  0.00000000000E+00  0.00000000000E+00  0.14610433274E+03  0.14610436765E+03  0.10100000352E+00 0. -1.
        3   -1    0    0  501    0  0.00000000000E+00  0.00000000000E+00 -0.61440398462E+03  0.61440399292E+03  0.10100000352E+00 0.  1.
    10030    2    1    2    0    0  0.00000000000E+00  0.00000000000E+00 -0.46829965189E+03  0.76050836057E+03  0.59922316589E+03 0.  0.
        2    1    3    3  502    0  0.27317948399E+03  0.13971916150E+02 -0.78996438748E+02  0.28471508962E+03  0.25500000920E-02 0. -1.
       -2    1    3    3    0  502 -0.27317948399E+03 -0.13971916150E+02 -0.38930321314E+03  0.47579327095E+03  0.25500000920E-02 0.  1.
</event>
<event>
 5   0  0.2092587E-02  0.6408021E+03  0.7818609E-02  0.9824193E-01
        2   -1    0    0  501    0  0.00000000000E+00  0.00000000000E+00  0.17340232663E+04  0.17340232663E+04  0.25500000920E-02 0. -1.
       -2   -1    0    0    0  501  0.00000000000E+00  0.00000000000E+00 -0.59201528186E+02  0.59201528241E+02  0.25500000920E-02 0.  1.
    10030    2    1    2    0    0  0.00000000000E+00  0.00000000000E+00  0.16748217381E+04  0.17932247946E+04  0.64080208279E+03 0.  0.
        3    1    3    3  502    0  0.25120812737E+03  0.19028956873E+03  0.67565488328E+03  0.74553683659E+03  0.10100000352E+00 0. -1.
       -3    1    3    3    0  502 -0.25120812737E+03 -0.19028956873E+03  0.99916685487E+03  0.10476879580E+04  0.10100000352E+00 0.  1.
</event>
<event>
 5   0  0.1332555E-02  0.5964874E+03  0.7818609E-02  0.9912721E-01
        1   -1    0    0  501    0  0.00000000000E+00  0.00000000000E+00  0.55981290343E+03  0.55981290346E+03  0.50400001928E-02 0.  1.
       -1   -1    0    0    0  501  0.00000000000E+00  0.00000000000E+00 -0.15889110787E+03  0.15889110795E+03  0.50400001928E-02 0. -1.
    10030    2    1    2    0    0  0.00000000000E+00  0.00000000000E+00  0.40092179557E+03  0.71870401140E+03  0.59648735934E+03 0.  0.
        2    1    3    3  502    0 -0.13862659857E+03  0.16352964019E+03 -0.49362220338E+02  0.21999069492E+03  0.25500000920E-02 0. -1.
       -2    1    3    3    0  502  0.13862659857E+03 -0.16352964019E+03  0.45028401590E+03  0.49871331648E+03  0.25500000920E-02 0.  1.
</event>
<event>
 5   0  0.1250390E-02  0.6006400E+03  0.7818609E-02  0.9904079E-01
        1   -1    0    0  501    0  0.00000000000E+00  0.00000000000E+00  0.43647980135E+03  0.43647980138E+03  0.50400001928E-02 0.  1.
       -1   -1    0    0    0  501  0.00000000000E+00  0.00000000000E+00 -0.20663521546E+03  0.20663521552E+03  0.50400001928E-02 0. -1.
    10030    2    1    2    0    0  0.00000000000E+00  0.00000000000E+00  0.22984458589E+03  0.64311501690E+03  0.60063998477E+03 0.  0.
        3    1    3    3  502    0 -0.22538498375E+03 -0.18793245290E+03  0.18327299919E+03  0.34598554910E+03  0.10100000352E+00 0.  1.
       -3    1    3    3    0  502  0.22538498375E+03  0.18793245290E+03  0.46571586701E+02  0.29712946781E+03  0.10100000352E+00 0. -1.
</event>
<event>
 5   0  0.1337051E-02  0.6043684E+03  0.7818609E-02  0.9896384E-01
       -1   -1    0    0    0  501  0.00000000000E+00  0.00000000000E+00  0.28241767042E+03  0.28241767046E+03  0.50400001928E-02 0.  1.
        1   -1    0    0  501    0  0.00000000000E+00  0.00000000000E+00 -0.32333420452E+03  0.32333420455E+03  0.50400001928E-02 0. -1.
    10030    2    1    2    0    0  0.00000000000E+00  0.00000000000E+00 -0.40916534097E+02  0.60575187502E+03  0.60436840696E+03 0.  0.
        5    1    3    3  502    0 -0.21492153546E+03  0.10221135687E+03 -0.20704233388E+03  0.31547907362E+03  0.46999998093E+01 0. -1.
       -5    1    3    3    0  502  0.21492153546E+03 -0.10221135687E+03  0.16612579978E+03  0.29027280139E+03  0.46999998093E+01 0.  1.
</event>
<event>
 5   0  0.1332555E-02  0.6031994E+03  0.7818609E-02  0.9898791E-01
        1   -1    0    0  501    0  0.00000000000E+00  0.00000000000E+00  0.92971476818E+03  0.92971476819E+03  0.50400001928E-02 0. -1.
       -1   -1    0    0    0  501  0.00000000000E+00  0.00000000000E+00 -0.97839001639E+02  0.97839001769E+02  0.50400001928E-02 0.  1.
    10030    2    1    2    0    0  0.00000000000E+00  0.00000000000E+00  0.83187576654E+03  0.10275537700E+04  0.60319935279E+03 0.  0.
        2    1    3    3  502    0 -0.37637483618E+02 -0.29686270207E+03  0.48009294348E+03  0.56571483844E+03  0.25500000920E-02 0. -1.
       -2    1    3    3    0  502  0.37637483618E+02  0.29686270207E+03  0.35178282307E+03  0.46183893152E+03  0.25500000920E-02 0.  1.
</event>
<event>
 5   0  0.8551000E-03  0.5988993E+03  0.7818609E-02  0.9907692E-01
        3   -1    0    0  501    0  0.00000000000E+00  0.00000000000E+00  0.11288677849E+04  0.11288677894E+04  0.10100000352E+00 0. -1.
       -3   -1    0    0    0  501  0.00000000000E+00  0.00000000000E+00 -0.79433611152E+02  0.79433675363E+02  0.10100000352E+00 0.  1.
    10030    2    1    2    0    0  0.00000000000E+00  0.00000000000E+00  0.10494341737E+04  0.12083014647E+04  0.59889927763E+03 0.  0.
        3    1    3    3  502    0  0.51315105511E+02 -0.13745055662E+03  0.10513838344E+04  0.10615714169E+04  0.10100000352E+00 0. -1.
       -3    1    3    3    0  502 -0.51315105511E+02  0.13745055662E+03 -0.19496607454E+01  0.14673004787E+03  0.10100000352E+00 0.  1.
</event>
<event>
 5   0  0.2142838E-02  0.6020993E+03  0.7818609E-02  0.9901060E-01
        2   -1    0    0  501    0  0.00000000000E+00  0.00000000000E+00  0.40818378887E+03  0.40818378888E+03  0.25500000920E-02 0. -1.
       -2   -1    0    0    0  501  0.00000000000E+00  0.00000000000E+00 -0.22203449142E+03  0.22203449144E+03  0.25500000920E-02 0.  1.
    10030    2    1    2    0    0  0.00000000000E+00  0.00000000000E+00  0.18614929744E+03  0.63021828031E+03  0.60209926084E+03 0.  0.
        4    1    3    3  502    0 -0.99602176947E+02  0.88141181658E+02  0.37576123593E+03  0.39860705072E+03  0.12699999809E+01 0. -1.
       -4    1    3    3    0  502  0.99602176947E+02 -0.88141181658E+02 -0.18961193849E+03  0.23161122959E+03  0.12699999809E+01 0.  1.
</event>
<event>
 5   0  0.1303808E-02  0.6021592E+03  0.7818609E-02  0.9900937E-01
        1   -1    0    0  501    0  0.00000000000E+00  0.00000000000E+00  0.38478877679E+03  0.38478877682E+03  0.50400001928E-02 0.  1.
       -1   -1    0    0    0  501  0.00000000000E+00  0.00000000000E+00 -0.23558097949E+03  0.23558097954E+03  0.50400001928E-02 0. -1.
    10030    2    1    2    0    0  0.00000000000E+00  0.00000000000E+00  0.14920779730E+03  0.62036975636E+03  0.60215917151E+03 0.  0.
        4    1    3    3  502    0  0.20342947894E+03 -0.21840182988E+03  0.11535244175E+03  0.31998548547E+03  0.12699999809E+01 0. -1.
       -4    1    3    3    0  502 -0.20342947894E+03  0.21840182988E+03  0.33855355548E+02  0.30038427089E+03  0.12699999809E+01 0.  1.
</event>
<event>
 5   0  0.1250390E-02  0.6044353E+03  0.7818609E-02  0.9896247E-01
       -1   -1    0    0    0  501  0.00000000000E+00  0.00000000000E+00  0.11731096407E+03  0.11731096418E+03  0.50400001928E-02 0. -1.
        1   -1    0    0  501    0  0.00000000000E+00  0.00000000000E+00 -0.77857616247E+03  0.77857616249E+03  0.50400001928E-02 0.  1.
    10030    2    1    2    0    0  0.00000000000E+00  0.00000000000E+00 -0.66126519840E+03  0.89588712667E+03  0.60443534073E+03 0.  0.
        3    1    3    3  502    0  0.13585355826E+03 -0.16472363626E+03 -0.64764581861E+03  0.68193488120E+03  0.10100000352E+00 0.  1.
       -3    1    3    3    0  502 -0.13585355826E+03  0.16472363626E+03 -0.13619379792E+02  0.21395224547E+03  0.10100000352E+00 0. -1.
</event>
<event>
 5   0  0.8551000E-03  0.5993358E+03  0.7818609E-02  0.9906785E-01
        4   -1    0    0  501    0  0.00000000000E+00  0.00000000000E+00  0.28608435406E+03  0.28608717297E+03  0.12699999809E+01 0.  1.
       -4   -1    0    0    0  501  0.00000000000E+00  0.00000000000E+00 -0.31389074856E+03  0.31389331775E+03  0.12699999809E+01 0. -1.
    10030    2    1    2    0    0  0.00000000000E+00  0.00000000000E+00 -0.27806394493E+02  0.59998049073E+03  0.59933579376E+03 0.  0.
        4    1    3    3  502    0  0.24029355189E+03  0.11430665237E+03  0.12405735868E+03  0.29359639473E+03  0.12699999809E+01 0.  1.
       -4    1    3    3    0  502 -0.24029355189E+03 -0.11430665237E+03 -0.15186375318E+03  0.30638409600E+03  0.12699999809E+01 0. -1.
</event>
<event>
 5   0  0.2179625E-02  0.6008126E+03  0.7818609E-02  0.9903722E-01
       -2   -1    0    0    0  501  0.00000000000E+00  0.00000000000E+00  0.25501029419E+03  0.25501029420E+03  0.25500000920E-02 0. -1.
        2   -1    0    0  501    0  0.00000000000E+00  0.00000000000E+00 -0.35388357156E+03  0.35388357157E+03  0.25500000920E-02 0.  1.
    10030    2    1    2    0    0  0.00000000000E+00  0.00000000000E+00 -0.98873277371E+02  0.60889386577E+03  0.60081262869E+03 0.  0.
        1    1    3    3  502    0  0.65520633940E+02  0.24000134225E+03  0.12120373909E+03  0.27673804247E+03  0.50400001928E-02 0. -1.
       -1    1    3    3    0  502 -0.65520633940E+02 -0.24000134225E+03 -0.22007701646E+03  0.33215582330E+03  0.50400001928E-02 0.  1.
</event>
<event>
 5   0  0.2092587E-02  0.5987397E+03  0.7818609E-02  0.9908024E-01
        2   -1    0    0  501    0  0.00000000000E+00  0.00000000000E+00  0.15142311223E+04  0.15142311223E+04  0.25500000920E-02 0.  1.
       -2   -1    0    0    0  501  0.00000000000E+00  0.00000000000E+00 -0.59186683318E+02  0.59186683373E+02  0.25500000920E-02 0. -1.
    10030    2    1    2    0    0  0.00000000000E+00  0.00000000000E+00  0.14550444389E+04  0.15734178056E+04  0.59873973627E+03 0.  0.
        3    1    3    3  502    0  0.11511902787E+03 -0.24791447211E+03  0.10483858566E+04  0.10834329193E+04  0.10100000352E+00 0.  1.
       -3    1    3    3    0  502 -0.11511902787E+03  0.24791447211E+03  0.40665858230E+03  0.48998488631E+03  0.10100000352E+00 0. -1.
</event>
<event>
 5   0  0.2092587E-02  0.5998241E+03  0.7818609E-02  0.9905771E-01
       -2   -1    0    0    0  501  0.00000000000E+00  0.00000000000E+00  0.31774713825E+03  0.31774713826E+03  0.25500000920E-02 0.  1.
        2   -1    0    0  501    0  0.00000000000E+00  0.00000000000E+00 -0.28307807341E+03  0.28307807342E+03  0.25500000920E-02 0. -1.
    10030    2    1    2    0    0  0.00000000000E+00  0.00000000000E+00  0.34669064847E+02  0.60082521168E+03  0.59982413334E+03 0.  0.
        3    1    3    3  502    0  0.22429144832E+03  0.96158467059E+02  0.19196462828E+03  0.31048918385E+03  0.10100000352E+00 0.  1.
       -3    1    3    3    0  502 -0.22429144832E+03 -0.96158467059E+02 -0.15729556344E+03  0.29033602783E+03  0.10100000352E+00 0. -1.
</event>
<event>
 5   0  0.1303808E-02  0.5988272E+03  0.7818609E-02  0.9907842E-01
        1   -1    0    0  501    0  0.00000000000E+00  0.00000000000E+00  0.73033896074E+02  0.73033896248E+02  0.50400001928E-02 0.  1.
       -1   -1    0    0    0  501  0.00000000000E+00  0.00000000000E+00 -0.12274916519E+04  0.12274916519E+04  0.50400001928E-02 0. -1.
    10030    2    1    2    0    0  0.00000000000E+00  0.00000000000E+00 -0.11544577559E+04  0.13005255482E+04  0.59882717994E+03 0.  0.
        4    1    3    3  502    0 -0.26304074754E+03  0.42320060020E+02 -0.28051574921E+03  0.38687481283E+03  0.12699999809E+01 0.  1.
       -4    1    3    3    0  502  0.26304074754E+03 -0.42320060020E+02 -0.87394200664E+03  0.91365073536E+03  0.12699999809E+01 0. -1.
</event>
<event>
 5   0  0.2179625E-02  0.6002952E+03  0.7818609E-02  0.9904794E-01
        2   -1    0    0  501    0  0.00000000000E+00  0.00000000000E+00  0.11262780555E+04  0.11262780555E+04  0.25500000920E-02 0.  1.
       -2   -1    0    0    0  501  0.00000000000E+00  0.00000000000E+00 -0.79987877597E+02  0.79987877638E+02  0.25500000920E-02 0. -1.
    10030    2    1    2    0    0  0.00000000000E+00  0.00000000000E+00  0.10462901779E+04  0.12062659331E+04  0.60029523159E+03 0.  0.
        1    1    3    3  502    0  0.15622030083E+03 -0.15507735581E+03  0.93316649286E+03  0.95877707112E+03  0.50400001928E-02 0.  1.
       -1    1    3    3    0  502 -0.15622030083E+03  0.15507735581E+03  0.11312368501E+03  0.24748886199E+03  0.50400001928E-02 0. -1.
</event>
<event>
 5   0  0.1332555E-02  0.5990364E+03  0.7818609E-02  0.9907407E-01
       -1   -1    0    0    0  501  0.00000000000E+00  0.00000000000E+00  0.18336120218E+03  0.18336120225E+03  0.50400001928E-02 0.  1.
        1   -1    0    0  501    0  0.00000000000E+00  0.00000000000E+00 -0.48925912433E+03  0.48925912436E+03  0.50400001928E-02 0. -1.
    10030    2    1    2    0    0  0.00000000000E+00  0.00000000000E+00 -0.30589792215E+03  0.67262032661E+03  0.59903636366E+03 0.  0.
        2    1    3    3  502    0  0.18238033345E+03 -0.14509570477E+03  0.58299043961E+02  0.24023764922E+03  0.25500000920E-02 0.  1.
       -2    1    3    3    0  502 -0.18238033345E+03  0.14509570477E+03 -0.36419696611E+03  0.43238267739E+03  0.25500000920E-02 0. -1.
</event>
<event>
 5   0  0.1276705E-02  0.6000850E+03  0.7818609E-02  0.9905230E-01
       -1   -1    0    0    0  501  0.00000000000E+00  0.00000000000E+00  0.36907403302E+03  0.36907403306E+03  0.50400001928E-02 0. -1.
        1   -1    0    0  501    0  0.00000000000E+00  0.00000000000E+00 -0.24392264621E+03  0.24392264627E+03  0.50400001928E-02 0.  1.
    10030    2    1    2    0    0  0.00000000000E+00  0.00000000000E+00  0.12515138681E+03  0.61299667932E+03  0.60008504334E+03 0.  0.
        1    1    3    3  502    0  0.29524737875E+03  0.22811683562E+02  0.11192801432E+03  0.31657426929E+03  0.50400001928E-02 0.  1.
       -1    1    3    3    0  502 -0.29524737875E+03 -0.22811683562E+02  0.13223372488E+02  0.29642241003E+03  0.50400001928E-02 0. -1.
</event>
<event>
 5   0  0.1337051E-02  0.5992799E+03  0.7818609E-02  0.9906901E-01
       -1   -1    0    0    0  501  0.00000000000E+00  0.00000000000E+00  0.96715936162E+02  0.96715936293E+02  0.50400001928E-02 0. -1.
        1   -1    0    0  501    0  0.00000000000E+00  0.00000000000E+00 -0.92832797855E+03  0.92832797856E+03  0.50400001928E-02 0.  1.
    10030    2    1    2    0    0  0.00000000000E+00  0.00000000000E+00 -0.83161204238E+03  0.10250439149E+04  0.59927993320E+03 0.  0.
        5    1    3    3  502    0  0.18383658150E+02  0.25165993941E+03 -0.69209330165E+03  0.73667218773E+03  0.46999998093E+01 0.  1.
       -5    1    3    3    0  502 -0.18383658150E+02 -0.25165993941E+03 -0.13951874073E+03  0.28837172712E+03  0.46999998093E+01 0. -1.
</event>
<event>
 5   0  0.2141800E-02  0.5934710E+03  0.7818609E-02  0.9919045E-01
       -2   -1    0    0    0  501  0.00000000000E+00  0.00000000000E+00  0.14047052181E+03  0.14047052183E+03  0.25500000920E-02 0. -1.
        2   -1    0    0  501    0  0.00000000000E+00  0.00000000000E+00 -0.62683582272E+03  0.62683582272E+03  0.25500000920E-02 0.  1.
    10030    2    1    2    0    0  0.00000000000E+00  0.00000000000E+00 -0.48636530091E+03  0.76730634455E+03  0.59347099378E+03 0.  0.
        2    1    3    3  502    0  0.24330430156E+03 -0.16394153511E+03 -0.30068669012E+03  0.42010272043E+03  0.25500000920E-02 0. -1.
       -2    1    3    3    0  502 -0.24330430156E+03  0.16394153511E+03 -0.18567861080E+03  0.34720362413E+03  0.25500000920E-02 0.  1.
</event>
<event>
 5   0  0.2179625E-02  0.5960584E+03  0.7818609E-02  0.9913618E-01
       -2   -1    0    0    0  501  0.00000000000E+00  0.00000000000E+00  0.91049871421E+02  0.91049871456E+02  0.25500000920E-02 0. -1.
        2   -1    0    0  501    0  0.00000000000E+00  0.00000000000E+00 -0.97552471316E+03  0.97552471316E+03  0.25500000920E-02 0.  1.
    10030    2    1    2    0    0  0.00000000000E+00  0.00000000000E+00 -0.88447484174E+03  0.10665745846E+04  0.59605838547E+03 0.  0.
        1    1    3    3  502    0 -0.43404066789E+02  0.25672221017E+03 -0.70173564377E+03  0.74848054081E+03  0.50400001928E-02 0.  1.
       -1    1    3    3    0  502  0.43404066789E+02 -0.25672221017E+03 -0.18273919797E+03  0.31809404381E+03  0.50400001928E-02 0. -1.
</event>
<event>
 5   0  0.2126207E-02  0.5935062E+03  0.7818609E-02  0.9918971E-01
       -2   -1    0    0    0  501  0.00000000000E+00  0.00000000000E+00  0.29753200946E+03  0.29753200947E+03  0.25500000920E-02 0. -1.
        2   -1    0    0  501    0  0.00000000000E+00  0.00000000000E+00 -0.29597626685E+03  0.29597626686E+03  0.25500000920E-02 0.  1.
    10030    2    1    2    0    0  0.00000000000E+00  0.00000000000E+00  0.15557426104E+01  0.59350827632E+03  0.59350623731E+03 0.  0.
        5    1    3    3  502    0 -0.19784895637E+03 -0.10959127846E+03  0.19283546430E+03  0.29725757205E+03  0.46999998093E+01 0. -1.
       -5    1    3    3    0  502  0.19784895637E+03  0.10959127846E+03 -0.19127972169E+03  0.29625070427E+03  0.46999998093E+01 0.  1.
</event>
<event>
 5   0  0.1337051E-02  0.5999326E+03  0.7818609E-02  0.9905546E-01
        1   -1    0    0  501    0  0.00000000000E+00  0.00000000000E+00  0.12080820845E+04  0.12080820845E+04  0.50400001928E-02 0.  1.
       -1   -1    0    0    0  501  0.00000000000E+00  0.00000000000E+00 -0.74481509457E+02  0.74481509628E+02  0.50400001928E-02 0. -1.
    10030    2    1    2    0    0  0.00000000000E+00  0.00000000000E+00  0.11336005751E+04  0.12825635942E+04  0.59993258728E+03 0.  0.
        5    1    3    3  502    0 -0.88619420251E+02  0.16100510707E+03  0.10735268452E+04  0.10891547289E+04  0.46999998093E+01 0.  1.
       -5    1    3    3    0  502  0.88619420251E+02 -0.16100510707E+03  0.60073729906E+02  0.19340886529E+03  0.46999998093E+01 0. -1.
</event>
<event>
 5   0  0.8551000E-03  0.5586317E+03  0.7818609E-02  0.9995156E-01
       -4   -1    0    0    0  501  0.00000000000E+00  0.00000000000E+00  0.16858376015E+04  0.16858380799E+04  0.12699999809E+01 0.  1.
        4   -1    0    0  501    0  0.00000000000E+00  0.00000000000E+00 -0.46268884956E+02  0.46286311314E+02  0.12699999809E+01 0. -1.
    10030    2    1    2    0    0  0.00000000000E+00  0.00000000000E+00  0.16395687165E+04  0.17321243912E+04  0.55863165884E+03 0.  0.
        4    1    3    3  502    0 -0.13630896558E+03  0.23457265163E+03  0.10257215078E+04  0.10609951402E+04  0.12699999809E+01 0. -1.
       -4    1    3    3    0  502  0.13630896558E+03 -0.23457265163E+03  0.61384720875E+03  0.67112925102E+03  0.12699999809E+01 0.  1.
</event>
<event>
 5   0  0.2142838E-02  0.5918594E+03  0.7818609E-02  0.9922441E-01
        2   -1    0    0  501    0  0.00000000000E+00  0.00000000000E+00  0.16833780827E+03  0.16833780829E+03  0.25500000920E-02 0. -1.
       -2   -1    0    0    0  501  0.00000000000E+00  0.00000000000E+00 -0.52023005407E+03  0.52023005407E+03  0.25500000920E-02 0.  1.
    10030    2    1    2    0    0  0.00000000000E+00  0.00000000000E+00 -0.35189224580E+03  0.68856786236E+03  0.59185939920E+03 0.  0.
        4    1    3    3  502    0  0.16179163283E+03  0.17803921187E+03 -0.37643664858E+03  0.44674450943E+03  0.12699999809E+01 0.  1.
       -4    1    3    3    0  502 -0.16179163283E+03 -0.17803921187E+03  0.24544402780E+02  0.24182335293E+03  0.12699999809E+01 0. -1.
</event>
<event>
 5   0  0.2179625E-02  0.6023407E+03  0.7818609E-02  0.9900562E-01
        2   -1    0    0  501    0  0.00000000000E+00  0.00000000000E+00  0.81258381476E+03  0.81258381477E+03  0.25500000920E-02 0.  1.
       -2   -1    0    0    0  501  0.00000000000E+00  0.00000000000E+00 -0.11162364625E+03  0.11162364628E+03  0.25500000920E-02 0. -1.
    10030    2    1    2    0    0  0.00000000000E+00  0.00000000000E+00  0.70096016851E+03  0.92420746104E+03  0.60234066209E+03 0.  0.
        1    1    3    3  502    0 -0.19851447718E+03  0.21742675853E+03  0.25318211155E+03  0.38830860743E+03  0.50400001928E-02 0. -1.
       -1    1    3    3    0  502  0.19851447718E+03 -0.21742675853E+03  0.44777805697E+03  0.53589885361E+03  0.50400001928E-02 0.  1.
</event>
<event>
 5   0  0.1303808E-02  0.5968728E+03  0.7818609E-02  0.9911915E-01
       -1   -1    0    0    0  501  0.00000000000E+00  0.00000000000E+00  0.23235119592E+03  0.23235119597E+03  0.50400001928E-02 0. -1.
        1   -1    0    0  501    0  0.00000000000E+00  0.00000000000E+00 -0.38331749474E+03  0.38331749478E+03  0.50400001928E-02 0.  1.
    10030    2    1    2    0    0  0.00000000000E+00  0.00000000000E+00 -0.15096629882E+03  0.61566869075E+03  0.59687277823E+03 0.  0.
        4    1    3    3  502    0 -0.16833081558E+03 -0.23421255995E+03  0.35581070256E+01  0.28845287265E+03  0.12699999809E+01 0. -1.
       -4    1    3    3    0  502  0.16833081558E+03  0.23421255995E+03 -0.15452440585E+03  0.32721581810E+03  0.12699999809E+01 0.  1.
</event>
<event>
 5   0  0.1337051E-02  0.5953220E+03  0.7818609E-02  0.9915159E-01
        1   -1    0    0  501    0  0.00000000000E+00  0.00000000000E+00  0.84535288130E+03  0.84535288132E+03  0.50400001928E-02 0.  1.
       -1   -1    0    0    0  501  0.00000000000E+00  0.00000000000E+00 -0.10481076072E+03  0.10481076084E+03  0.50400001928E-02 0. -1.
    10030    2    1    2    0    0  0.00000000000E+00  0.00000000000E+00  0.74054212059E+03  0.95016364215E+03  0.59532202589E+03 0.  0.
        5    1    3    3  502    0 -0.19288410320E+03  0.31282927534E+02  0.11969098077E+02  0.19582708732E+03  0.46999998093E+01 0. -1.
       -5    1    3    3    0  502  0.19288410320E+03 -0.31282927534E+02  0.72857302251E+03  0.75433655483E+03  0.46999998093E+01 0.  1.
</event>
<event>
 5   0  0.2126207E-02  0.6028109E+03  0.7818609E-02  0.9899591E-01
       -2   -1    0    0    0  501  0.00000000000E+00  0.00000000000E+00  0.49119157870E+02  0.49119157936E+02  0.25500000920E-02 0.  1.
        2   -1    0    0  501    0  0.00000000000E+00  0.00000000000E+00 -0.18494871376E+04  0.18494871376E+04  0.25500000920E-02 0. -1.
    10030    2    1    2    0    0  0.00000000000E+00  0.00000000000E+00 -0.18003679797E+04  0.18986062955E+04  0.60281091813E+03 0.  0.
        5    1    3    3  502    0 -0.19054394181E+03 -0.19577295190E+03 -0.49944148796E+03  0.56929599713E+03  0.46999998093E+01 0.  1.
       -5    1    3    3    0  502  0.19054394181E+03  0.19577295190E+03 -0.13009264918E+04  0.13293102984E+04  0.46999998093E+01 0. -1.
</event>
<event>
 5   0  0.2126207E-02  0.6010085E+03  0.7818609E-02  0.9903316E-01
       -2   -1    0    0    0  501  0.00000000000E+00  0.00000000000E+00  0.10612848292E+03  0.10612848295E+03  0.25500000920E-02 0. -1.
        2   -1    0    0  501    0  0.00000000000E+00  0.00000000000E+00 -0.85088202947E+03  0.85088202947E+03  0.25500000920E-02 0.  1.
    10030    2    1    2    0    0  0.00000000000E+00  0.00000000000E+00 -0.74475354655E+03  0.95701051242E+03  0.60100854885E+03 0.  0.
        5    1    3    3  502    0 -0.27583552927E+03 -0.26152026247E+02 -0.18728427120E+03  0.33446473046E+03  0.46999998093E+01 0. -1.
       -5    1    3    3    0  502  0.27583552927E+03  0.26152026247E+02 -0.55746927535E+03  0.62254578196E+03  0.46999998093E+01 0.  1.
</event>
<event>
 5   0  0.2126207E-02  0.6053398E+03  0.7818609E-02  0.9894389E-01
       -2   -1    0    0    0  501  0.00000000000E+00  0.00000000000E+00  0.10924227816E+03  0.10924227819E+03  0.25500000920E-02 0. -1.
        2   -1    0    0  501    0  0.00000000000E+00  0.00000000000E+00 -0.83858633040E+03  0.83858633041E+03  0.25500000920E-02 0.  1.
    10030    2    1    2    0    0  0.00000000000E+00  0.00000000000E+00 -0.72934405224E+03  0.94782860860E+03  0.60533984236E+03 0.  0.
        5    1    3    3  502    0  0.22900985597E+03 -0.34610383333E+02 -0.66967200645E+03  0.70860855130E+03  0.46999998093E+01 0.  1.
       -5    1    3    3    0  502 -0.22900985597E+03  0.34610383333E+02 -0.59672045793E+02  0.23922005730E+03  0.46999998093E+01 0. -1.
</event>
<event>
 5   0  0.2142838E-02  0.5749877E+03  0.7818609E-02  0.9958702E-01
        2   -1    0    0  501    0  0.00000000000E+00  0.00000000000E+00  0.66330994252E+03  0.66330994253E+03  0.25500000920E-02 0.  1.
       -2   -1    0    0    0  501  0.00000000000E+00  0.00000000000E+00 -0.12460648821E+03  0.12460648824E+03  0.25500000920E-02 0. -1.
    10030    2    1    2    0    0  0.00000000000E+00  0.00000000000E+00  0.53870345431E+03  0.78791643076E+03  0.57498773046E+03 0.  0.
        4    1    3    3  502    0 -0.10623741323E+03 -0.11803253762E+03 -0.59047773825E+02  0.16942939651E+03  0.12699999809E+01 0. -1.
       -4    1    3    3    0  502  0.10623741323E+03  0.11803253762E+03  0.59775122814E+03  0.61848703426E+03  0.12699999809E+01 0.  1.
</event>
<event>
 5   0  0.2142838E-02  0.6000717E+03  0.7818609E-02  0.9905257E-01
        2   -1    0    0  501    0  0.00000000000E+00  0.00000000000E+00  0.13999560588E+03  0.13999560591E+03  0.25500000920E-02 0. -1.
       -2   -1    0    0    0  501  0.00000000000E+00  0.00000000000E+00 -0.64303106926E+03  0.64303106927E+03  0.25500000920E-02 0.  1.
    10030    2    1    2    0    0  0.00000000000E+00  0.00000000000E+00 -0.50303546338E+03  0.78302667517E+03  0.60007174289E+03 0.  0.
        4    1    3    3  502    0 -0.27485516084E+03 -0.73355892027E+01 -0.94818391266E+02  0.29084585355E+03  0.12699999809E+01 0. -1.
       -4    1    3    3    0  502  0.27485516084E+03  0.73355892027E+01 -0.40821707211E+03  0.49218082162E+03  0.12699999809E+01 0.  1.
</event>
<event>
 5   0  0.1337051E-02  0.5998553E+03  0.7818609E-02  0.9905706E-01
       -1   -1    0    0    0  501  0.00000000000E+00  0.00000000000E+00  0.54495070789E+03  0.54495070791E+03  0.50400001928E-02 0. -1.
        1   -1    0    0  501    0  0.00000000000E+00  0.00000000000E+00 -0.16507287644E+03  0.16507287652E+03  0.50400001928E-02 0.  1.
    10030    2    1    2    0    0  0.00000000000E+00  0.00000000000E+00  0.37987783145E+03  0.71002358443E+03  0.59985525223E+03 0.  0.
        5    1    3    3  502    0  0.23681041493E+03 -0.57574769503E+02 -0.16915180681E+02  0.24434041835E+03  0.46999998093E+01 0.  1.
       -5    1    3    3    0  502 -0.23681041493E+03  0.57574769503E+02  0.39679301213E+03  0.46568316609E+03  0.46999998093E+01 0. -1.
</event>
<event>
 5   0  0.2092587E-02  0.5981958E+03  0.7818609E-02  0.9909156E-01
       -2   -1    0    0    0  501  0.00000000000E+00  0.00000000000E+00  0.72229635266E+03  0.72229635267E+03  0.25500000920E-02 0. -1.
        2   -1    0    0  501    0  0.00000000000E+00  0.00000000000E+00 -0.12385438098E+03  0.12385438101E+03  0.25500000920E-02 0.  1.
    10030    2    1    2    0    0  0.00000000000E+00  0.00000000000E+00  0.59844197168E+03  0.84615073368E+03  0.59819584639E+03 0.  0.
        3    1    3    3  502    0 -0.17173443650E+03  0.24190524389E+03  0.35305944680E+03  0.46115273704E+03  0.10100000352E+00 0.  1.
       -3    1    3    3    0  502  0.17173443650E+03 -0.24190524389E+03  0.24538252488E+03  0.38499799664E+03  0.10100000352E+00 0. -1.
</event>
<event>
 5   0  0.2141800E-02  0.5988935E+03  0.7818609E-02  0.9907704E-01
       -2   -1    0    0    0  501  0.00000000000E+00  0.00000000000E+00  0.99676281718E+03  0.99676281718E+03  0.25500000920E-02 0. -1.
        2   -1    0    0  501    0  0.00000000000E+00  0.00000000000E+00 -0.89959575121E+02  0.89959575157E+02  0.25500000920E-02 0.  1.
    10030    2    1    2    0    0  0.00000000000E+00  0.00000000000E+00  0.90680324205E+03  0.10867223923E+04  0.59889351157E+03 0.  0.
        2    1    3    3  502    0 -0.78360431688E+02 -0.27142141382E+03  0.27323570618E+03  0.39302378079E+03  0.25500000920E-02 0.  1.
       -2    1    3    3    0  502  0.78360431688E+02  0.27142141382E+03  0.63356753588E+03  0.69369861154E+03  0.25500000920E-02 0. -1.
</event>
<event>
 5   0  0.1276705E-02  0.5791037E+03  0.7818609E-02  0.9949733E-01
       -1   -1    0    0    0  501  0.00000000000E+00  0.00000000000E+00  0.98590016791E+02  0.98590016920E+02  0.50400001928E-02 0.  1.
        1   -1    0    0  501    0  0.00000000000E+00  0.00000000000E+00 -0.85039313777E+03  0.85039313779E+03  0.50400001928E-02 0. -1.
    10030    2    1    2    0    0  0.00000000000E+00  0.00000000000E+00 -0.75180312098E+03  0.94898315471E+03  0.57910369987E+03 0.  0.
        1    1    3    3  502    0 -0.19679164375E+03  0.13407378652E+03 -0.10594901809E+03  0.26062986349E+03  0.50400001928E-02 0.  1.
       -1    1    3    3    0  502  0.19679164375E+03 -0.13407378652E+03 -0.64585410289E+03  0.68835329122E+03  0.50400001928E-02 0. -1.
</event>
<event>
 5   0  0.2126207E-02  0.5983855E+03  0.7818609E-02  0.9908761E-01
        2   -1    0    0  501    0  0.00000000000E+00  0.00000000000E+00  0.11471251939E+04  0.11471251939E+04  0.25500000920E-02 0.  1.
       -2   -1    0    0    0  501  0.00000000000E+00  0.00000000000E+00 -0.78035331549E+02  0.78035331591E+02  0.25500000920E-02 0. -1.
    10030    2    1    2    0    0  0.00000000000E+00  0.00000000000E+00  0.10690898623E+04  0.12251605254E+04  0.59838547729E+03 0.  0.
        5    1    3    3  502    0 -0.19775723614E+03 -0.38365010416E+02  0.98736987758E+03  0.10077207766E+04  0.46999998093E+01 0.  1.
       -5    1    3    3    0  502  0.19775723614E+03  0.38365010416E+02  0.81719984724E+02  0.21743974883E+03  0.46999998093E+01 0. -1.
</event>
<event>
 5   0  0.2141800E-02  0.6004251E+03  0.7818609E-02  0.9904525E-01
        2   -1    0    0  501    0  0.00000000000E+00  0.00000000000E+00  0.86200676276E+03  0.86200676276E+03  0.25500000920E-02 0. -1.
       -2   -1    0    0    0  501  0.00000000000E+00  0.00000000000E+00 -0.10455552458E+03  0.10455552461E+03  0.25500000920E-02 0.  1.
    10030    2    1    2    0    0  0.00000000000E+00  0.00000000000E+00  0.75745123818E+03  0.96656228737E+03  0.60042508037E+03 0.  0.
        2    1    3    3  502    0 -0.16072717969E+03 -0.21699487035E+03  0.58989492089E+03  0.64876499424E+03  0.25500000920E-02 0. -1.
       -2    1    3    3    0  502  0.16072717969E+03  0.21699487035E+03  0.16755631729E+03  0.31779729313E+03  0.25500000920E-02 0.  1.
</event>
<event>
 5   0  0.1276705E-02  0.6004353E+03  0.7818609E-02  0.9904503E-01
       -1   -1    0    0    0  501  0.00000000000E+00  0.00000000000E+00  0.16670989286E+03  0.16670989294E+03  0.50400001928E-02 0. -1.
        1   -1    0    0  501    0  0.00000000000E+00  0.00000000000E+00 -0.54064368928E+03  0.54064368930E+03  0.50400001928E-02 0.  1.
    10030    2    1    2    0    0  0.00000000000E+00  0.00000000000E+00 -0.37393379642E+03  0.70735358224E+03  0.60043534723E+03 0.  0.
        1    1    3    3  502    0  0.23413931053E+03  0.18779478211E+03 -0.19465189286E+03  0.35773936930E+03  0.50400001928E-02 0.  1.
       -1    1    3    3    0  502 -0.23413931053E+03 -0.18779478211E+03 -0.17928190355E+03  0.34961421294E+03  0.50400001928E-02 0. -1.
</event>
<event>
 5   0  0.2126207E-02  0.6004043E+03  0.7818609E-02  0.9904568E-01
        2   -1    0    0  501    0  0.00000000000E+00  0.00000000000E+00  0.41540841918E+03  0.41540841919E+03  0.25500000920E-02 0.  1.
       -2   -1    0    0    0  501  0.00000000000E+00  0.00000000000E+00 -0.21694629446E+03  0.21694629447E+03  0.25500000920E-02 0. -1.
    10030    2    1    2    0    0  0.00000000000E+00  0.00000000000E+00  0.19846212472E+03  0.63235471366E+03  0.60040425460E+03 0.  0.
        5    1    3    3  502    0 -0.17257709183E+03 -0.92813161820E+01 -0.15924734337E+03  0.23505489109E+03  0.46999998093E+01 0. -1.
       -5    1    3    3    0  502  0.17257709183E+03  0.92813161820E+01  0.35770946809E+03  0.39729982257E+03  0.46999998093E+01 0.  1.
</event>
<event>
 5   0  0.2126207E-02  0.5988512E+03  0.7818609E-02  0.9907792E-01
        2   -1    0    0  501    0  0.00000000000E+00  0.00000000000E+00  0.19303510714E+04  0.19303510714E+04  0.25500000920E-02 0. -1.
       -2   -1    0    0    0  501  0.00000000000E+00  0.00000000000E+00 -0.46445273083E+02  0.46445273153E+02  0.25500000920E-02 0.  1.
    10030    2    1    2    0    0  0.00000000000E+00  0.00000000000E+00  0.18839057984E+04  0.19767963446E+04  0.59885117593E+03 0.  0.
        5    1    3    3  502    0  0.27681572426E+03 -0.10025136821E+03  0.11214337257E+04  0.11594451143E+04  0.46999998093E+01 0. -1.
       -5    1    3    3    0  502 -0.27681572426E+03  0.10025136821E+03  0.76247207269E+03  0.81735123029E+03  0.46999998093E+01 0.  1.
</event>
<event>
 5   0  0.2092587E-02  0.6031548E+03  0.7818609E-02  0.9898882E-01
        2   -1    0    0  501    0  0.00000000000E+00  0.00000000000E+00  0.14867873321E+04  0.14867873321E+04  0.25500000920E-02 0. -1.
       -2   -1    0    0    0  501  0.00000000000E+00  0.00000000000E+00 -0.61171438368E+02  0.61171438421E+02  0.25500000920E-02 0.  1.
    10030    2    1    2    0    0  0.00000000000E+00  0.00000000000E+00  0.14256158937E+04  0.15479587705E+04  0.60315477183E+03 0.  0.
        3    1    3    3  502    0  0.11611877093E+03  0.17183789893E+03  0.15089841951E+03  0.25648036120E+03  0.10100000352E+00 0.  1.
       -3    1    3    3    0  502 -0.11611877093E+03 -0.17183789893E+03  0.12747174742E+04  0.12914784093E+04  0.10100000352E+00 0. -1.
</event>
<event>
 5   0  0.8551000E-03  0.5994693E+03  0.7818609E-02  0.9906508E-01
       -4   -1    0    0    0  501  0.00000000000E+00  0.00000000000E+00  0.13914604308E+03  0.13915183867E+03  0.12699999809E+01 0. -1.
        4   -1    0    0  501    0  0.00000000000E+00  0.00000000000E+00 -0.64563881803E+03  0.64564006711E+03  0.12699999809E+01 0.  1.
    10030    2    1    2    0    0  0.00000000000E+00  0.00000000000E+00 -0.50649277495E+03  0.78479190578E+03  0.59946926885E+03 0.  0.
        1    1    3    3  502    0  0.12027759820E+03  0.43521644594E+02  0.10162600501E+03  0.16336670131E+03  0.50400001928E-02 0. -1.
       -1    1    3    3    0  502 -0.12027759820E+03 -0.43521644594E+02 -0.60811877997E+03  0.62142520447E+03  0.50400001928E-02 0.  1.
</event>
<event>
 5   0  0.1337051E-02  0.6044173E+03  0.7818609E-02  0.9896284E-01
        1   -1    0    0  501    0  0.00000000000E+00  0.00000000000E+00  0.39826087558E+03  0.39826087561E+03  0.50400001928E-02 0. -1.
       -1   -1    0    0    0  501  0.00000000000E+00  0.00000000000E+00 -0.22932219406E+03  0.22932219412E+03  0.50400001928E-02 0.  1.
    10030    2    1    2    0    0  0.00000000000E+00  0.00000000000E+00  0.16893868152E+03  0.62758306973E+03  0.60441726589E+03 0.  0.
        5    1    3    3  502    0 -0.14085645324E+03  0.16519158305E+03  0.30271374890E+03  0.37254060624E+03  0.46999998093E+01 0. -1.
       -5    1    3    3    0  502  0.14085645324E+03 -0.16519158305E+03 -0.13377506738E+03  0.25504246349E+03  0.46999998093E+01 0.  1.
</event>
<event>
 5   0  0.2141800E-02  0.6005523E+03  0.7818609E-02  0.9904261E-01
        2   -1    0    0  501    0  0.00000000000E+00  0.00000000000E+00  0.24985993347E+03  0.24985993348E+03  0.25500000920E-02 0.  1.
       -2   -1    0    0    0  501  0.00000000000E+00  0.00000000000E+00 -0.36086519758E+03  0.36086519759E+03  0.25500000920E-02 0. -1.
    10030    2    1    2    0    0  0.00000000000E+00  0.00000000000E+00 -0.11100526411E+03  0.61072513108E+03  0.60055226006E+03 0.  0.
        2    1    3    3  502    0  0.84948363398E+02  0.21103117743E+03 -0.25482108474E+03  0.34159064321E+03  0.25500000920E-02 0. -1.
       -2    1    3    3    0  502 -0.84948363398E+02 -0.21103117743E+03  0.14381582063E+03  0.26913448787E+03  0.25500000920E-02 0.  1.
</event>
<event>
 5   0  0.2179625E-02  0.5939585E+03  0.7818609E-02  0.9918020E-01
       -2   -1    0    0    0  501  0.00000000000E+00  0.00000000000E+00  0.46784201794E+03  0.46784201795E+03  0.25500000920E-02 0.  1.
        2   -1    0    0  501    0  0.00000000000E+00  0.00000000000E+00 -0.18851807743E+03  0.18851807744E+03  0.25500000920E-02 0. -1.
    10030    2    1    2    0    0  0.00000000000E+00  0.00000000000E+00  0.27932394052E+03  0.65636009539E+03  0.59395850956E+03 0.  0.
        1    1    3    3  502    0 -0.41184100036E+02 -0.16010152180E+02 -0.18486520288E+03  0.19007261331E+03  0.50400001928E-02 0. -1.
       -1    1    3    3    0  502  0.41184100036E+02  0.16010152180E+02  0.46418914340E+03  0.46628748208E+03  0.50400001928E-02 0.  1.
</event>
<event>
 5   0  0.1332555E-02  0.6008310E+03  0.7818609E-02  0.9903683E-01
        1   -1    0    0  501    0  0.00000000000E+00  0.00000000000E+00  0.80836980208E+03  0.80836980209E+03  0.50400001928E-02 0. -1.
       -1   -1    0    0    0  501  0.00000000000E+00  0.00000000000E+00 -0.11164379994E+03  0.11164380005E+03  0.50400001928E-02 0.  1.
    10030    2    1    2    0    0  0.00000000000E+00  0.00000000000E+00  0.69672600213E+03  0.92001360215E+03  0.60083101292E+03 0.  0.
        2    1    3    3  502    0 -0.24095872035E+03  0.14820925805E+03  0.19354620507E+03  0.34276409174E+03  0.25500000920E-02 0.  1.
       -2    1    3    3    0  502  0.24095872035E+03 -0.14820925805E+03  0.50317979706E+03  0.57724951040E+03  0.25500000920E-02 0. -1.
</event>
<event>
 5   0  0.1250390E-02  0.5989822E+03  0.7818609E-02  0.9907520E-01
        1   -1    0    0  501    0  0.00000000000E+00  0.00000000000E+00  0.48957860655E+03  0.48957860658E+03  0.50400001928E-02 0.  1.
       -1   -1    0    0    0  501  0.00000000000E+00  0.00000000000E+00 -0.18320843669E+03  0.18320843676E+03  0.50400001928E-02 0. -1.
    10030    2    1    2    0    0  0.00000000000E+00  0.00000000000E+00  0.30637016986E+03  0.67278704333E+03  0.59898224072E+03 0.  0.
        3    1    3    3  502    0  0.22468150831E+02 -0.29399732111E+03  0.21214786271E+03  0.36324367644E+03  0.10100000352E+00 0. -1.
       -3    1    3    3    0  502 -0.22468150831E+02  0.29399732111E+03  0.94222307157E+02  0.30954336690E+03  0.10100000352E+00 0.  1.
</event>
<event>
 5   0  0.2141800E-02  0.5992426E+03  0.7818609E-02  0.9906979E-01
       -2   -1    0    0    0  501  0.00000000000E+00  0.00000000000E+00  0.59747762735E+02  0.59747762790E+02  0.25500000920E-02 0. -1.
        2   -1    0    0  501    0  0.00000000000E+00  0.00000000000E+00 -0.15025318199E+04  0.15025318199E+04  0.25500000920E-02 0.  1.
    10030    2    1    2    0    0  0.00000000000E+00  0.00000000000E+00 -0.14427840572E+04  0.15622795827E+04  0.59924257099E+03 0.  0.
        2    1    3    3  502    0  0.16426107472E+02  0.11670175202E+03 -0.32164543989E+01  0.11789597753E+03  0.25500000920E-02 0. -1.
       -2    1    3    3    0  502 -0.16426107472E+02 -0.11670175202E+03 -0.14395676028E+04  0.14443836052E+04  0.25500000920E-02 0.  1.
</event>
<event>
 5   0  0.1276705E-02  0.6000537E+03  0.7818609E-02  0.9905295E-01
       -1   -1    0    0    0  501  0.00000000000E+00  0.00000000000E+00  0.13001097064E+03  0.13001097074E+03  0.50400001928E-02 0.  1.
        1   -1    0    0  501    0  0.00000000000E+00  0.00000000000E+00 -0.69237321151E+03  0.69237321153E+03  0.50400001928E-02 0. -1.
    10030    2    1    2    0    0  0.00000000000E+00  0.00000000000E+00 -0.56236224087E+03  0.82238418227E+03  0.60005370868E+03 0.  0.
        1    1    3    3  502    0  0.16919656691E+02  0.47320638328E+02  0.12420167300E+03  0.13398348105E+03  0.50400001928E-02 0.  1.
       -1    1    3    3    0  502 -0.16919656691E+02 -0.47320638328E+02 -0.68656391387E+03  0.68840070122E+03  0.50400001928E-02 0. -1.
</event>
<event>
 5   0  0.1276705E-02  0.5980874E+03  0.7818609E-02  0.9909382E-01
       -1   -1    0    0    0  501  0.00000000000E+00  0.00000000000E+00  0.80585869566E+02  0.80585869723E+02  0.50400001928E-02 0. -1.
        1   -1    0    0  501    0  0.00000000000E+00  0.00000000000E+00 -0.11097123616E+04  0.11097123617E+04  0.50400001928E-02 0.  1.
    10030    2    1    2    0    0  0.00000000000E+00  0.00000000000E+00 -0.10291264921E+04  0.11902982314E+04  0.59808740409E+03 0.  0.
        1    1    3    3  502    0 -0.13277087491E+02  0.87425747945E+02  0.53970721572E+02  0.10359720686E+03  0.50400001928E-02 0. -1.
       -1    1    3    3    0  502  0.13277087491E+02 -0.87425747945E+02 -0.10830972137E+04  0.10867010245E+04  0.50400001928E-02 0.  1.
</event>
<event>
 5   0  0.1332555E-02  0.6032491E+03  0.7818609E-02  0.9898688E-01
       -1   -1    0    0    0  501  0.00000000000E+00  0.00000000000E+00  0.24514081028E+03  0.24514081033E+03  0.50400001928E-02 0.  1.
        1   -1    0    0  501    0  0.00000000000E+00  0.00000000000E+00 -0.37112291864E+03  0.37112291867E+03  0.50400001928E-02 0. -1.
    10030    2    1    2    0    0  0.00000000000E+00  0.00000000000E+00 -0.12598210836E+03  0.61626372900E+03  0.60324911277E+03 0.  0.
        2    1    3    3  502    0  0.29707970908E+03 -0.22361834301E+02 -0.11113492989E+03  0.31797386344E+03  0.25500000920E-02 0.  1.
       -2    1    3    3    0  502 -0.29707970908E+03  0.22361834301E+02 -0.14847178461E+02  0.29828986556E+03  0.25500000920E-02 0. -1.
</event>
<event>
 5   0  0.2142838E-02  0.6005441E+03  0.7818609E-02  0.9904278E-01
       -2   -1    0    0    0  501  0.00000000000E+00  0.00000000000E+00  0.11587980394E+03  0.11587980397E+03  0.25500000920E-02 0.  1.
        2   -1    0    0  501    0  0.00000000000E+00  0.00000000000E+00 -0.77807610739E+03  0.77807610739E+03  0.25500000920E-02 0. -1.
    10030    2    1    2    0    0  0.00000000000E+00  0.00000000000E+00 -0.66219630345E+03  0.89395591137E+03  0.60054410926E+03 0.  0.
        4    1    3    3  502    0  0.17083787395E+03 -0.22082052302E+03 -0.49561389343E+03  0.56884270833E+03  0.12699999809E+01 0. -1.
       -4    1    3    3    0  502 -0.17083787395E+03  0.22082052302E+03 -0.16658241002E+03  0.32511320304E+03  0.12699999809E+01 0.  1.
</event>
<event>
 5   0  0.8551000E-03  0.6003592E+03  0.7818609E-02  0.9904661E-01
       -4   -1    0    0    0  501  0.00000000000E+00  0.00000000000E+00  0.44831703817E+02  0.44849688595E+02  0.12699999809E+01 0.  1.
        4   -1    0    0  501    0  0.00000000000E+00  0.00000000000E+00 -0.20094908120E+04  0.20094912133E+04  0.12699999809E+01 0. -1.
    10030    2    1    2    0    0  0.00000000000E+00  0.00000000000E+00 -0.19646591082E+04  0.20543409019E+04  0.60035916743E+03 0.  0.
        2    1    3    3  502    0  0.75629255292E+02  0.29032781473E+03 -0.10161623577E+04  0.10595262910E+04  0.25500000920E-02 0. -1.
       -2    1    3    3    0  502 -0.75629255292E+02 -0.29032781473E+03 -0.94849675049E+03  0.99481461085E+03  0.25500000920E-02 0.  1.
</event>
<event>
 5   0  0.2142838E-02  0.5991791E+03  0.7818609E-02  0.9907111E-01
       -2   -1    0    0    0  501  0.00000000000E+00  0.00000000000E+00  0.28404355993E+03  0.28404355994E+03  0.25500000920E-02 0. -1.
        2   -1    0    0  501    0  0.00000000000E+00  0.00000000000E+00 -0.31598638128E+03  0.31598638129E+03  0.25500000920E-02 0.  1.
    10030    2    1    2    0    0  0.00000000000E+00  0.00000000000E+00 -0.31942821356E+02  0.60002994123E+03  0.59917909387E+03 0.  0.
        4    1    3    3  502    0 -0.92427671014E+02  0.24671123072E+03 -0.15880275865E+03  0.30761865156E+03  0.12699999809E+01 0.  1.
       -4    1    3    3    0  502  0.92427671014E+02 -0.24671123072E+03  0.12685993729E+03  0.29241128967E+03  0.12699999809E+01 0. -1.
</event>
<event>
 5   0  0.2179625E-02  0.6028743E+03  0.7818609E-02  0.9899461E-01
       -2   -1    0    0    0  501  0.00000000000E+00  0.00000000000E+00  0.70276942548E+03  0.70276942549E+03  0.25500000920E-02 0. -1.
        2   -1    0    0  501    0  0.00000000000E+00  0.00000000000E+00 -0.12929471069E+03  0.12929471071E+03  0.25500000920E-02 0.  1.
    10030    2    1    2    0    0  0.00000000000E+00  0.00000000000E+00  0.57347471479E+03  0.83206413620E+03  0.60287434698E+03 0.  0.
        1    1    3    3  502    0  0.10708519068E+03  0.74772699308E+02  0.66168993881E+03  0.67445664781E+03  0.50400001928E-02 0. -1.
       -1    1    3    3    0  502 -0.10708519068E+03 -0.74772699308E+02 -0.88215224017E+02  0.15760748839E+03  0.50400001928E-02 0.  1.
</event>
<event>
 5   0  0.2126207E-02  0.6004245E+03  0.7818609E-02  0.9904526E-01
        2   -1    0    0  501    0  0.00000000000E+00  0.00000000000E+00  0.68724596692E+03  0.68724596692E+03  0.25500000920E-02 0.  1.
       -2   -1    0    0    0  501  0.00000000000E+00  0.00000000000E+00 -0.13114285083E+03  0.13114285085E+03  0.25500000920E-02 0. -1.
    10030    2    1    2    0    0  0.00000000000E+00  0.00000000000E+00  0.55610311609E+03  0.81838881778E+03  0.60042450095E+03 0.  0.
        5    1    3    3  502    0 -0.69289500933E+02 -0.20279354329E+02  0.67518573904E+03  0.67905092545E+03  0.46999998093E+01 0.  1.
       -5    1    3    3    0  502  0.69289500933E+02  0.20279354329E+02 -0.11908262295E+03  0.13933789233E+03  0.46999998093E+01 0. -1.
</event>
<event>
 5   0  0.2092587E-02  0.6002926E+03  0.7818609E-02  0.9904799E-01
        2   -1    0    0  501    0  0.00000000000E+00  0.00000000000E+00  0.32384632561E+03  0.32384632562E+03  0.25500000920E-02 0. -1.
       -2   -1    0    0    0  501  0.00000000000E+00  0.00000000000E+00 -0.27818066899E+03  0.27818066900E+03  0.25500000920E-02 0.  1.
    10030    2    1    2    0    0  0.00000000000E+00  0.00000000000E+00  0.45665656620E+02  0.60202699463E+03  0.60029255373E+03 0.  0.
        3    1    3    3  502    0  0.93012877876E+01  0.46058737664E+02 -0.27446906673E+03  0.27846220581E+03  0.10100000352E+00 0.  1.
       -3    1    3    3    0  502 -0.93012877876E+01 -0.46058737664E+02  0.32013472335E+03  0.32356478882E+03  0.10100000352E+00 0. -1.
</event>
<event>
 5   0  0.2142838E-02  0.5994042E+03  0.7818609E-02  0.9906643E-01
        2   -1    0    0  501    0  0.00000000000E+00  0.00000000000E+00  0.29289772434E+03  0.29289772435E+03  0.25500000920E-02 0.  1.
       -2   -1    0    0    0  501  0.00000000000E+00  0.00000000000E+00 -0.30666459630E+03  0.30666459631E+03  0.25500000920E-02 0. -1.
    10030    2    1    2    0    0  0.00000000000E+00  0.00000000000E+00 -0.13766871962E+02  0.59956232067E+03  0.59940424556E+03 0.  0.
        4    1    3    3  502    0  0.21082376873E+03 -0.21103158930E+03 -0.35852364316E+02  0.30044633143E+03  0.12699999809E+01 0.  1.
       -4    1    3    3    0  502 -0.21082376873E+03  0.21103158930E+03  0.22085492354E+02  0.29911598924E+03  0.12699999809E+01 0. -1.
</event>
<event>
 5   0  0.1250390E-02  0.6024610E+03  0.7818609E-02  0.9900313E-01
        1   -1    0    0  501    0  0.00000000000E+00  0.00000000000E+00  0.30719251230E+03  0.30719251234E+03  0.50400001928E-02 0. -1.
       -1   -1    0    0    0  501  0.00000000000E+00  0.00000000000E+00 -0.29538422775E+03  0.29538422779E+03  0.50400001928E-02 0.  1.
    10030    2    1    2    0    0  0.00000000000E+00  0.00000000000E+00  0.11808284546E+02  0.60257674013E+03  0.60246102958E+03 0.  0.
        3    1    3    3  502    0  0.24028544261E+03  0.17491120049E+03  0.54993002734E+02  0.30225033091E+03  0.10100000352E+00 0. -1.
       -3    1    3    3    0  502 -0.24028544261E+03 -0.17491120049E+03 -0.43184718188E+02  0.30032640922E+03  0.10100000352E+00 0.  1.
</event>
<event>
 5   0  0.1332555E-02  0.5927147E+03  0.7818609E-02  0.9920637E-01
        1   -1    0    0  501    0  0.00000000000E+00  0.00000000000E+00  0.16212440268E+04  0.16212440268E+04  0.50400001928E-02 0. -1.
       -1   -1    0    0    0  501  0.00000000000E+00  0.00000000000E+00 -0.54173015478E+02  0.54173015713E+02  0.50400001928E-02 0.  1.
    10030    2    1    2    0    0  0.00000000000E+00  0.00000000000E+00  0.15670710113E+04  0.16754170425E+04  0.59271469684E+03 0.  0.
        2    1    3    3  502    0 -0.17391492969E+03  0.34619164423E+02  0.11233772982E+03  0.20991582804E+03  0.25500000920E-02 0.  1.
       -2    1    3    3    0  502  0.17391492969E+03 -0.34619164423E+02  0.14547332815E+04  0.14655012145E+04  0.25500000920E-02 0. -1.
</event>
<event>
 5   0  0.1250390E-02  0.6040820E+03  0.7818609E-02  0.9896973E-01
        1   -1    0    0  501    0  0.00000000000E+00  0.00000000000E+00  0.11607528107E+03  0.11607528118E+03  0.50400001928E-02 0.  1.
       -1   -1    0    0    0  501  0.00000000000E+00  0.00000000000E+00 -0.78594469251E+03  0.78594469252E+03  0.50400001928E-02 0. -1.
    10030    2    1    2    0    0  0.00000000000E+00  0.00000000000E+00 -0.66986941144E+03  0.90201997370E+03  0.60408195187E+03 0.  0.
        3    1    3    3  502    0  0.14639787528E+03 -0.14334897816E+03 -0.35654048487E+01  0.20492435126E+03  0.10100000352E+00 0.  1.
       -3    1    3    3    0  502 -0.14639787528E+03  0.14334897816E+03 -0.66630400659E+03  0.69709562244E+03  0.10100000352E+00 0. -1.
</event>
<event>
 5   0  0.2142838E-02  0.6000548E+03  0.7818609E-02  0.9905292E-01
       -2   -1    0    0    0  501  0.00000000000E+00  0.00000000000E+00  0.81197615815E+03  0.81197615816E+03  0.25500000920E-02 0. -1.
        2   -1    0    0  501    0  0.00000000000E+00  0.00000000000E+00 -0.11086093961E+03  0.11086093964E+03  0.25500000920E-02 0.  1.
    10030    2    1    2    0    0  0.00000000000E+00  0.00000000000E+00  0.70111521854E+03  0.92283709780E+03  0.60005479701E+03 0.  0.
        4    1    3    3  502    0  0.13995638084E+03 -0.23603608467E+03  0.53710946973E+03  0.60314924951E+03  0.12699999809E+01 0. -1.
       -4    1    3    3    0  502 -0.13995638084E+03  0.23603608467E+03  0.16400574881E+03  0.31968784829E+03  0.12699999809E+01 0.  1.
</event>
<event>
 5   0  0.1276705E-02  0.6027807E+03  0.7818609E-02  0.9899654E-01
        1   -1    0    0  501    0  0.00000000000E+00  0.00000000000E+00  0.96433240574E+03  0.96433240576E+03  0.50400001928E-02 0.  1.
       -1   -1    0    0    0  501  0.00000000000E+00  0.00000000000E+00 -0.94195876430E+02  0.94195876565E+02  0.50400001928E-02 0. -1.
    10030    2    1    2    0    0  0.00000000000E+00  0.00000000000E+00  0.87013652931E+03  0.10585282823E+04  0.60278067722E+03 0.  0.
        1    1    3    3  502    0  0.29845654080E+03  0.37769692434E+02  0.40300943821E+03  0.50291098986E+03  0.50400001928E-02 0.  1.
       -1    1    3    3    0  502 -0.29845654080E+03 -0.37769692434E+02  0.46712709110E+03  0.55561729246E+03  0.50400001928E-02 0. -1.
</event>
<event>
 5   0  0.1337051E-02  0.5998585E+03  0.7818609E-02  0.9905700E-01
       -1   -1    0    0    0  501  0.00000000000E+00  0.00000000000E+00  0.15435644362E+03  0.15435644370E+03  0.50400001928E-02 0.  1.
        1   -1    0    0  501    0  0.00000000000E+00  0.00000000000E+00 -0.58279107590E+03  0.58279107592E+03  0.50400001928E-02 0. -1.
    10030    2    1    2    0    0  0.00000000000E+00  0.00000000000E+00 -0.42843463228E+03  0.73714751962E+03  0.59985850961E+03 0.  0.
        5    1    3    3  502    0  0.14779341912E+03  0.13131957500E+03  0.62885807879E+02  0.20751973483E+03  0.46999998093E+01 0.  1.
       -5    1    3    3    0  502 -0.14779341912E+03 -0.13131957500E+03 -0.49132044015E+03  0.52962778479E+03  0.46999998093E+01 0. -1.
</event>
<event>
 5   0  0.1276705E-02  0.5954791E+03  0.7818609E-02  0.9914830E-01
       -1   -1    0    0    0  501  0.00000000000E+00  0.00000000000E+00  0.51290157933E+03  0.51290157935E+03  0.50400001928E-02 0. -1.
        1   -1    0    0  501    0  0.00000000000E+00  0.00000000000E+00 -0.17283789754E+03  0.17283789761E+03  0.50400001928E-02 0.  1.
    10030    2    1    2    0    0  0.00000000000E+00  0.00000000000E+00  0.34006368179E+03  0.68573947697E+03  0.59547906983E+03 0.  0.
        1    1    3    3  502    0  0.18287212558E+03  0.14305863617E+03  0.38467291175E+03  0.44931195928E+03  0.50400001928E-02 0. -1.
       -1    1    3    3    0  502 -0.18287212558E+03 -0.14305863617E+03 -0.44609229962E+02  0.23642751768E+03  0.50400001928E-02 0.  1.
</event>
<event>
 5   0  0.1332555E-02  0.5987647E+03  0.7818609E-02  0.9907972E-01
       -1   -1    0    0    0  501  0.00000000000E+00  0.00000000000E+00  0.84263354865E+03  0.84263354867E+03  0.50400001928E-02 0. -1.
        1   -1    0    0  501    0  0.00000000000E+00  0.00000000000E+00 -0.10636863888E+03  0.10636863900E+03  0.50400001928E-02 0.  1.
    10030    2    1    2    0    0  0.00000000000E+00  0.00000000000E+00  0.73626490977E+03  0.94900218767E+03  0.59876467401E+03 0.  0.
        2    1    3    3  502    0 -0.87898990343E+02 -0.42932096023E+02 -0.80323592122E+02  0.12657518252E+03  0.25500000920E-02 0.  1.
       -2    1    3    3    0  502  0.87898990343E+02  0.42932096023E+02  0.81658850189E+03  0.82242700515E+03  0.25500000920E-02 0. -1.
</event>
<event>
 5   0  0.2126207E-02  0.5972045E+03  0.7818609E-02  0.9911223E-01
        2   -1    0    0  501    0  0.00000000000E+00  0.00000000000E+00  0.53370475553E+03  0.53370475554E+03  0.25500000920E-02 0.  1.
       -2   -1    0    0    0  501  0.00000000000E+00  0.00000000000E+00 -0.16706484101E+03  0.16706484102E+03  0.25500000920E-02 0. -1.
    10030    2    1    2    0    0  0.00000000000E+00  0.00000000000E+00  0.36663991453E+03  0.70076959657E+03  0.59720448805E+03 0.  0.
        5    1    3    3  502    0  0.30424450169E+02 -0.23541970201E+03  0.39581245585E+03  0.46156004319E+03  0.46999998093E+01 0.  1.
       -5    1    3    3    0  502 -0.30424450169E+02  0.23541970201E+03 -0.29172541325E+02  0.23920955338E+03  0.46999998093E+01 0. -1.
</event>
<event>
 5   0  0.2142838E-02  0.5960139E+03  0.7818609E-02  0.9913711E-01
       -2   -1    0    0    0  501  0.00000000000E+00  0.00000000000E+00  0.32829258442E+03  0.32829258443E+03  0.25500000920E-02 0.  1.
        2   -1    0    0  501    0  0.00000000000E+00  0.00000000000E+00 -0.27051521661E+03  0.27051521663E+03  0.25500000920E-02 0. -1.
    10030    2    1    2    0    0  0.00000000000E+00  0.00000000000E+00  0.57777367809E+02  0.59880780106E+03  0.59601389109E+03 0.  0.
        4    1    3    3  502    0 -0.12730002255E+03 -0.13844926426E+03  0.26112812502E+03  0.32181206486E+03  0.12699999809E+01 0.  1.
       -4    1    3    3    0  502  0.12730002255E+03  0.13844926426E+03 -0.20335075721E+03  0.27699573620E+03  0.12699999809E+01 0. -1.
</event>
<event>
 5   0  0.1250390E-02  0.5945051E+03  0.7818609E-02  0.9916872E-01
       -1   -1    0    0    0  501  0.00000000000E+00  0.00000000000E+00  0.69422686811E+02  0.69422686994E+02  0.50400001928E-02 0. -1.
        1   -1    0    0  501    0  0.00000000000E+00  0.00000000000E+00 -0.12727696845E+04  0.12727696845E+04  0.50400001928E-02 0.  1.
    10030    2    1    2    0    0  0.00000000000E+00  0.00000000000E+00 -0.12033469977E+04  0.13421923715E+04  0.59450514318E+03 0.  0.
        3    1    3    3  502    0 -0.16186057578E+02 -0.13893814883E+03 -0.11938240928E+04  0.12019907539E+04  0.10100000352E+00 0.  1.
       -3    1    3    3    0  502  0.16186057578E+02  0.13893814883E+03 -0.95229048642E+01  0.14020161760E+03  0.10100000352E+00 0. -1.
</event>
<event>
 5   0  0.8551000E-03  0.6014969E+03  0.7818609E-02  0.9902305E-01
       -4   -1    0    0    0  501  0.00000000000E+00  0.00000000000E+00  0.17528866261E+03  0.17529326325E+03  0.12699999809E+01 0.  1.
        4   -1    0    0  501    0  0.00000000000E+00  0.00000000000E+00 -0.51599165381E+03  0.51599321673E+03  0.12699999809E+01 0. -1.
    10030    2    1    2    0    0  0.00000000000E+00  0.00000000000E+00 -0.34070299120E+03  0.69128647998E+03  0.60149685717E+03 0.  0.
        5    1    3    3  502    0  0.85836202618E+02 -0.43089583946E+02  0.15714799929E+03  0.18423395345E+03  0.46999998093E+01 0.  1.
       -5    1    3    3    0  502 -0.85836202618E+02  0.43089583946E+02 -0.49785099049E+03  0.50705252653E+03  0.46999998093E+01 0. -1.
</event>
<event>
 5   0  0.2142838E-02  0.6000591E+03  0.7818609E-02  0.9905284E-01
       -2   -1    0    0    0  501  0.00000000000E+00  0.00000000000E+00  0.60732295310E+02  0.60732295363E+02  0.25500000920E-02 0.  1.
        2   -1    0    0  501    0  0.00000000000E+00  0.00000000000E+00 -0.14822051685E+04  0.14822051685E+04  0.25500000920E-02 0. -1.
    10030    2    1    2    0    0  0.00000000000E+00  0.00000000000E+00 -0.14214728732E+04  0.15429374639E+04  0.60005907058E+03 0.  0.
        4    1    3    3  502    0 -0.64808950693E+02 -0.13751687040E+02  0.41681563590E+02  0.78283297259E+02  0.12699999809E+01 0.  1.
       -4    1    3    3    0  502  0.64808950693E+02  0.13751687040E+02 -0.14631544368E+04  0.14646541666E+04  0.12699999809E+01 0. -1.
</event>
<event>
 5   0  0.1276705E-02  0.5983675E+03  0.7818609E-02  0.9908799E-01
        1   -1    0    0  501    0  0.00000000000E+00  0.00000000000E+00  0.10233537774E+03  0.10233537787E+03  0.50400001928E-02 0. -1.
       -1   -1    0    0    0  501  0.00000000000E+00  0.00000000000E+00 -0.87468212782E+03  0.87468212784E+03  0.50400001928E-02 0.  1.
    10030    2    1    2    0    0  0.00000000000E+00  0.00000000000E+00 -0.77234675008E+03  0.97701750570E+03  0.59836753262E+03 0.  0.
        1    1    3    3  502    0  0.30516695699E+02 -0.28970308024E+03 -0.27480957841E+03  0.40047402891E+03  0.50400001928E-02 0. -1.
       -1    1    3    3    0  502 -0.30516695699E+02  0.28970308024E+03 -0.49753717167E+03  0.57654347680E+03  0.50400001928E-02 0.  1.
</event>
<event>
 5   0  0.2179625E-02  0.5991534E+03  0.7818609E-02  0.9907164E-01
        2   -1    0    0  501    0  0.00000000000E+00  0.00000000000E+00  0.22474739943E+03  0.22474739944E+03  0.25500000920E-02 0. -1.
       -2   -1    0    0    0  501  0.00000000000E+00  0.00000000000E+00 -0.39932029504E+03  0.39932029504E+03  0.25500000920E-02 0.  1.
    10030    2    1    2    0    0  0.00000000000E+00  0.00000000000E+00 -0.17457289561E+03  0.62406769448E+03  0.59915339556E+03 0.  0.
        1    1    3    3  502    0  0.43069431767E+01 -0.24001191336E+03  0.99392132290E+02  0.25981351832E+03  0.50400001928E-02 0. -1.
       -1    1    3    3    0  502 -0.43069431767E+01  0.24001191336E+03 -0.27396502790E+03  0.36425417616E+03  0.50400001928E-02 0.  1.
</event>
<event>
 5   0  0.1303808E-02  0.6007205E+03  0.7818609E-02  0.9903912E-01
        1   -1    0    0  501    0  0.00000000000E+00  0.00000000000E+00  0.17017201281E+03  0.17017201288E+03  0.50400001928E-02 0. -1.
       -1   -1    0    0    0  501  0.00000000000E+00  0.00000000000E+00 -0.53014763632E+03  0.53014763635E+03  0.50400001928E-02 0.  1.
    10030    2    1    2    0    0  0.00000000000E+00  0.00000000000E+00 -0.35997562351E+03  0.70031964923E+03  0.60072053534E+03 0.  0.
        4    1    3    3  502    0 -0.20004954966E+03 -0.13349736003E+03 -0.38974525787E+03  0.45797854359E+03  0.12699999809E+01 0.  1.
       -4    1    3    3    0  502  0.20004954966E+03  0.13349736003E+03  0.29769634353E+02  0.24234110564E+03  0.12699999809E+01 0. -1.
</event>
<event>
 5   0  0.1276705E-02  0.6006912E+03  0.7818609E-02  0.9903973E-01
        1   -1    0    0  501    0  0.00000000000E+00  0.00000000000E+00  0.13391195424E+04  0.13391195424E+04  0.50400001928E-02 0. -1.
       -1   -1    0    0    0  501  0.00000000000E+00  0.00000000000E+00 -0.67363270799E+02  0.67363270987E+02  0.50400001928E-02 0.  1.
    10030    2    1    2    0    0  0.00000000000E+00  0.00000000000E+00  0.12717562716E+04  0.14064828133E+04  0.60069117690E+03 0.  0.
        1    1    3    3  502    0 -0.84286396770E+02 -0.44097055821E+02 -0.31160186932E+02  0.10009847295E+03  0.50400001928E-02 0.  1.
       -1    1    3    3    0  502  0.84286396770E+02  0.44097055821E+02  0.13029164585E+04  0.13063843404E+04  0.50400001928E-02 0. -1.
</event>
<event>
 5   0  0.2092587E-02  0.6207417E+03  0.7818609E-02  0.9863284E-01
       -2   -1    0    0    0  501  0.00000000000E+00  0.00000000000E+00  0.17580823295E+03  0.17580823297E+03  0.25500000920E-02 0.  1.
        2   -1    0    0  501    0  0.00000000000E+00  0.00000000000E+00 -0.54792698066E+03  0.54792698066E+03  0.25500000920E-02 0. -1.
    10030    2    1    2    0    0  0.00000000000E+00  0.00000000000E+00 -0.37211874771E+03  0.72373521363E+03  0.62074173136E+03 0.  0.
        3    1    3    3  502    0  0.18296631964E+03 -0.17787458560E+02  0.10550688846E+03  0.21195466854E+03  0.10100000352E+00 0.  1.
       -3    1    3    3    0  502 -0.18296631964E+03  0.17787458560E+02 -0.47762563616E+03  0.51178054509E+03  0.10100000352E+00 0. -1.
</event>
<event>
 5   0  0.1337051E-02  0.5792020E+03  0.7818609E-02  0.9949520E-01
        1   -1    0    0  501    0  0.00000000000E+00  0.00000000000E+00  0.38492598254E+03  0.38492598257E+03  0.50400001928E-02 0.  1.
       -1   -1    0    0    0  501  0.00000000000E+00  0.00000000000E+00 -0.21788279820E+03  0.21788279826E+03  0.50400001928E-02 0. -1.
    10030    2    1    2    0    0  0.00000000000E+00  0.00000000000E+00  0.16704318434E+03  0.60280878083E+03  0.57920203799E+03 0.  0.
        5    1    3    3  502    0  0.16603237252E+03 -0.11415547043E+03  0.29996019023E+03  0.36138127493E+03  0.46999998093E+01 0.  1.
       -5    1    3    3    0  502 -0.16603237252E+03  0.11415547043E+03 -0.13291700589E+03  0.24142750590E+03  0.46999998093E+01 0. -1.
</event>
<event>
 5   0  0.2092587E-02  0.6009321E+03  0.7818609E-02  0.9903474E-01
       -2   -1    0    0    0  501  0.00000000000E+00  0.00000000000E+00  0.58523298890E+02  0.58523298946E+02  0.25500000920E-02 0.  1.
        2   -1    0    0  501    0  0.00000000000E+00  0.00000000000E+00 -0.15426310432E+04  0.15426310432E+04  0.25500000920E-02 0. -1.
    10030    2    1    2    0    0  0.00000000000E+00  0.00000000000E+00 -0.14841077443E+04  0.16011543422E+04  0.60093213483E+03 0.  0.
        3    1    3    3  502    0 -0.21281713511E+03  0.16406791669E+03 -0.11002262175E+04  0.11325666224E+04  0.10100000352E+00 0.  1.
       -3    1    3    3    0  502  0.21281713511E+03 -0.16406791669E+03 -0.38388152683E+03  0.46858771978E+03  0.10100000352E+00 0. -1.
</event>
<event>
 5   0  0.2142838E-02  0.5997951E+03  0.7818609E-02  0.9905831E-01
       -2   -1    0    0    0  501  0.00000000000E+00  0.00000000000E+00  0.64462285419E+02  0.64462285469E+02  0.25500000920E-02 0. -1.
        2   -1    0    0  501    0  0.00000000000E+00  0.00000000000E+00 -0.13952119340E+04  0.13952119340E+04  0.25500000920E-02 0.  1.
    10030    2    1    2    0    0  0.00000000000E+00  0.00000000000E+00 -0.13307496486E+04  0.14596742195E+04  0.59979513152E+03 0.  0.
        4    1    3    3  502    0 -0.28582700091E+03 -0.71529025822E+02 -0.80138488970E+03  0.85383419370E+03  0.12699999809E+01 0. -1.
       -4    1    3    3    0  502  0.28582700091E+03  0.71529025822E+02 -0.52936475888E+03  0.60584002577E+03  0.12699999809E+01 0.  1.
</event>
<event>
 5   0  0.2092587E-02  0.6022085E+03  0.7818609E-02  0.9900835E-01
       -2   -1    0    0    0  501  0.00000000000E+00  0.00000000000E+00  0.12089656430E+03  0.12089656433E+03  0.25500000920E-02 0.  1.
        2   -1    0    0  501    0  0.00000000000E+00  0.00000000000E+00 -0.74992841832E+03  0.74992841833E+03  0.25500000920E-02 0. -1.
    10030    2    1    2    0    0  0.00000000000E+00  0.00000000000E+00 -0.62903185402E+03  0.87082498266E+03  0.60220849964E+03 0.  0.
        3    1    3    3  502    0  0.15814874064E+03 -0.43108816366E+01 -0.68498242115E+03  0.70301531658E+03  0.10100000352E+00 0. -1.
       -3    1    3    3    0  502 -0.15814874064E+03  0.43108816366E+01  0.55950567127E+02  0.16780966607E+03  0.10100000352E+00 0.  1.
</event>
<event>
 5   0  0.2179625E-02  0.5993582E+03  0.7818609E-02  0.9906739E-01
       -2   -1    0    0    0  501  0.00000000000E+00  0.00000000000E+00  0.59537845995E+02  0.59537846050E+02  0.25500000920E-02 0. -1.
        2   -1    0    0  501    0  0.00000000000E+00  0.00000000000E+00 -0.15084111799E+04  0.15084111799E+04  0.25500000920E-02 0.  1.
    10030    2    1    2    0    0  0.00000000000E+00  0.00000000000E+00 -0.14488733339E+04  0.15679490260E+04  0.59935816528E+03 0.  0.
        1    1    3    3  502    0 -0.71290719073E+02 -0.23326847357E+03 -0.11798918856E+04  0.12048408232E+04  0.50400001928E-02 0.  1.
       -1    1    3    3    0  502  0.71290719073E+02  0.23326847357E+03 -0.26898144830E+03  0.36310820280E+03  0.50400001928E-02 0. -1.
</event>
<event>
 5   0  0.8551000E-03  0.5974526E+03  0.7818609E-02  0.9910705E-01
       -4   -1    0    0    0  501  0.00000000000E+00  0.00000000000E+00  0.42734543651E+03  0.42734732362E+03  0.12699999809E+01 0.  1.
        4   -1    0    0  501    0  0.00000000000E+00  0.00000000000E+00 -0.20881366219E+03  0.20881752421E+03  0.12699999809E+01 0. -1.
    10030    2    1    2    0    0  0.00000000000E+00  0.00000000000E+00  0.21853177432E+03  0.63616484783E+03  0.59745257320E+03 0.  0.
        5    1    3    3  502    0 -0.83241456593E+02  0.22729766379E+03 -0.77064015006E+02  0.25407542279E+03  0.46999998093E+01 0. -1.
       -5    1    3    3    0  502  0.83241456593E+02 -0.22729766379E+03  0.29559578933E+03  0.38208942504E+03  0.46999998093E+01 0.  1.
</event>
<event>
 5   0  0.1303808E-02  0.5978033E+03  0.7818609E-02  0.9909974E-01
       -1   -1    0    0    0  501  0.00000000000E+00  0.00000000000E+00  0.19158936961E+03  0.19158936967E+03  0.50400001928E-02 0. -1.
        1   -1    0    0  501    0  0.00000000000E+00  0.00000000000E+00 -0.46632119731E+03  0.46632119733E+03  0.50400001928E-02 0.  1.
    10030    2    1    2    0    0  0.00000000000E+00  0.00000000000E+00 -0.27473182770E+03  0.65791056701E+03  0.59780325947E+03 0.  0.
        4    1    3    3  502    0  0.69615899994E+02 -0.18783217917E+03  0.10678013258E+03  0.22700420850E+03  0.12699999809E+01 0. -1.
       -4    1    3    3    0  502 -0.69615899994E+02  0.18783217917E+03 -0.38151196028E+03  0.43090635851E+03  0.12699999809E+01 0.  1.
</event>
<event>
 5   0  0.2126207E-02  0.6025453E+03  0.7818609E-02  0.9900139E-01
       -2   -1    0    0    0  501  0.00000000000E+00  0.00000000000E+00  0.17656824753E+03  0.17656824755E+03  0.25500000920E-02 0.  1.
        2   -1    0    0  501    0  0.00000000000E+00  0.00000000000E+00 -0.51405169642E+03  0.51405169643E+03  0.25500000920E-02 0. -1.
    10030    2    1    2    0    0  0.00000000000E+00  0.00000000000E+00 -0.33748344889E+03  0.69061994398E+03  0.60254529187E+03 0.  0.
        5    1    3    3  502    0  0.17161885959E+03 -0.10529395746E+03  0.88070331384E+02  0.21981429369E+03  0.46999998093E+01 0.  1.
       -5    1    3    3    0  502 -0.17161885959E+03  0.10529395746E+03 -0.42555378027E+03  0.47080565029E+03  0.46999998093E+01 0. -1.
</event>
<event>
 5   0  0.1276705E-02  0.6011981E+03  0.7818609E-02  0.9902923E-01
       -1   -1    0    0    0  501  0.00000000000E+00  0.00000000000E+00  0.47717012288E+02  0.47717012554E+02  0.50400001928E-02 0.  1.
        1   -1    0    0  501    0  0.00000000000E+00  0.00000000000E+00 -0.18936600127E+04  0.18936600127E+04  0.50400001928E-02 0. -1.
    10030    2    1    2    0    0  0.00000000000E+00  0.00000000000E+00 -0.18459430004E+04  0.19413770253E+04  0.60119813160E+03 0.  0.
        1    1    3    3  502    0  0.18188377742E+03  0.95700036697E+02 -0.21461279498E+03  0.29715123642E+03  0.50400001928E-02 0.  1.
       -1    1    3    3    0  502 -0.18188377742E+03 -0.95700036697E+02 -0.16313302054E+04  0.16442257889E+04  0.50400001928E-02 0. -1.
</event>
<event>
 5   0  0.8551000E-03  0.6006372E+03  0.7818609E-02  0.9904085E-01
       -3   -1    0    0    0  501  0.00000000000E+00  0.00000000000E+00  0.15770072138E+03  0.15770075372E+03  0.10100000352E+00 0. -1.
        3   -1    0    0  501    0  0.00000000000E+00  0.00000000000E+00 -0.57191395166E+03  0.57191396058E+03  0.10100000352E+00 0.  1.
    10030    2    1    2    0    0  0.00000000000E+00  0.00000000000E+00 -0.41421323028E+03  0.72961471431E+03  0.60063718765E+03 0.  0.
        5    1    3    3  502    0  0.25936766543E+03  0.14189522356E+03 -0.27096200237E+03  0.40105901943E+03  0.46999998093E+01 0. -1.
       -5    1    3    3    0  502 -0.25936766543E+03 -0.14189522356E+03 -0.14325122791E+03  0.32855569488E+03  0.46999998093E+01 0.  1.
</event>
<event>
 5   0  0.1303808E-02  0.5990449E+03  0.7818609E-02  0.9907390E-01
       -1   -1    0    0    0  501  0.00000000000E+00  0.00000000000E+00  0.19363767797E+03  0.19363767804E+03  0.50400001928E-02 0. -1.
        1   -1    0    0  501    0  0.00000000000E+00  0.00000000000E+00 -0.46330704685E+03  0.46330704688E+03  0.50400001928E-02 0.  1.
    10030    2    1    2    0    0  0.00000000000E+00  0.00000000000E+00 -0.26966936888E+03  0.65694472492E+03  0.59904490907E+03 0.  0.
        4    1    3    3  502    0  0.14364209608E+03  0.10510891733E+03  0.12934538046E+03  0.22002903584E+03  0.12699999809E+01 0. -1.
       -4    1    3    3    0  502 -0.14364209608E+03 -0.10510891733E+03 -0.39901474934E+03  0.43691568907E+03  0.12699999809E+01 0.  1.
</event>
<event>
 5   0  0.1337051E-02  0.5987505E+03  0.7818609E-02  0.9908002E-01
       -1   -1    0    0    0  501  0.00000000000E+00  0.00000000000E+00  0.25796251457E+03  0.25796251462E+03  0.50400001928E-02 0.  1.
        1   -1    0    0  501    0  0.00000000000E+00  0.00000000000E+00 -0.34743631506E+03  0.34743631509E+03  0.50400001928E-02 0. -1.
    10030    2    1    2    0    0  0.00000000000E+00  0.00000000000E+00 -0.89473800483E+02  0.60539882972E+03  0.59875051737E+03 0.  0.
        5    1    3    3  502    0  0.26113184190E+03 -0.62641196141E+02 -0.17845396068E+03  0.32246188052E+03  0.46999998093E+01 0. -1.
       -5    1    3    3    0  502 -0.26113184190E+03  0.62641196141E+02  0.88980160199E+02  0.28293694919E+03  0.46999998093E+01 0.  1.
</event>
<event>
 5   0  0.2142838E-02  0.6015607E+03  0.7818609E-02  0.9902173E-01
        2   -1    0    0  501    0  0.00000000000E+00  0.00000000000E+00  0.11934455267E+03  0.11934455270E+03  0.25500000920E-02 0.  1.
       -2   -1    0    0    0  501  0.00000000000E+00  0.00000000000E+00 -0.75804736668E+03  0.75804736668E+03  0.25500000920E-02 0. -1.
    10030    2    1    2    0    0  0.00000000000E+00  0.00000000000E+00 -0.63870281400E+03  0.87739191938E+03  0.60156071645E+03 0.  0.
        4    1    3    3  502    0 -0.16562127322E+02  0.16232461514E+03  0.49178668112E+02  0.17042223751E+03  0.12699999809E+01 0.  1.
       -4    1    3    3    0  502  0.16562127322E+02 -0.16232461514E+03 -0.68788148212E+03  0.70696968187E+03  0.12699999809E+01 0. -1.
</event>
<event>
 5   0  0.1276705E-02  0.5983602E+03  0.7818609E-02  0.9908814E-01
       -1   -1    0    0    0  501  0.00000000000E+00  0.00000000000E+00  0.68782244156E+02  0.68782244340E+02  0.50400001928E-02 0.  1.
        1   -1    0    0  501    0  0.00000000000E+00  0.00000000000E+00 -0.13013349099E+04  0.13013349099E+04  0.50400001928E-02 0. -1.
    10030    2    1    2    0    0  0.00000000000E+00  0.00000000000E+00 -0.12325526658E+04  0.13701171543E+04  0.59836021136E+03 0.  0.
        1    1    3    3  502    0 -0.63738752735E+02 -0.11163210045E+03 -0.12348763987E+04  0.12415490625E+04  0.50400001928E-02 0. -1.
       -1    1    3    3    0  502  0.63738752735E+02  0.11163210045E+03  0.23237329912E+01  0.12856809174E+03  0.50400001928E-02 0.  1.
</event>
<event>
 5   0  0.2141800E-02  0.6017712E+03  0.7818609E-02  0.9901738E-01
        2   -1    0    0  501    0  0.00000000000E+00  0.00000000000E+00  0.10159231488E+04  0.10159231488E+04  0.25500000920E-02 0. -1.
       -2   -1    0    0    0  501  0.00000000000E+00  0.00000000000E+00 -0.89113195431E+02  0.89113195467E+02  0.25500000920E-02 0.  1.
    10030    2    1    2    0    0  0.00000000000E+00  0.00000000000E+00  0.92680995337E+03  0.11050363443E+04  0.60177124598E+03 0.  0.
        2    1    3    3  502    0 -0.13641023789E+03 -0.18459331241E+02 -0.27901030337E+02  0.14045272305E+03  0.25500000920E-02 0.  1.
       -2    1    3    3    0  502  0.13641023789E+03  0.18459331241E+02  0.95471098370E+03  0.96458362122E+03  0.25500000920E-02 0. -1.
</event>
<event>
 5   0  0.2126207E-02  0.5996092E+03  0.7818609E-02  0.9906217E-01
        2   -1    0    0  501    0  0.00000000000E+00  0.00000000000E+00  0.15841444159E+04  0.15841444159E+04  0.25500000920E-02 0.  1.
       -2   -1    0    0    0  501  0.00000000000E+00  0.00000000000E+00 -0.56739026498E+02  0.56739026555E+02  0.25500000920E-02 0. -1.
    10030    2    1    2    0    0  0.00000000000E+00  0.00000000000E+00  0.15274053894E+04  0.16408834425E+04  0.59960924623E+03 0.  0.
        5    1    3    3  502    0  0.27260037478E+02 -0.21222015566E+03  0.18914813181E+03  0.28562144505E+03  0.46999998093E+01 0. -1.
       -5    1    3    3    0  502 -0.27260037478E+02  0.21222015566E+03  0.13382572576E+04  0.13552619974E+04  0.46999998093E+01 0.  1.
</event>
<event>
 5   0  0.1250390E-02  0.5995883E+03  0.7818609E-02  0.9906261E-01
        1   -1    0    0  501    0  0.00000000000E+00  0.00000000000E+00  0.51102528293E+03  0.51102528296E+03  0.50400001928E-02 0.  1.
       -1   -1    0    0    0  501  0.00000000000E+00  0.00000000000E+00 -0.17587492595E+03  0.17587492602E+03  0.50400001928E-02 0. -1.
    10030    2    1    2    0    0  0.00000000000E+00  0.00000000000E+00  0.33515035698E+03  0.68690020898E+03  0.59958830485E+03 0.  0.
        3    1    3    3  502    0 -0.22924658222E+03 -0.50753950480E+02 -0.45973275634E+02  0.23925616235E+03  0.10100000352E+00 0. -1.
       -3    1    3    3    0  502  0.22924658222E+03  0.50753950480E+02  0.38112363261E+03  0.44764404663E+03  0.10100000352E+00 0.  1.
</event>
<event>
 5   0  0.8551000E-03  0.6009569E+03  0.7818609E-02  0.9903423E-01
        3   -1    0    0  501    0  0.00000000000E+00  0.00000000000E+00  0.22630587018E+03  0.22630589272E+03  0.10100000352E+00 0.  1.
       -3   -1    0    0    0  501  0.00000000000E+00  0.00000000000E+00 -0.39896135015E+03  0.39896136293E+03  0.10100000352E+00 0. -1.
    10030    2    1    2    0    0  0.00000000000E+00  0.00000000000E+00 -0.17265547996E+03  0.62526725565E+03  0.60095692544E+03 0.  0.
        4    1    3    3  502    0 -0.19709698174E+02  0.82723866407E+02  0.21352123935E+03  0.22983612168E+03  0.12699999809E+01 0.  1.
       -4    1    3    3    0  502  0.19709698174E+02 -0.82723866407E+02 -0.38617671931E+03  0.39543113397E+03  0.12699999809E+01 0. -1.
</event>
<event>
 5   0  0.1337051E-02  0.5972941E+03  0.7818609E-02  0.9911036E-01
        1   -1    0    0  501    0  0.00000000000E+00  0.00000000000E+00  0.23170863656E+03  0.23170863661E+03  0.50400001928E-02 0. -1.
       -1   -1    0    0    0  501  0.00000000000E+00  0.00000000000E+00 -0.38492337753E+03  0.38492337756E+03  0.50400001928E-02 0.  1.
    10030    2    1    2    0    0  0.00000000000E+00  0.00000000000E+00 -0.15321474097E+03  0.61663201418E+03  0.59729413530E+03 0.  0.
        5    1    3    3  502    0 -0.18102352065E+03  0.18880392412E+03 -0.22532519649E+03  0.34526796979E+03  0.46999998093E+01 0.  1.
       -5    1    3    3    0  502  0.18102352065E+03 -0.18880392412E+03  0.72110455515E+02  0.27136404439E+03  0.46999998093E+01 0. -1.
</event>
<event>
 5   0  0.2141800E-02  0.5994893E+03  0.7818609E-02  0.9906466E-01
       -2   -1    0    0    0  501  0.00000000000E+00  0.00000000000E+00  0.10313791198E+03  0.10313791201E+03  0.25500000920E-02 0.  1.
        2   -1    0    0  501    0  0.00000000000E+00  0.00000000000E+00 -0.87113306124E+03  0.87113306124E+03  0.25500000920E-02 0. -1.
    10030    2    1    2    0    0  0.00000000000E+00  0.00000000000E+00 -0.76799514926E+03  0.97427097325E+03  0.59948926599E+03 0.  0.
        2    1    3    3  502    0 -0.19555706610E+03  0.22013324232E+03 -0.29284845389E+03  0.41528475463E+03  0.25500000920E-02 0.  1.
       -2    1    3    3    0  502  0.19555706610E+03 -0.22013324232E+03 -0.47514669538E+03  0.55898621862E+03  0.25500000920E-02 0. -1.
</event>
<event>
 5   0  0.1303808E-02  0.5985522E+03  0.7818609E-02  0.9908414E-01
        1   -1    0    0  501    0  0.00000000000E+00  0.00000000000E+00  0.53687347831E+03  0.53687347834E+03  0.50400001928E-02 0. -1.
       -1   -1    0    0    0  501  0.00000000000E+00  0.00000000000E+00 -0.16682922416E+03  0.16682922423E+03  0.50400001928E-02 0.  1.
    10030    2    1    2    0    0  0.00000000000E+00  0.00000000000E+00  0.37004425416E+03  0.70370270257E+03  0.59855220622E+03 0.  0.
        4    1    3    3  502    0  0.29448551903E+03 -0.14047967539E+02  0.24549235624E+03  0.38364980931E+03  0.12699999809E+01 0.  1.
       -4    1    3    3    0  502 -0.29448551903E+03  0.14047967539E+02  0.12455189792E+03  0.32005289326E+03  0.12699999809E+01 0. -1.
</event>
<event>
 5   0  0.2092587E-02  0.6005488E+03  0.7818609E-02  0.9904268E-01
        2   -1    0    0  501    0  0.00000000000E+00  0.00000000000E+00  0.13135214588E+04  0.13135214588E+04  0.25500000920E-02 0.  1.
       -2   -1    0    0    0  501  0.00000000000E+00  0.00000000000E+00 -0.68643499191E+02  0.68643499238E+02  0.25500000920E-02 0. -1.
    10030    2    1    2    0    0  0.00000000000E+00  0.00000000000E+00  0.12448779596E+04  0.13821649581E+04  0.60054877980E+03 0.  0.
        3    1    3    3  502    0  0.22376786378E+02  0.17679602123E+03  0.66221568501E+02  0.19011275608E+03  0.10100000352E+00 0. -1.
       -3    1    3    3    0  502 -0.22376786378E+02 -0.17679602123E+03  0.11786563911E+04  0.11920522020E+04  0.10100000352E+00 0.  1.
</event>
<event>
 5   0  0.2126207E-02  0.6007950E+03  0.7818609E-02  0.9903758E-01
        2   -1    0    0  501    0  0.00000000000E+00  0.00000000000E+00  0.61014859976E+03  0.61014859977E+03  0.25500000920E-02 0. -1.
       -2   -1    0    0    0  501  0.00000000000E+00  0.00000000000E+00 -0.14789621098E+03  0.14789621101E+03  0.25500000920E-02 0.  1.
    10030    2    1    2    0    0  0.00000000000E+00  0.00000000000E+00  0.46225238878E+03  0.75804481077E+03  0.60079502678E+03 0.  0.
        5    1    3    3  502    0 -0.38617027056E+02  0.24060059026E+03  0.95606639959E+01  0.24391272026E+03  0.46999998093E+01 0.  1.
       -5    1    3    3    0  502  0.38617027056E+02 -0.24060059026E+03  0.45269172478E+03  0.51413209051E+03  0.46999998093E+01 0. -1.
</event>
<event>
 5   0  0.2179625E-02  0.5982754E+03  0.7818609E-02  0.9908991E-01
       -2   -1    0    0    0  501  0.00000000000E+00  0.00000000000E+00  0.37507059540E+03  0.37507059541E+03  0.25500000920E-02 0. -1.
        2   -1    0    0  501    0  0.00000000000E+00  0.00000000000E+00 -0.23857739822E+03  0.23857739823E+03  0.25500000920E-02 0.  1.
    10030    2    1    2    0    0  0.00000000000E+00  0.00000000000E+00  0.13649319718E+03  0.61364799364E+03  0.59827541085E+03 0.  0.
        1    1    3    3  502    0  0.28185128137E+03 -0.55604184033E+02  0.15376394203E+03  0.32584554621E+03  0.50400001928E-02 0.  1.
       -1    1    3    3    0  502 -0.28185128137E+03  0.55604184033E+02 -0.17270744846E+02  0.28780244743E+03  0.50400001928E-02 0. -1.
</event>
<event>
 5   0  0.1303808E-02  0.5999858E+03  0.7818609E-02  0.9905436E-01
       -1   -1    0    0    0  501  0.00000000000E+00  0.00000000000E+00  0.31111523784E+03  0.31111523788E+03  0.50400001928E-02 0.  1.
        1   -1    0    0  501    0  0.00000000000E+00  0.00000000000E+00 -0.28926818653E+03  0.28926818657E+03  0.50400001928E-02 0. -1.
    10030    2    1    2    0    0  0.00000000000E+00  0.00000000000E+00  0.21847051313E+02  0.60038342445E+03  0.59998580208E+03 0.  0.
        4    1    3    3  502    0  0.29874591111E+03  0.21113352319E+02 -0.63863406542E+01  0.29956183218E+03  0.12699999809E+01 0. -1.
       -4    1    3    3    0  502 -0.29874591111E+03 -0.21113352319E+02  0.28233391967E+02  0.30082159227E+03  0.12699999809E+01 0.  1.
</event>
<event>
 5   0  0.2179625E-02  0.6005390E+03  0.7818609E-02  0.9904288E-01
        2   -1    0    0  501    0  0.00000000000E+00  0.00000000000E+00  0.81831513353E+03  0.81831513354E+03  0.25500000920E-02 0.  1.
       -2   -1    0    0    0  501  0.00000000000E+00  0.00000000000E+00 -0.11017977075E+03  0.11017977078E+03  0.25500000920E-02 0. -1.
    10030    2    1    2    0    0  0.00000000000E+00  0.00000000000E+00  0.70813536279E+03  0.92849490431E+03  0.60053900399E+03 0.  0.
        1    1    3    3  502    0  0.25294018891E+03  0.15810392441E+03  0.40731702828E+03  0.50485914038E+03  0.50400001928E-02 0.  1.
       -1    1    3    3    0  502 -0.25294018891E+03 -0.15810392441E+03  0.30081833451E+03  0.42363576393E+03  0.50400001928E-02 0. -1.
</event>
<event>
 5   0  0.1303808E-02  0.5988049E+03  0.7818609E-02  0.9907889E-01
       -1   -1    0    0    0  501  0.00000000000E+00  0.00000000000E+00  0.14881638769E+03  0.14881638778E+03  0.50400001928E-02 0.  1.
        1   -1    0    0  501    0  0.00000000000E+00  0.00000000000E+00 -0.60236524479E+03  0.60236524481E+03  0.50400001928E-02 0. -1.
    10030    2    1    2    0    0  0.00000000000E+00  0.00000000000E+00 -0.45354885709E+03  0.75118163259E+03  0.59880487587E+03 0.  0.
        4    1    3    3  502    0 -0.81115066565E+02  0.17226281172E+03  0.63075791889E+02  0.20058489162E+03  0.12699999809E+01 0.  1.
       -4    1    3    3    0  502  0.81115066565E+02 -0.17226281172E+03 -0.51662464898E+03  0.55059674097E+03  0.12699999809E+01 0. -1.
</event>
<event>
 5   0  0.2142838E-02  0.5993446E+03  0.7818609E-02  0.9906767E-01
       -2   -1    0    0    0  501  0.00000000000E+00  0.00000000000E+00  0.71057383540E+02  0.71057383586E+02  0.25500000920E-02 0.  1.
        2   -1    0    0  501    0  0.00000000000E+00  0.00000000000E+00 -0.12638162237E+04  0.12638162237E+04  0.25500000920E-02 0. -1.
    10030    2    1    2    0    0  0.00000000000E+00  0.00000000000E+00 -0.11927588402E+04  0.13348736073E+04  0.59934455588E+03 0.  0.
        4    1    3    3  502    0 -0.94685117176E+02 -0.13689753829E+03 -0.11513809546E+04  0.11633511606E+04  0.12699999809E+01 0. -1.
       -4    1    3    3    0  502  0.94685117176E+02  0.13689753829E+03 -0.41377885591E+02  0.17152244670E+03  0.12699999809E+01 0.  1.
</event>
<event>
 5   0  0.1276705E-02  0.5952546E+03  0.7818609E-02  0.9915300E-01
       -1   -1    0    0    0  501  0.00000000000E+00  0.00000000000E+00  0.20181843958E+03  0.20181843964E+03  0.50400001928E-02 0.  1.
        1   -1    0    0  501    0  0.00000000000E+00  0.00000000000E+00 -0.43891929519E+03  0.43891929521E+03  0.50400001928E-02 0. -1.
    10030    2    1    2    0    0  0.00000000000E+00  0.00000000000E+00 -0.23710085561E+03  0.64073773485E+03  0.59525459187E+03 0.  0.
        1    1    3    3  502    0  0.66259734645E+02  0.16644269089E+03 -0.37438398693E+03  0.41503842170E+03  0.50400001928E-02 0. -1.
       -1    1    3    3    0  502 -0.66259734645E+02 -0.16644269089E+03  0.13728313133E+03  0.22569931316E+03  0.50400001928E-02 0.  1.
</event>
<event>
 5   0  0.2126207E-02  0.6012117E+03  0.7818609E-02  0.9902895E-01
        2   -1    0    0  501    0  0.00000000000E+00  0.00000000000E+00  0.45298747764E+03  0.45298747765E+03  0.25500000920E-02 0. -1.
       -2   -1    0    0    0  501  0.00000000000E+00  0.00000000000E+00 -0.19948429172E+03  0.19948429173E+03  0.25500000920E-02 0.  1.
    10030    2    1    2    0    0  0.00000000000E+00  0.00000000000E+00  0.25350318592E+03  0.65247176938E+03  0.60121173023E+03 0.  0.
        5    1    3    3  502    0 -0.82079705791E+02 -0.26905694610E+02 -0.18568453843E+03  0.20484587454E+03  0.46999998093E+01 0.  1.
       -5    1    3    3    0  502  0.82079705791E+02  0.26905694610E+02  0.43918772436E+03  0.44762589484E+03  0.46999998093E+01 0. -1.
</event>
<event>
 5   0  0.2126207E-02  0.6016328E+03  0.7818609E-02  0.9902024E-01
        2   -1    0    0  501    0  0.00000000000E+00  0.00000000000E+00  0.59042262578E+03  0.59042262579E+03  0.25500000920E-02 0. -1.
       -2   -1    0    0    0  501  0.00000000000E+00  0.00000000000E+00 -0.15326396166E+03  0.15326396169E+03  0.25500000920E-02 0.  1.
    10030    2    1    2    0    0  0.00000000000E+00  0.00000000000E+00  0.43715866412E+03  0.74368658747E+03  0.60163281391E+03 0.  0.
        5    1    3    3  502    0  0.22926171877E+03  0.19452226915E+03  0.22881535434E+03  0.37786029862E+03  0.46999998093E+01 0. -1.
       -5    1    3    3    0  502 -0.22926171877E+03 -0.19452226915E+03  0.20834330978E+03  0.36582628886E+03  0.46999998093E+01 0.  1.
</event>
<event>
 5   0  0.2141800E-02  0.5993296E+03  0.7818609E-02  0.9906798E-01
        2   -1    0    0  501    0  0.00000000000E+00  0.00000000000E+00  0.77528042597E+03  0.77528042597E+03  0.25500000920E-02 0.  1.
       -2   -1    0    0    0  501  0.00000000000E+00  0.00000000000E+00 -0.11582774284E+03  0.11582774287E+03  0.25500000920E-02 0. -1.
    10030    2    1    2    0    0  0.00000000000E+00  0.00000000000E+00  0.65945268313E+03  0.89110816884E+03  0.59932956484E+03 0.  0.
        2    1    3    3  502    0 -0.32391306230E+02  0.11417302064E+03  0.73884915503E+03  0.74831995113E+03  0.25500000920E-02 0.  1.
       -2    1    3    3    0  502  0.32391306230E+02 -0.11417302064E+03 -0.79396471902E+02  0.14278821771E+03  0.25500000920E-02 0. -1.
</event>
<event>
 5   0  0.2141800E-02  0.5927400E+03  0.7818609E-02  0.9920584E-01
       -2   -1    0    0    0  501  0.00000000000E+00  0.00000000000E+00  0.26263990005E+03  0.26263990006E+03  0.25500000920E-02 0.  1.
        2   -1    0    0  501    0  0.00000000000E+00  0.00000000000E+00 -0.33443195950E+03  0.33443195951E+03  0.25500000920E-02 0. -1.
    10030    2    1    2    0    0  0.00000000000E+00  0.00000000000E+00 -0.71792059449E+02  0.59707185957E+03  0.59273999839E+03 0.  0.
        2    1    3    3  502    0 -0.13671901070E+03  0.13577278153E+03 -0.26272797003E+03  0.32581025511E+03  0.25500000920E-02 0. -1.
       -2    1    3    3    0  502  0.13671901070E+03 -0.13577278153E+03  0.19093591058E+03  0.27126160445E+03  0.25500000920E-02 0.  1.
</event>
<event>
 5   0  0.2179625E-02  0.5977029E+03  0.7818609E-02  0.9910183E-01
        2   -1    0    0  501    0  0.00000000000E+00  0.00000000000E+00  0.63941135825E+02  0.63941135876E+02  0.25500000920E-02 0. -1.
       -2   -1    0    0    0  501  0.00000000000E+00  0.00000000000E+00 -0.13967876563E+04  0.13967876563E+04  0.25500000920E-02 0.  1.
    10030    2    1    2    0    0  0.00000000000E+00  0.00000000000E+00 -0.13328465205E+04  0.14607287922E+04  0.59770290041E+03 0.  0.
        1    1    3    3  502    0 -0.18432591702E+03 -0.23522676344E+03 -0.66123012619E+03  0.72562590481E+03  0.50400001928E-02 0.  1.
       -1    1    3    3    0  502  0.18432591702E+03  0.23522676344E+03 -0.67161639429E+03  0.73510288738E+03  0.50400001928E-02 0. -1.
</event>
<event>
 5   0  0.1250390E-02  0.5957428E+03  0.7818609E-02  0.9914278E-01
        1   -1    0    0  501    0  0.00000000000E+00  0.00000000000E+00  0.98252325393E+03  0.98252325395E+03  0.50400001928E-02 0. -1.
       -1   -1    0    0    0  501  0.00000000000E+00  0.00000000000E+00 -0.90305612971E+02  0.90305613111E+02  0.50400001928E-02 0.  1.
    10030    2    1    2    0    0  0.00000000000E+00  0.00000000000E+00  0.89221764096E+03  0.10728288671E+04  0.59574277935E+03 0.  0.
        3    1    3    3  502    0  0.10461151189E+03 -0.16688890529E+03  0.43706366783E+02  0.20175661532E+03  0.10100000352E+00 0.  1.
       -3    1    3    3    0  502 -0.10461151189E+03  0.16688890529E+03  0.84851127418E+03  0.87107225173E+03  0.10100000352E+00 0. -1.
</event>
<event>
 5   0  0.1250390E-02  0.5999487E+03  0.7818609E-02  0.9905513E-01
        1   -1    0    0  501    0  0.00000000000E+00  0.00000000000E+00  0.57029160819E+03  0.57029160821E+03  0.50400001928E-02 0. -1.
       -1   -1    0    0    0  501  0.00000000000E+00  0.00000000000E+00 -0.15778699901E+03  0.15778699909E+03  0.50400001928E-02 0.  1.
    10030    2    1    2    0    0  0.00000000000E+00  0.00000000000E+00  0.41250460918E+03  0.72807860730E+03  0.59994866932E+03 0.  0.
        3    1    3    3  502    0  0.16426011569E+03  0.10738035408E+03 -0.69077042130E+02  0.20804704756E+03  0.10100000352E+00 0.  1.
       -3    1    3    3    0  502 -0.16426011569E+03 -0.10738035408E+03  0.48158165131E+03  0.52003155974E+03  0.10100000352E+00 0. -1.
</event>
<event>
 5   0  0.8551000E-03  0.6038482E+03  0.7818609E-02  0.9897454E-01
        3   -1    0    0  501    0  0.00000000000E+00  0.00000000000E+00  0.14354092804E+04  0.14354092840E+04  0.10100000352E+00 0. -1.
       -3   -1    0    0    0  501  0.00000000000E+00  0.00000000000E+00 -0.63506701728E+02  0.63506782042E+02  0.10100000352E+00 0.  1.
    10030    2    1    2    0    0  0.00000000000E+00  0.00000000000E+00  0.13719025787E+04  0.14989160660E+04  0.60384823221E+03 0.  0.
        2    1    3    3  502    0  0.15241542925E+03 -0.76026474862E+02  0.67134640602E+02  0.18307798319E+03  0.25500000920E-02 0.  1.
       -2    1    3    3    0  502 -0.15241542925E+03  0.76026474862E+02  0.13047679381E+04  0.13158380829E+04  0.25500000920E-02 0. -1.
</event>
<event>
 5   0  0.2092587E-02  0.6002119E+03  0.7818609E-02  0.9904967E-01
       -2   -1    0    0    0  501  0.00000000000E+00  0.00000000000E+00  0.36462164212E+02  0.36462164301E+02  0.25500000920E-02 0. -1.
        2   -1    0    0  501    0  0.00000000000E+00  0.00000000000E+00 -0.24700554611E+04  0.24700554611E+04  0.25500000920E-02 0.  1.
    10030    2    1    2    0    0  0.00000000000E+00  0.00000000000E+00 -0.24335932968E+04  0.25065176254E+04  0.60021185576E+03 0.  0.
        3    1    3    3  502    0  0.62636992548E+01 -0.14616250807E+03 -0.12253604070E+03  0.19083449417E+03  0.10100000352E+00 0. -1.
       -3    1    3    3    0  502 -0.62636992548E+01  0.14616250807E+03 -0.23110572561E+04  0.23156831312E+04  0.10100000352E+00 0.  1.
</event>
<event>
 5   0  0.1276705E-02  0.5999016E+03  0.7818609E-02  0.9905610E-01
       -1   -1    0    0    0  501  0.00000000000E+00  0.00000000000E+00  0.59760330100E+02  0.59760330312E+02  0.50400001928E-02 0. -1.
        1   -1    0    0  501    0  0.00000000000E+00  0.00000000000E+00 -0.15055217135E+04  0.15055217135E+04  0.50400001928E-02 0.  1.
    10030    2    1    2    0    0  0.00000000000E+00  0.00000000000E+00 -0.14457613834E+04  0.15652820439E+04  0.59990157441E+03 0.  0.
        1    1    3    3  502    0 -0.22171259656E+03 -0.65705767908E+02 -0.12213514721E+04  0.12430499353E+04  0.50400001928E-02 0.  1.
       -1    1    3    3    0  502  0.22171259656E+03  0.65705767908E+02 -0.22440991137E+03  0.32223210851E+03  0.50400001928E-02 0. -1.
</event>
<event>
 5   0  0.2141800E-02  0.5989300E+03  0.7818609E-02  0.9907628E-01
        2   -1    0    0  501    0  0.00000000000E+00  0.00000000000E+00  0.39303545631E+03  0.39303545632E+03  0.25500000920E-02 0.  1.
       -2   -1    0    0    0  501  0.00000000000E+00  0.00000000000E+00 -0.22817101850E+03  0.22817101851E+03  0.25500000920E-02 0. -1.
    10030    2    1    2    0    0  0.00000000000E+00  0.00000000000E+00  0.16486443781E+03  0.62120647483E+03  0.59893004727E+03 0.  0.
        2    1    3    3  502    0 -0.28918284057E+01  0.20864419923E+03 -0.14035577172E+03  0.25147665340E+03  0.25500000920E-02 0. -1.
       -2    1    3    3    0  502  0.28918284057E+01 -0.20864419923E+03  0.30522020953E+03  0.36972982143E+03  0.25500000920E-02 0.  1.
</event>
<event>
 5   0  0.1303808E-02  0.5978150E+03  0.7818609E-02  0.9909950E-01
       -1   -1    0    0    0  501  0.00000000000E+00  0.00000000000E+00  0.52703151261E+03  0.52703151263E+03  0.50400001928E-02 0. -1.
        1   -1    0    0  501    0  0.00000000000E+00  0.00000000000E+00 -0.16952625957E+03  0.16952625965E+03  0.50400001928E-02 0.  1.
    10030    2    1    2    0    0  0.00000000000E+00  0.00000000000E+00  0.35750525303E+03  0.69655777228E+03  0.59781495814E+03 0.  0.
        4    1    3    3  502    0  0.10347353373E+03  0.10915725207E+03 -0.12221851907E+03  0.19380675211E+03  0.12699999809E+01 0.  1.
       -4    1    3    3    0  502 -0.10347353373E+03 -0.10915725207E+03  0.47972377210E+03  0.50275102017E+03  0.12699999809E+01 0. -1.
</event>
<event>
 5   0  0.1276705E-02  0.6089295E+03  0.7818609E-02  0.9887052E-01
        1   -1    0    0  501    0  0.00000000000E+00  0.00000000000E+00  0.22165765345E+04  0.22165765345E+04  0.50400001928E-02 0.  1.
       -1   -1    0    0    0  501  0.00000000000E+00  0.00000000000E+00 -0.41820694449E+02  0.41820694753E+02  0.50400001928E-02 0. -1.
    10030    2    1    2    0    0  0.00000000000E+00  0.00000000000E+00  0.21747558400E+04  0.22583972292E+04  0.60892945509E+03 0.  0.
        1    1    3    3  502    0 -0.17166451183E+03 -0.85786205606E+02  0.19640269696E+04  0.19733803270E+04  0.50400001928E-02 0.  1.
       -1    1    3    3    0  502  0.17166451183E+03  0.85786205606E+02  0.21072887040E+03  0.28501690220E+03  0.50400001928E-02 0. -1.
</event>
<event>
 5   0  0.1332555E-02  0.5992457E+03  0.7818609E-02  0.9906972E-01
        1   -1    0    0  501    0  0.00000000000E+00  0.00000000000E+00  0.65505195647E+03  0.65505195649E+03  0.50400001928E-02 0. -1.
       -1   -1    0    0    0  501  0.00000000000E+00  0.00000000000E+00 -0.13704843526E+03  0.13704843535E+03  0.50400001928E-02 0.  1.
    10030    2    1    2    0    0  0.00000000000E+00  0.00000000000E+00  0.51800352121E+03  0.79210039184E+03  0.59924567814E+03 0.  0.
        2    1    3    3  502    0  0.20966665259E+03 -0.21360151919E+03  0.27713210475E+03  0.40790675124E+03  0.25500000920E-02 0. -1.
       -2    1    3    3    0  502 -0.20966665259E+03  0.21360151919E+03  0.24087141645E+03  0.38419364061E+03  0.25500000920E-02 0.  1.
</event>
<event>
 5   0  0.1250390E-02  0.5990134E+03  0.7818609E-02  0.9907455E-01
       -1   -1    0    0    0  501  0.00000000000E+00  0.00000000000E+00  0.34544966544E+03  0.34544966547E+03  0.50400001928E-02 0. -1.
        1   -1    0    0  501    0  0.00000000000E+00  0.00000000000E+00 -0.25967386141E+03  0.25967386146E+03  0.50400001928E-02 0.  1.
    10030    2    1    2    0    0  0.00000000000E+00  0.00000000000E+00  0.85775804022E+02  0.60512352694E+03  0.59901335068E+03 0.  0.
        3    1    3    3  502    0  0.20230515992E+03 -0.19572082793E+03  0.14625573262E+03  0.31721407558E+03  0.10100000352E+00 0.  1.
       -3    1    3    3    0  502 -0.20230515992E+03  0.19572082793E+03 -0.60479928596E+02  0.28790945136E+03  0.10100000352E+00 0. -1.
</event>
<event>
 5   0  0.2142838E-02  0.6012611E+03  0.7818609E-02  0.9902793E-01
        2   -1    0    0  501    0  0.00000000000E+00  0.00000000000E+00  0.19907490121E+03  0.19907490123E+03  0.25500000920E-02 0.  1.
       -2   -1    0    0    0  501  0.00000000000E+00  0.00000000000E+00 -0.45399354655E+03  0.45399354656E+03  0.25500000920E-02 0. -1.
    10030    2    1    2    0    0  0.00000000000E+00  0.00000000000E+00 -0.25491864534E+03  0.65306844779E+03  0.60126107620E+03 0.  0.
        4    1    3    3  502    0  0.42115163632E+02  0.23077587989E+03 -0.33166378066E+03  0.40624336308E+03  0.12699999809E+01 0. -1.
       -4    1    3    3    0  502 -0.42115163632E+02 -0.23077587989E+03  0.76745135320E+02  0.24682508471E+03  0.12699999809E+01 0.  1.
</event>
<event>
 5   0  0.2142838E-02  0.6031248E+03  0.7818609E-02  0.9898944E-01
       -2   -1    0    0    0  501  0.00000000000E+00  0.00000000000E+00  0.55286979618E+03  0.55286979619E+03  0.25500000920E-02 0.  1.
        2   -1    0    0  501    0  0.00000000000E+00  0.00000000000E+00 -0.16448696642E+03  0.16448696644E+03  0.25500000920E-02 0. -1.
    10030    2    1    2    0    0  0.00000000000E+00  0.00000000000E+00  0.38838282976E+03  0.71735676263E+03  0.60312478181E+03 0.  0.
        4    1    3    3  502    0  0.28118195639E+03  0.98809132824E+02  0.13953429498E+03  0.32908656870E+03  0.12699999809E+01 0. -1.
       -4    1    3    3    0  502 -0.28118195639E+03 -0.98809132824E+02  0.24884853478E+03  0.38827019392E+03  0.12699999809E+01 0.  1.
</event>
<event>
 5   0  0.1332555E-02  0.5973005E+03  0.7818609E-02  0.9911022E-01
        1   -1    0    0  501    0  0.00000000000E+00  0.00000000000E+00  0.10061218077E+04  0.10061218077E+04  0.50400001928E-02 0. -1.
       -1   -1    0    0    0  501  0.00000000000E+00  0.00000000000E+00 -0.88649285138E+02  0.88649285281E+02  0.50400001928E-02 0.  1.
    10030    2    1    2    0    0  0.00000000000E+00  0.00000000000E+00  0.91747252260E+03  0.10947710930E+04  0.59730052437E+03 0.  0.
        2    1    3    3  502    0  0.13544765552E+03 -0.80621206273E+02 -0.61981072914E+01  0.15774746536E+03  0.25500000920E-02 0.  1.
       -2    1    3    3    0  502 -0.13544765552E+03  0.80621206273E+02  0.92367062989E+03  0.93702362767E+03  0.25500000920E-02 0. -1.
</event>
<event>
 5   0  0.2142838E-02  0.6022804E+03  0.7818609E-02  0.9900686E-01
       -2   -1    0    0    0  501  0.00000000000E+00  0.00000000000E+00  0.36519482052E+03  0.36519482053E+03  0.25500000920E-02 0.  1.
        2   -1    0    0  501    0  0.00000000000E+00  0.00000000000E+00 -0.24832068077E+03  0.24832068078E+03  0.25500000920E-02 0. -1.
    10030    2    1    2    0    0  0.00000000000E+00  0.00000000000E+00  0.11687413976E+03  0.61351550131E+03  0.60228042124E+03 0.  0.
        4    1    3    3  502    0  0.19199634455E+03  0.36263119156E+02  0.29185386575E+03  0.35122343598E+03  0.12699999809E+01 0.  1.
       -4    1    3    3    0  502 -0.19199634455E+03 -0.36263119156E+02 -0.17497972599E+03  0.26229206534E+03  0.12699999809E+01 0. -1.
</event>
<event>
 5   0  0.2179625E-02  0.5993980E+03  0.7818609E-02  0.9906656E-01
        2   -1    0    0  501    0  0.00000000000E+00  0.00000000000E+00  0.16127479366E+04  0.16127479366E+04  0.25500000920E-02 0.  1.
       -2   -1    0    0    0  501  0.00000000000E+00  0.00000000000E+00 -0.55693451337E+02  0.55693451395E+02  0.25500000920E-02 0. -1.
    10030    2    1    2    0    0  0.00000000000E+00  0.00000000000E+00  0.15570544852E+04  0.16684413880E+04  0.59939802727E+03 0.  0.
        1    1    3    3  502    0  0.13077573020E+03 -0.61241701729E+02  0.47530829785E+02  0.15202637089E+03  0.50400001928E-02 0. -1.
       -1    1    3    3    0  502 -0.13077573020E+03  0.61241701729E+02  0.15095236554E+04  0.15164150171E+04  0.50400001928E-02 0.  1.
</event>
<event>
 5   0  0.8551000E-03  0.6003087E+03  0.7818609E-02  0.9904766E-01
       -3   -1    0    0    0  501  0.00000000000E+00  0.00000000000E+00  0.22369047610E+03  0.22369049890E+03  0.10100000352E+00 0. -1.
        3   -1    0    0  501    0  0.00000000000E+00  0.00000000000E+00 -0.40275569172E+03  0.40275570438E+03  0.10100000352E+00 0.  1.
    10030    2    1    2    0    0  0.00000000000E+00  0.00000000000E+00 -0.17906521562E+03  0.62644620328E+03  0.60030866574E+03 0.  0.
        3    1    3    3  502    0 -0.10805356106E+03 -0.13071707963E+03  0.16889919485E+03  0.23935219904E+03  0.10100000352E+00 0. -1.
       -3    1    3    3    0  502  0.10805356106E+03  0.13071707963E+03 -0.34796441047E+03  0.38709400424E+03  0.10100000352E+00 0.  1.
</event>
<event>
 5   0  0.2142838E-02  0.5943064E+03  0.7818609E-02  0.9917289E-01
        2   -1    0    0  501    0  0.00000000000E+00  0.00000000000E+00  0.99215612948E+03  0.99215612948E+03  0.25500000920E-02 0.  1.
       -2   -1    0    0    0  501  0.00000000000E+00  0.00000000000E+00 -0.88998114143E+02  0.88998114180E+02  0.25500000920E-02 0. -1.
    10030    2    1    2    0    0  0.00000000000E+00  0.00000000000E+00  0.90315801533E+03  0.10811542437E+04  0.59430640071E+03 0.  0.
        4    1    3    3  502    0  0.39954418251E+02 -0.12844955838E+03  0.93358713887E+03  0.94322966628E+03  0.12699999809E+01 0.  1.
       -4    1    3    3    0  502 -0.39954418251E+02  0.12844955838E+03 -0.30429123542E+02  0.13792457738E+03  0.12699999809E+01 0. -1.
</event>
<event>
 5   0  0.1250390E-02  0.5997224E+03  0.7818609E-02  0.9905982E-01
        1   -1    0    0  501    0  0.00000000000E+00  0.00000000000E+00  0.11053433585E+04  0.11053433585E+04  0.50400001928E-02 0. -1.
       -1   -1    0    0    0  501  0.00000000000E+00  0.00000000000E+00 -0.81347329516E+02  0.81347329672E+02  0.50400001928E-02 0.  1.
    10030    2    1    2    0    0  0.00000000000E+00  0.00000000000E+00  0.10239960290E+04  0.11866906882E+04  0.59972237080E+03 0.  0.
        3    1    3    3  502    0  0.18446945796E+03 -0.23403084088E+03  0.44585665174E+03  0.53627192683E+03  0.10100000352E+00 0.  1.
       -3    1    3    3    0  502 -0.18446945796E+03  0.23403084088E+03  0.57813937721E+03  0.65041876133E+03  0.10100000352E+00 0. -1.
</event>
<event>
 5   0  0.2126207E-02  0.5984611E+03  0.7818609E-02  0.9908604E-01
       -2   -1    0    0    0  501  0.00000000000E+00  0.00000000000E+00  0.45153085120E+02  0.45153085192E+02  0.25500000920E-02 0. -1.
        2   -1    0    0  501    0  0.00000000000E+00  0.00000000000E+00 -0.19830080750E+04  0.19830080750E+04  0.25500000920E-02 0.  1.
    10030    2    1    2    0    0  0.00000000000E+00  0.00000000000E+00 -0.19378549899E+04  0.20281611602E+04  0.59846113484E+03 0.  0.
        5    1    3    3  502    0  0.24182956011E+03  0.16558061666E+03 -0.76507185086E+03  0.81930183922E+03  0.46999998093E+01 0. -1.
       -5    1    3    3    0  502 -0.24182956011E+03 -0.16558061666E+03 -0.11727831390E+04  0.12088593210E+04  0.46999998093E+01 0.  1.
</event>
<event>
 5   0  0.1250390E-02  0.5975760E+03  0.7818609E-02  0.9910448E-01
       -1   -1    0    0    0  501  0.00000000000E+00  0.00000000000E+00  0.15094234677E+03  0.15094234685E+03  0.50400001928E-02 0.  1.
        1   -1    0    0  501    0  0.00000000000E+00  0.00000000000E+00 -0.59144621340E+03  0.59144621342E+03  0.50400001928E-02 0. -1.
    10030    2    1    2    0    0  0.00000000000E+00  0.00000000000E+00 -0.44050386663E+03  0.74238856027E+03  0.59757603525E+03 0.  0.
        3    1    3    3  502    0  0.13488554000E+03  0.82139561893E+02 -0.53535733903E+03  0.55816530453E+03  0.10100000352E+00 0. -1.
       -3    1    3    3    0  502 -0.13488554000E+03 -0.82139561893E+02  0.94853472398E+02  0.18422325574E+03  0.10100000352E+00 0.  1.
</event>
<event>
 5   0  0.1250390E-02  0.5995777E+03  0.7818609E-02  0.9906283E-01
       -1   -1    0    0    0  501  0.00000000000E+00  0.00000000000E+00  0.16886054316E+03  0.16886054324E+03  0.50400001928E-02 0. -1.
        1   -1    0    0  501    0  0.00000000000E+00  0.00000000000E+00 -0.53223420126E+03  0.53223420128E+03  0.50400001928E-02 0.  1.
    10030    2    1    2    0    0  0.00000000000E+00  0.00000000000E+00 -0.36337365810E+03  0.70109474452E+03  0.59957770588E+03 0.  0.
        3    1    3    3  502    0 -0.18294891997E+03 -0.23378543917E+03 -0.23056650341E+03  0.37588144617E+03  0.10100000352E+00 0.  1.
       -3    1    3    3    0  502  0.18294891997E+03  0.23378543917E+03 -0.13280715469E+03  0.32521329835E+03  0.10100000352E+00 0. -1.
</event>
<event>
 5   0  0.2092587E-02  0.5996991E+03  0.7818609E-02  0.9906030E-01
        2   -1    0    0  501    0  0.00000000000E+00  0.00000000000E+00  0.69664906585E+03  0.69664906585E+03  0.25500000920E-02 0.  1.
       -2   -1    0    0    0  501  0.00000000000E+00  0.00000000000E+00 -0.12906034250E+03  0.12906034252E+03  0.25500000920E-02 0. -1.
    10030    2    1    2    0    0  0.00000000000E+00  0.00000000000E+00  0.56758872335E+03  0.82570940838E+03  0.59969914808E+03 0.  0.
        3    1    3    3  502    0  0.26303418352E+03 -0.73252159668E+02  0.45442048610E+03  0.53014229126E+03  0.10100000352E+00 0.  1.
       -3    1    3    3    0  502 -0.26303418352E+03  0.73252159668E+02  0.11316823725E+03  0.29556711712E+03  0.10100000352E+00 0. -1.
</event>
<event>
 5   0  0.8551000E-03  0.6012193E+03  0.7818609E-02  0.9902880E-01
        3   -1    0    0  501    0  0.00000000000E+00  0.00000000000E+00  0.13961458028E+04  0.13961458065E+04  0.10100000352E+00 0.  1.
       -3   -1    0    0    0  501  0.00000000000E+00  0.00000000000E+00 -0.64725411589E+02  0.64725490391E+02  0.10100000352E+00 0. -1.
    10030    2    1    2    0    0  0.00000000000E+00  0.00000000000E+00  0.13314203912E+04  0.14608712968E+04  0.60121933420E+03 0.  0.
        5    1    3    3  502    0  0.20866838375E+03  0.17855284495E+03  0.36890584872E+03  0.45993176455E+03  0.46999998093E+01 0. -1.
       -5    1    3    3    0  502 -0.20866838375E+03 -0.17855284495E+03  0.96251454249E+03  0.10009395323E+04  0.46999998093E+01 0.  1.
</event>
<event>
 5   0  0.1276705E-02  0.5914190E+03  0.7818609E-02  0.9923371E-01
       -1   -1    0    0    0  501  0.00000000000E+00  0.00000000000E+00  0.42137600402E+03  0.42137600405E+03  0.50400001928E-02 0. -1.
        1   -1    0    0  501    0  0.00000000000E+00  0.00000000000E+00 -0.20752035712E+03  0.20752035718E+03  0.50400001928E-02 0.  1.
    10030    2    1    2    0    0  0.00000000000E+00  0.00000000000E+00  0.21385564690E+03  0.62889636123E+03  0.59141896778E+03 0.  0.
        1    1    3    3  502    0 -0.20642577767E+03  0.21173628801E+03  0.10745037775E+03  0.31462587474E+03  0.50400001928E-02 0. -1.
       -1    1    3    3    0  502  0.20642577767E+03 -0.21173628801E+03  0.10640526915E+03  0.31427048649E+03  0.50400001928E-02 0.  1.
</event>
<event>
 5   0  0.1303808E-02  0.5943454E+03  0.7818609E-02  0.9917207E-01
       -1   -1    0    0    0  501  0.00000000000E+00  0.00000000000E+00  0.82982164807E+02  0.82982164960E+02  0.50400001928E-02 0.  1.
        1   -1    0    0  501    0  0.00000000000E+00  0.00000000000E+00 -0.10642240935E+04  0.10642240935E+04  0.50400001928E-02 0. -1.
    10030    2    1    2    0    0  0.00000000000E+00  0.00000000000E+00 -0.98124192869E+03  0.11472062585E+04  0.59434541880E+03 0.  0.
        4    1    3    3  502    0  0.70479267672E+02 -0.97077849153E+02 -0.10154034924E+04  0.10224662837E+04  0.12699999809E+01 0. -1.
       -4    1    3    3    0  502 -0.70479267672E+02  0.97077849153E+02  0.34161563740E+02  0.12473997477E+03  0.12699999809E+01 0.  1.
</event>
<event>
 5   0  0.1337051E-02  0.5991560E+03  0.7818609E-02  0.9907159E-01
        1   -1    0    0  501    0  0.00000000000E+00  0.00000000000E+00  0.53622844250E+03  0.53622844253E+03  0.50400001928E-02 0. -1.
       -1   -1    0    0    0  501  0.00000000000E+00  0.00000000000E+00 -0.16736704326E+03  0.16736704333E+03  0.50400001928E-02 0.  1.
    10030    2    1    2    0    0  0.00000000000E+00  0.00000000000E+00  0.36886139925E+03  0.70359548586E+03  0.59915596957E+03 0.  0.
        5    1    3    3  502    0  0.18703833370E+03  0.21843747716E+02 -0.89121758688E+02  0.20838729677E+03  0.46999998093E+01 0.  1.
       -5    1    3    3    0  502 -0.18703833370E+03 -0.21843747716E+02  0.45798315793E+03  0.49520818908E+03  0.46999998093E+01 0. -1.
</event>
<event>
 5   0  0.8551000E-03  0.5989899E+03  0.7818609E-02  0.9907504E-01
       -3   -1    0    0    0  501  0.00000000000E+00  0.00000000000E+00  0.85175214415E+03  0.85175215014E+03  0.10100000352E+00 0.  1.
        3   -1    0    0  501    0  0.00000000000E+00  0.00000000000E+00 -0.10530902782E+03  0.10530907625E+03  0.10100000352E+00 0. -1.
    10030    2    1    2    0    0  0.00000000000E+00  0.00000000000E+00  0.74644311634E+03  0.95706122639E+03  0.59898987065E+03 0.  0.
        5    1    3    3  502    0 -0.48947578599E+02  0.20385019613E+03  0.71488149299E+03  0.74500228652E+03  0.46999998093E+01 0.  1.
       -5    1    3    3    0  502  0.48947578599E+02 -0.20385019613E+03  0.31561623348E+02  0.21205893987E+03  0.46999998093E+01 0. -1.
</event>
<event>
 5   0  0.1303808E-02  0.5883936E+03  0.7818609E-02  0.9929783E-01
       -1   -1    0    0    0  501  0.00000000000E+00  0.00000000000E+00  0.34875351547E+03  0.34875351551E+03  0.50400001928E-02 0.  1.
        1   -1    0    0  501    0  0.00000000000E+00  0.00000000000E+00 -0.24817454805E+03  0.24817454810E+03  0.50400001928E-02 0. -1.
    10030    2    1    2    0    0  0.00000000000E+00  0.00000000000E+00  0.10057896742E+03  0.59692806361E+03  0.58839356254E+03 0.  0.
        4    1    3    3  502    0  0.84925724317E+02  0.22490872816E+03 -0.12173958901E+03  0.26947811616E+03  0.12699999809E+01 0. -1.
       -4    1    3    3    0  502 -0.84925724317E+02 -0.22490872816E+03  0.22231855643E+03  0.32744994745E+03  0.12699999809E+01 0.  1.
</event>
<event>
 5   0  0.1276705E-02  0.5995994E+03  0.7818609E-02  0.9906238E-01
        1   -1    0    0  501    0  0.00000000000E+00  0.00000000000E+00  0.27727437736E+03  0.27727437740E+03  0.50400001928E-02 0. -1.
       -1   -1    0    0    0  501  0.00000000000E+00  0.00000000000E+00 -0.32415493022E+03  0.32415493026E+03  0.50400001928E-02 0.  1.
    10030    2    1    2    0    0  0.00000000000E+00  0.00000000000E+00 -0.46880552863E+02  0.60142930766E+03  0.59959938782E+03 0.  0.
        1    1    3    3  502    0  0.25364201082E+03  0.79995017380E+01 -0.18355700532E+03  0.31319552345E+03  0.50400001928E-02 0.  1.
       -1    1    3    3    0  502 -0.25364201082E+03 -0.79995017380E+01  0.13667645246E+03  0.28823378421E+03  0.50400001928E-02 0. -1.
</event>
<event>
 5   0  0.2142838E-02  0.6020845E+03  0.7818609E-02  0.9901091E-01
        2   -1    0    0  501    0  0.00000000000E+00  0.00000000000E+00  0.18608729629E+03  0.18608729630E+03  0.25500000920E-02 0. -1.
       -2   -1    0    0    0  501  0.00000000000E+00  0.00000000000E+00 -0.48701031493E+03  0.48701031494E+03  0.25500000920E-02 0.  1.
    10030    2    1    2    0    0  0.00000000000E+00  0.00000000000E+00 -0.30092301865E+03  0.67309761124E+03  0.60208448835E+03 0.  0.
        4    1    3    3  502    0 -0.22156927422E+03 -0.18276008742E+03 -0.25126663861E+03  0.38161594491E+03  0.12699999809E+01 0.  1.
       -4    1    3    3    0  502  0.22156927422E+03  0.18276008742E+03 -0.49656380042E+02  0.29148166634E+03  0.12699999809E+01 0. -1.
</event>
<event>
 5   0  0.1303808E-02  0.6007005E+03  0.7818609E-02  0.9903954E-01
       -1   -1    0    0    0  501  0.00000000000E+00  0.00000000000E+00  0.67501576283E+02  0.67501576471E+02  0.50400001928E-02 0.  1.
        1   -1    0    0  501    0  0.00000000000E+00  0.00000000000E+00 -0.13364173165E+04  0.13364173165E+04  0.50400001928E-02 0. -1.
    10030    2    1    2    0    0  0.00000000000E+00  0.00000000000E+00 -0.12689157402E+04  0.14039188929E+04  0.60070050964E+03 0.  0.
        4    1    3    3  502    0  0.16222253129E+03  0.24801968914E+03 -0.74844560613E+03  0.80498593410E+03  0.12699999809E+01 0. -1.
       -4    1    3    3    0  502 -0.16222253129E+03 -0.24801968914E+03 -0.52047013405E+03  0.59893295884E+03  0.12699999809E+01 0.  1.
</event>
<event>
 5   0  0.1303808E-02  0.6001386E+03  0.7818609E-02  0.9905119E-01
        1   -1    0    0  501    0  0.00000000000E+00  0.00000000000E+00  0.66345170522E+03  0.66345170524E+03  0.50400001928E-02 0. -1.
       -1   -1    0    0    0  501  0.00000000000E+00  0.00000000000E+00 -0.13571684504E+03  0.13571684513E+03  0.50400001928E-02 0.  1.
    10030    2    1    2    0    0  0.00000000000E+00  0.00000000000E+00  0.52773486018E+03  0.79916855037E+03  0.60013855837E+03 0.  0.
        4    1    3    3  502    0  0.10510007716E+03  0.52838773693E+02 -0.10372793858E+03  0.15684087594E+03  0.12699999809E+01 0.  1.
       -4    1    3    3    0  502 -0.10510007716E+03 -0.52838773693E+02  0.63146279876E+03  0.64232767443E+03  0.12699999809E+01 0. -1.
</event>
<event>
 5   0  0.1250390E-02  0.6058871E+03  0.7818609E-02  0.9893267E-01
        1   -1    0    0  501    0  0.00000000000E+00  0.00000000000E+00  0.67959506988E+03  0.67959506990E+03  0.50400001928E-02 0.  1.
       -1   -1    0    0    0  501  0.00000000000E+00  0.00000000000E+00 -0.13504334992E+03  0.13504335001E+03  0.50400001928E-02 0. -1.
    10030    2    1    2    0    0  0.00000000000E+00  0.00000000000E+00  0.54455171996E+03  0.81463841992E+03  0.60588710127E+03 0.  0.
        3    1    3    3  502    0 -0.87126685379E+02 -0.16093887409E+03 -0.52319203462E+02  0.19034098285E+03  0.10100000352E+00 0. -1.
       -3    1    3    3    0  502  0.87126685379E+02  0.16093887409E+03  0.59687092343E+03  0.62429743707E+03  0.10100000352E+00 0.  1.
</event>
<event>
 5   0  0.1250390E-02  0.6180482E+03  0.7818609E-02  0.9868654E-01
        1   -1    0    0  501    0  0.00000000000E+00  0.00000000000E+00  0.65237686666E+03  0.65237686668E+03  0.50400001928E-02 0. -1.
       -1   -1    0    0    0  501  0.00000000000E+00  0.00000000000E+00 -0.14638146389E+03  0.14638146397E+03  0.50400001928E-02 0.  1.
    10030    2    1    2    0    0  0.00000000000E+00  0.00000000000E+00  0.50599540277E+03  0.79875833065E+03  0.61804815602E+03 0.  0.
        3    1    3    3  502    0  0.18694153425E+03 -0.59551997845E+02 -0.55562030429E+02  0.20391352849E+03  0.10100000352E+00 0.  1.
       -3    1    3    3    0  502 -0.18694153425E+03  0.59551997845E+02  0.56155743320E+03  0.59484480216E+03  0.10100000352E+00 0. -1.
</event>
<event>
 5   0  0.8551000E-03  0.5987102E+03  0.7818609E-02  0.9908086E-01
       -3   -1    0    0    0  501  0.00000000000E+00  0.00000000000E+00  0.31146627469E+03  0.31146629107E+03  0.10100000352E+00 0.  1.
        3   -1    0    0  501    0  0.00000000000E+00  0.00000000000E+00 -0.28771484861E+03  0.28771486634E+03  0.10100000352E+00 0. -1.
    10030    2    1    2    0    0  0.00000000000E+00  0.00000000000E+00  0.23751426083E+02  0.59918115741E+03  0.59871022135E+03 0.  0.
        3    1    3    3  502    0  0.19847576414E+02 -0.29360718057E+03 -0.43070745384E+02  0.29741251164E+03  0.10100000352E+00 0. -1.
       -3    1    3    3    0  502 -0.19847576414E+02  0.29360718057E+03  0.66822171467E+02  0.30176864577E+03  0.10100000352E+00 0.  1.
</event>
<event>
 5   0  0.2142838E-02  0.6066314E+03  0.7818609E-02  0.9891743E-01
       -2   -1    0    0    0  501  0.00000000000E+00  0.00000000000E+00  0.34286050593E+03  0.34286050594E+03  0.25500000920E-02 0. -1.
        2   -1    0    0  501    0  0.00000000000E+00  0.00000000000E+00 -0.26833194718E+03  0.26833194719E+03  0.25500000920E-02 0.  1.
    10030    2    1    2    0    0  0.00000000000E+00  0.00000000000E+00  0.74528558747E+02  0.61119245313E+03  0.60663144387E+03 0.  0.
        4    1    3    3  502    0  0.11269129479E+03 -0.10236139706E+02  0.32079566859E+03  0.34016992866E+03  0.12699999809E+01 0. -1.
       -4    1    3    3    0  502 -0.11269129479E+03  0.10236139706E+02 -0.24626710985E+03  0.27102252447E+03  0.12699999809E+01 0.  1.
</event>
<event>
 5   0  0.1332555E-02  0.5987330E+03  0.7818609E-02  0.9908038E-01
       -1   -1    0    0    0  501  0.00000000000E+00  0.00000000000E+00  0.17941339807E+03  0.17941339814E+03  0.50400001928E-02 0. -1.
        1   -1    0    0  501    0  0.00000000000E+00  0.00000000000E+00 -0.49951851040E+03  0.49951851042E+03  0.50400001928E-02 0.  1.
    10030    2    1    2    0    0  0.00000000000E+00  0.00000000000E+00 -0.32010511233E+03  0.67893190856E+03  0.59873304028E+03 0.  0.
        2    1    3    3  502    0 -0.12912225033E+03 -0.15864020212E+03  0.87815644036E+02  0.22260021698E+03  0.25500000920E-02 0. -1.
       -2    1    3    3    0  502  0.12912225033E+03  0.15864020212E+03 -0.40792075636E+03  0.45633169158E+03  0.25500000920E-02 0.  1.
</event>
<event>
 5   0  0.1303808E-02  0.6022719E+03  0.7818609E-02  0.9900704E-01
       -1   -1    0    0    0  501  0.00000000000E+00  0.00000000000E+00  0.13395573121E+03  0.13395573130E+03  0.50400001928E-02 0. -1.
        1   -1    0    0  501    0  0.00000000000E+00  0.00000000000E+00 -0.67696150944E+03  0.67696150945E+03  0.50400001928E-02 0.  1.
    10030    2    1    2    0    0  0.00000000000E+00  0.00000000000E+00 -0.54300577823E+03  0.81091724076E+03  0.60227194536E+03 0.  0.
        4    1    3    3  502    0 -0.14584562497E+03  0.13890830838E+03 -0.57291929483E+03  0.60729284184E+03  0.12699999809E+01 0.  1.
       -4    1    3    3    0  502  0.14584562497E+03 -0.13890830838E+03  0.29913516603E+02  0.20362439892E+03  0.12699999809E+01 0. -1.
</event>
<event>
 5   0  0.2142838E-02  0.6006500E+03  0.7818609E-02  0.9904058E-01
        2   -1    0    0  501    0  0.00000000000E+00  0.00000000000E+00  0.59402361677E+03  0.59402361678E+03  0.25500000920E-02 0.  1.
       -2   -1    0    0    0  501  0.00000000000E+00  0.00000000000E+00 -0.15183756476E+03  0.15183756478E+03  0.25500000920E-02 0. -1.
    10030    2    1    2    0    0  0.00000000000E+00  0.00000000000E+00  0.44218605201E+03  0.74586118156E+03  0.60064997925E+03 0.  0.
        4    1    3    3  502    0  0.43464014877E+01 -0.64969828452E+02 -0.14296311681E+03  0.15709880803E+03  0.12699999809E+01 0. -1.
       -4    1    3    3    0  502 -0.43464014877E+01  0.64969828452E+02  0.58514916882E+03  0.58876237353E+03  0.12699999809E+01 0.  1.
</event>
<event>
 5   0  0.2126207E-02  0.5988100E+03  0.7818609E-02  0.9907878E-01
       -2   -1    0    0    0  501  0.00000000000E+00  0.00000000000E+00  0.51347059536E+02  0.51347059600E+02  0.25500000920E-02 0.  1.
        2   -1    0    0  501    0  0.00000000000E+00  0.00000000000E+00 -0.17458320220E+04  0.17458320220E+04  0.25500000920E-02 0. -1.
    10030    2    1    2    0    0  0.00000000000E+00  0.00000000000E+00 -0.16944849625E+04  0.17971790816E+04  0.59880995594E+03 0.  0.
        5    1    3    3  502    0  0.10539565191E+03  0.19917197006E+03 -0.25573300211E+03  0.34088000156E+03  0.46999998093E+01 0.  1.
       -5    1    3    3    0  502 -0.10539565191E+03 -0.19917197006E+03 -0.14387519603E+04  0.14562990800E+04  0.46999998093E+01 0. -1.
</event>
<event>
 5   0  0.1303808E-02  0.5952339E+03  0.7818609E-02  0.9915344E-01
        1   -1    0    0  501    0  0.00000000000E+00  0.00000000000E+00  0.37666227878E+03  0.37666227881E+03  0.50400001928E-02 0. -1.
       -1   -1    0    0    0  501  0.00000000000E+00  0.00000000000E+00 -0.23515988459E+03  0.23515988464E+03  0.50400001928E-02 0.  1.
    10030    2    1    2    0    0  0.00000000000E+00  0.00000000000E+00  0.14150239419E+03  0.61182216345E+03  0.59523393060E+03 0.  0.
        4    1    3    3  502    0  0.46689709692E+02 -0.89681574750E+02 -0.21696298517E+03  0.23936846843E+03  0.12699999809E+01 0.  1.
       -4    1    3    3    0  502 -0.46689709692E+02  0.89681574750E+02  0.35846537936E+03  0.37245369503E+03  0.12699999809E+01 0. -1.
</event>
<event>
 5   0  0.2142838E-02  0.5975866E+03  0.7818609E-02  0.9910426E-01
       -2   -1    0    0    0  501  0.00000000000E+00  0.00000000000E+00  0.40126382692E+02  0.40126382773E+02  0.25500000920E-02 0. -1.
        2   -1    0    0  501    0  0.00000000000E+00  0.00000000000E+00 -0.22249060331E+04  0.22249060331E+04  0.25500000920E-02 0.  1.
    10030    2    1    2    0    0  0.00000000000E+00  0.00000000000E+00 -0.21847796504E+04  0.22650324159E+04  0.59758658295E+03 0.  0.
        4    1    3    3  502    0  0.37979643455E+02 -0.22040262596E+02 -0.22125988087E+04  0.22130348682E+04  0.12699999809E+01 0.  1.
       -4    1    3    3    0  502 -0.37979643455E+02  0.22040262596E+02  0.27819158349E+02  0.51997547667E+02  0.12699999809E+01 0. -1.
</event>
<event>
 5   0  0.2092587E-02  0.6004409E+03  0.7818609E-02  0.9904492E-01
        2   -1    0    0  501    0  0.00000000000E+00  0.00000000000E+00  0.11535560415E+04  0.11535560415E+04  0.25500000920E-02 0. -1.
       -2   -1    0    0    0  501  0.00000000000E+00  0.00000000000E+00 -0.78134310252E+02  0.78134310294E+02  0.25500000920E-02 0.  1.
    10030    2    1    2    0    0  0.00000000000E+00  0.00000000000E+00  0.10754217313E+04  0.12316903518E+04  0.60044085693E+03 0.  0.
        3    1    3    3  502    0 -0.11477148137E+03 -0.78791240725E+02  0.10833429185E+04  0.10922510892E+04  0.10100000352E+00 0. -1.
       -3    1    3    3    0  502  0.11477148137E+03  0.78791240725E+02 -0.79211872490E+01  0.13943926262E+03  0.10100000352E+00 0.  1.
</event>
<event>
 5   0  0.1337051E-02  0.5997044E+03  0.7818609E-02  0.9906020E-01
        1   -1    0    0  501    0  0.00000000000E+00  0.00000000000E+00  0.98269973388E+03  0.98269973389E+03  0.50400001928E-02 0. -1.
       -1   -1    0    0    0  501  0.00000000000E+00  0.00000000000E+00 -0.91494219216E+02  0.91494219355E+02  0.50400001928E-02 0.  1.
    10030    2    1    2    0    0  0.00000000000E+00  0.00000000000E+00  0.89120551466E+03  0.10741939532E+04  0.59970441038E+03 0.  0.
        5    1    3    3  502    0  0.72142692771E+02 -0.28299958744E+03  0.56703435451E+03  0.63784275790E+03  0.46999998093E+01 0. -1.
       -5    1    3    3    0  502 -0.72142692771E+02  0.28299958744E+03  0.32417116015E+03  0.43635119535E+03  0.46999998093E+01 0.  1.
</event>
<event>
 5   0  0.2141800E-02  0.6120524E+03  0.7818609E-02  0.9880712E-01
       -2   -1    0    0    0  501  0.00000000000E+00  0.00000000000E+00  0.48212723632E+03  0.48212723633E+03  0.25500000920E-02 0.  1.
        2   -1    0    0  501    0  0.00000000000E+00  0.00000000000E+00 -0.19424754854E+03  0.19424754855E+03  0.25500000920E-02 0. -1.
    10030    2    1    2    0    0  0.00000000000E+00  0.00000000000E+00  0.28787968779E+03  0.67637478488E+03  0.61205239562E+03 0.  0.
        2    1    3    3  502    0  0.17862611940E+03  0.21522908280E+03  0.67071204918E+01  0.27977818729E+03  0.25500000920E-02 0. -1.
       -2    1    3    3    0  502 -0.17862611940E+03 -0.21522908280E+03  0.28117256729E+03  0.39659659759E+03  0.25500000920E-02 0.  1.
</event>
<event>
 5   0  0.1337051E-02  0.6008866E+03  0.7818609E-02  0.9903568E-01
        1   -1    0    0  501    0  0.00000000000E+00  0.00000000000E+00  0.70488275245E+03  0.70488275247E+03  0.50400001928E-02 0. -1.
       -1   -1    0    0    0  501  0.00000000000E+00  0.00000000000E+00 -0.12805841561E+03  0.12805841571E+03  0.50400001928E-02 0.  1.
    10030    2    1    2    0    0  0.00000000000E+00  0.00000000000E+00  0.57682433684E+03  0.83294116817E+03  0.60088657338E+03 0.  0.
        5    1    3    3  502    0 -0.12455791653E+03  0.94324535889E+02  0.64407730416E+03  0.66277406133E+03  0.46999998093E+01 0. -1.
       -5    1    3    3    0  502  0.12455791653E+03 -0.94324535889E+02 -0.67252967319E+02  0.17016710685E+03  0.46999998093E+01 0.  1.
</event>
<event>
 5   0  0.2141800E-02  0.6009767E+03  0.7818609E-02  0.9903382E-01
        2   -1    0    0  501    0  0.00000000000E+00  0.00000000000E+00  0.15846265911E+04  0.15846265911E+04  0.25500000920E-02 0.  1.
       -2   -1    0    0    0  501  0.00000000000E+00  0.00000000000E+00 -0.56980766490E+02  0.56980766547E+02  0.25500000920E-02 0. -1.
    10030    2    1    2    0    0  0.00000000000E+00  0.00000000000E+00  0.15276458246E+04  0.16416073577E+04  0.60097666447E+03 0.  0.
        2    1    3    3  502    0  0.17737532335E+03  0.20561345935E+03  0.41236964309E+03  0.49374854183E+03  0.25500000920E-02 0. -1.
       -2    1    3    3    0  502 -0.17737532335E+03 -0.20561345935E+03  0.11152761815E+04  0.11478588158E+04  0.25500000920E-02 0.  1.
</event>
<event>
 5   0  0.1250390E-02  0.6020413E+03  0.7818609E-02  0.9901180E-01
       -1   -1    0    0    0  501  0.00000000000E+00  0.00000000000E+00  0.32325389502E+03  0.32325389506E+03  0.50400001928E-02 0. -1.
        1   -1    0    0  501    0  0.00000000000E+00  0.00000000000E+00 -0.28031659826E+03  0.28031659830E+03  0.50400001928E-02 0.  1.
    10030    2    1    2    0    0  0.00000000000E+00  0.00000000000E+00  0.42937296764E+02  0.60357049336E+03  0.60204130174E+03 0.  0.
        3    1    3    3  502    0  0.10346182825E+03 -0.23787784952E+03 -0.13163861371E+03  0.29089337569E+03  0.10100000352E+00 0.  1.
       -3    1    3    3    0  502 -0.10346182825E+03  0.23787784952E+03  0.17457591048E+03  0.31267711767E+03  0.10100000352E+00 0. -1.
</event>
<event>
 5   0  0.2092587E-02  0.6023466E+03  0.7818609E-02  0.9900549E-01
       -2   -1    0    0    0  501  0.00000000000E+00  0.00000000000E+00  0.62408656573E+03  0.62408656573E+03  0.25500000920E-02 0. -1.
        2   -1    0    0  501    0  0.00000000000E+00  0.00000000000E+00 -0.14534100380E+03  0.14534100382E+03  0.25500000920E-02 0.  1.
    10030    2    1    2    0    0  0.00000000000E+00  0.00000000000E+00  0.47874556193E+03  0.76942756955E+03  0.60234663751E+03 0.  0.
        3    1    3    3  502    0 -0.61172959922E+02  0.14967938470E+03 -0.85191473999E+02  0.18276664540E+03  0.10100000352E+00 0.  1.
       -3    1    3    3    0  502  0.61172959922E+02 -0.14967938470E+03  0.56393703593E+03  0.58666092415E+03  0.10100000352E+00 0. -1.
</event>
<event>
 5   0  0.1332555E-02  0.5933254E+03  0.7818609E-02  0.9919351E-01
       -1   -1    0    0    0  501  0.00000000000E+00  0.00000000000E+00  0.15581360653E+03  0.15581360661E+03  0.50400001928E-02 0.  1.
        1   -1    0    0  501    0  0.00000000000E+00  0.00000000000E+00 -0.56483348771E+03  0.56483348773E+03  0.50400001928E-02 0. -1.
    10030    2    1    2    0    0  0.00000000000E+00  0.00000000000E+00 -0.40901988118E+03  0.72064709434E+03  0.59332535036E+03 0.  0.
        2    1    3    3  502    0 -0.11045410547E+03 -0.96552720206E+02 -0.51769101509E+03  0.53807668999E+03  0.25500000920E-02 0. -1.
       -2    1    3    3    0  502  0.11045410547E+03  0.96552720206E+02  0.10867113391E+03  0.18257040435E+03  0.25500000920E-02 0.  1.
</event>
<event>
 5   0  0.1276705E-02  0.5931758E+03  0.7818609E-02  0.9919666E-01
        1   -1    0    0  501    0  0.00000000000E+00  0.00000000000E+00  0.66625025545E+02  0.66625025735E+02  0.50400001928E-02 0. -1.
       -1   -1    0    0    0  501  0.00000000000E+00  0.00000000000E+00 -0.13202902370E+04  0.13202902370E+04  0.50400001928E-02 0.  1.
    10030    2    1    2    0    0  0.00000000000E+00  0.00000000000E+00 -0.12536652114E+04  0.13869152627E+04  0.59317576114E+03 0.  0.
        1    1    3    3  502    0  0.91127592565E+02  0.11391748777E+03 -0.12306058960E+04  0.12392224592E+04  0.50400001928E-02 0.  1.
       -1    1    3    3    0  502 -0.91127592565E+02 -0.11391748777E+03 -0.23059315411E+02  0.14769280348E+03  0.50400001928E-02 0. -1.
</event>
<event>
 5   0  0.2141800E-02  0.5999003E+03  0.7818609E-02  0.9905613E-01
       -2   -1    0    0    0  501  0.00000000000E+00  0.00000000000E+00  0.88552119063E+02  0.88552119100E+02  0.25500000920E-02 0. -1.
        2   -1    0    0  501    0  0.00000000000E+00  0.00000000000E+00 -0.10160128454E+04  0.10160128454E+04  0.25500000920E-02 0.  1.
    10030    2    1    2    0    0  0.00000000000E+00  0.00000000000E+00 -0.92746072629E+03  0.11045649645E+04  0.59990029329E+03 0.  0.
        2    1    3    3  502    0  0.56848340820E+02 -0.26667768099E+03 -0.23360114396E+03  0.35905182615E+03  0.25500000920E-02 0.  1.
       -2    1    3    3    0  502 -0.56848340820E+02  0.26667768099E+03 -0.69385958232E+03  0.74551313830E+03  0.25500000920E-02 0. -1.
</event>
<event>
 5   0  0.1250390E-02  0.5895775E+03  0.7818609E-02  0.9927269E-01
        1   -1    0    0  501    0  0.00000000000E+00  0.00000000000E+00  0.21410615940E+03  0.21410615946E+03  0.50400001928E-02 0. -1.
       -1   -1    0    0    0  501  0.00000000000E+00  0.00000000000E+00 -0.40587527333E+03  0.40587527336E+03  0.50400001928E-02 0.  1.
    10030    2    1    2    0    0  0.00000000000E+00  0.00000000000E+00 -0.19176911393E+03  0.61998143282E+03  0.58957746224E+03 0.  0.
        3    1    3    3  502    0  0.27405293552E+03  0.92585102983E+02 -0.15558713626E+03  0.32845757707E+03  0.10100000352E+00 0.  1.
       -3    1    3    3    0  502 -0.27405293552E+03 -0.92585102983E+02 -0.36181977676E+02  0.29152385575E+03  0.10100000352E+00 0. -1.
</event>
<event>
 5   0  0.2142838E-02  0.5993941E+03  0.7818609E-02  0.9906664E-01
        2   -1    0    0  501    0  0.00000000000E+00  0.00000000000E+00  0.66582962147E+03  0.66582962148E+03  0.25500000920E-02 0. -1.
       -2   -1    0    0    0  501  0.00000000000E+00  0.00000000000E+00 -0.13489686252E+03  0.13489686254E+03  0.25500000920E-02 0.  1.
    10030    2    1    2    0    0  0.00000000000E+00  0.00000000000E+00  0.53093275896E+03  0.80072648402E+03  0.59939411715E+03 0.  0.
        4    1    3    3  502    0 -0.27575829514E+02 -0.50138299031E+02  0.65846070644E+03  0.66094356055E+03  0.12699999809E+01 0. -1.
       -4    1    3    3    0  502  0.27575829514E+02  0.50138299031E+02 -0.12752794749E+03  0.13978292347E+03  0.12699999809E+01 0.  1.
</event>
<event>
 5   0  0.2092587E-02  0.5992400E+03  0.7818609E-02  0.9906984E-01
       -2   -1    0    0    0  501  0.00000000000E+00  0.00000000000E+00  0.13109114680E+03  0.13109114682E+03  0.25500000920E-02 0. -1.
        2   -1    0    0  501    0  0.00000000000E+00  0.00000000000E+00 -0.68480705151E+03  0.68480705151E+03  0.25500000920E-02 0.  1.
    10030    2    1    2    0    0  0.00000000000E+00  0.00000000000E+00 -0.55371590471E+03  0.81589819833E+03  0.59923999108E+03 0.  0.
        3    1    3    3  502    0  0.23312269646E+03 -0.12093227243E+03 -0.80485443271E+02  0.27467930920E+03  0.10100000352E+00 0. -1.
       -3    1    3    3    0  502 -0.23312269646E+03  0.12093227243E+03 -0.47323046144E+03  0.54121888914E+03  0.10100000352E+00 0.  1.
</event>
<event>
 5   0  0.2126207E-02  0.5980967E+03  0.7818609E-02  0.9909363E-01
        2   -1    0    0  501    0  0.00000000000E+00  0.00000000000E+00  0.11377580306E+04  0.11377580306E+04  0.25500000920E-02 0.  1.
       -2   -1    0    0    0  501  0.00000000000E+00  0.00000000000E+00 -0.78601865163E+02  0.78601865204E+02  0.25500000920E-02 0. -1.
    10030    2    1    2    0    0  0.00000000000E+00  0.00000000000E+00  0.10591561654E+04  0.12163598958E+04  0.59809665886E+03 0.  0.
        5    1    3    3  502    0  0.59632793158E+02  0.13432776456E+02  0.11248404192E+04  0.11265099059E+04  0.46999998093E+01 0.  1.
       -5    1    3    3    0  502 -0.59632793158E+02 -0.13432776456E+02 -0.65684253719E+02  0.89849989916E+02  0.46999998093E+01 0. -1.
</event>
<event>
 5   0  0.1303808E-02  0.5993248E+03  0.7818609E-02  0.9906808E-01
       -1   -1    0    0    0  501  0.00000000000E+00  0.00000000000E+00  0.74735789397E+02  0.74735789567E+02  0.50400001928E-02 0.  1.
        1   -1    0    0  501    0  0.00000000000E+00  0.00000000000E+00 -0.12015335698E+04  0.12015335698E+04  0.50400001928E-02 0. -1.
    10030    2    1    2    0    0  0.00000000000E+00  0.00000000000E+00 -0.11267977804E+04  0.12762693594E+04  0.59932481991E+03 0.  0.
        4    1    3    3  502    0  0.20099302484E+03 -0.19619321002E+03 -0.34101038530E+03  0.44179142983E+03  0.12699999809E+01 0.  1.
       -4    1    3    3    0  502 -0.20099302484E+03  0.19619321002E+03 -0.78578739510E+03  0.83447792954E+03  0.12699999809E+01 0. -1.
</event>
<event>
 5   0  0.1276705E-02  0.5981746E+03  0.7818609E-02  0.9909200E-01
       -1   -1    0    0    0  501  0.00000000000E+00  0.00000000000E+00  0.18382781635E+03  0.18382781642E+03  0.50400001928E-02 0.  1.
        1   -1    0    0  501    0  0.00000000000E+00  0.00000000000E+00 -0.48661408227E+03  0.48661408229E+03  0.50400001928E-02 0. -1.
    10030    2    1    2    0    0  0.00000000000E+00  0.00000000000E+00 -0.30278626592E+03  0.67044189871E+03  0.59817457044E+03 0.  0.
        1    1    3    3  502    0 -0.18451463068E+03  0.18774472327E+03 -0.31053073156E+03  0.40709097917E+03  0.50400001928E-02 0. -1.
       -1    1    3    3    0  502  0.18451463068E+03 -0.18774472327E+03  0.77444656365E+01  0.26335091954E+03  0.50400001928E-02 0.  1.
</event>
<event>
 5   0  0.1337051E-02  0.6010576E+03  0.7818609E-02  0.9903214E-01
        1   -1    0    0  501    0  0.00000000000E+00  0.00000000000E+00  0.25406987448E+03  0.25406987453E+03  0.50400001928E-02 0.  1.
       -1   -1    0    0    0  501  0.00000000000E+00  0.00000000000E+00 -0.35548316918E+03  0.35548316922E+03  0.50400001928E-02 0. -1.
    10030    2    1    2    0    0  0.00000000000E+00  0.00000000000E+00 -0.10141329470E+03  0.60955304375E+03  0.60105761521E+03 0.  0.
        5    1    3    3  502    0  0.16593945949E+03 -0.10193734059E+01  0.20335071481E+03  0.26250818378E+03  0.46999998093E+01 0.  1.
       -5    1    3    3    0  502 -0.16593945949E+03  0.10193734059E+01 -0.30476400951E+03  0.34704485997E+03  0.46999998093E+01 0. -1.
</event>
<event>
 5   0  0.2142838E-02  0.5992682E+03  0.7818609E-02  0.9906925E-01
        2   -1    0    0  501    0  0.00000000000E+00  0.00000000000E+00  0.11523108165E+04  0.11523108165E+04  0.25500000920E-02 0. -1.
       -2   -1    0    0    0  501  0.00000000000E+00  0.00000000000E+00 -0.77913529312E+02  0.77913529353E+02  0.25500000920E-02 0.  1.
    10030    2    1    2    0    0  0.00000000000E+00  0.00000000000E+00  0.10743972872E+04  0.12302243459E+04  0.59926822911E+03 0.  0.
        4    1    3    3  502    0  0.11166247645E+03  0.15131482637E+03  0.58326466943E+02  0.19689660986E+03  0.12699999809E+01 0.  1.
       -4    1    3    3    0  502 -0.11166247645E+03 -0.15131482637E+03  0.10160708202E+04  0.10333277360E+04  0.12699999809E+01 0. -1.
</event>
<event>
 5   0  0.2179625E-02  0.5947457E+03  0.7818609E-02  0.9916367E-01
        2   -1    0    0  501    0  0.00000000000E+00  0.00000000000E+00  0.19341144974E+03  0.19341144976E+03  0.25500000920E-02 0.  1.
       -2   -1    0    0    0  501  0.00000000000E+00  0.00000000000E+00 -0.45721498866E+03  0.45721498866E+03  0.25500000920E-02 0. -1.
    10030    2    1    2    0    0  0.00000000000E+00  0.00000000000E+00 -0.26380353891E+03  0.65062643843E+03  0.59474570636E+03 0.  0.
        1    1    3    3  502    0  0.64245591777E+02  0.26807174482E+03 -0.98842881910E+01  0.27583990939E+03  0.50400001928E-02 0. -1.
       -1    1    3    3    0  502 -0.64245591777E+02 -0.26807174482E+03 -0.25391925072E+03  0.37478652904E+03  0.50400001928E-02 0.  1.
</event>
<event>
 5   0  0.2126207E-02  0.6113979E+03  0.7818609E-02  0.9882037E-01
       -2   -1    0    0    0  501  0.00000000000E+00  0.00000000000E+00  0.16252986426E+03  0.16252986428E+03  0.25500000920E-02 0.  1.
        2   -1    0    0  501    0  0.00000000000E+00  0.00000000000E+00 -0.57498254827E+03  0.57498254827E+03  0.25500000920E-02 0. -1.
    10030    2    1    2    0    0  0.00000000000E+00  0.00000000000E+00 -0.41245268401E+03  0.73751241255E+03  0.61139785911E+03 0.  0.
        5    1    3    3  502    0  0.24045417648E+03  0.15094290234E+03 -0.69604202064E+02  0.29235048435E+03  0.46999998093E+01 0. -1.
       -5    1    3    3    0  502 -0.24045417648E+03 -0.15094290234E+03 -0.34284848194E+03  0.44516192820E+03  0.46999998093E+01 0.  1.
</event>
<event>
 5   0  0.2142838E-02  0.5971775E+03  0.7818609E-02  0.9911279E-01
       -2   -1    0    0    0  501  0.00000000000E+00  0.00000000000E+00  0.83539059576E+02  0.83539059615E+02  0.25500000920E-02 0. -1.
        2   -1    0    0  501    0  0.00000000000E+00  0.00000000000E+00 -0.10672281591E+04  0.10672281591E+04  0.25500000920E-02 0.  1.
    10030    2    1    2    0    0  0.00000000000E+00  0.00000000000E+00 -0.98368909949E+03  0.11507672187E+04  0.59717748379E+03 0.  0.
        4    1    3    3  502    0  0.27347577173E+03 -0.81610912808E+02 -0.66098606986E+03  0.71996773280E+03  0.12699999809E+01 0. -1.
       -4    1    3    3    0  502 -0.27347577173E+03  0.81610912808E+02 -0.32270302963E+03  0.43079948589E+03  0.12699999809E+01 0.  1.
</event>
<event>
 5   0  0.2141800E-02  0.5997661E+03  0.7818609E-02  0.9905892E-01
        2   -1    0    0  501    0  0.00000000000E+00  0.00000000000E+00  0.75616336289E+03  0.75616336290E+03  0.25500000920E-02 0.  1.
       -2   -1    0    0    0  501  0.00000000000E+00  0.00000000000E+00 -0.11892910664E+03  0.11892910667E+03  0.25500000920E-02 0. -1.
    10030    2    1    2    0    0  0.00000000000E+00  0.00000000000E+00  0.63723425626E+03  0.87509246956E+03  0.59976606518E+03 0.  0.
        2    1    3    3  502    0  0.15436506229E+03  0.11998227693E+03  0.65038970565E+03  0.67913996234E+03  0.25500000920E-02 0.  1.
       -2    1    3    3    0  502 -0.15436506229E+03 -0.11998227693E+03 -0.13155449393E+02  0.19595250722E+03  0.25500000920E-02 0. -1.
</event>
<event>
 5   0  0.2126207E-02  0.6032123E+03  0.7818609E-02  0.9898764E-01
       -2   -1    0    0    0  501  0.00000000000E+00  0.00000000000E+00  0.16519605391E+03  0.16519605393E+03  0.25500000920E-02 0.  1.
        2   -1    0    0  501    0  0.00000000000E+00  0.00000000000E+00 -0.55065647745E+03  0.55065647746E+03  0.25500000920E-02 0. -1.
    10030    2    1    2    0    0  0.00000000000E+00  0.00000000000E+00 -0.38546042354E+03  0.71585253139E+03  0.60321232462E+03 0.  0.
        5    1    3    3  502    0  0.13003739815E+03 -0.26907901440E+03 -0.24065643221E+03  0.38373278368E+03  0.46999998093E+01 0. -1.
       -5    1    3    3    0  502 -0.13003739815E+03  0.26907901440E+03 -0.14480399133E+03  0.33211974770E+03  0.46999998093E+01 0.  1.
</event>
<event>
 5   0  0.2126207E-02  0.5996179E+03  0.7818609E-02  0.9906199E-01
        2   -1    0    0  501    0  0.00000000000E+00  0.00000000000E+00  0.77972259356E+02  0.77972259398E+02  0.25500000920E-02 0.  1.
       -2   -1    0    0    0  501  0.00000000000E+00  0.00000000000E+00 -0.11527869680E+04  0.11527869680E+04  0.25500000920E-02 0. -1.
    10030    2    1    2    0    0  0.00000000000E+00  0.00000000000E+00 -0.10748147087E+04  0.12307592274E+04  0.59961789326E+03 0.  0.
        5    1    3    3  502    0 -0.23148398346E+02 -0.17860244967E+03 -0.10292914137E+04  0.10449390354E+04  0.46999998093E+01 0. -1.
       -5    1    3    3    0  502  0.23148398346E+02  0.17860244967E+03 -0.45523294933E+02  0.18582019200E+03  0.46999998093E+01 0.  1.
</event>
<event>
 5   0  0.8551000E-03  0.5991610E+03  0.7818609E-02  0.9907148E-01
        4   -1    0    0  501    0  0.00000000000E+00  0.00000000000E+00  0.10468134184E+03  0.10468904541E+03  0.12699999809E+01 0. -1.
       -4   -1    0    0    0  501  0.00000000000E+00  0.00000000000E+00 -0.85730951728E+03  0.85731045795E+03  0.12699999809E+01 0.  1.
    10030    2    1    2    0    0  0.00000000000E+00  0.00000000000E+00 -0.75262817544E+03  0.96199950336E+03  0.59916097503E+03 0.  0.
        5    1    3    3  502    0  0.16981259168E+03 -0.10788952515E+03 -0.73262905117E+03  0.75976567608E+03  0.46999998093E+01 0.  1.
       -5    1    3    3    0  502 -0.16981259168E+03  0.10788952515E+03 -0.19999124270E+02  0.20223382728E+03  0.46999998093E+01 0. -1.
</event>
<event>
 5   0  0.1332555E-02  0.5973433E+03  0.7818609E-02  0.9910933E-01
       -1   -1    0    0    0  501  0.00000000000E+00  0.00000000000E+00  0.66679562467E+03  0.66679562469E+03  0.50400001928E-02 0.  1.
        1   -1    0    0  501    0  0.00000000000E+00  0.00000000000E+00 -0.13378126672E+03  0.13378126681E+03  0.50400001928E-02 0. -1.
    10030    2    1    2    0    0  0.00000000000E+00  0.00000000000E+00  0.53301435795E+03  0.80057689150E+03  0.59734332960E+03 0.  0.
        2    1    3    3  502    0 -0.28198737786E+03 -0.92934001007E+02  0.30995941289E+03  0.42921841463E+03  0.25500000920E-02 0.  1.
       -2    1    3    3    0  502  0.28198737786E+03  0.92934001007E+02  0.22305494506E+03  0.37135847686E+03  0.25500000920E-02 0. -1.
</event>
<event>
 5   0  0.8551000E-03  0.5989622E+03  0.7818609E-02  0.9907561E-01
        4   -1    0    0  501    0  0.00000000000E+00  0.00000000000E+00  0.65612065527E+03  0.65612188439E+03  0.12699999809E+01 0.  1.
       -4   -1    0    0    0  501  0.00000000000E+00  0.00000000000E+00 -0.13669148429E+03  0.13669738395E+03  0.12699999809E+01 0. -1.
    10030    2    1    2    0    0  0.00000000000E+00  0.00000000000E+00  0.51942917098E+03  0.79281926834E+03  0.59896220964E+03 0.  0.
        4    1    3    3  502    0  0.98369602059E+02  0.25692669238E+03  0.41632827618E+03  0.49901778557E+03  0.12699999809E+01 0.  1.
       -4    1    3    3    0  502 -0.98369602059E+02 -0.25692669238E+03  0.10310089480E+03  0.29380148277E+03  0.12699999809E+01 0. -1.
</event>
<event>
 5   0  0.1250390E-02  0.5981825E+03  0.7818609E-02  0.9909184E-01
        1   -1    0    0  501    0  0.00000000000E+00  0.00000000000E+00  0.38611166448E+03  0.38611166451E+03  0.50400001928E-02 0.  1.
       -1   -1    0    0    0  501  0.00000000000E+00  0.00000000000E+00 -0.23168315654E+03  0.23168315660E+03  0.50400001928E-02 0. -1.
    10030    2    1    2    0    0  0.00000000000E+00  0.00000000000E+00  0.15442850794E+03  0.61779482111E+03  0.59818247795E+03 0.  0.
        3    1    3    3  502    0 -0.10154234159E+03 -0.26293765755E+02  0.36649286380E+03  0.38120760573E+03  0.10100000352E+00 0.  1.
       -3    1    3    3    0  502  0.10154234159E+03  0.26293765755E+02 -0.21206435586E+03  0.23658721538E+03  0.10100000352E+00 0. -1.
</event>
<event>
 5   0  0.2092587E-02  0.6060171E+03  0.7818609E-02  0.9893000E-01
       -2   -1    0    0    0  501  0.00000000000E+00  0.00000000000E+00  0.12056539497E+03  0.12056539500E+03  0.25500000920E-02 0.  1.
        2   -1    0    0  501    0  0.00000000000E+00  0.00000000000E+00 -0.76153025727E+03  0.76153025727E+03  0.25500000920E-02 0. -1.
    10030    2    1    2    0    0  0.00000000000E+00  0.00000000000E+00 -0.64096486230E+03  0.88209565227E+03  0.60601714914E+03 0.  0.
        3    1    3    3  502    0  0.28707011111E+02 -0.29434548707E+03 -0.41649248553E+03  0.51081244988E+03  0.10100000352E+00 0. -1.
       -3    1    3    3    0  502 -0.28707011111E+02  0.29434548707E+03 -0.22447237677E+03  0.37128320239E+03  0.10100000352E+00 0.  1.
</event>
<event>
 5   0  0.1276705E-02  0.5964460E+03  0.7818609E-02  0.9912807E-01
       -1   -1    0    0    0  501  0.00000000000E+00  0.00000000000E+00  0.24248596074E+03  0.24248596079E+03  0.50400001928E-02 0. -1.
        1   -1    0    0  501    0  0.00000000000E+00  0.00000000000E+00 -0.36677156743E+03  0.36677156747E+03  0.50400001928E-02 0.  1.
    10030    2    1    2    0    0  0.00000000000E+00  0.00000000000E+00 -0.12428560670E+03  0.60925752825E+03  0.59644599395E+03 0.  0.
        1    1    3    3  502    0  0.20434033624E+03 -0.20113557500E+03  0.21633881044E+02  0.28753872328E+03  0.50400001928E-02 0. -1.
       -1    1    3    3    0  502 -0.20434033624E+03  0.20113557500E+03 -0.14591948774E+03  0.32171880498E+03  0.50400001928E-02 0.  1.
</event>
<event>
 5   0  0.1332555E-02  0.6024308E+03  0.7818609E-02  0.9900376E-01
        1   -1    0    0  501    0  0.00000000000E+00  0.00000000000E+00  0.18040818141E+04  0.18040818141E+04  0.50400001928E-02 0. -1.
       -1   -1    0    0    0  501  0.00000000000E+00  0.00000000000E+00 -0.50291906057E+02  0.50291906309E+02  0.50400001928E-02 0.  1.
    10030    2    1    2    0    0  0.00000000000E+00  0.00000000000E+00  0.17537899081E+04  0.18543737204E+04  0.60243078725E+03 0.  0.
        2    1    3    3  502    0 -0.24891009080E+03  0.12793549275E+02  0.35623383751E+03  0.43476712755E+03  0.25500000920E-02 0.  1.
       -2    1    3    3    0  502  0.24891009080E+03 -0.12793549275E+02  0.13975560706E+04  0.14196065929E+04  0.25500000920E-02 0. -1.
</event>
<event>
 5   0  0.1337051E-02  0.6068665E+03  0.7818609E-02  0.9891262E-01
       -1   -1    0    0    0  501  0.00000000000E+00  0.00000000000E+00  0.55434688516E+02  0.55434688746E+02  0.50400001928E-02 0.  1.
        1   -1    0    0  501    0  0.00000000000E+00  0.00000000000E+00 -0.16609048804E+04  0.16609048804E+04  0.50400001928E-02 0. -1.
    10030    2    1    2    0    0  0.00000000000E+00  0.00000000000E+00 -0.16054701919E+04  0.17163395691E+04  0.60686652536E+03 0.  0.
        5    1    3    3  502    0  0.14994452341E+03 -0.63420001493E+02 -0.78670754365E+02  0.18087740124E+03  0.46999998093E+01 0.  1.
       -5    1    3    3    0  502 -0.14994452341E+03  0.63420001493E+02 -0.15267994375E+04  0.15354621679E+04  0.46999998093E+01 0. -1.
</event>
<event>
 5   0  0.2141800E-02  0.6050772E+03  0.7818609E-02  0.9894928E-01
        2   -1    0    0  501    0  0.00000000000E+00  0.00000000000E+00  0.68437197983E+03  0.68437197983E+03  0.25500000920E-02 0.  1.
       -2   -1    0    0    0  501  0.00000000000E+00  0.00000000000E+00 -0.13374247402E+03  0.13374247404E+03  0.25500000920E-02 0. -1.
    10030    2    1    2    0    0  0.00000000000E+00  0.00000000000E+00  0.55062950581E+03  0.81811445388E+03  0.60507719092E+03 0.  0.
        2    1    3    3  502    0  0.26871236378E+03 -0.12238574475E+03  0.36443943888E+03  0.46904233240E+03  0.25500000920E-02 0.  1.
       -2    1    3    3    0  502 -0.26871236378E+03  0.12238574475E+03  0.18619006692E+03  0.34907212148E+03  0.25500000920E-02 0. -1.
</event>
<event>
 5   0  0.2142838E-02  0.6000337E+03  0.7818609E-02  0.9905336E-01
        2   -1    0    0  501    0  0.00000000000E+00  0.00000000000E+00  0.14444846056E+04  0.14444846056E+04  0.25500000920E-02 0.  1.
       -2   -1    0    0    0  501  0.00000000000E+00  0.00000000000E+00 -0.62312953895E+02  0.62312953947E+02  0.25500000920E-02 0. -1.
    10030    2    1    2    0    0  0.00000000000E+00  0.00000000000E+00  0.13821716517E+04  0.15067975595E+04  0.60003367462E+03 0.  0.
        4    1    3    3  502    0  0.22392116444E+02 -0.25386265519E+03  0.10886223664E+04  0.11180554209E+04  0.12699999809E+01 0.  1.
       -4    1    3    3    0  502 -0.22392116444E+02  0.25386265519E+03  0.29354928523E+03  0.38874213862E+03  0.12699999809E+01 0. -1.
</event>
<event>
 5   0  0.1250390E-02  0.6006571E+03  0.7818609E-02  0.9904044E-01
       -1   -1    0    0    0  501  0.00000000000E+00  0.00000000000E+00  0.11807091737E+03  0.11807091748E+03  0.50400001928E-02 0. -1.
        1   -1    0    0  501    0  0.00000000000E+00  0.00000000000E+00 -0.76392418074E+03  0.76392418075E+03  0.50400001928E-02 0.  1.
    10030    2    1    2    0    0  0.00000000000E+00  0.00000000000E+00 -0.64585326337E+03  0.88199509823E+03  0.60065706980E+03 0.  0.
        3    1    3    3  502    0 -0.14788738879E+03  0.13205306844E+03  0.83185077230E+01  0.19843865657E+03  0.10100000352E+00 0. -1.
       -3    1    3    3    0  502  0.14788738879E+03 -0.13205306844E+03 -0.65417177109E+03  0.68355644166E+03  0.10100000352E+00 0.  1.
</event>
<event>
 5   0  0.2141800E-02  0.5998804E+03  0.7818609E-02  0.9905654E-01
        2   -1    0    0  501    0  0.00000000000E+00  0.00000000000E+00  0.34182547565E+03  0.34182547566E+03  0.25500000920E-02 0. -1.
       -2   -1    0    0    0  501  0.00000000000E+00  0.00000000000E+00 -0.26318729269E+03  0.26318729270E+03  0.25500000920E-02 0.  1.
    10030    2    1    2    0    0  0.00000000000E+00  0.00000000000E+00  0.78638182956E+02  0.60501276836E+03  0.59988039313E+03 0.  0.
        2    1    3    3  502    0  0.12285170563E+03  0.18989722283E+03  0.23800871616E+03  0.32833160949E+03  0.25500000920E-02 0. -1.
       -2    1    3    3    0  502 -0.12285170563E+03 -0.18989722283E+03 -0.15937053320E+03  0.27668115887E+03  0.25500000920E-02 0.  1.
</event>
<event>
 5   0  0.1337051E-02  0.5916919E+03  0.7818609E-02  0.9922794E-01
       -1   -1    0    0    0  501  0.00000000000E+00  0.00000000000E+00  0.10703519792E+03  0.10703519803E+03  0.50400001928E-02 0. -1.
        1   -1    0    0  501    0  0.00000000000E+00  0.00000000000E+00 -0.81772014401E+03  0.81772014403E+03  0.50400001928E-02 0.  1.
    10030    2    1    2    0    0  0.00000000000E+00  0.00000000000E+00 -0.71068494610E+03  0.92475534206E+03  0.59169193848E+03 0.  0.
        5    1    3    3  502    0 -0.22509715518E+03  0.19086193484E+03 -0.38682395361E+03  0.48657154513E+03  0.46999998093E+01 0. -1.
       -5    1    3    3    0  502  0.22509715518E+03 -0.19086193484E+03 -0.32386099249E+03  0.43818379694E+03  0.46999998093E+01 0.  1.
</event>
<event>
 5   0  0.8551000E-03  0.5671436E+03  0.7818609E-02  0.9976019E-01
        3   -1    0    0  501    0  0.00000000000E+00  0.00000000000E+00  0.19367062466E+03  0.19367065100E+03  0.10100000352E+00 0.  1.
       -3   -1    0    0    0  501  0.00000000000E+00  0.00000000000E+00 -0.41520476974E+03  0.41520478202E+03  0.10100000352E+00 0. -1.
    10030    2    1    2    0    0  0.00000000000E+00  0.00000000000E+00 -0.22153414508E+03  0.60887543302E+03  0.56714364627E+03 0.  0.
        2    1    3    3  502    0  0.91525187374E+02  0.17239419529E+03 -0.33161307065E+03  0.38479065363E+03  0.25500000920E-02 0. -1.
       -2    1    3    3    0  502 -0.91525187374E+02 -0.17239419529E+03  0.11007892557E+03  0.22408477939E+03  0.25500000920E-02 0.  1.
</event>
<event>
 5   0  0.1303808E-02  0.5942446E+03  0.7818609E-02  0.9917419E-01
        1   -1    0    0  501    0  0.00000000000E+00  0.00000000000E+00  0.42227545699E+03  0.42227545702E+03  0.50400001928E-02 0.  1.
       -1   -1    0    0    0  501  0.00000000000E+00  0.00000000000E+00 -0.20906176995E+03  0.20906177001E+03  0.50400001928E-02 0. -1.
    10030    2    1    2    0    0  0.00000000000E+00  0.00000000000E+00  0.21321368704E+03  0.63133722702E+03  0.59424457750E+03 0.  0.
        4    1    3    3  502    0  0.14295248270E+03 -0.30909724161E+02 -0.16816626754E+03  0.22287290054E+03  0.12699999809E+01 0. -1.
       -4    1    3    3    0  502 -0.14295248270E+03  0.30909724161E+02  0.38137995458E+03  0.40846432648E+03  0.12699999809E+01 0.  1.
</event>
<event>
 5   0  0.1332555E-02  0.6007525E+03  0.7818609E-02  0.9903846E-01
       -1   -1    0    0    0  501  0.00000000000E+00  0.00000000000E+00  0.47906346355E+03  0.47906346358E+03  0.50400001928E-02 0. -1.
        1   -1    0    0  501    0  0.00000000000E+00  0.00000000000E+00 -0.18833805659E+03  0.18833805666E+03  0.50400001928E-02 0.  1.
    10030    2    1    2    0    0  0.00000000000E+00  0.00000000000E+00  0.29072540696E+03  0.66740152024E+03  0.60075246730E+03 0.  0.
        2    1    3    3  502    0  0.69435308946E+02  0.29215035787E+03  0.13729111090E+03  0.33018471024E+03  0.25500000920E-02 0.  1.
       -2    1    3    3    0  502 -0.69435308946E+02 -0.29215035787E+03  0.15343429606E+03  0.33721681000E+03  0.25500000920E-02 0. -1.
</event>
<event>
 5   0  0.1337051E-02  0.6083220E+03  0.7818609E-02  0.9888290E-01
        1   -1    0    0  501    0  0.00000000000E+00  0.00000000000E+00  0.83997677624E+03  0.83997677626E+03  0.50400001928E-02 0.  1.
       -1   -1    0    0    0  501  0.00000000000E+00  0.00000000000E+00 -0.11013863998E+03  0.11013864009E+03  0.50400001928E-02 0. -1.
    10030    2    1    2    0    0  0.00000000000E+00  0.00000000000E+00  0.72983813626E+03  0.95011541635E+03  0.60832195360E+03 0.  0.
        5    1    3    3  502    0 -0.87193483912E+02  0.20566281007E+03  0.42584816111E+02  0.22745428474E+03  0.46999998093E+01 0. -1.
       -5    1    3    3    0  502  0.87193483912E+02 -0.20566281007E+03  0.68725332015E+03  0.72266113161E+03  0.46999998093E+01 0.  1.
</event>
<event>
 5   0  0.1276705E-02  0.6015798E+03  0.7818609E-02  0.9902134E-01
        1   -1    0    0  501    0  0.00000000000E+00  0.00000000000E+00  0.51398473409E+03  0.51398473411E+03  0.50400001928E-02 0. -1.
       -1   -1    0    0    0  501  0.00000000000E+00  0.00000000000E+00 -0.17602575762E+03  0.17602575770E+03  0.50400001928E-02 0.  1.
    10030    2    1    2    0    0  0.00000000000E+00  0.00000000000E+00  0.33795897646E+03  0.69001049181E+03  0.60157976116E+03 0.  0.
        1    1    3    3  502    0 -0.18930666003E+03  0.17504327926E+03 -0.87029446441E+01  0.25797849216E+03  0.50400001928E-02 0.  1.
       -1    1    3    3    0  502  0.18930666003E+03 -0.17504327926E+03  0.34666192111E+03  0.43203199965E+03  0.50400001928E-02 0. -1.
</event>
<event>
 5   0  0.2092587E-02  0.6006949E+03  0.7818609E-02  0.9903965E-01
       -2   -1    0    0    0  501  0.00000000000E+00  0.00000000000E+00  0.65374281942E+02  0.65374281992E+02  0.25500000920E-02 0.  1.
        2   -1    0    0  501    0  0.00000000000E+00  0.00000000000E+00 -0.13798791011E+04  0.13798791012E+04  0.25500000920E-02 0. -1.
    10030    2    1    2    0    0  0.00000000000E+00  0.00000000000E+00 -0.13145048192E+04  0.14452533831E+04  0.60069494901E+03 0.  0.
        3    1    3    3  502    0 -0.27561231154E+03  0.11333859223E+03 -0.56720317720E+03  0.64072399455E+03  0.10100000352E+00 0. -1.
       -3    1    3    3    0  502  0.27561231154E+03 -0.11333859223E+03 -0.74730164200E+03  0.80452938859E+03  0.10100000352E+00 0.  1.
</event>
<event>
 5   0  0.2092587E-02  0.5821637E+03  0.7818609E-02  0.9943118E-01
        2   -1    0    0  501    0  0.00000000000E+00  0.00000000000E+00  0.34631913490E+03  0.34631913491E+03  0.25500000920E-02 0. -1.
       -2   -1    0    0    0  501  0.00000000000E+00  0.00000000000E+00 -0.24465484070E+03  0.24465484071E+03  0.25500000920E-02 0.  1.
    10030    2    1    2    0    0  0.00000000000E+00  0.00000000000E+00  0.10166429420E+03  0.59097397561E+03  0.58216373224E+03 0.  0.
        3    1    3    3  502    0 -0.29960767017E+02  0.11031020785E+03 -0.22091791472E+03  0.24873826557E+03  0.10100000352E+00 0.  1.
       -3    1    3    3    0  502  0.29960767017E+02 -0.11031020785E+03  0.32258220892E+03  0.34223571004E+03  0.10100000352E+00 0. -1.
</event>
<event>
 5   0  0.1337051E-02  0.5990222E+03  0.7818609E-02  0.9907437E-01
        1   -1    0    0  501    0  0.00000000000E+00  0.00000000000E+00  0.34506907454E+03  0.34506907457E+03  0.50400001928E-02 0.  1.
       -1   -1    0    0    0  501  0.00000000000E+00  0.00000000000E+00 -0.25996797611E+03  0.25996797616E+03  0.50400001928E-02 0. -1.
    10030    2    1    2    0    0  0.00000000000E+00  0.00000000000E+00  0.85101098427E+02  0.60503705073E+03  0.59902223315E+03 0.  0.
        5    1    3    3  502    0  0.96334884567E+02 -0.17184728472E+03 -0.18526447407E+03  0.27047534934E+03  0.46999998093E+01 0. -1.
       -5    1    3    3    0  502 -0.96334884567E+02  0.17184728472E+03  0.27036557250E+03  0.33456170139E+03  0.46999998093E+01 0.  1.
</event>
<event>
 5   0  0.1250390E-02  0.5991237E+03  0.7818609E-02  0.9907226E-01
       -1   -1    0    0    0  501  0.00000000000E+00  0.00000000000E+00  0.10955284170E+04  0.10955284171E+04  0.50400001928E-02 0. -1.
        1   -1    0    0  501    0  0.00000000000E+00  0.00000000000E+00 -0.81912349198E+02  0.81912349353E+02  0.50400001928E-02 0.  1.
    10030    2    1    2    0    0  0.00000000000E+00  0.00000000000E+00  0.10136160678E+04  0.11774407664E+04  0.59912371461E+03 0.  0.
        3    1    3    3  502    0  0.82997624192E+02 -0.53508846704E+02 -0.49004291602E+02  0.11024170306E+03  0.10100000352E+00 0.  1.
       -3    1    3    3    0  502 -0.82997624192E+02  0.53508846704E+02  0.10626203594E+04  0.10671990633E+04  0.10100000352E+00 0. -1.
</event>
<event>
 5   0  0.1250390E-02  0.6024504E+03  0.7818609E-02  0.9900335E-01
        1   -1    0    0  501    0  0.00000000000E+00  0.00000000000E+00  0.40133247106E+03  0.40133247109E+03  0.50400001928E-02 0. -1.
       -1   -1    0    0    0  501  0.00000000000E+00  0.00000000000E+00 -0.22608841219E+03  0.22608841225E+03  0.50400001928E-02 0.  1.
    10030    2    1    2    0    0  0.00000000000E+00  0.00000000000E+00  0.17524405887E+03  0.62742088334E+03  0.60245040019E+03 0.  0.
        3    1    3    3  502    0  0.17865753232E+03 -0.80529106106E+02 -0.15062426416E+03  0.24716619903E+03  0.10100000352E+00 0.  1.
       -3    1    3    3    0  502 -0.17865753232E+03  0.80529106106E+02  0.32586832303E+03  0.38025468431E+03  0.10100000352E+00 0. -1.
</event>
<event>
 5   0  0.2141800E-02  0.5969757E+03  0.7818609E-02  0.9911700E-01
        2   -1    0    0  501    0  0.00000000000E+00  0.00000000000E+00  0.17970145453E+03  0.17970145455E+03  0.25500000920E-02 0. -1.
       -2   -1    0    0    0  501  0.00000000000E+00  0.00000000000E+00 -0.49579455307E+03  0.49579455308E+03  0.25500000920E-02 0.  1.
    10030    2    1    2    0    0  0.00000000000E+00  0.00000000000E+00 -0.31609309854E+03  0.67549600763E+03  0.59697571925E+03 0.  0.
        2    1    3    3  502    0  0.26033082557E+03  0.12207154409E+03 -0.67372911621E+02  0.29531798090E+03  0.25500000920E-02 0. -1.
       -2    1    3    3    0  502 -0.26033082557E+03 -0.12207154409E+03 -0.24872018692E+03  0.38017802672E+03  0.25500000920E-02 0.  1.
</event>
<event>
 5   0  0.2141800E-02  0.5972405E+03  0.7818609E-02  0.9911148E-01
        2   -1    0    0  501    0  0.00000000000E+00  0.00000000000E+00  0.52849788009E+03  0.52849788009E+03  0.25500000920E-02 0.  1.
       -2   -1    0    0    0  501  0.00000000000E+00  0.00000000000E+00 -0.16873116893E+03  0.16873116895E+03  0.25500000920E-02 0. -1.
    10030    2    1    2    0    0  0.00000000000E+00  0.00000000000E+00  0.35976671116E+03  0.69722904904E+03  0.59724053811E+03 0.  0.
        2    1    3    3  502    0 -0.17377500609E+03 -0.20920200449E+03  0.35903178439E+02  0.27432147136E+03  0.25500000920E-02 0.  1.
       -2    1    3    3    0  502  0.17377500609E+03  0.20920200449E+03  0.32386353272E+03  0.42290757767E+03  0.25500000920E-02 0. -1.
</event>
<event>
 5   0  0.1303808E-02  0.5988244E+03  0.7818609E-02  0.9907848E-01
        1   -1    0    0  501    0  0.00000000000E+00  0.00000000000E+00  0.13131770920E+03  0.13131770929E+03  0.50400001928E-02 0. -1.
       -1   -1    0    0    0  501  0.00000000000E+00  0.00000000000E+00 -0.68267762787E+03  0.68267762789E+03  0.50400001928E-02 0.  1.
    10030    2    1    2    0    0  0.00000000000E+00  0.00000000000E+00 -0.55135991867E+03  0.81399533718E+03  0.59882438914E+03 0.  0.
        4    1    3    3  502    0 -0.23499215070E+03  0.15838376694E+03 -0.40704508469E+03  0.49597786482E+03  0.12699999809E+01 0.  1.
       -4    1    3    3    0  502  0.23499215070E+03 -0.15838376694E+03 -0.14431483398E+03  0.31801747236E+03  0.12699999809E+01 0. -1.
</event>
<event>
 5   0  0.2179625E-02  0.5960582E+03  0.7818609E-02  0.9913618E-01
        2   -1    0    0  501    0  0.00000000000E+00  0.00000000000E+00  0.52562226991E+03  0.52562226991E+03  0.25500000920E-02 0.  1.
       -2   -1    0    0    0  501  0.00000000000E+00  0.00000000000E+00 -0.16898323215E+03  0.16898323217E+03  0.25500000920E-02 0. -1.
    10030    2    1    2    0    0  0.00000000000E+00  0.00000000000E+00  0.35663903776E+03  0.69460550208E+03  0.59605821886E+03 0.  0.
        1    1    3    3  502    0 -0.15155060640E+03 -0.17343887737E+03  0.39872658688E+03  0.46046880632E+03  0.50400001928E-02 0.  1.
       -1    1    3    3    0  502  0.15155060640E+03  0.17343887737E+03 -0.42087549126E+02  0.23413669576E+03  0.50400001928E-02 0. -1.
</event>
<event>
 5   0  0.8551000E-03  0.6110774E+03  0.7818609E-02  0.9882687E-01
       -3   -1    0    0    0  501  0.00000000000E+00  0.00000000000E+00  0.58884797054E+03  0.58884797920E+03  0.10100000352E+00 0. -1.
        3   -1    0    0  501    0  0.00000000000E+00  0.00000000000E+00 -0.15853649022E+03  0.15853652240E+03  0.10100000352E+00 0.  1.
    10030    2    1    2    0    0  0.00000000000E+00  0.00000000000E+00  0.43031148031E+03  0.74738450159E+03  0.61107742810E+03 0.  0.
        2    1    3    3  502    0 -0.13488017478E+03 -0.88366906868E+02 -0.10225733710E+03  0.19093961029E+03  0.25500000920E-02 0.  1.
       -2    1    3    3    0  502  0.13488017478E+03  0.88366906868E+02  0.53256881741E+03  0.55644489131E+03  0.25500000920E-02 0. -1.
</event>
<event>
 5   0  0.2126207E-02  0.5938848E+03  0.7818609E-02  0.9918175E-01
        2   -1    0    0  501    0  0.00000000000E+00  0.00000000000E+00  0.27837855903E+03  0.27837855904E+03  0.25500000920E-02 0. -1.
       -2   -1    0    0    0  501  0.00000000000E+00  0.00000000000E+00 -0.31674412931E+03  0.31674412932E+03  0.25500000920E-02 0.  1.
    10030    2    1    2    0    0  0.00000000000E+00  0.00000000000E+00 -0.38365570285E+02  0.59512268836E+03  0.59388475079E+03 0.  0.
        5    1    3    3  502    0  0.15354726651E+02  0.18901576453E+03 -0.24811020042E+03  0.31231952936E+03  0.46999998093E+01 0.  1.
       -5    1    3    3    0  502 -0.15354726651E+02 -0.18901576453E+03  0.20974463013E+03  0.28280315900E+03  0.46999998093E+01 0. -1.
</event>
<event>
 5   0  0.2126207E-02  0.6000990E+03  0.7818609E-02  0.9905201E-01
        2   -1    0    0  501    0  0.00000000000E+00  0.00000000000E+00  0.89781012997E+03  0.89781012997E+03  0.25500000920E-02 0. -1.
       -2   -1    0    0    0  501  0.00000000000E+00  0.00000000000E+00 -0.10027700485E+03  0.10027700489E+03  0.25500000920E-02 0.  1.
    10030    2    1    2    0    0  0.00000000000E+00  0.00000000000E+00  0.79753312511E+03  0.99808713486E+03  0.60009902775E+03 0.  0.
        5    1    3    3  502    0 -0.12728857467E+03 -0.24843992120E+03  0.58158927092E+03  0.64513017735E+03  0.46999998093E+01 0. -1.
       -5    1    3    3    0  502  0.12728857467E+03  0.24843992120E+03  0.21594385420E+03  0.35295695750E+03  0.46999998093E+01 0.  1.
</event>
<event>
 5   0  0.8551000E-03  0.6011582E+03  0.7818609E-02  0.9903006E-01
       -3   -1    0    0    0  501  0.00000000000E+00  0.00000000000E+00  0.32532525732E+03  0.32532527300E+03  0.10100000352E+00 0.  1.
        3   -1    0    0  501    0  0.00000000000E+00  0.00000000000E+00 -0.27771528760E+03  0.27771530597E+03  0.10100000352E+00 0. -1.
    10030    2    1    2    0    0  0.00000000000E+00  0.00000000000E+00  0.47609969717E+02  0.60304057897E+03  0.60115824095E+03 0.  0.
        1    1    3    3  502    0  0.65032642043E+02 -0.14645297356E+03  0.27890440038E+03  0.32166035281E+03  0.50400001928E-02 0.  1.
       -1    1    3    3    0  502 -0.65032642043E+02  0.14645297356E+03 -0.23129443066E+03  0.28138022616E+03  0.50400001928E-02 0. -1.
</event>
<event>
 5   0  0.2141800E-02  0.6006186E+03  0.7818609E-02  0.9904123E-01
       -2   -1    0    0    0  501  0.00000000000E+00  0.00000000000E+00  0.23890175715E+03  0.23890175716E+03  0.25500000920E-02 0. -1.
        2   -1    0    0  501    0  0.00000000000E+00  0.00000000000E+00 -0.37750111976E+03  0.37750111977E+03  0.25500000920E-02 0.  1.
    10030    2    1    2    0    0  0.00000000000E+00  0.00000000000E+00 -0.13859936261E+03  0.61640287693E+03  0.60061861724E+03 0.  0.
        2    1    3    3  502    0  0.10501775538E+03 -0.10660498967E+03 -0.33651179440E+03  0.36828459178E+03  0.25500000920E-02 0.  1.
       -2    1    3    3    0  502 -0.10501775538E+03  0.10660498967E+03  0.19791243178E+03  0.24811828515E+03  0.25500000920E-02 0. -1.
</event>
<event>
 5   0  0.1337051E-02  0.5993785E+03  0.7818609E-02  0.9906696E-01
       -1   -1    0    0    0  501  0.00000000000E+00  0.00000000000E+00  0.15149526713E+03  0.15149526721E+03  0.50400001928E-02 0. -1.
        1   -1    0    0  501    0  0.00000000000E+00  0.00000000000E+00 -0.59284782198E+03  0.59284782200E+03  0.50400001928E-02 0.  1.
    10030    2    1    2    0    0  0.00000000000E+00  0.00000000000E+00 -0.44135255486E+03  0.74434308921E+03  0.59937847541E+03 0.  0.
        5    1    3    3  502    0 -0.60747031537E+02  0.26396441098E+03 -0.37982871644E+03  0.46653976887E+03  0.46999998093E+01 0.  1.
       -5    1    3    3    0  502  0.60747031537E+02 -0.26396441098E+03 -0.61523838420E+02  0.27780332035E+03  0.46999998093E+01 0. -1.
</event>
<event>
 5   0  0.2092587E-02  0.5691987E+03  0.7818609E-02  0.9971453E-01
        2   -1    0    0  501    0  0.00000000000E+00  0.00000000000E+00  0.69205601718E+03  0.69205601719E+03  0.25500000920E-02 0. -1.
       -2   -1    0    0    0  501  0.00000000000E+00  0.00000000000E+00 -0.11703791483E+03  0.11703791486E+03  0.25500000920E-02 0.  1.
    10030    2    1    2    0    0  0.00000000000E+00  0.00000000000E+00  0.57501810235E+03  0.80909393205E+03  0.56919871122E+03 0.  0.
        3    1    3    3  502    0  0.13220314993E+03 -0.12114067435E+03  0.60166179489E+03  0.62781339700E+03  0.10100000352E+00 0. -1.
       -3    1    3    3    0  502 -0.13220314993E+03  0.12114067435E+03 -0.26643692536E+02  0.18128053504E+03  0.10100000352E+00 0.  1.
</event>
<event>
 5   0  0.1250390E-02  0.6005004E+03  0.7818609E-02  0.9904368E-01
       -1   -1    0    0    0  501  0.00000000000E+00  0.00000000000E+00  0.94753896967E+02  0.94753897101E+02  0.50400001928E-02 0. -1.
        1   -1    0    0  501    0  0.00000000000E+00  0.00000000000E+00 -0.95141404958E+03  0.95141404960E+03  0.50400001928E-02 0.  1.
    10030    2    1    2    0    0  0.00000000000E+00  0.00000000000E+00 -0.85666015262E+03  0.10461679467E+04  0.60050042100E+03 0.  0.
        3    1    3    3  502    0 -0.52160641534E-02 -0.25858770826E+03 -0.16250031194E+03  0.30540786577E+03  0.10100000352E+00 0. -1.
       -3    1    3    3    0  502  0.52160641534E-02  0.25858770826E+03 -0.69415984067E+03  0.74076008093E+03  0.10100000352E+00 0.  1.
</event>
<event>
 5   0  0.2142838E-02  0.5940652E+03  0.7818609E-02  0.9917796E-01
        2   -1    0    0  501    0  0.00000000000E+00  0.00000000000E+00  0.30909030930E+03  0.30909030931E+03  0.25500000920E-02 0.  1.
       -2   -1    0    0    0  501  0.00000000000E+00  0.00000000000E+00 -0.28544523103E+03  0.28544523104E+03  0.25500000920E-02 0. -1.
    10030    2    1    2    0    0  0.00000000000E+00  0.00000000000E+00  0.23645078276E+02  0.59453554035E+03  0.59406516394E+03 0.  0.
        4    1    3    3  502    0 -0.20688153874E+03  0.18626836655E+03 -0.91849377854E+02  0.29314466831E+03  0.12699999809E+01 0. -1.
       -4    1    3    3    0  502  0.20688153874E+03 -0.18626836655E+03  0.11549445613E+03  0.30139087203E+03  0.12699999809E+01 0.  1.
</event>
<event>
 5   0  0.1332555E-02  0.5994855E+03  0.7818609E-02  0.9906474E-01
       -1   -1    0    0    0  501  0.00000000000E+00  0.00000000000E+00  0.37313466546E+03  0.37313466550E+03  0.50400001928E-02 0. -1.
        1   -1    0    0  501    0  0.00000000000E+00  0.00000000000E+00 -0.24078632315E+03  0.24078632320E+03  0.50400001928E-02 0.  1.
    10030    2    1    2    0    0  0.00000000000E+00  0.00000000000E+00  0.13234834231E+03  0.61392098870E+03  0.59948552664E+03 0.  0.
        2    1    3    3  502    0 -0.22678255007E+03  0.16067065422E+03  0.18112838909E+03  0.33174218526E+03  0.25500000920E-02 0. -1.
       -2    1    3    3    0  502  0.22678255007E+03 -0.16067065422E+03 -0.48780046778E+02  0.28217880344E+03  0.25500000920E-02 0.  1.
</event>
<event>
 5   0  0.1276705E-02  0.5998154E+03  0.7818609E-02  0.9905789E-01
        1   -1    0    0  501    0  0.00000000000E+00  0.00000000000E+00  0.28695466275E+03  0.28695466280E+03  0.50400001928E-02 0.  1.
       -1   -1    0    0    0  501  0.00000000000E+00  0.00000000000E+00 -0.31344544187E+03  0.31344544191E+03  0.50400001928E-02 0. -1.
    10030    2    1    2    0    0  0.00000000000E+00  0.00000000000E+00 -0.26490779118E+02  0.60040010471E+03  0.59981540857E+03 0.  0.
        1    1    3    3  502    0  0.92451342452E+02  0.33584814538E+02 -0.29684018694E+03  0.31271278691E+03  0.50400001928E-02 0. -1.
       -1    1    3    3    0  502 -0.92451342452E+02 -0.33584814538E+02  0.27034940782E+03  0.28768731780E+03  0.50400001928E-02 0.  1.
</event>
<event>
 5   0  0.2126207E-02  0.5991582E+03  0.7818609E-02  0.9907154E-01
        2   -1    0    0  501    0  0.00000000000E+00  0.00000000000E+00  0.83598173379E+03  0.83598173379E+03  0.25500000920E-02 0.  1.
       -2   -1    0    0    0  501  0.00000000000E+00  0.00000000000E+00 -0.10735599117E+03  0.10735599120E+03  0.25500000920E-02 0. -1.
    10030    2    1    2    0    0  0.00000000000E+00  0.00000000000E+00  0.72862574262E+03  0.94333772499E+03  0.59915823502E+03 0.  0.
        5    1    3    3  502    0 -0.97538727092E+02  0.23938850929E+03  0.12603164210E+03  0.28762254166E+03  0.46999998093E+01 0. -1.
       -5    1    3    3    0  502  0.97538727092E+02 -0.23938850929E+03  0.60259410052E+03  0.65571518333E+03  0.46999998093E+01 0.  1.
</event>
<event>
 5   0  0.1337051E-02  0.5985208E+03  0.7818609E-02  0.9908480E-01
        1   -1    0    0  501    0  0.00000000000E+00  0.00000000000E+00  0.67715715726E+03  0.67715715728E+03  0.50400001928E-02 0. -1.
       -1   -1    0    0    0  501  0.00000000000E+00  0.00000000000E+00 -0.13225404996E+03  0.13225405006E+03  0.50400001928E-02 0.  1.
    10030    2    1    2    0    0  0.00000000000E+00  0.00000000000E+00  0.54490310730E+03  0.80941120734E+03  0.59852076507E+03 0.  0.
        5    1    3    3  502    0 -0.11170695600E+03  0.27525805035E+03  0.32100927154E+03  0.43739510824E+03  0.46999998093E+01 0.  1.
       -5    1    3    3    0  502  0.11170695600E+03 -0.27525805035E+03  0.22389383576E+03  0.37201609910E+03  0.46999998093E+01 0. -1.
</event>
<event>
 5   0  0.2092587E-02  0.5949146E+03  0.7818609E-02  0.9916013E-01
        2   -1    0    0  501    0  0.00000000000E+00  0.00000000000E+00  0.19770910065E+03  0.19770910067E+03  0.25500000920E-02 0. -1.
       -2   -1    0    0    0  501  0.00000000000E+00  0.00000000000E+00 -0.44753042848E+03  0.44753042848E+03  0.25500000920E-02 0.  1.
    10030    2    1    2    0    0  0.00000000000E+00  0.00000000000E+00 -0.24982132782E+03  0.64523952915E+03  0.59491457719E+03 0.  0.
        3    1    3    3  502    0  0.25518760963E+02  0.28844047721E+03 -0.51096935642E+02  0.29404085276E+03  0.10100000352E+00 0. -1.
       -3    1    3    3    0  502 -0.25518760963E+02 -0.28844047721E+03 -0.19872439218E+03  0.35119867640E+03  0.10100000352E+00 0.  1.
</event>
<event>
 5   0  0.2179625E-02  0.5856017E+03  0.7818609E-02  0.9935736E-01
        2   -1    0    0  501    0  0.00000000000E+00  0.00000000000E+00  0.12097713606E+04  0.12097713606E+04  0.25500000920E-02 0.  1.
       -2   -1    0    0    0  501  0.00000000000E+00  0.00000000000E+00 -0.70866568240E+02  0.70866568285E+02  0.25500000920E-02 0. -1.
    10030    2    1    2    0    0  0.00000000000E+00  0.00000000000E+00  0.11389047923E+04  0.12806379289E+04  0.58560172373E+03 0.  0.
        1    1    3    3  502    0 -0.29037877459E+03 -0.19463780717E+02  0.49914263212E+03  0.57779065302E+03  0.50400001928E-02 0.  1.
       -1    1    3    3    0  502  0.29037877459E+03  0.19463780717E+02  0.63976216021E+03  0.70284727584E+03  0.50400001928E-02 0. -1.
</event>
<event>
 5   0  0.1332555E-02  0.6013514E+03  0.7818609E-02  0.9902606E-01
        1   -1    0    0  501    0  0.00000000000E+00  0.00000000000E+00  0.11214723347E+04  0.11214723347E+04  0.50400001928E-02 0. -1.
       -1   -1    0    0    0  501  0.00000000000E+00  0.00000000000E+00 -0.80613553922E+02  0.80613554080E+02  0.50400001928E-02 0.  1.
    10030    2    1    2    0    0  0.00000000000E+00  0.00000000000E+00  0.10408587808E+04  0.12020858888E+04  0.60135138023E+03 0.  0.
        2    1    3    3  502    0  0.27832820859E+03  0.52934627150E+02  0.31916530512E+03  0.42677295889E+03  0.25500000920E-02 0.  1.
       -2    1    3    3    0  502 -0.27832820859E+03 -0.52934627150E+02  0.72169347566E+03  0.77531292990E+03  0.25500000920E-02 0. -1.
</event>
<event>
 5   0  0.8551000E-03  0.5943055E+03  0.7818609E-02  0.9917291E-01
        4   -1    0    0  501    0  0.00000000000E+00  0.00000000000E+00  0.13626718831E+04  0.13626724749E+04  0.12699999809E+01 0. -1.
       -4   -1    0    0    0  501  0.00000000000E+00  0.00000000000E+00 -0.64792147883E+02  0.64804593411E+02  0.12699999809E+01 0.  1.
    10030    2    1    2    0    0  0.00000000000E+00  0.00000000000E+00  0.12978797352E+04  0.14274770684E+04  0.59430545473E+03 0.  0.
        5    1    3    3  502    0 -0.19704666882E+03  0.21603606303E+03  0.77555305400E+03  0.82885680294E+03  0.46999998093E+01 0. -1.
       -5    1    3    3    0  502  0.19704666882E+03 -0.21603606303E+03  0.52232668125E+03  0.59862026541E+03  0.46999998093E+01 0.  1.
</event>
<event>
 5   0  0.2092587E-02  0.6020701E+03  0.7818609E-02  0.9901121E-01
        2   -1    0    0  501    0  0.00000000000E+00  0.00000000000E+00  0.46675715551E+03  0.46675715552E+03  0.25500000920E-02 0.  1.
       -2   -1    0    0    0  501  0.00000000000E+00  0.00000000000E+00 -0.19415255226E+03  0.19415255228E+03  0.25500000920E-02 0. -1.
    10030    2    1    2    0    0  0.00000000000E+00  0.00000000000E+00  0.27260460325E+03  0.66090970780E+03  0.60207007246E+03 0.  0.
        3    1    3    3  502    0 -0.50356402502E+02 -0.24624372851E+03 -0.45571007547E+02  0.25543779680E+03  0.10100000352E+00 0. -1.
       -3    1    3    3    0  502  0.50356402502E+02  0.24624372851E+03  0.31817561080E+03  0.40547191100E+03  0.10100000352E+00 0.  1.
</event>
<event>
 5   0  0.2092587E-02  0.6024812E+03  0.7818609E-02  0.9900272E-01
       -2   -1    0    0    0  501  0.00000000000E+00  0.00000000000E+00  0.47677280014E+02  0.47677280082E+02  0.25500000920E-02 0.  1.
        2   -1    0    0  501    0  0.00000000000E+00  0.00000000000E+00 -0.19033365764E+04  0.19033365764E+04  0.25500000920E-02 0. -1.
    10030    2    1    2    0    0  0.00000000000E+00  0.00000000000E+00 -0.18556592963E+04  0.19510138564E+04  0.60248123948E+03 0.  0.
        3    1    3    3  502    0 -0.10701912935E+03  0.54367697133E+02 -0.18225436974E+04  0.18264923979E+04  0.10100000352E+00 0. -1.
       -3    1    3    3    0  502  0.10701912935E+03 -0.54367697133E+02 -0.33115598952E+02  0.12452145853E+03  0.10100000352E+00 0.  1.
</event>
<event>
 5   0  0.1303808E-02  0.5998141E+03  0.7818609E-02  0.9905792E-01
        1   -1    0    0  501    0  0.00000000000E+00  0.00000000000E+00  0.91010048488E+03  0.91010048489E+03  0.50400001928E-02 0. -1.
       -1   -1    0    0    0  501  0.00000000000E+00  0.00000000000E+00 -0.98828922431E+02  0.98828922560E+02  0.50400001928E-02 0.  1.
    10030    2    1    2    0    0  0.00000000000E+00  0.00000000000E+00  0.81127156245E+03  0.10089294075E+04  0.59981413887E+03 0.  0.
        4    1    3    3  502    0 -0.28098807689E+03 -0.48151098669E+02  0.56225637472E+03  0.63040199196E+03  0.12699999809E+01 0.  1.
       -4    1    3    3    0  502  0.28098807689E+03  0.48151098669E+02  0.24901518773E+03  0.37852741549E+03  0.12699999809E+01 0. -1.
</event>
<event>
 5   0  0.1303808E-02  0.5991198E+03  0.7818609E-02  0.9907234E-01
       -1   -1    0    0    0  501  0.00000000000E+00  0.00000000000E+00  0.67119870945E+02  0.67119871134E+02  0.50400001928E-02 0.  1.
        1   -1    0    0  501    0  0.00000000000E+00  0.00000000000E+00 -0.13369533709E+04  0.13369533709E+04  0.50400001928E-02 0. -1.
    10030    2    1    2    0    0  0.00000000000E+00  0.00000000000E+00 -0.12698335000E+04  0.14040732421E+04  0.59911981391E+03 0.  0.
        4    1    3    3  502    0  0.72751169713E+02  0.81751302745E+02 -0.12884234796E+04  0.12930632946E+04  0.12699999809E+01 0. -1.
       -4    1    3    3    0  502 -0.72751169713E+02 -0.81751302745E+02  0.18589979606E+02  0.11100994747E+03  0.12699999809E+01 0.  1.
</event>
<event>
 5   0  0.1276705E-02  0.6013552E+03  0.7818609E-02  0.9902598E-01
        1   -1    0    0  501    0  0.00000000000E+00  0.00000000000E+00  0.31520790647E+03  0.31520790651E+03  0.50400001928E-02 0. -1.
       -1   -1    0    0    0  501  0.00000000000E+00  0.00000000000E+00 -0.28681707966E+03  0.28681707971E+03  0.50400001928E-02 0.  1.
    10030    2    1    2    0    0  0.00000000000E+00  0.00000000000E+00  0.28390826812E+02  0.60202498622E+03  0.60135517374E+03 0.  0.
        1    1    3    3  502    0 -0.14168434815E+03  0.93214934037E+02 -0.23436228840E+03  0.28929078915E+03  0.50400001928E-02 0.  1.
       -1    1    3    3    0  502  0.14168434815E+03 -0.93214934037E+02  0.26275311521E+03  0.31273419707E+03  0.50400001928E-02 0. -1.
</event>
<event>
 5   0  0.1276705E-02  0.5999335E+03  0.7818609E-02  0.9905544E-01
        1   -1    0    0  501    0  0.00000000000E+00  0.00000000000E+00  0.16747503169E+04  0.16747503169E+04  0.50400001928E-02 0.  1.
       -1   -1    0    0    0  501  0.00000000000E+00  0.00000000000E+00 -0.53727443331E+02  0.53727443567E+02  0.50400001928E-02 0. -1.
    10030    2    1    2    0    0  0.00000000000E+00  0.00000000000E+00  0.16210228735E+04  0.17284777605E+04  0.59993350616E+03 0.  0.
        1    1    3    3  502    0 -0.60366035975E+02  0.21675403128E+03  0.23896255654E+03  0.32822168092E+03  0.50400001928E-02 0. -1.
       -1    1    3    3    0  502  0.60366035975E+02 -0.21675403128E+03  0.13820603170E+04  0.14002560795E+04  0.50400001928E-02 0.  1.
</event>
<event>
 5   0  0.1332555E-02  0.5984353E+03  0.7818609E-02  0.9908658E-01
        1   -1    0    0  501    0  0.00000000000E+00  0.00000000000E+00  0.21235184909E+04  0.21235184909E+04  0.50400001928E-02 0.  1.
       -1   -1    0    0    0  501  0.00000000000E+00  0.00000000000E+00 -0.42161728820E+02  0.42161729121E+02  0.50400001928E-02 0. -1.
    10030    2    1    2    0    0  0.00000000000E+00  0.00000000000E+00  0.20813567621E+04  0.21656802200E+04  0.59843533014E+03 0.  0.
        2    1    3    3  502    0 -0.20343569118E+02  0.29846643765E+03  0.10192271355E+04  0.10622240955E+04  0.25500000920E-02 0. -1.
       -2    1    3    3    0  502  0.20343569118E+02 -0.29846643765E+03  0.10621296265E+04  0.11034561245E+04  0.25500000920E-02 0.  1.
</event>
<event>
 5   0  0.1337051E-02  0.6012080E+03  0.7818609E-02  0.9902903E-01
       -1   -1    0    0    0  501  0.00000000000E+00  0.00000000000E+00  0.23022619779E+03  0.23022619785E+03  0.50400001928E-02 0.  1.
        1   -1    0    0  501    0  0.00000000000E+00  0.00000000000E+00 -0.39249561676E+03  0.39249561680E+03  0.50400001928E-02 0. -1.
    10030    2    1    2    0    0  0.00000000000E+00  0.00000000000E+00 -0.16226941897E+03  0.62272181464E+03  0.60120802897E+03 0.  0.
        5    1    3    3  502    0 -0.14073680163E+03 -0.92515840580E+02  0.17672077220E+03  0.24416869050E+03  0.46999998093E+01 0.  1.
       -5    1    3    3    0  502  0.14073680163E+03  0.92515840580E+02 -0.33899019117E+03  0.37855312415E+03  0.46999998093E+01 0. -1.
</event>
<event>
 5   0  0.8551000E-03  0.5998779E+03  0.7818609E-02  0.9905659E-01
       -3   -1    0    0    0  501  0.00000000000E+00  0.00000000000E+00  0.14275216810E+03  0.14275220383E+03  0.10100000352E+00 0.  1.
        3   -1    0    0  501    0  0.00000000000E+00  0.00000000000E+00 -0.63020667482E+03  0.63020668292E+03  0.10100000352E+00 0. -1.
    10030    2    1    2    0    0  0.00000000000E+00  0.00000000000E+00 -0.48745450672E+03  0.77295888675E+03  0.59987794132E+03 0.  0.
        1    1    3    3  502    0  0.35231831550E+02  0.11401522016E+03 -0.59830082141E+03  0.61008575242E+03  0.50400001928E-02 0. -1.
       -1    1    3    3    0  502 -0.35231831550E+02 -0.11401522016E+03  0.11084631468E+03  0.16287313433E+03  0.50400001928E-02 0.  1.
</event>
<event>
 5   0  0.1332555E-02  0.6015543E+03  0.7818609E-02  0.9902187E-01
       -1   -1    0    0    0  501  0.00000000000E+00  0.00000000000E+00  0.62932711894E+02  0.62932712096E+02  0.50400001928E-02 0.  1.
        1   -1    0    0  501    0  0.00000000000E+00  0.00000000000E+00 -0.14375175718E+04  0.14375175718E+04  0.50400001928E-02 0. -1.
    10030    2    1    2    0    0  0.00000000000E+00  0.00000000000E+00 -0.13745848599E+04  0.15004502839E+04  0.60155425140E+03 0.  0.
        2    1    3    3  502    0  0.21002476862E+03  0.84645187529E+02 -0.19350084557E+03  0.29785531462E+03  0.25500000920E-02 0.  1.
       -2    1    3    3    0  502 -0.21002476862E+03 -0.84645187529E+02 -0.11810840143E+04  0.12025949693E+04  0.25500000920E-02 0. -1.
</event>
<event>
 5   0  0.2179625E-02  0.6024697E+03  0.7818609E-02  0.9900295E-01
        2   -1    0    0  501    0  0.00000000000E+00  0.00000000000E+00  0.39478596905E+03  0.39478596906E+03  0.25500000920E-02 0. -1.
       -2   -1    0    0    0  501  0.00000000000E+00  0.00000000000E+00 -0.22985222629E+03  0.22985222630E+03  0.25500000920E-02 0.  1.
    10030    2    1    2    0    0  0.00000000000E+00  0.00000000000E+00  0.16493374276E+03  0.62463819537E+03  0.60246969684E+03 0.  0.
        1    1    3    3  502    0  0.21854485027E+03  0.14652843528E+02 -0.13194163823E+03  0.25570520786E+03  0.50400001928E-02 0.  1.
       -1    1    3    3    0  502 -0.21854485027E+03 -0.14652843528E+02  0.29687538100E+03  0.36893298750E+03  0.50400001928E-02 0. -1.
</event>
<event>
 5   0  0.2179625E-02  0.6004374E+03  0.7818609E-02  0.9904499E-01
       -2   -1    0    0    0  501  0.00000000000E+00  0.00000000000E+00  0.38866021705E+02  0.38866021789E+02  0.25500000920E-02 0. -1.
        2   -1    0    0  501    0  0.00000000000E+00  0.00000000000E+00 -0.23190249489E+04  0.23190249489E+04  0.25500000920E-02 0.  1.
    10030    2    1    2    0    0  0.00000000000E+00  0.00000000000E+00 -0.22801589272E+04  0.23578909707E+04  0.60043742088E+03 0.  0.
        1    1    3    3  502    0  0.21840841748E+03  0.45143604172E+02 -0.19293007082E+04  0.19421486566E+04  0.50400001928E-02 0.  1.
       -1    1    3    3    0  502 -0.21840841748E+03 -0.45143604172E+02 -0.35085821899E+03  0.41574231404E+03  0.50400001928E-02 0. -1.
</event>
<event>
 5   0  0.2141800E-02  0.6007873E+03  0.7818609E-02  0.9903774E-01
        2   -1    0    0  501    0  0.00000000000E+00  0.00000000000E+00  0.14764574759E+04  0.14764574759E+04  0.25500000920E-02 0.  1.
       -2   -1    0    0    0  501  0.00000000000E+00  0.00000000000E+00 -0.61116799792E+02  0.61116799845E+02  0.25500000920E-02 0. -1.
    10030    2    1    2    0    0  0.00000000000E+00  0.00000000000E+00  0.14153406761E+04  0.15375742758E+04  0.60078733675E+03 0.  0.
        2    1    3    3  502    0  0.18661586318E+03 -0.68432806418E+01  0.13098543784E+04  0.13230989394E+04  0.25500000920E-02 0.  1.
       -2    1    3    3    0  502 -0.18661586318E+03  0.68432806418E+01  0.10548629771E+03  0.21447533632E+03  0.25500000920E-02 0. -1.
</event>
<event>
 5   0  0.1303808E-02  0.6005828E+03  0.7818609E-02  0.9904198E-01
        1   -1    0    0  501    0  0.00000000000E+00  0.00000000000E+00  0.60206987156E+03  0.60206987158E+03  0.50400001928E-02 0. -1.
       -1   -1    0    0    0  501  0.00000000000E+00  0.00000000000E+00 -0.14977487099E+03  0.14977487107E+03  0.50400001928E-02 0.  1.
    10030    2    1    2    0    0  0.00000000000E+00  0.00000000000E+00  0.45229500057E+03  0.75184474265E+03  0.60058284151E+03 0.  0.
        4    1    3    3  502    0  0.13370651553E+03  0.13154426006E+03  0.51971299210E+03  0.55252559371E+03  0.12699999809E+01 0. -1.
       -4    1    3    3    0  502 -0.13370651553E+03 -0.13154426006E+03 -0.67417991535E+02  0.19931914894E+03  0.12699999809E+01 0.  1.
</event>
<event>
 5   0  0.1303808E-02  0.5996272E+03  0.7818609E-02  0.9906180E-01
       -1   -1    0    0    0  501  0.00000000000E+00  0.00000000000E+00  0.10277782995E+03  0.10277783007E+03  0.50400001928E-02 0.  1.
        1   -1    0    0  501    0  0.00000000000E+00  0.00000000000E+00 -0.87458748285E+03  0.87458748286E+03  0.50400001928E-02 0. -1.
    10030    2    1    2    0    0  0.00000000000E+00  0.00000000000E+00 -0.77180965290E+03  0.97736531293E+03  0.59962722971E+03 0.  0.
        4    1    3    3  502    0  0.22360090699E+03  0.15739280169E+03 -0.18550168757E+03  0.33042752400E+03  0.12699999809E+01 0. -1.
       -4    1    3    3    0  502 -0.22360090699E+03 -0.15739280169E+03 -0.58630796533E+03  0.64693778893E+03  0.12699999809E+01 0.  1.
</event>
<event>
 5   0  0.1276705E-02  0.6040257E+03  0.7818609E-02  0.9897089E-01
       -1   -1    0    0    0  501  0.00000000000E+00  0.00000000000E+00  0.38075100341E+03  0.38075100344E+03  0.50400001928E-02 0.  1.
        1   -1    0    0  501    0  0.00000000000E+00  0.00000000000E+00 -0.23955749671E+03  0.23955749676E+03  0.50400001928E-02 0. -1.
    10030    2    1    2    0    0  0.00000000000E+00  0.00000000000E+00  0.14119350670E+03  0.62030850020E+03  0.60402568578E+03 0.  0.
        1    1    3    3  502    0  0.28802914180E+03  0.90321903124E+02  0.60697156237E+02  0.30790092159E+03  0.50400001928E-02 0. -1.
       -1    1    3    3    0  502 -0.28802914180E+03 -0.90321903124E+02  0.80496350463E+02  0.31240757861E+03  0.50400001928E-02 0.  1.
</event>
<event>
 5   0  0.1332555E-02  0.6114995E+03  0.7818609E-02  0.9881831E-01
       -1   -1    0    0    0  501  0.00000000000E+00  0.00000000000E+00  0.20514025363E+03  0.20514025369E+03  0.50400001928E-02 0. -1.
        1   -1    0    0  501    0  0.00000000000E+00  0.00000000000E+00 -0.45570246203E+03  0.45570246206E+03  0.50400001928E-02 0.  1.
    10030    2    1    2    0    0  0.00000000000E+00  0.00000000000E+00 -0.25056220840E+03  0.66084271575E+03  0.61149952958E+03 0.  0.
        2    1    3    3  502    0  0.47415347825E+02 -0.25491693029E+03 -0.30038011456E+03  0.39681112609E+03  0.25500000920E-02 0.  1.
       -2    1    3    3    0  502 -0.47415347825E+02  0.25491693029E+03  0.49817906158E+02  0.26403158966E+03  0.25500000920E-02 0. -1.
</event>
<event>
 5   0  0.8551000E-03  0.6033392E+03  0.7818609E-02  0.9898502E-01
        4   -1    0    0  501    0  0.00000000000E+00  0.00000000000E+00  0.53695970229E+03  0.53696120417E+03  0.12699999809E+01 0. -1.
       -4   -1    0    0    0  501  0.00000000000E+00  0.00000000000E+00 -0.16947702733E+03  0.16948178572E+03  0.12699999809E+01 0.  1.
    10030    2    1    2    0    0  0.00000000000E+00  0.00000000000E+00  0.36748267496E+03  0.70644298989E+03  0.60333919280E+03 0.  0.
        3    1    3    3  502    0  0.72191118773E+02 -0.97159651170E+02 -0.13979910660E+03  0.18491986332E+03  0.10100000352E+00 0.  1.
       -3    1    3    3    0  502 -0.72191118773E+02  0.97159651170E+02  0.50728178156E+03  0.52152312657E+03  0.10100000352E+00 0. -1.
</event>
<event>
 5   0  0.2092587E-02  0.5994173E+03  0.7818609E-02  0.9906616E-01
        2   -1    0    0  501    0  0.00000000000E+00  0.00000000000E+00  0.15697832365E+04  0.15697832365E+04  0.25500000920E-02 0. -1.
       -2   -1    0    0    0  501  0.00000000000E+00  0.00000000000E+00 -0.57221445928E+02  0.57221445985E+02  0.25500000920E-02 0.  1.
    10030    2    1    2    0    0  0.00000000000E+00  0.00000000000E+00  0.15125617906E+04  0.16270046825E+04  0.59941727247E+03 0.  0.
        3    1    3    3  502    0 -0.21217351864E+03  0.18735504183E+03  0.10236886128E+04  0.10621007014E+04  0.10100000352E+00 0. -1.
       -3    1    3    3    0  502  0.21217351864E+03 -0.18735504183E+03  0.48887317776E+03  0.56490398109E+03  0.10100000352E+00 0.  1.
</event>
<event>
 5   0  0.2179625E-02  0.5923450E+03  0.7818609E-02  0.9921416E-01
        2   -1    0    0  501    0  0.00000000000E+00  0.00000000000E+00  0.25511481797E+04  0.25511481797E+04  0.25500000920E-02 0. -1.
       -2   -1    0    0    0  501  0.00000000000E+00  0.00000000000E+00 -0.34383790292E+02  0.34383790386E+02  0.25500000920E-02 0.  1.
    10030    2    1    2    0    0  0.00000000000E+00  0.00000000000E+00  0.25167643894E+04  0.25855319701E+04  0.59234498103E+03 0.  0.
        1    1    3    3  502    0 -0.18252202932E+03 -0.19524655522E+03  0.70140482365E+03  0.75060258139E+03  0.50400001928E-02 0.  1.
       -1    1    3    3    0  502  0.18252202932E+03  0.19524655522E+03  0.18153595658E+04  0.18349293887E+04  0.50400001928E-02 0. -1.
</event>
<event>
 5   0  0.2092587E-02  0.6045434E+03  0.7818609E-02  0.9896024E-01
        2   -1    0    0  501    0  0.00000000000E+00  0.00000000000E+00  0.21604338779E+04  0.21604338779E+04  0.25500000920E-02 0. -1.
       -2   -1    0    0    0  501  0.00000000000E+00  0.00000000000E+00 -0.42291593288E+02  0.42291593365E+02  0.25500000920E-02 0.  1.
    10030    2    1    2    0    0  0.00000000000E+00  0.00000000000E+00  0.21181422846E+04  0.22027254713E+04  0.60454343426E+03 0.  0.
        3    1    3    3  502    0  0.53380128730E+02  0.22706475343E+03  0.35858290643E+03  0.42777278008E+03  0.10100000352E+00 0.  1.
       -3    1    3    3    0  502 -0.53380128730E+02 -0.22706475343E+03  0.17595593782E+04  0.17749526912E+04  0.10100000352E+00 0. -1.
</event>
<event>
 5   0  0.1303808E-02  0.6090324E+03  0.7818609E-02  0.9886842E-01
        1   -1    0    0  501    0  0.00000000000E+00  0.00000000000E+00  0.56770125410E+03  0.56770125412E+03  0.50400001928E-02 0. -1.
       -1   -1    0    0    0  501  0.00000000000E+00  0.00000000000E+00 -0.16334314752E+03  0.16334314759E+03  0.50400001928E-02 0.  1.
    10030    2    1    2    0    0  0.00000000000E+00  0.00000000000E+00  0.40435810658E+03  0.73104440172E+03  0.60903237921E+03 0.  0.
        4    1    3    3  502    0  0.84697410920E+02  0.20377277481E+03 -0.49695980437E+02  0.22620410815E+03  0.12699999809E+01 0.  1.
       -4    1    3    3    0  502 -0.84697410920E+02 -0.20377277481E+03  0.45405408702E+03  0.50484029357E+03  0.12699999809E+01 0. -1.
</event>
<event>
 5   0  0.2141800E-02  0.5986730E+03  0.7818609E-02  0.9908163E-01
       -2   -1    0    0    0  501  0.00000000000E+00  0.00000000000E+00  0.14982280760E+03  0.14982280763E+03  0.25500000920E-02 0. -1.
        2   -1    0    0  501    0  0.00000000000E+00  0.00000000000E+00 -0.59805534468E+03  0.59805534468E+03  0.25500000920E-02 0.  1.
    10030    2    1    2    0    0  0.00000000000E+00  0.00000000000E+00 -0.44823253707E+03  0.74787815231E+03  0.59867296867E+03 0.  0.
        2    1    3    3  502    0  0.80856318176E+02 -0.74391471227E+01 -0.58403498467E+03  0.58965239626E+03  0.25500000920E-02 0.  1.
       -2    1    3    3    0  502 -0.80856318176E+02  0.74391471227E+01  0.13580244759E+03  0.15822575605E+03  0.25500000920E-02 0. -1.
</event>
<event>
 5   0  0.2141800E-02  0.5944623E+03  0.7818609E-02  0.9916962E-01
        2   -1    0    0  501    0  0.00000000000E+00  0.00000000000E+00  0.20547812936E+04  0.20547812936E+04  0.25500000920E-02 0.  1.
       -2   -1    0    0    0  501  0.00000000000E+00  0.00000000000E+00 -0.42995507701E+02  0.42995507776E+02  0.25500000920E-02 0. -1.
    10030    2    1    2    0    0  0.00000000000E+00  0.00000000000E+00  0.20117857859E+04  0.20977768014E+04  0.59446232854E+03 0.  0.
        2    1    3    3  502    0 -0.13212484448E+03  0.19328529453E+03  0.16520720083E+04  0.16685796656E+04  0.25500000920E-02 0.  1.
       -2    1    3    3    0  502  0.13212484448E+03 -0.19328529453E+03  0.35971377755E+03  0.42919713580E+03  0.25500000920E-02 0. -1.
</event>
<event>
 5   0  0.1303808E-02  0.6026649E+03  0.7818609E-02  0.9899893E-01
        1   -1    0    0  501    0  0.00000000000E+00  0.00000000000E+00  0.39903889624E+03  0.39903889627E+03  0.50400001928E-02 0. -1.
       -1   -1    0    0    0  501  0.00000000000E+00  0.00000000000E+00 -0.22754985962E+03  0.22754985968E+03  0.50400001928E-02 0.  1.
    10030    2    1    2    0    0  0.00000000000E+00  0.00000000000E+00  0.17148903661E+03  0.62658875595E+03  0.60266489810E+03 0.  0.
        4    1    3    3  502    0 -0.29981489953E+03 -0.24801138151E+02  0.10361888420E+03  0.31818635498E+03  0.12699999809E+01 0.  1.
       -4    1    3    3    0  502  0.29981489953E+03  0.24801138151E+02  0.67870152411E+02  0.30840240097E+03  0.12699999809E+01 0. -1.
</event>
<event>
 5   0  0.1332555E-02  0.6041387E+03  0.7818609E-02  0.9896857E-01
       -1   -1    0    0    0  501  0.00000000000E+00  0.00000000000E+00  0.81574715681E+03  0.81574715682E+03  0.50400001928E-02 0. -1.
        1   -1    0    0  501    0  0.00000000000E+00  0.00000000000E+00 -0.11185559517E+03  0.11185559528E+03  0.50400001928E-02 0.  1.
    10030    2    1    2    0    0  0.00000000000E+00  0.00000000000E+00  0.70389156164E+03  0.92760275210E+03  0.60413867213E+03 0.  0.
        2    1    3    3  502    0  0.29797957815E+03 -0.19883851719E+02  0.42161173294E+03  0.51666589776E+03  0.25500000920E-02 0. -1.
       -2    1    3    3    0  502 -0.29797957815E+03  0.19883851719E+02  0.28227982871E+03  0.41093685434E+03  0.25500000920E-02 0.  1.
</event>
<event>
 5   0  0.1337051E-02  0.5988626E+03  0.7818609E-02  0.9907769E-01
       -1   -1    0    0    0  501  0.00000000000E+00  0.00000000000E+00  0.87013185857E+02  0.87013186003E+02  0.50400001928E-02 0. -1.
        1   -1    0    0  501    0  0.00000000000E+00  0.00000000000E+00 -0.10304081873E+04  0.10304081873E+04  0.50400001928E-02 0.  1.
    10030    2    1    2    0    0  0.00000000000E+00  0.00000000000E+00 -0.94339500146E+03  0.11174213733E+04  0.59886258591E+03 0.  0.
        5    1    3    3  502    0  0.27908667838E+03 -0.83467844370E+01 -0.67333597489E+03  0.72894613514E+03  0.46999998093E+01 0.  1.
       -5    1    3    3    0  502 -0.27908667838E+03  0.83467844370E+01 -0.27005902657E+03  0.38847523819E+03  0.46999998093E+01 0. -1.
</event>
<event>
 5   0  0.2142838E-02  0.6036166E+03  0.7818609E-02  0.9897931E-01
       -2   -1    0    0    0  501  0.00000000000E+00  0.00000000000E+00  0.17615376917E+03  0.17615376919E+03  0.25500000920E-02 0. -1.
        2   -1    0    0  501    0  0.00000000000E+00  0.00000000000E+00 -0.51709512037E+03  0.51709512038E+03  0.25500000920E-02 0.  1.
    10030    2    1    2    0    0  0.00000000000E+00  0.00000000000E+00 -0.34094135120E+03  0.69324888957E+03  0.60361661502E+03 0.  0.
        4    1    3    3  502    0 -0.18866056022E+03 -0.17805425727E+03 -0.34761609566E+03  0.43374495775E+03  0.12699999809E+01 0.  1.
       -4    1    3    3    0  502  0.18866056022E+03  0.17805425727E+03  0.66747444607E+01  0.25950393181E+03  0.12699999809E+01 0. -1.
</event>
<event>
 5   0  0.1337051E-02  0.5955979E+03  0.7818609E-02  0.9914581E-01
       -1   -1    0    0    0  501  0.00000000000E+00  0.00000000000E+00  0.86015753424E+02  0.86015753572E+02  0.50400001928E-02 0. -1.
        1   -1    0    0  501    0  0.00000000000E+00  0.00000000000E+00 -0.10310228325E+04  0.10310228325E+04  0.50400001928E-02 0.  1.
    10030    2    1    2    0    0  0.00000000000E+00  0.00000000000E+00 -0.94500707909E+03  0.11170385861E+04  0.59559787046E+03 0.  0.
        5    1    3    3  502    0  0.37886435999E+02 -0.27492416002E+03 -0.67487799554E+03  0.72972671231E+03  0.46999998093E+01 0.  1.
       -5    1    3    3    0  502 -0.37886435999E+02  0.27492416002E+03 -0.27012908354E+03  0.38731187378E+03  0.46999998093E+01 0. -1.
</event>
<event>
 5   0  0.2179625E-02  0.6008630E+03  0.7818609E-02  0.9903617E-01
       -2   -1    0    0    0  501  0.00000000000E+00  0.00000000000E+00  0.19643461354E+03  0.19643461356E+03  0.25500000920E-02 0. -1.
        2   -1    0    0  501    0  0.00000000000E+00  0.00000000000E+00 -0.45948673994E+03  0.45948673994E+03  0.25500000920E-02 0.  1.
    10030    2    1    2    0    0  0.00000000000E+00  0.00000000000E+00 -0.26305212640E+03  0.65592135350E+03  0.60086304660E+03 0.  0.
        1    1    3    3  502    0  0.13883955570E+03 -0.17888729721E+02  0.15865649142E+03  0.21158523383E+03  0.50400001928E-02 0. -1.
       -1    1    3    3    0  502 -0.13883955570E+03  0.17888729721E+02 -0.42170861782E+03  0.44433611967E+03  0.50400001928E-02 0.  1.
</event>
<event>
 5   0  0.1337051E-02  0.6008572E+03  0.7818609E-02  0.9903629E-01
        1   -1    0    0  501    0  0.00000000000E+00  0.00000000000E+00  0.13846152581E+03  0.13846152590E+03  0.50400001928E-02 0.  1.
       -1   -1    0    0    0  501  0.00000000000E+00  0.00000000000E+00 -0.65185870471E+03  0.65185870473E+03  0.50400001928E-02 0. -1.
    10030    2    1    2    0    0  0.00000000000E+00  0.00000000000E+00 -0.51339717890E+03  0.79032023063E+03  0.60085722401E+03 0.  0.
        5    1    3    3  502    0 -0.20425050702E+03  0.21718793618E+03 -0.30496194581E+03  0.42651230654E+03  0.46999998093E+01 0. -1.
       -5    1    3    3    0  502  0.20425050702E+03 -0.21718793618E+03 -0.20843523309E+03  0.36380792409E+03  0.46999998093E+01 0.  1.
</event>
<event>
 5   0  0.1276705E-02  0.5939296E+03  0.7818609E-02  0.9918081E-01
       -1   -1    0    0    0  501  0.00000000000E+00  0.00000000000E+00  0.80145302503E+03  0.80145302504E+03  0.50400001928E-02 0.  1.
        1   -1    0    0  501    0  0.00000000000E+00  0.00000000000E+00 -0.11003525713E+03  0.11003525724E+03  0.50400001928E-02 0. -1.
    10030    2    1    2    0    0  0.00000000000E+00  0.00000000000E+00  0.69141776790E+03  0.91148828228E+03  0.59392959092E+03 0.  0.
        1    1    3    3  502    0 -0.12344128004E+03  0.20405890789E+03  0.61726510492E+03  0.66173559469E+03  0.50400001928E-02 0.  1.
       -1    1    3    3    0  502  0.12344128004E+03 -0.20405890789E+03  0.74152662986E+02  0.24975268760E+03  0.50400001928E-02 0. -1.
</event>
<event>
 5   0  0.1250390E-02  0.6033559E+03  0.7818609E-02  0.9898468E-01
        1   -1    0    0  501    0  0.00000000000E+00  0.00000000000E+00  0.70498462619E+03  0.70498462621E+03  0.50400001928E-02 0.  1.
       -1   -1    0    0    0  501  0.00000000000E+00  0.00000000000E+00 -0.12909441037E+03  0.12909441047E+03  0.50400001928E-02 0. -1.
    10030    2    1    2    0    0  0.00000000000E+00  0.00000000000E+00  0.57589021583E+03  0.83407903668E+03  0.60335586410E+03 0.  0.
        3    1    3    3  502    0  0.75932456408E+02  0.29193873902E+03  0.29340501117E+03  0.42080931080E+03  0.10100000352E+00 0. -1.
       -3    1    3    3    0  502 -0.75932456408E+02 -0.29193873902E+03  0.28248520465E+03  0.41326972588E+03  0.10100000352E+00 0.  1.
</event>
<event>
 5   0  0.1337051E-02  0.6028745E+03  0.7818609E-02  0.9899460E-01
       -1   -1    0    0    0  501  0.00000000000E+00  0.00000000000E+00  0.50555802977E+03  0.50555802979E+03  0.50400001928E-02 0.  1.
        1   -1    0    0  501    0  0.00000000000E+00  0.00000000000E+00 -0.17973090627E+03  0.17973090634E+03  0.50400001928E-02 0. -1.
    10030    2    1    2    0    0  0.00000000000E+00  0.00000000000E+00  0.32582712350E+03  0.68528893613E+03  0.60287445756E+03 0.  0.
        5    1    3    3  502    0 -0.12426980923E+03 -0.16429532083E+03  0.41300459243E+03  0.46155262030E+03  0.46999998093E+01 0.  1.
       -5    1    3    3    0  502  0.12426980923E+03  0.16429532083E+03 -0.87177468938E+02  0.22373631583E+03  0.46999998093E+01 0. -1.
</event>
<event>
 5   0  0.2142838E-02  0.6059786E+03  0.7818609E-02  0.9893079E-01
        2   -1    0    0  501    0  0.00000000000E+00  0.00000000000E+00  0.18307135890E+04  0.18307135890E+04  0.25500000920E-02 0.  1.
       -2   -1    0    0    0  501  0.00000000000E+00  0.00000000000E+00 -0.50145758104E+02  0.50145758169E+02  0.25500000920E-02 0. -1.
    10030    2    1    2    0    0  0.00000000000E+00  0.00000000000E+00  0.17805678309E+04  0.18808593472E+04  0.60597861630E+03 0.  0.
        4    1    3    3  502    0  0.14184128007E+02 -0.82788117925E+02  0.17938464820E+04  0.17958123165E+04  0.12699999809E+01 0.  1.
       -4    1    3    3    0  502 -0.14184128007E+02  0.82788117925E+02 -0.13278651134E+02  0.85047030711E+02  0.12699999809E+01 0. -1.
</event>
<event>
 5   0  0.2092587E-02  0.5968185E+03  0.7818609E-02  0.9912029E-01
       -2   -1    0    0    0  501  0.00000000000E+00  0.00000000000E+00  0.10377697635E+03  0.10377697638E+03  0.25500000920E-02 0.  1.
        2   -1    0    0  501    0  0.00000000000E+00  0.00000000000E+00 -0.85807159121E+03  0.85807159121E+03  0.25500000920E-02 0. -1.
    10030    2    1    2    0    0  0.00000000000E+00  0.00000000000E+00 -0.75429461486E+03  0.96184856760E+03  0.59681848244E+03 0.  0.
        3    1    3    3  502    0  0.15344667819E+03  0.15400762319E+03 -0.70658143087E+03  0.73927096501E+03  0.10100000352E+00 0. -1.
       -3    1    3    3    0  502 -0.15344667819E+03 -0.15400762319E+03 -0.47713183984E+02  0.22257760259E+03  0.10100000352E+00 0.  1.
</event>
<event>
 5   0  0.2141800E-02  0.5988579E+03  0.7818609E-02  0.9907778E-01
        2   -1    0    0  501    0  0.00000000000E+00  0.00000000000E+00  0.14481492990E+03  0.14481492992E+03  0.25500000920E-02 0.  1.
       -2   -1    0    0    0  501  0.00000000000E+00  0.00000000000E+00 -0.61911923078E+03  0.61911923078E+03  0.25500000920E-02 0. -1.
    10030    2    1    2    0    0  0.00000000000E+00  0.00000000000E+00 -0.47430430088E+03  0.76393416070E+03  0.59885793980E+03 0.  0.
        2    1    3    3  502    0  0.27299295839E+03 -0.77675587238E+02 -0.35883525557E+03  0.45751654924E+03  0.25500000920E-02 0.  1.
       -2    1    3    3    0  502 -0.27299295839E+03  0.77675587238E+02 -0.11546904530E+03  0.30641761146E+03  0.25500000920E-02 0. -1.
</event>
<event>
 5   0  0.2179625E-02  0.5996939E+03  0.7818609E-02  0.9906041E-01
        2   -1    0    0  501    0  0.00000000000E+00  0.00000000000E+00  0.21374818153E+03  0.21374818155E+03  0.25500000920E-02 0. -1.
       -2   -1    0    0    0  501  0.00000000000E+00  0.00000000000E+00 -0.42062673189E+03  0.42062673190E+03  0.25500000920E-02 0.  1.
    10030    2    1    2    0    0  0.00000000000E+00  0.00000000000E+00 -0.20687855036E+03  0.63437491345E+03  0.59969391877E+03 0.  0.
        1    1    3    3  502    0  0.51374219701E+02 -0.15329792855E+02 -0.41551539890E+03  0.41895985457E+03  0.50400001928E-02 0.  1.
       -1    1    3    3    0  502 -0.51374219701E+02  0.15329792855E+02  0.20863684853E+03  0.21541505888E+03  0.50400001928E-02 0. -1.
</event>
<event>
 5   0  0.2126207E-02  0.5896821E+03  0.7818609E-02  0.9927047E-01
        2   -1    0    0  501    0  0.00000000000E+00  0.00000000000E+00  0.64784882530E+03  0.64784882530E+03  0.25500000920E-02 0. -1.
       -2   -1    0    0    0  501  0.00000000000E+00  0.00000000000E+00 -0.13418445800E+03  0.13418445802E+03  0.25500000920E-02 0.  1.
    10030    2    1    2    0    0  0.00000000000E+00  0.00000000000E+00  0.51366436730E+03  0.78203328333E+03  0.58968209571E+03 0.  0.
        5    1    3    3  502    0  0.13287217694E+03  0.16484733196E+03  0.52887831614E+03  0.56970520582E+03  0.46999998093E+01 0. -1.
       -5    1    3    3    0  502 -0.13287217694E+03 -0.16484733196E+03 -0.15213948841E+02  0.21232807750E+03  0.46999998093E+01 0.  1.
</event>
<event>
 5   0  0.2092587E-02  0.5974691E+03  0.7818609E-02  0.9910671E-01
       -2   -1    0    0    0  501  0.00000000000E+00  0.00000000000E+00  0.43385493337E+02  0.43385493412E+02  0.25500000920E-02 0. -1.
        2   -1    0    0  501    0  0.00000000000E+00  0.00000000000E+00 -0.20569627904E+04  0.20569627904E+04  0.25500000920E-02 0.  1.
    10030    2    1    2    0    0  0.00000000000E+00  0.00000000000E+00 -0.20135772971E+04  0.21003482839E+04  0.59746914739E+03 0.  0.
        3    1    3    3  502    0  0.48695568162E+02  0.86931794094E+02 -0.16753541537E+02  0.10104002444E+03  0.10100000352E+00 0. -1.
       -3    1    3    3    0  502 -0.48695568162E+02 -0.86931794094E+02 -0.19968237556E+04  0.19993082594E+04  0.10100000352E+00 0.  1.
</event>
<event>
 5   0  0.1276705E-02  0.5993380E+03  0.7818609E-02  0.9906781E-01
       -1   -1    0    0    0  501  0.00000000000E+00  0.00000000000E+00  0.23950022123E+03  0.23950022128E+03  0.50400001928E-02 0. -1.
        1   -1    0    0  501    0  0.00000000000E+00  0.00000000000E+00 -0.37495371596E+03  0.37495371599E+03  0.50400001928E-02 0.  1.
    10030    2    1    2    0    0  0.00000000000E+00  0.00000000000E+00 -0.13545349473E+03  0.61445393728E+03  0.59933796126E+03 0.  0.
        1    1    3    3  502    0 -0.12330674222E+03  0.25448173006E+02 -0.34652155679E+03  0.36868597957E+03  0.50400001928E-02 0.  1.
       -1    1    3    3    0  502  0.12330674222E+03 -0.25448173006E+02  0.21106806206E+03  0.24576795771E+03  0.50400001928E-02 0. -1.
</event>
<event>
 5   0  0.1250390E-02  0.5984084E+03  0.7818609E-02  0.9908714E-01
       -1   -1    0    0    0  501  0.00000000000E+00  0.00000000000E+00  0.11883721103E+03  0.11883721114E+03  0.50400001928E-02 0. -1.
        1   -1    0    0  501    0  0.00000000000E+00  0.00000000000E+00 -0.75332585791E+03  0.75332585793E+03  0.50400001928E-02 0.  1.
    10030    2    1    2    0    0  0.00000000000E+00  0.00000000000E+00 -0.63448864688E+03  0.87216306907E+03  0.59840836895E+03 0.  0.
        3    1    3    3  502    0 -0.73798044556E+02 -0.13522757952E+03 -0.69108071455E+03  0.70804322881E+03  0.10100000352E+00 0.  1.
       -3    1    3    3    0  502  0.73798044556E+02  0.13522757952E+03  0.56592067668E+02  0.16411984026E+03  0.10100000352E+00 0. -1.
</event>
<event>
 5   0  0.1337051E-02  0.5991442E+03  0.7818609E-02  0.9907183E-01
       -1   -1    0    0    0  501  0.00000000000E+00  0.00000000000E+00  0.31328026141E+02  0.31328026546E+02  0.50400001928E-02 0. -1.
        1   -1    0    0  501    0  0.00000000000E+00  0.00000000000E+00 -0.28646376562E+04  0.28646376562E+04  0.50400001928E-02 0.  1.
    10030    2    1    2    0    0  0.00000000000E+00  0.00000000000E+00 -0.28333096300E+04  0.28959656827E+04  0.59914420291E+03 0.  0.
        5    1    3    3  502    0 -0.26715150791E+03 -0.11810086134E+03 -0.17374047594E+04  0.17617931574E+04  0.46999998093E+01 0. -1.
       -5    1    3    3    0  502  0.26715150791E+03  0.11810086134E+03 -0.10959048707E+04  0.11341725253E+04  0.46999998093E+01 0.  1.
</event>
<event>
 5   0  0.1250390E-02  0.6030033E+03  0.7818609E-02  0.9899195E-01
        1   -1    0    0  501    0  0.00000000000E+00  0.00000000000E+00  0.28346093021E+03  0.28346093026E+03  0.50400001928E-02 0. -1.
       -1   -1    0    0    0  501  0.00000000000E+00  0.00000000000E+00 -0.32069051120E+03  0.32069051124E+03  0.50400001928E-02 0.  1.
    10030    2    1    2    0    0  0.00000000000E+00  0.00000000000E+00 -0.37229580989E+02  0.60415144150E+03  0.60300325253E+03 0.  0.
        3    1    3    3  502    0 -0.71792522780E+02 -0.19546391628E+03  0.19984376046E+03  0.28861366512E+03  0.10100000352E+00 0. -1.
       -3    1    3    3    0  502  0.71792522780E+02  0.19546391628E+03 -0.23707334145E+03  0.31553777638E+03  0.10100000352E+00 0.  1.
</event>
<event>
 5   0  0.2141800E-02  0.6002883E+03  0.7818609E-02  0.9904808E-01
        2   -1    0    0  501    0  0.00000000000E+00  0.00000000000E+00  0.50754704678E+02  0.50754704742E+02  0.25500000920E-02 0.  1.
       -2   -1    0    0    0  501  0.00000000000E+00  0.00000000000E+00 -0.17749393214E+04  0.17749393214E+04  0.25500000920E-02 0. -1.
    10030    2    1    2    0    0  0.00000000000E+00  0.00000000000E+00 -0.17241846167E+04  0.18256940261E+04  0.60028833451E+03 0.  0.
        2    1    3    3  502    0  0.11373571551E+03  0.15035682567E+03 -0.15179572767E+03  0.24204324191E+03  0.25500000920E-02 0.  1.
       -2    1    3    3    0  502 -0.11373571551E+03 -0.15035682567E+03 -0.15723888890E+04  0.15836507842E+04  0.25500000920E-02 0. -1.
</event>
<event>
 5   0  0.2092587E-02  0.5985819E+03  0.7818609E-02  0.9908353E-01
        2   -1    0    0  501    0  0.00000000000E+00  0.00000000000E+00  0.85669775109E+03  0.85669775109E+03  0.25500000920E-02 0. -1.
       -2   -1    0    0    0  501  0.00000000000E+00  0.00000000000E+00 -0.10455853334E+03  0.10455853337E+03  0.25500000920E-02 0.  1.
    10030    2    1    2    0    0  0.00000000000E+00  0.00000000000E+00  0.75213921775E+03  0.96125628446E+03  0.59858185869E+03 0.  0.
        3    1    3    3  502    0  0.20622799032E+03 -0.13908236811E+03  0.10879073798E+03  0.27149461133E+03  0.10100000352E+00 0.  1.
       -3    1    3    3    0  502 -0.20622799032E+03  0.13908236811E+03  0.64334847976E+03  0.68976167313E+03  0.10100000352E+00 0. -1.
</event>
<event>
 5   0  0.1250390E-02  0.6032648E+03  0.7818609E-02  0.9898656E-01
        1   -1    0    0  501    0  0.00000000000E+00  0.00000000000E+00  0.21694792316E+03  0.21694792322E+03  0.50400001928E-02 0.  1.
       -1   -1    0    0    0  501  0.00000000000E+00  0.00000000000E+00 -0.41937300735E+03  0.41937300738E+03  0.50400001928E-02 0. -1.
    10030    2    1    2    0    0  0.00000000000E+00  0.00000000000E+00 -0.20242508418E+03  0.63632093060E+03  0.60326479428E+03 0.  0.
        3    1    3    3  502    0 -0.21554795420E+03  0.11748984032E+03 -0.28607972169E+03  0.37697002600E+03  0.10100000352E+00 0. -1.
       -3    1    3    3    0  502  0.21554795420E+03 -0.11748984032E+03  0.83654637511E+02  0.25935090460E+03  0.10100000352E+00 0.  1.
</event>
<event>
 5   0  0.1332555E-02  0.5903323E+03  0.7818609E-02  0.9925669E-01
        1   -1    0    0  501    0  0.00000000000E+00  0.00000000000E+00  0.61547696794E+03  0.61547696796E+03  0.50400001928E-02 0. -1.
       -1   -1    0    0    0  501  0.00000000000E+00  0.00000000000E+00 -0.14155371257E+03  0.14155371266E+03  0.50400001928E-02 0.  1.
    10030    2    1    2    0    0  0.00000000000E+00  0.00000000000E+00  0.47392325537E+03  0.75703068062E+03  0.59033227882E+03 0.  0.
        2    1    3    3  502    0 -0.16352298906E+03  0.15220066215E+03  0.48435887783E+03  0.53339322460E+03  0.25500000920E-02 0. -1.
       -2    1    3    3    0  502  0.16352298906E+03 -0.15220066215E+03 -0.10435622460E+02  0.22363745601E+03  0.25500000920E-02 0.  1.
</event>
<event>
 5   0  0.2141800E-02  0.6000752E+03  0.7818609E-02  0.9905250E-01
        2   -1    0    0  501    0  0.00000000000E+00  0.00000000000E+00  0.19392474399E+04  0.19392474399E+04  0.25500000920E-02 0.  1.
       -2   -1    0    0    0  501  0.00000000000E+00  0.00000000000E+00 -0.46421387631E+02  0.46421387701E+02  0.25500000920E-02 0. -1.
    10030    2    1    2    0    0  0.00000000000E+00  0.00000000000E+00  0.18928260523E+04  0.19856688276E+04  0.60007518593E+03 0.  0.
        2    1    3    3  502    0  0.23002675001E+03 -0.18236148177E+03  0.74097184235E+03  0.79699892529E+03  0.25500000920E-02 0. -1.
       -2    1    3    3    0  502 -0.23002675001E+03  0.18236148177E+03  0.11518542100E+04  0.11886699024E+04  0.25500000920E-02 0.  1.
</event>
<event>
 5   0  0.1332555E-02  0.6008821E+03  0.7818609E-02  0.9903578E-01
        1   -1    0    0  501    0  0.00000000000E+00  0.00000000000E+00  0.86985237149E+02  0.86985237295E+02  0.50400001928E-02 0.  1.
       -1   -1    0    0    0  501  0.00000000000E+00  0.00000000000E+00 -0.10377026985E+04  0.10377026985E+04  0.50400001928E-02 0. -1.
    10030    2    1    2    0    0  0.00000000000E+00  0.00000000000E+00 -0.95071746132E+03  0.11246879358E+04  0.60088206965E+03 0.  0.
        2    1    3    3  502    0 -0.18211436307E+03 -0.22727407393E+03 -0.33723495827E+03  0.44558564048E+03  0.25500000920E-02 0.  1.
       -2    1    3    3    0  502  0.18211436307E+03  0.22727407393E+03 -0.61348250305E+03  0.67910229530E+03  0.25500000920E-02 0. -1.
</event>
<event>
 5   0  0.8551000E-03  0.5664229E+03  0.7818609E-02  0.9977626E-01
        3   -1    0    0  501    0  0.00000000000E+00  0.00000000000E+00  0.98127839509E+02  0.98127891487E+02  0.10100000352E+00 0.  1.
       -3   -1    0    0    0  501  0.00000000000E+00  0.00000000000E+00 -0.81738975652E+03  0.81738976276E+03  0.10100000352E+00 0. -1.
    10030    2    1    2    0    0  0.00000000000E+00  0.00000000000E+00 -0.71926191702E+03  0.91551765425E+03  0.56642287205E+03 0.  0.
        2    1    3    3  502    0  0.86660810477E+01 -0.14430135107E+03  0.34003038844E+02  0.14850652355E+03  0.25500000920E-02 0.  1.
       -2    1    3    3    0  502 -0.86660810477E+01  0.14430135107E+03 -0.75326495586E+03  0.76701113070E+03  0.25500000920E-02 0. -1.
</event>
<event>
 5   0  0.2179625E-02  0.6000999E+03  0.7818609E-02  0.9905199E-01
        2   -1    0    0  501    0  0.00000000000E+00  0.00000000000E+00  0.16690057307E+04  0.16690057307E+04  0.25500000920E-02 0. -1.
       -2   -1    0    0    0  501  0.00000000000E+00  0.00000000000E+00 -0.53942272560E+02  0.53942272620E+02  0.25500000920E-02 0.  1.
    10030    2    1    2    0    0  0.00000000000E+00  0.00000000000E+00  0.16150634582E+04  0.17229480034E+04  0.60009986531E+03 0.  0.
        1    1    3    3  502    0 -0.13191904250E+03  0.25430784931E+02  0.15778254957E+04  0.15835348603E+04  0.50400001928E-02 0. -1.
       -1    1    3    3    0  502  0.13191904250E+03 -0.25430784931E+02  0.37237962420E+02  0.13941314309E+03  0.50400001928E-02 0.  1.
</event>
<event>
 5   0  0.1303808E-02  0.6274704E+03  0.7818609E-02  0.9849998E-01
       -1   -1    0    0    0  501  0.00000000000E+00  0.00000000000E+00  0.54151412378E+03  0.54151412380E+03  0.50400001928E-02 0.  1.
        1   -1    0    0  501    0  0.00000000000E+00  0.00000000000E+00 -0.18176771110E+03  0.18176771117E+03  0.50400001928E-02 0. -1.
    10030    2    1    2    0    0  0.00000000000E+00  0.00000000000E+00  0.35974641268E+03  0.72328183497E+03  0.62747042270E+03 0.  0.
        4    1    3    3  502    0 -0.12008873917E+03 -0.11418385734E+03 -0.12720455840E+03  0.20890636929E+03  0.12699999809E+01 0. -1.
       -4    1    3    3    0  502  0.12008873917E+03  0.11418385734E+03  0.48695097108E+03  0.51437546568E+03  0.12699999809E+01 0.  1.
</event>
<event>
 5   0  0.1276705E-02  0.5998923E+03  0.7818609E-02  0.9905630E-01
       -1   -1    0    0    0  501  0.00000000000E+00  0.00000000000E+00  0.12126552772E+03  0.12126552783E+03  0.50400001928E-02 0. -1.
        1   -1    0    0  501    0  0.00000000000E+00  0.00000000000E+00 -0.74190645802E+03  0.74190645803E+03  0.50400001928E-02 0.  1.
    10030    2    1    2    0    0  0.00000000000E+00  0.00000000000E+00 -0.62064093029E+03  0.86317198586E+03  0.59989225101E+03 0.  0.
        1    1    3    3  502    0 -0.21759942423E+03  0.18524360509E+03 -0.17920891146E+03  0.33731370655E+03  0.50400001928E-02 0. -1.
       -1    1    3    3    0  502  0.21759942423E+03 -0.18524360509E+03 -0.44143201883E+03  0.52585827931E+03  0.50400001928E-02 0.  1.
</event>
<event>
 5   0  0.1332555E-02  0.6036309E+03  0.7818609E-02  0.9897902E-01
       -1   -1    0    0    0  501  0.00000000000E+00  0.00000000000E+00  0.16554468413E+03  0.16554468421E+03  0.50400001928E-02 0. -1.
        1   -1    0    0  501    0  0.00000000000E+00  0.00000000000E+00 -0.55025975562E+03  0.55025975564E+03  0.50400001928E-02 0.  1.
    10030    2    1    2    0    0  0.00000000000E+00  0.00000000000E+00 -0.38471507149E+03  0.71580443985E+03  0.60363093847E+03 0.  0.
        2    1    3    3  502    0  0.22730029799E+03  0.46912115982E+02 -0.42115354653E+03  0.48087054583E+03  0.25500000920E-02 0.  1.
       -2    1    3    3    0  502 -0.22730029799E+03 -0.46912115982E+02  0.36438475037E+02  0.23493389402E+03  0.25500000920E-02 0. -1.
</event>
<event>
 5   0  0.2179625E-02  0.5999504E+03  0.7818609E-02  0.9905509E-01
        2   -1    0    0  501    0  0.00000000000E+00  0.00000000000E+00  0.22546558109E+03  0.22546558110E+03  0.25500000920E-02 0.  1.
       -2   -1    0    0    0  501  0.00000000000E+00  0.00000000000E+00 -0.39910795257E+03  0.39910795258E+03  0.25500000920E-02 0. -1.
    10030    2    1    2    0    0  0.00000000000E+00  0.00000000000E+00 -0.17364237148E+03  0.62457353368E+03  0.59995035278E+03 0.  0.
        1    1    3    3  502    0 -0.13180059090E+03 -0.23477702780E+03 -0.22451235751E+03  0.35056732198E+03  0.50400001928E-02 0. -1.
       -1    1    3    3    0  502  0.13180059090E+03  0.23477702780E+03  0.50869986029E+02  0.27400621170E+03  0.50400001928E-02 0.  1.
</event>
<event>
 5   0  0.2126207E-02  0.5988990E+03  0.7818609E-02  0.9907693E-01
        2   -1    0    0  501    0  0.00000000000E+00  0.00000000000E+00  0.62093396230E+03  0.62093396231E+03  0.25500000920E-02 0.  1.
       -2   -1    0    0    0  501  0.00000000000E+00  0.00000000000E+00 -0.14441148953E+03  0.14441148956E+03  0.25500000920E-02 0. -1.
    10030    2    1    2    0    0  0.00000000000E+00  0.00000000000E+00  0.47652247277E+03  0.76534545187E+03  0.59889898450E+03 0.  0.
        5    1    3    3  502    0 -0.14749680461E+02  0.11915468229E+03  0.58877633089E+03  0.60091184811E+03  0.46999998093E+01 0.  1.
       -5    1    3    3    0  502  0.14749680461E+02 -0.11915468229E+03 -0.11225385812E+03  0.16443360376E+03  0.46999998093E+01 0. -1.
</event>
<event>
 5   0  0.1250390E-02  0.5971900E+03  0.7818609E-02  0.9911253E-01
       -1   -1    0    0    0  501  0.00000000000E+00  0.00000000000E+00  0.70077543638E+02  0.70077543820E+02  0.50400001928E-02 0.  1.
        1   -1    0    0  501    0  0.00000000000E+00  0.00000000000E+00 -0.12722904029E+04  0.12722904029E+04  0.50400001928E-02 0. -1.
    10030    2    1    2    0    0  0.00000000000E+00  0.00000000000E+00 -0.12022128592E+04  0.13423679467E+04  0.59719004130E+03 0.  0.
        3    1    3    3  502    0  0.13817159359E+03 -0.13978018243E+03 -0.95829180125E+02  0.21866213810E+03  0.10100000352E+00 0.  1.
       -3    1    3    3    0  502 -0.13817159359E+03  0.13978018243E+03 -0.11063836791E+04  0.11237058086E+04  0.10100000352E+00 0. -1.
</event>
<event>
 5   0  0.2142838E-02  0.6010808E+03  0.7818609E-02  0.9903166E-01
        2   -1    0    0  501    0  0.00000000000E+00  0.00000000000E+00  0.11762571838E+04  0.11762571838E+04  0.25500000920E-02 0. -1.
       -2   -1    0    0    0  501  0.00000000000E+00  0.00000000000E+00 -0.76789784033E+02  0.76789784075E+02  0.25500000920E-02 0.  1.
    10030    2    1    2    0    0  0.00000000000E+00  0.00000000000E+00  0.10994673997E+04  0.12530469678E+04  0.60108081033E+03 0.  0.
        4    1    3    3  502    0 -0.28814995931E+03  0.24390950917E+02  0.37912772274E+03  0.47682781021E+03  0.12699999809E+01 0.  1.
       -4    1    3    3    0  502  0.28814995931E+03 -0.24390950917E+02  0.72033967698E+03  0.77621915763E+03  0.12699999809E+01 0. -1.
</event>
<event>
 5   0  0.1303808E-02  0.5860926E+03  0.7818609E-02  0.9934687E-01
        1   -1    0    0  501    0  0.00000000000E+00  0.00000000000E+00  0.19353155664E+03  0.19353155670E+03  0.50400001928E-02 0. -1.
       -1   -1    0    0    0  501  0.00000000000E+00  0.00000000000E+00 -0.44373197176E+03  0.44373197178E+03  0.50400001928E-02 0.  1.
    10030    2    1    2    0    0  0.00000000000E+00  0.00000000000E+00 -0.25020041512E+03  0.63726352849E+03  0.58609261812E+03 0.  0.
        4    1    3    3  502    0 -0.35431053466E+02 -0.28710457600E+03 -0.74215452974E+02  0.29865355091E+03  0.12699999809E+01 0. -1.
       -4    1    3    3    0  502  0.35431053466E+02  0.28710457600E+03 -0.17598496215E+03  0.33860997758E+03  0.12699999809E+01 0.  1.
</event>
<event>
 5   0  0.1337051E-02  0.6000782E+03  0.7818609E-02  0.9905244E-01
        1   -1    0    0  501    0  0.00000000000E+00  0.00000000000E+00  0.10033872212E+04  0.10033872212E+04  0.50400001928E-02 0. -1.
       -1   -1    0    0    0  501  0.00000000000E+00  0.00000000000E+00 -0.89719555293E+02  0.89719555434E+02  0.50400001928E-02 0.  1.
    10030    2    1    2    0    0  0.00000000000E+00  0.00000000000E+00  0.91366766591E+03  0.10931067767E+04  0.60007817943E+03 0.  0.
        5    1    3    3  502    0  0.23939799944E+03 -0.22901150271E+02  0.78353441549E+03  0.81962438658E+03  0.46999998093E+01 0. -1.
       -5    1    3    3    0  502 -0.23939799944E+03  0.22901150271E+02  0.13013325043E+03  0.27348239008E+03  0.46999998093E+01 0.  1.
</event>
<event>
 5   0  0.1332555E-02  0.5990100E+03  0.7818609E-02  0.9907462E-01
       -1   -1    0    0    0  501  0.00000000000E+00  0.00000000000E+00  0.16681984980E+03  0.16681984988E+03  0.50400001928E-02 0. -1.
        1   -1    0    0  501    0  0.00000000000E+00  0.00000000000E+00 -0.53772522395E+03  0.53772522398E+03  0.50400001928E-02 0.  1.
    10030    2    1    2    0    0  0.00000000000E+00  0.00000000000E+00 -0.37090537415E+03  0.70454507386E+03  0.59900998700E+03 0.  0.
        2    1    3    3  502    0  0.55897130635E+02  0.18898491243E+03  0.79810905471E+02  0.21262541470E+03  0.25500000920E-02 0. -1.
       -2    1    3    3    0  502 -0.55897130635E+02 -0.18898491243E+03 -0.45071627962E+03  0.49191965915E+03  0.25500000920E-02 0.  1.
</event>
<event>
 5   0  0.1332555E-02  0.5996504E+03  0.7818609E-02  0.9906132E-01
       -1   -1    0    0    0  501  0.00000000000E+00  0.00000000000E+00  0.17794728868E+03  0.17794728875E+03  0.50400001928E-02 0. -1.
        1   -1    0    0  501    0  0.00000000000E+00  0.00000000000E+00 -0.50517854127E+03  0.50517854130E+03  0.50400001928E-02 0.  1.
    10030    2    1    2    0    0  0.00000000000E+00  0.00000000000E+00 -0.32723125259E+03  0.68312583005E+03  0.59965040400E+03 0.  0.
        2    1    3    3  502    0  0.25374395708E+03 -0.14348203278E+03 -0.24353942692E+03  0.37984805114E+03  0.25500000920E-02 0.  1.
       -2    1    3    3    0  502 -0.25374395708E+03  0.14348203278E+03 -0.83691825676E+02  0.30327777891E+03  0.25500000920E-02 0. -1.
</event>
<event>
 5   0  0.1337051E-02  0.6016060E+03  0.7818609E-02  0.9902080E-01
       -1   -1    0    0    0  501  0.00000000000E+00  0.00000000000E+00  0.10226303158E+03  0.10226303171E+03  0.50400001928E-02 0. -1.
        1   -1    0    0  501    0  0.00000000000E+00  0.00000000000E+00 -0.88480109546E+03  0.88480109547E+03  0.50400001928E-02 0.  1.
    10030    2    1    2    0    0  0.00000000000E+00  0.00000000000E+00 -0.78253806387E+03  0.98706412718E+03  0.60160599212E+03 0.  0.
        5    1    3    3  502    0  0.23222253147E+02  0.37887489242E+02 -0.87932492214E+03  0.88045962064E+03  0.46999998093E+01 0.  1.
       -5    1    3    3    0  502 -0.23222253147E+02 -0.37887489242E+02  0.96786858268E+02  0.10660450654E+03  0.46999998093E+01 0. -1.
</event>
<event>
 5   0  0.1337051E-02  0.6016013E+03  0.7818609E-02  0.9902089E-01
       -1   -1    0    0    0  501  0.00000000000E+00  0.00000000000E+00  0.32620588288E+03  0.32620588292E+03  0.50400001928E-02 0. -1.
        1   -1    0    0  501    0  0.00000000000E+00  0.00000000000E+00 -0.27737402678E+03  0.27737402682E+03  0.50400001928E-02 0.  1.
    10030    2    1    2    0    0  0.00000000000E+00  0.00000000000E+00  0.48831856102E+02  0.60357990974E+03  0.60160132752E+03 0.  0.
        5    1    3    3  502    0 -0.27594964916E+03 -0.44032914175E+02 -0.87178674166E+02  0.29276153714E+03  0.46999998093E+01 0.  1.
       -5    1    3    3    0  502  0.27594964916E+03  0.44032914175E+02  0.13601053027E+03  0.31081837260E+03  0.46999998093E+01 0. -1.
</event>
<event>
 5   0  0.1332555E-02  0.6005134E+03  0.7818609E-02  0.9904341E-01
       -1   -1    0    0    0  501  0.00000000000E+00  0.00000000000E+00  0.16826070516E+03  0.16826070524E+03  0.50400001928E-02 0. -1.
        1   -1    0    0  501    0  0.00000000000E+00  0.00000000000E+00 -0.53580005996E+03  0.53580005998E+03  0.50400001928E-02 0.  1.
    10030    2    1    2    0    0  0.00000000000E+00  0.00000000000E+00 -0.36753935479E+03  0.70406076522E+03  0.60051343349E+03 0.  0.
        2    1    3    3  502    0  0.20076965505E+03 -0.21095871761E+03 -0.98077369731E+02  0.30729660816E+03  0.25500000920E-02 0.  1.
       -2    1    3    3    0  502 -0.20076965505E+03  0.21095871761E+03 -0.26946198506E+03  0.39676415706E+03  0.25500000920E-02 0. -1.
</event>
<event>
 5   0  0.8551000E-03  0.5992736E+03  0.7818609E-02  0.9906914E-01
       -4   -1    0    0    0  501  0.00000000000E+00  0.00000000000E+00  0.34496833455E+03  0.34497067229E+03  0.12699999809E+01 0.  1.
        4   -1    0    0  501    0  0.00000000000E+00  0.00000000000E+00 -0.26025744849E+03  0.26026054713E+03  0.12699999809E+01 0. -1.
    10030    2    1    2    0    0  0.00000000000E+00  0.00000000000E+00  0.84710886061E+02  0.60523121943E+03  0.59927363929E+03 0.  0.
        5    1    3    3  502    0 -0.19956216515E+03  0.16494604446E+03 -0.10990097051E+03  0.28130511666E+03  0.46999998093E+01 0. -1.
       -5    1    3    3    0  502  0.19956216515E+03 -0.16494604446E+03  0.19461185657E+03  0.32392610277E+03  0.46999998093E+01 0.  1.
</event>
<event>
 5   0  0.8551000E-03  0.6000818E+03  0.7818609E-02  0.9905236E-01
       -3   -1    0    0    0  501  0.00000000000E+00  0.00000000000E+00  0.29621141947E+03  0.29621143669E+03  0.10100000352E+00 0. -1.
        3   -1    0    0  501    0  0.00000000000E+00  0.00000000000E+00 -0.30391985263E+03  0.30391986941E+03  0.10100000352E+00 0.  1.
    10030    2    1    2    0    0  0.00000000000E+00  0.00000000000E+00 -0.77084331507E+01  0.60013130610E+03  0.60008179828E+03 0.  0.
        5    1    3    3  502    0  0.33308945542E+02 -0.11393358355E+03  0.27169002693E+03  0.29652640362E+03  0.46999998093E+01 0. -1.
       -5    1    3    3    0  502 -0.33308945542E+02  0.11393358355E+03 -0.27939846008E+03  0.30360490248E+03  0.46999998093E+01 0.  1.
</event>
<event>
 5   0  0.8551000E-03  0.5994498E+03  0.7818609E-02  0.9906548E-01
       -4   -1    0    0    0  501  0.00000000000E+00  0.00000000000E+00  0.44638260075E+03  0.44638440738E+03  0.12699999809E+01 0. -1.
        4   -1    0    0  501    0  0.00000000000E+00  0.00000000000E+00 -0.20124693642E+03  0.20125094364E+03  0.12699999809E+01 0.  1.
    10030    2    1    2    0    0  0.00000000000E+00  0.00000000000E+00  0.24513566434E+03  0.64763535103E+03  0.59944979270E+03 0.  0.
        4    1    3    3  502    0  0.27594735685E+03 -0.11422897481E+03  0.95274566402E+02  0.31348693488E+03  0.12699999809E+01 0. -1.
       -4    1    3    3    0  502 -0.27594735685E+03  0.11422897481E+03  0.14986109794E+03  0.33414841615E+03  0.12699999809E+01 0.  1.
</event>
<event>
 5   0  0.2179625E-02  0.5922651E+03  0.7818609E-02  0.9921585E-01
        2   -1    0    0  501    0  0.00000000000E+00  0.00000000000E+00  0.89042897642E+03  0.89042897642E+03  0.25500000920E-02 0.  1.
       -2   -1    0    0    0  501  0.00000000000E+00  0.00000000000E+00 -0.98485666119E+02  0.98485666152E+02  0.25500000920E-02 0. -1.
    10030    2    1    2    0    0  0.00000000000E+00  0.00000000000E+00  0.79194331030E+03  0.98891464258E+03  0.59226511257E+03 0.  0.
        1    1    3    3  502    0 -0.51808801790E+02 -0.24068531271E+03  0.67074484572E+03  0.71450137843E+03  0.50400001928E-02 0.  1.
       -1    1    3    3    0  502  0.51808801790E+02  0.24068531271E+03  0.12119846458E+03  0.27441326414E+03  0.50400001928E-02 0. -1.
</event>
<event>
 5   0  0.1337051E-02  0.6019467E+03  0.7818609E-02  0.9901375E-01
       -1   -1    0    0    0  501  0.00000000000E+00  0.00000000000E+00  0.77274425054E+03  0.77274425056E+03  0.50400001928E-02 0. -1.
        1   -1    0    0  501    0  0.00000000000E+00  0.00000000000E+00 -0.11722502704E+03  0.11722502715E+03  0.50400001928E-02 0.  1.
    10030    2    1    2    0    0  0.00000000000E+00  0.00000000000E+00  0.65551922350E+03  0.88996927771E+03  0.60194672762E+03 0.  0.
        5    1    3    3  502    0 -0.18937570851E+03  0.22140614771E+03  0.21634190620E+03  0.36291838145E+03  0.46999998093E+01 0.  1.
       -5    1    3    3    0  502  0.18937570851E+03 -0.22140614771E+03  0.43917731730E+03  0.52705089626E+03  0.46999998093E+01 0. -1.
</event>
<event>
 5   0  0.1332555E-02  0.6009564E+03  0.7818609E-02  0.9903424E-01
       -1   -1    0    0    0  501  0.00000000000E+00  0.00000000000E+00  0.17531798024E+03  0.17531798031E+03  0.50400001928E-02 0.  1.
        1   -1    0    0  501    0  0.00000000000E+00  0.00000000000E+00 -0.51499088535E+03  0.51499088538E+03  0.50400001928E-02 0. -1.
    10030    2    1    2    0    0  0.00000000000E+00  0.00000000000E+00 -0.33967290511E+03  0.69030886569E+03  0.60095644400E+03 0.  0.
        2    1    3    3  502    0  0.21139790985E+03 -0.65762031714E+02  0.63528585711E+02  0.23032499281E+03  0.25500000920E-02 0.  1.
       -2    1    3    3    0  502 -0.21139790985E+03  0.65762031714E+02 -0.40320149082E+03  0.45998387288E+03  0.25500000920E-02 0. -1.
</event>
<event>
 5   0  0.1276705E-02  0.5999822E+03  0.7818609E-02  0.9905443E-01
       -1   -1    0    0    0  501  0.00000000000E+00  0.00000000000E+00  0.12591822535E+03  0.12591822545E+03  0.50400001928E-02 0. -1.
        1   -1    0    0  501    0  0.00000000000E+00  0.00000000000E+00 -0.71470723541E+03  0.71470723542E+03  0.50400001928E-02 0.  1.
    10030    2    1    2    0    0  0.00000000000E+00  0.00000000000E+00 -0.58878901006E+03  0.84062546087E+03  0.59998222233E+03 0.  0.
        1    1    3    3  502    0  0.14110405581E+03  0.26176768644E+03 -0.34976818093E+03  0.45909743698E+03  0.50400001928E-02 0. -1.
       -1    1    3    3    0  502 -0.14110405581E+03 -0.26176768644E+03 -0.23902082913E+03  0.38152802389E+03  0.50400001928E-02 0.  1.
</event>
<event>
 5   0  0.2126207E-02  0.5993569E+03  0.7818609E-02  0.9906741E-01
       -2   -1    0    0    0  501  0.00000000000E+00  0.00000000000E+00  0.17218556283E+03  0.17218556285E+03  0.25500000920E-02 0. -1.
        2   -1    0    0  501    0  0.00000000000E+00  0.00000000000E+00 -0.52157199660E+03  0.52157199660E+03  0.25500000920E-02 0.  1.
    10030    2    1    2    0    0  0.00000000000E+00  0.00000000000E+00 -0.34938643377E+03  0.69375755945E+03  0.59935688133E+03 0.  0.
        5    1    3    3  502    0 -0.13953282417E+03 -0.96667985272E+02 -0.46050740416E+03  0.49081897649E+03  0.46999998093E+01 0.  1.
       -5    1    3    3    0  502  0.13953282417E+03  0.96667985272E+02  0.11112097039E+03  0.20293858297E+03  0.46999998093E+01 0. -1.
</event>
<event>
 5   0  0.2126207E-02  0.6012957E+03  0.7818609E-02  0.9902721E-01
        2   -1    0    0  501    0  0.00000000000E+00  0.00000000000E+00  0.47586961919E+03  0.47586961920E+03  0.25500000920E-02 0.  1.
       -2   -1    0    0    0  501  0.00000000000E+00  0.00000000000E+00 -0.18994518396E+03  0.18994518398E+03  0.25500000920E-02 0. -1.
    10030    2    1    2    0    0  0.00000000000E+00  0.00000000000E+00  0.28592443523E+03  0.66581480318E+03  0.60129574211E+03 0.  0.
        5    1    3    3  502    0  0.14544723834E+02  0.20721931648E+03 -0.97644829137E+02  0.22958222224E+03  0.46999998093E+01 0. -1.
       -5    1    3    3    0  502 -0.14544723834E+02 -0.20721931648E+03  0.38356926437E+03  0.43623258095E+03  0.46999998093E+01 0.  1.
</event>
<event>
 5   0  0.2142838E-02  0.5968124E+03  0.7818609E-02  0.9912041E-01
        2   -1    0    0  501    0  0.00000000000E+00  0.00000000000E+00  0.20752677775E+03  0.20752677777E+03  0.25500000920E-02 0.  1.
       -2   -1    0    0    0  501  0.00000000000E+00  0.00000000000E+00 -0.42908330155E+03  0.42908330156E+03  0.25500000920E-02 0. -1.
    10030    2    1    2    0    0  0.00000000000E+00  0.00000000000E+00 -0.22155652380E+03  0.63661007933E+03  0.59681244949E+03 0.  0.
        4    1    3    3  502    0  0.13039894938E+03 -0.25418920170E+03 -0.18841357230E+02  0.28630865496E+03  0.12699999809E+01 0.  1.
       -4    1    3    3    0  502 -0.13039894938E+03  0.25418920170E+03 -0.20271516657E+03  0.35030142437E+03  0.12699999809E+01 0. -1.
</event>
<event>
 5   0  0.1337051E-02  0.5978087E+03  0.7818609E-02  0.9909963E-01
       -1   -1    0    0    0  501  0.00000000000E+00  0.00000000000E+00  0.30261524111E+03  0.30261524116E+03  0.50400001928E-02 0.  1.
        1   -1    0    0  501    0  0.00000000000E+00  0.00000000000E+00 -0.29523895484E+03  0.29523895488E+03  0.50400001928E-02 0. -1.
    10030    2    1    2    0    0  0.00000000000E+00  0.00000000000E+00  0.73762862726E+01  0.59785419604E+03  0.59780869024E+03 0.  0.
        5    1    3    3  502    0 -0.44723022756E+02  0.59724992812E+02  0.29311385976E+03  0.30249801373E+03  0.46999998093E+01 0.  1.
       -5    1    3    3    0  502  0.44723022756E+02 -0.59724992812E+02 -0.28573757348E+03  0.29535618231E+03  0.46999998093E+01 0. -1.
</event>
<event>
 5   0  0.2141800E-02  0.5991606E+03  0.7818609E-02  0.9907149E-01
        2   -1    0    0  501    0  0.00000000000E+00  0.00000000000E+00  0.34056461559E+03  0.34056461560E+03  0.25500000920E-02 0. -1.
       -2   -1    0    0    0  501  0.00000000000E+00  0.00000000000E+00 -0.26352817093E+03  0.26352817094E+03  0.25500000920E-02 0.  1.
    10030    2    1    2    0    0  0.00000000000E+00  0.00000000000E+00  0.77036444655E+02  0.60409278654E+03  0.59916064703E+03 0.  0.
        2    1    3    3  502    0  0.89554558725E+02 -0.12659399391E+03  0.29695284425E+03  0.33500305968E+03  0.25500000920E-02 0. -1.
       -2    1    3    3    0  502 -0.89554558725E+02  0.12659399391E+03 -0.21991639959E+03  0.26908972686E+03  0.25500000920E-02 0.  1.
</event>
<event>
 5   0  0.1332555E-02  0.5982817E+03  0.7818609E-02  0.9908977E-01
        1   -1    0    0  501    0  0.00000000000E+00  0.00000000000E+00  0.15613462755E+04  0.15613462755E+04  0.50400001928E-02 0.  1.
       -1   -1    0    0    0  501  0.00000000000E+00  0.00000000000E+00 -0.57312870374E+02  0.57312870595E+02  0.50400001928E-02 0. -1.
    10030    2    1    2    0    0  0.00000000000E+00  0.00000000000E+00  0.15040334051E+04  0.16186591461E+04  0.59828166237E+03 0.  0.
        2    1    3    3  502    0  0.22303606864E+03  0.73956099328E+02  0.25116304601E+03  0.34394398996E+03  0.25500000920E-02 0. -1.
       -2    1    3    3    0  502 -0.22303606864E+03 -0.73956099328E+02  0.12528703591E+04  0.12747151562E+04  0.25500000920E-02 0.  1.
</event>
<event>
 5   0  0.2141800E-02  0.6011325E+03  0.7818609E-02  0.9903059E-01
        2   -1    0    0  501    0  0.00000000000E+00  0.00000000000E+00  0.52776321069E+03  0.52776321069E+03  0.25500000920E-02 0.  1.
       -2   -1    0    0    0  501  0.00000000000E+00  0.00000000000E+00 -0.17117538003E+03  0.17117538005E+03  0.25500000920E-02 0. -1.
    10030    2    1    2    0    0  0.00000000000E+00  0.00000000000E+00  0.35658783066E+03  0.69893859074E+03  0.60113249176E+03 0.  0.
        2    1    3    3  502    0 -0.26792918321E+03 -0.12150034722E+03  0.10669852975E+03  0.31294241938E+03  0.25500000920E-02 0. -1.
       -2    1    3    3    0  502  0.26792918321E+03  0.12150034722E+03  0.24988930092E+03  0.38599617136E+03  0.25500000920E-02 0.  1.
</event>
<event>
 5   0  0.1337051E-02  0.5992981E+03  0.7818609E-02  0.9906863E-01
       -1   -1    0    0    0  501  0.00000000000E+00  0.00000000000E+00  0.14306590964E+03  0.14306590973E+03  0.50400001928E-02 0. -1.
        1   -1    0    0  501    0  0.00000000000E+00  0.00000000000E+00 -0.62760964593E+03  0.62760964595E+03  0.50400001928E-02 0.  1.
    10030    2    1    2    0    0  0.00000000000E+00  0.00000000000E+00 -0.48454373629E+03  0.77067555568E+03  0.59929807254E+03 0.  0.
        5    1    3    3  502    0 -0.77841849325E+02  0.46999490553E+02 -0.60938949824E+03  0.61615416592E+03  0.46999998093E+01 0.  1.
       -5    1    3    3    0  502  0.77841849325E+02 -0.46999490553E+02  0.12484576195E+03  0.15452138976E+03  0.46999998093E+01 0. -1.
</event>
<event>
 5   0  0.2142838E-02  0.6001490E+03  0.7818609E-02  0.9905097E-01
       -2   -1    0    0    0  501  0.00000000000E+00  0.00000000000E+00  0.97897053512E+02  0.97897053545E+02  0.25500000920E-02 0. -1.
        2   -1    0    0  501    0  0.00000000000E+00  0.00000000000E+00 -0.91978985515E+03  0.91978985515E+03  0.25500000920E-02 0.  1.
    10030    2    1    2    0    0  0.00000000000E+00  0.00000000000E+00 -0.82189280164E+03  0.10176869087E+04  0.60014903712E+03 0.  0.
        4    1    3    3  502    0  0.18283520618E+03  0.13844852759E+03 -0.73908709256E+03  0.77385273192E+03  0.12699999809E+01 0.  1.
       -4    1    3    3    0  502 -0.18283520618E+03 -0.13844852759E+03 -0.82805709078E+02  0.24383417678E+03  0.12699999809E+01 0. -1.
</event>
<event>
 5   0  0.1276705E-02  0.5987728E+03  0.7818609E-02  0.9907955E-01
       -1   -1    0    0    0  501  0.00000000000E+00  0.00000000000E+00  0.74327691582E+02  0.74327691753E+02  0.50400001928E-02 0. -1.
        1   -1    0    0  501    0  0.00000000000E+00  0.00000000000E+00 -0.12059060782E+04  0.12059060782E+04  0.50400001928E-02 0.  1.
    10030    2    1    2    0    0  0.00000000000E+00  0.00000000000E+00 -0.11315783866E+04  0.12802337699E+04  0.59877279555E+03 0.  0.
        1    1    3    3  502    0  0.19900184138E+03  0.19621966010E+03 -0.79535667312E+03  0.84302795054E+03  0.50400001928E-02 0.  1.
       -1    1    3    3    0  502 -0.19900184138E+03 -0.19621966010E+03 -0.33622171347E+03  0.43720581940E+03  0.50400001928E-02 0. -1.
</event>
<event>
 5   0  0.1337051E-02  0.5995964E+03  0.7818609E-02  0.9906244E-01
        1   -1    0    0  501    0  0.00000000000E+00  0.00000000000E+00  0.16644576694E+03  0.16644576702E+03  0.50400001928E-02 0. -1.
       -1   -1    0    0    0  501  0.00000000000E+00  0.00000000000E+00 -0.53998942913E+03  0.53998942916E+03  0.50400001928E-02 0.  1.
    10030    2    1    2    0    0  0.00000000000E+00  0.00000000000E+00 -0.37354366219E+03  0.70643519618E+03  0.59959637994E+03 0.  0.
        5    1    3    3  502    0 -0.71280935310E+02 -0.25101204009E+03 -0.12939298733E+02  0.26129969663E+03  0.46999998093E+01 0. -1.
       -5    1    3    3    0  502  0.71280935310E+02  0.25101204009E+03 -0.36060436346E+03  0.44513549954E+03  0.46999998093E+01 0.  1.
</event>
<event>
 5   0  0.1303808E-02  0.6051561E+03  0.7818609E-02  0.9894766E-01
        1   -1    0    0  501    0  0.00000000000E+00  0.00000000000E+00  0.62468767141E+03  0.62468767143E+03  0.50400001928E-02 0. -1.
       -1   -1    0    0    0  501  0.00000000000E+00  0.00000000000E+00 -0.14655879482E+03  0.14655879491E+03  0.50400001928E-02 0.  1.
    10030    2    1    2    0    0  0.00000000000E+00  0.00000000000E+00  0.47812887659E+03  0.77124646634E+03  0.60515608665E+03 0.  0.
        4    1    3    3  502    0  0.15581376283E+03  0.22428056002E+03  0.73031461524E+02  0.28269224531E+03  0.12699999809E+01 0. -1.
       -4    1    3    3    0  502 -0.15581376283E+03 -0.22428056002E+03  0.40509741507E+03  0.48855422102E+03  0.12699999809E+01 0.  1.
</event>
<event>
 5   0  0.2141800E-02  0.6236982E+03  0.7818609E-02  0.9857424E-01
        2   -1    0    0  501    0  0.00000000000E+00  0.00000000000E+00  0.30661118374E+03  0.30661118375E+03  0.25500000920E-02 0.  1.
       -2   -1    0    0    0  501  0.00000000000E+00  0.00000000000E+00 -0.31717647060E+03  0.31717647061E+03  0.25500000920E-02 0. -1.
    10030    2    1    2    0    0  0.00000000000E+00  0.00000000000E+00 -0.10565286868E+02  0.62378765436E+03  0.62369817416E+03 0.  0.
        2    1    3    3  502    0  0.25230552214E+03 -0.17367204559E+03 -0.63855515827E+02  0.31288589427E+03  0.25500000920E-02 0. -1.
       -2    1    3    3    0  502 -0.25230552214E+03  0.17367204559E+03  0.53290228959E+02  0.31090176010E+03  0.25500000920E-02 0.  1.
</event>
<event>
 5   0  0.2092587E-02  0.5999899E+03  0.7818609E-02  0.9905427E-01
        2   -1    0    0  501    0  0.00000000000E+00  0.00000000000E+00  0.93648911280E+03  0.93648911280E+03  0.25500000920E-02 0. -1.
       -2   -1    0    0    0  501  0.00000000000E+00  0.00000000000E+00 -0.96100381191E+02  0.96100381225E+02  0.25500000920E-02 0.  1.
    10030    2    1    2    0    0  0.00000000000E+00  0.00000000000E+00  0.84038873161E+03  0.10325894940E+04  0.59998986905E+03 0.  0.
        3    1    3    3  502    0  0.10943795842E+02  0.26769126311E+03  0.65248994549E+03  0.70535205266E+03  0.10100000352E+00 0. -1.
       -3    1    3    3    0  502 -0.10943795842E+02 -0.26769126311E+03  0.18789878612E+03  0.32723744137E+03  0.10100000352E+00 0.  1.
</event>
<event>
 5   0  0.1250390E-02  0.5679085E+03  0.7818609E-02  0.9974317E-01
       -1   -1    0    0    0  501  0.00000000000E+00  0.00000000000E+00  0.15033479003E+03  0.15033479011E+03  0.50400001928E-02 0. -1.
        1   -1    0    0  501    0  0.00000000000E+00  0.00000000000E+00 -0.53633644558E+03  0.53633644561E+03  0.50400001928E-02 0.  1.
    10030    2    1    2    0    0  0.00000000000E+00  0.00000000000E+00 -0.38600165556E+03  0.68667123572E+03  0.56790853830E+03 0.  0.
        3    1    3    3  502    0 -0.24954585874E+03 -0.34153057912E+02 -0.35153178331E+03  0.43245135201E+03  0.10100000352E+00 0.  1.
       -3    1    3    3    0  502  0.24954585874E+03  0.34153057912E+02 -0.34469872246E+02  0.25421988371E+03  0.10100000352E+00 0. -1.
</event>
<event>
 5   0  0.2126207E-02  0.5995685E+03  0.7818609E-02  0.9906302E-01
        2   -1    0    0  501    0  0.00000000000E+00  0.00000000000E+00  0.83022314398E+03  0.83022314399E+03  0.25500000920E-02 0. -1.
       -2   -1    0    0    0  501  0.00000000000E+00  0.00000000000E+00 -0.10824873995E+03  0.10824873998E+03  0.25500000920E-02 0.  1.
    10030    2    1    2    0    0  0.00000000000E+00  0.00000000000E+00  0.72197440403E+03  0.93847188397E+03  0.59956854231E+03 0.  0.
        5    1    3    3  502    0 -0.11250842856E+03 -0.74773916082E+02  0.77981607779E+03  0.79144455914E+03  0.46999998093E+01 0. -1.
       -5    1    3    3    0  502  0.11250842856E+03  0.74773916082E+02 -0.57841673759E+02  0.14702732482E+03  0.46999998093E+01 0.  1.
</event>
<event>
 5   0  0.2126207E-02  0.6026190E+03  0.7818609E-02  0.9899987E-01
        2   -1    0    0  501    0  0.00000000000E+00  0.00000000000E+00  0.51735803099E+03  0.51735803099E+03  0.25500000920E-02 0.  1.
       -2   -1    0    0    0  501  0.00000000000E+00  0.00000000000E+00 -0.17548273358E+03  0.17548273360E+03  0.25500000920E-02 0. -1.
    10030    2    1    2    0    0  0.00000000000E+00  0.00000000000E+00  0.34187529741E+03  0.69284076459E+03  0.60261895598E+03 0.  0.
        5    1    3    3  502    0  0.13590892860E+03 -0.71465206300E+02  0.46894887089E+03  0.49347101849E+03  0.46999998093E+01 0.  1.
       -5    1    3    3    0  502 -0.13590892860E+03  0.71465206300E+02 -0.12707357348E+03  0.19936974610E+03  0.46999998093E+01 0. -1.
</event>
<event>
 5   0  0.2126207E-02  0.6016617E+03  0.7818609E-02  0.9901965E-01
       -2   -1    0    0    0  501  0.00000000000E+00  0.00000000000E+00  0.86214100302E+03  0.86214100302E+03  0.25500000920E-02 0. -1.
        2   -1    0    0  501    0  0.00000000000E+00  0.00000000000E+00 -0.10497029708E+03  0.10497029711E+03  0.25500000920E-02 0.  1.
    10030    2    1    2    0    0  0.00000000000E+00  0.00000000000E+00  0.75717070594E+03  0.96711130013E+03  0.60166168975E+03 0.  0.
        5    1    3    3  502    0 -0.78393001229E+02  0.26711112509E+03  0.56173939254E+03  0.62695059687E+03  0.46999998093E+01 0. -1.
       -5    1    3    3    0  502  0.78393001229E+02 -0.26711112509E+03  0.19543131340E+03  0.34016070326E+03  0.46999998093E+01 0.  1.
</event>
<event>
 5   0  0.1303808E-02  0.6046290E+03  0.7818609E-02  0.9895849E-01
        1   -1    0    0  501    0  0.00000000000E+00  0.00000000000E+00  0.12013446397E+04  0.12013446397E+04  0.50400001928E-02 0. -1.
       -1   -1    0    0    0  501  0.00000000000E+00  0.00000000000E+00 -0.76076465666E+02  0.76076465833E+02  0.50400001928E-02 0.  1.
    10030    2    1    2    0    0  0.00000000000E+00  0.00000000000E+00  0.11252681741E+04  0.12774211056E+04  0.60462899154E+03 0.  0.
        4    1    3    3  502    0  0.87500301283E+02  0.92303324461E+02  0.11420640046E+04  0.11491248887E+04  0.12699999809E+01 0. -1.
       -4    1    3    3    0  502 -0.87500301283E+02 -0.92303324461E+02 -0.16795830530E+02  0.12829621684E+03  0.12699999809E+01 0.  1.
</event>
<event>
 5   0  0.2142838E-02  0.5956810E+03  0.7818609E-02  0.9914407E-01
       -2   -1    0    0    0  501  0.00000000000E+00  0.00000000000E+00  0.23373855089E+03  0.23373855090E+03  0.25500000920E-02 0.  1.
        2   -1    0    0  501    0  0.00000000000E+00  0.00000000000E+00 -0.37952223161E+03  0.37952223161E+03  0.25500000920E-02 0. -1.
    10030    2    1    2    0    0  0.00000000000E+00  0.00000000000E+00 -0.14578368072E+03  0.61326078251E+03  0.59568104369E+03 0.  0.
        4    1    3    3  502    0 -0.94753765435E+02  0.19296044278E+03  0.13933589699E+03  0.25617984626E+03  0.12699999809E+01 0.  1.
       -4    1    3    3    0  502  0.94753765435E+02 -0.19296044278E+03 -0.28511957770E+03  0.35708093625E+03  0.12699999809E+01 0. -1.
</event>
<event>
 5   0  0.1276705E-02  0.5992065E+03  0.7818609E-02  0.9907054E-01
       -1   -1    0    0    0  501  0.00000000000E+00  0.00000000000E+00  0.13701912704E+03  0.13701912714E+03  0.50400001928E-02 0.  1.
        1   -1    0    0  501    0  0.00000000000E+00  0.00000000000E+00 -0.65510646449E+03  0.65510646451E+03  0.50400001928E-02 0. -1.
    10030    2    1    2    0    0  0.00000000000E+00  0.00000000000E+00 -0.51808733744E+03  0.79212559164E+03  0.59920652843E+03 0.  0.
        1    1    3    3  502    0 -0.20085880582E+03 -0.60874011238E+02  0.23596328993E+02  0.21120296372E+03  0.50400001928E-02 0.  1.
       -1    1    3    3    0  502  0.20085880582E+03  0.60874011238E+02 -0.54168366644E+03  0.58092262792E+03  0.50400001928E-02 0. -1.
</event>
<event>
 5   0  0.8551000E-03  0.5702743E+03  0.7818609E-02  0.9969072E-01
       -3   -1    0    0    0  501  0.00000000000E+00  0.00000000000E+00  0.60654532084E+02  0.60654616175E+02  0.10100000352E+00 0.  1.
        3   -1    0    0  501    0  0.00000000000E+00  0.00000000000E+00 -0.13404296542E+04  0.13404296580E+04  0.10100000352E+00 0. -1.
    10030    2    1    2    0    0  0.00000000000E+00  0.00000000000E+00 -0.12797751221E+04  0.14010842742E+04  0.57027430256E+03 0.  0.
        1    1    3    3  502    0  0.13482944592E+03 -0.14749286416E+01 -0.22623531028E+02  0.13672226989E+03  0.50400001928E-02 0.  1.
       -1    1    3    3    0  502 -0.13482944592E+03  0.14749286416E+01 -0.12571515911E+04  0.12643620043E+04  0.50400001928E-02 0. -1.
</event>
<event>
 5   0  0.1276705E-02  0.6027005E+03  0.7818609E-02  0.9899819E-01
        1   -1    0    0  501    0  0.00000000000E+00  0.00000000000E+00  0.13181348219E+04  0.13181348219E+04  0.50400001928E-02 0. -1.
       -1   -1    0    0    0  501  0.00000000000E+00  0.00000000000E+00 -0.68894305286E+02  0.68894305471E+02  0.50400001928E-02 0.  1.
    10030    2    1    2    0    0  0.00000000000E+00  0.00000000000E+00  0.12492405166E+04  0.13870291274E+04  0.60270053249E+03 0.  0.
        1    1    3    3  502    0 -0.13384594926E+03  0.18920047371E+03  0.18134504070E+03  0.29427466965E+03  0.50400001928E-02 0.  1.
       -1    1    3    3    0  502  0.13384594926E+03 -0.18920047371E+03  0.10678954759E+04  0.10927544577E+04  0.50400001928E-02 0. -1.
</event>
<event>
 5   0  0.1332555E-02  0.5595562E+03  0.7818609E-02  0.9993059E-01
        1   -1    0    0  501    0  0.00000000000E+00  0.00000000000E+00  0.96671632668E+02  0.96671632799E+02  0.50400001928E-02 0.  1.
       -1   -1    0    0    0  501  0.00000000000E+00  0.00000000000E+00 -0.80970788241E+03  0.80970788242E+03  0.50400001928E-02 0. -1.
    10030    2    1    2    0    0  0.00000000000E+00  0.00000000000E+00 -0.71303624974E+03  0.90637951522E+03  0.55955619215E+03 0.  0.
        2    1    3    3  502    0  0.24853862799E+02 -0.26252714603E+03 -0.50793058420E+03  0.57230384873E+03  0.25500000920E-02 0. -1.
       -2    1    3    3    0  502 -0.24853862799E+02  0.26252714603E+03 -0.20510566554E+03  0.33407566650E+03  0.25500000920E-02 0.  1.
</event>
<event>
 5   0  0.2142838E-02  0.5975919E+03  0.7818609E-02  0.9910415E-01
       -2   -1    0    0    0  501  0.00000000000E+00  0.00000000000E+00  0.40289041844E+03  0.40289041845E+03  0.25500000920E-02 0. -1.
        2   -1    0    0  501    0  0.00000000000E+00  0.00000000000E+00 -0.22159630712E+03  0.22159630713E+03  0.25500000920E-02 0.  1.
    10030    2    1    2    0    0  0.00000000000E+00  0.00000000000E+00  0.18129411132E+03  0.62448672559E+03  0.59759193070E+03 0.  0.
        4    1    3    3  502    0 -0.15000244572E+03 -0.57682385888E+02 -0.17258109391E+03  0.23582586423E+03  0.12699999809E+01 0.  1.
       -4    1    3    3    0  502  0.15000244572E+03  0.57682385888E+02  0.35387520524E+03  0.38866086135E+03  0.12699999809E+01 0. -1.
</event>
<event>
 5   0  0.1303808E-02  0.6046169E+03  0.7818609E-02  0.9895873E-01
       -1   -1    0    0    0  501  0.00000000000E+00  0.00000000000E+00  0.73282769372E+02  0.73282769545E+02  0.50400001928E-02 0. -1.
        1   -1    0    0  501    0  0.00000000000E+00  0.00000000000E+00 -0.12470926695E+04  0.12470926695E+04  0.50400001928E-02 0.  1.
    10030    2    1    2    0    0  0.00000000000E+00  0.00000000000E+00 -0.11738099001E+04  0.13203754390E+04  0.60461691873E+03 0.  0.
        4    1    3    3  502    0 -0.98807885453E+02 -0.13205703380E+03 -0.11401783339E+04  0.11520461381E+04  0.12699999809E+01 0.  1.
       -4    1    3    3    0  502  0.98807885453E+02  0.13205703380E+03 -0.33631566247E+02  0.16832930094E+03  0.12699999809E+01 0. -1.
</event>
<event>
 5   0  0.1276705E-02  0.6013122E+03  0.7818609E-02  0.9902687E-01
       -1   -1    0    0    0  501  0.00000000000E+00  0.00000000000E+00  0.12415010780E+03  0.12415010790E+03  0.50400001928E-02 0.  1.
        1   -1    0    0  501    0  0.00000000000E+00  0.00000000000E+00 -0.72810313368E+03  0.72810313370E+03  0.50400001928E-02 0. -1.
    10030    2    1    2    0    0  0.00000000000E+00  0.00000000000E+00 -0.60395302588E+03  0.85225324160E+03  0.60131217379E+03 0.  0.
        1    1    3    3  502    0 -0.18152514725E+03 -0.95174392345E+02 -0.61373764298E+03  0.64705752332E+03  0.50400001928E-02 0. -1.
       -1    1    3    3    0  502  0.18152514725E+03  0.95174392345E+02  0.97846171022E+01  0.20519571828E+03  0.50400001928E-02 0.  1.
</event>
<event>
 5   0  0.2179625E-02  0.5997373E+03  0.7818609E-02  0.9905951E-01
       -2   -1    0    0    0  501  0.00000000000E+00  0.00000000000E+00  0.10398707213E+04  0.10398707213E+04  0.25500000920E-02 0.  1.
        2   -1    0    0  501    0  0.00000000000E+00  0.00000000000E+00 -0.86473458765E+02  0.86473458803E+02  0.25500000920E-02 0. -1.
    10030    2    1    2    0    0  0.00000000000E+00  0.00000000000E+00  0.95339726252E+03  0.11263441801E+04  0.59973733571E+03 0.  0.
        1    1    3    3  502    0  0.89790393481E+02  0.24492494593E+03  0.75444034909E+03  0.79826736390E+03  0.50400001928E-02 0.  1.
       -1    1    3    3    0  502 -0.89790393481E+02 -0.24492494593E+03  0.19895691343E+03  0.32807681620E+03  0.50400001928E-02 0. -1.
</event>
<event>
 5   0  0.8551000E-03  0.5991275E+03  0.7818609E-02  0.9907218E-01
        3   -1    0    0  501    0  0.00000000000E+00  0.00000000000E+00  0.33842105751E+03  0.33842107258E+03  0.10100000352E+00 0. -1.
       -3   -1    0    0    0  501  0.00000000000E+00  0.00000000000E+00 -0.26516795319E+03  0.26516797242E+03  0.10100000352E+00 0.  1.
    10030    2    1    2    0    0  0.00000000000E+00  0.00000000000E+00  0.73253104318E+02  0.60358904500E+03  0.59912746386E+03 0.  0.
        5    1    3    3  502    0  0.33902313072E+02 -0.31577484329E+02 -0.26149912778E+03  0.26561323042E+03  0.46999998093E+01 0.  1.
       -5    1    3    3    0  502 -0.33902313072E+02  0.31577484329E+02  0.33475223210E+03  0.33797581458E+03  0.46999998093E+01 0. -1.
</event>
<event>
 5   0  0.2126207E-02  0.5987651E+03  0.7818609E-02  0.9907971E-01
       -2   -1    0    0    0  501  0.00000000000E+00  0.00000000000E+00  0.69184024319E+02  0.69184024366E+02  0.25500000920E-02 0. -1.
        2   -1    0    0  501    0  0.00000000000E+00  0.00000000000E+00 -0.12955288406E+04  0.12955288406E+04  0.25500000920E-02 0.  1.
    10030    2    1    2    0    0  0.00000000000E+00  0.00000000000E+00 -0.12263448163E+04  0.13647128650E+04  0.59876505860E+03 0.  0.
        5    1    3    3  502    0  0.19426583001E+03  0.17891765427E+03 -0.29199690684E+03  0.39374487085E+03  0.46999998093E+01 0. -1.
       -5    1    3    3    0  502 -0.19426583001E+03 -0.17891765427E+03 -0.93434790948E+03  0.97096799416E+03  0.46999998093E+01 0.  1.
</event>
<event>
 5   0  0.1303808E-02  0.6014188E+03  0.7818609E-02  0.9902467E-01
       -1   -1    0    0    0  501  0.00000000000E+00  0.00000000000E+00  0.25348812751E+03  0.25348812756E+03  0.50400001928E-02 0.  1.
        1   -1    0    0  501    0  0.00000000000E+00  0.00000000000E+00 -0.35672727937E+03  0.35672727941E+03  0.50400001928E-02 0. -1.
    10030    2    1    2    0    0  0.00000000000E+00  0.00000000000E+00 -0.10323915186E+03  0.61021540697E+03  0.60141875630E+03 0.  0.
        4    1    3    3  502    0 -0.21604362943E+03  0.78303191132E+02 -0.24841076698E+03  0.33840177543E+03  0.12699999809E+01 0. -1.
       -4    1    3    3    0  502  0.21604362943E+03 -0.78303191132E+02  0.14517161512E+03  0.27181363155E+03  0.12699999809E+01 0.  1.
</event>
<event>
 5   0  0.2142838E-02  0.6001456E+03  0.7818609E-02  0.9905104E-01
        2   -1    0    0  501    0  0.00000000000E+00  0.00000000000E+00  0.58283163324E+03  0.58283163324E+03  0.25500000920E-02 0. -1.
       -2   -1    0    0    0  501  0.00000000000E+00  0.00000000000E+00 -0.15449348689E+03  0.15449348691E+03  0.25500000920E-02 0.  1.
    10030    2    1    2    0    0  0.00000000000E+00  0.00000000000E+00  0.42833814635E+03  0.73732512015E+03  0.60014561999E+03 0.  0.
        4    1    3    3  502    0 -0.38003024256E+02  0.29511796893E+03  0.26180290663E+03  0.39633473259E+03  0.12699999809E+01 0.  1.
       -4    1    3    3    0  502  0.38003024256E+02 -0.29511796893E+03  0.16653523972E+03  0.34099038756E+03  0.12699999809E+01 0. -1.
</event>
<event>
 5   0  0.2141800E-02  0.5972366E+03  0.7818609E-02  0.9911156E-01
       -2   -1    0    0    0  501  0.00000000000E+00  0.00000000000E+00  0.55630903521E+02  0.55630903580E+02  0.25500000920E-02 0. -1.
        2   -1    0    0  501    0  0.00000000000E+00  0.00000000000E+00 -0.16029381107E+04  0.16029381107E+04  0.25500000920E-02 0.  1.
    10030    2    1    2    0    0  0.00000000000E+00  0.00000000000E+00 -0.15473072072E+04  0.16585690143E+04  0.59723662124E+03 0.  0.
        2    1    3    3  502    0 -0.26069605442E+03 -0.13407626104E+03 -0.93158133328E+03  0.97661796885E+03  0.25500000920E-02 0.  1.
       -2    1    3    3    0  502  0.26069605442E+03  0.13407626104E+03 -0.61572587389E+03  0.68195104542E+03  0.25500000920E-02 0. -1.
</event>
<event>
 5   0  0.1276705E-02  0.6010954E+03  0.7818609E-02  0.9903136E-01
        1   -1    0    0  501    0  0.00000000000E+00  0.00000000000E+00  0.39895588623E+03  0.39895588626E+03  0.50400001928E-02 0.  1.
       -1   -1    0    0    0  501  0.00000000000E+00  0.00000000000E+00 -0.22641333483E+03  0.22641333488E+03  0.50400001928E-02 0. -1.
    10030    2    1    2    0    0  0.00000000000E+00  0.00000000000E+00  0.17254255140E+03  0.62536922114E+03  0.60109544226E+03 0.  0.
        1    1    3    3  502    0  0.28968171906E+03  0.22078840482E+02  0.16636018743E+03  0.33478154899E+03  0.50400001928E-02 0. -1.
       -1    1    3    3    0  502 -0.28968171906E+03 -0.22078840482E+02  0.61823639692E+01  0.29058767215E+03  0.50400001928E-02 0.  1.
</event>
<event>
 5   0  0.2141800E-02  0.6022409E+03  0.7818609E-02  0.9900768E-01
       -2   -1    0    0    0  501  0.00000000000E+00  0.00000000000E+00  0.15249799105E+03  0.15249799107E+03  0.25500000920E-02 0.  1.
        2   -1    0    0  501    0  0.00000000000E+00  0.00000000000E+00 -0.59458830961E+03  0.59458830962E+03  0.25500000920E-02 0. -1.
    10030    2    1    2    0    0  0.00000000000E+00  0.00000000000E+00 -0.44209031857E+03  0.74708630069E+03  0.60224089109E+03 0.  0.
        2    1    3    3  502    0  0.54314173155E+02  0.29406273326E+03 -0.26491440136E+03  0.39950289179E+03  0.25500000920E-02 0. -1.
       -2    1    3    3    0  502 -0.54314173155E+02 -0.29406273326E+03 -0.17717591720E+03  0.34758340889E+03  0.25500000920E-02 0.  1.
</event>
<event>
 5   0  0.1332555E-02  0.5992445E+03  0.7818609E-02  0.9906975E-01
       -1   -1    0    0    0  501  0.00000000000E+00  0.00000000000E+00  0.93373814081E+02  0.93373814217E+02  0.50400001928E-02 0.  1.
        1   -1    0    0  501    0  0.00000000000E+00  0.00000000000E+00 -0.96144181991E+03  0.96144181992E+03  0.50400001928E-02 0. -1.
    10030    2    1    2    0    0  0.00000000000E+00  0.00000000000E+00 -0.86806800583E+03  0.10548156341E+04  0.59924449041E+03 0.  0.
        2    1    3    3  502    0  0.17112523581E+03 -0.20166558688E+02 -0.25664470076E+01  0.17232853239E+03  0.25500000920E-02 0.  1.
       -2    1    3    3    0  502 -0.17112523581E+03  0.20166558688E+02 -0.86550155882E+03  0.88248710175E+03  0.25500000920E-02 0. -1.
</event>
<event>
 5   0  0.1303808E-02  0.5998881E+03  0.7818609E-02  0.9905638E-01
        1   -1    0    0  501    0  0.00000000000E+00  0.00000000000E+00  0.47721029200E+03  0.47721029203E+03  0.50400001928E-02 0. -1.
       -1   -1    0    0    0  501  0.00000000000E+00  0.00000000000E+00 -0.18852575853E+03  0.18852575860E+03  0.50400001928E-02 0.  1.
    10030    2    1    2    0    0  0.00000000000E+00  0.00000000000E+00  0.28868453347E+03  0.66573605063E+03  0.59988809727E+03 0.  0.
        4    1    3    3  502    0 -0.28296419706E+03 -0.99438687366E+02  0.14119748179E+03  0.33150434556E+03  0.12699999809E+01 0. -1.
       -4    1    3    3    0  502  0.28296419706E+03  0.99438687366E+02  0.14748705168E+03  0.33423170507E+03  0.12699999809E+01 0.  1.
</event>
<event>
 5   0  0.2179625E-02  0.6015726E+03  0.7818609E-02  0.9902149E-01
       -2   -1    0    0    0  501  0.00000000000E+00  0.00000000000E+00  0.60445299781E+02  0.60445299835E+02  0.25500000920E-02 0.  1.
        2   -1    0    0  501    0  0.00000000000E+00  0.00000000000E+00 -0.14967648628E+04  0.14967648628E+04  0.25500000920E-02 0. -1.
    10030    2    1    2    0    0  0.00000000000E+00  0.00000000000E+00 -0.14363195630E+04  0.15572101626E+04  0.60157260867E+03 0.  0.
        1    1    3    3  502    0  0.28239917932E+03 -0.55820831100E+02 -0.94393166553E+03  0.98684965972E+03  0.50400001928E-02 0. -1.
       -1    1    3    3    0  502 -0.28239917932E+03  0.55820831100E+02 -0.49238789745E+03  0.57036050288E+03  0.50400001928E-02 0.  1.
</event>
<event>
 5   0  0.2141800E-02  0.5996225E+03  0.7818609E-02  0.9906190E-01
        2   -1    0    0  501    0  0.00000000000E+00  0.00000000000E+00  0.15070139498E+04  0.15070139498E+04  0.25500000920E-02 0. -1.
       -2   -1    0    0    0  501  0.00000000000E+00  0.00000000000E+00 -0.59645615126E+02  0.59645615181E+02  0.25500000920E-02 0.  1.
    10030    2    1    2    0    0  0.00000000000E+00  0.00000000000E+00  0.14473683347E+04  0.15666595650E+04  0.59962246150E+03 0.  0.
        2    1    3    3  502    0  0.16735124926E+03 -0.89882745831E+02  0.13297134828E+04  0.13432137935E+04  0.25500000920E-02 0. -1.
       -2    1    3    3    0  502 -0.16735124926E+03  0.89882745831E+02  0.11765485186E+03  0.22344577150E+03  0.25500000920E-02 0.  1.
</event>
<event>
 5   0  0.1276705E-02  0.5938604E+03  0.7818609E-02  0.9918226E-01
       -1   -1    0    0    0  501  0.00000000000E+00  0.00000000000E+00  0.47202991668E+03  0.47202991671E+03  0.50400001928E-02 0.  1.
        1   -1    0    0  501    0  0.00000000000E+00  0.00000000000E+00 -0.18678380422E+03  0.18678380429E+03  0.50400001928E-02 0. -1.
    10030    2    1    2    0    0  0.00000000000E+00  0.00000000000E+00  0.28524611246E+03  0.65881372099E+03  0.59386039967E+03 0.  0.
        1    1    3    3  502    0  0.24839973768E+03 -0.38125490416E+02 -0.32825042672E+02  0.25344322077E+03  0.50400001928E-02 0. -1.
       -1    1    3    3    0  502 -0.24839973768E+03  0.38125490416E+02  0.31807115513E+03  0.40537050023E+03  0.50400001928E-02 0.  1.
</event>
<event>
 5   0  0.1332555E-02  0.5993174E+03  0.7818609E-02  0.9906823E-01
       -1   -1    0    0    0  501  0.00000000000E+00  0.00000000000E+00  0.61940000924E+02  0.61940001129E+02  0.50400001928E-02 0. -1.
        1   -1    0    0  501    0  0.00000000000E+00  0.00000000000E+00 -0.14497148967E+04  0.14497148967E+04  0.50400001928E-02 0.  1.
    10030    2    1    2    0    0  0.00000000000E+00  0.00000000000E+00 -0.13877748958E+04  0.15116548978E+04  0.59931741907E+03 0.  0.
        2    1    3    3  502    0  0.25063733977E+03  0.16396149983E+03 -0.66957736164E+03  0.73350957236E+03  0.25500000920E-02 0. -1.
       -2    1    3    3    0  502 -0.25063733977E+03 -0.16396149983E+03 -0.71819753412E+03  0.77814532546E+03  0.25500000920E-02 0.  1.
</event>
<event>
 5   0  0.2179625E-02  0.6006761E+03  0.7818609E-02  0.9904004E-01
       -2   -1    0    0    0  501  0.00000000000E+00  0.00000000000E+00  0.10473018569E+03  0.10473018572E+03  0.25500000920E-02 0. -1.
        2   -1    0    0  501    0  0.00000000000E+00  0.00000000000E+00 -0.86128884056E+03  0.86128884057E+03  0.25500000920E-02 0.  1.
    10030    2    1    2    0    0  0.00000000000E+00  0.00000000000E+00 -0.75655865488E+03  0.96601902628E+03  0.60067608648E+03 0.  0.
        1    1    3    3  502    0  0.45781336950E+02  0.26119716570E+02 -0.85379253733E+03  0.85541794886E+03  0.50400001928E-02 0.  1.
       -1    1    3    3    0  502 -0.45781336950E+02 -0.26119716570E+02  0.97233882449E+02  0.11060107743E+03  0.50400001928E-02 0. -1.
</event>
<event>
 5   0  0.1332555E-02  0.5999719E+03  0.7818609E-02  0.9905464E-01
        1   -1    0    0  501    0  0.00000000000E+00  0.00000000000E+00  0.56923570960E+03  0.56923570962E+03  0.50400001928E-02 0.  1.
       -1   -1    0    0    0  501  0.00000000000E+00  0.00000000000E+00 -0.15809190539E+03  0.15809190547E+03  0.50400001928E-02 0. -1.
    10030    2    1    2    0    0  0.00000000000E+00  0.00000000000E+00  0.41114380421E+03  0.72732761509E+03  0.59997185928E+03 0.  0.
        2    1    3    3  502    0  0.11637135818E+03 -0.61892583182E+02  0.53225228185E+03  0.54832971505E+03  0.25500000920E-02 0.  1.
       -2    1    3    3    0  502 -0.11637135818E+03  0.61892583182E+02 -0.12110847764E+03  0.17899790005E+03  0.25500000920E-02 0. -1.
</event>
<event>
 5   0  0.1276705E-02  0.5966066E+03  0.7818609E-02  0.9912471E-01
        1   -1    0    0  501    0  0.00000000000E+00  0.00000000000E+00  0.57686849616E+03  0.57686849619E+03  0.50400001928E-02 0.  1.
       -1   -1    0    0    0  501  0.00000000000E+00  0.00000000000E+00 -0.15425501975E+03  0.15425501984E+03  0.50400001928E-02 0. -1.
    10030    2    1    2    0    0  0.00000000000E+00  0.00000000000E+00  0.42261347641E+03  0.73112351602E+03  0.59660660844E+03 0.  0.
        1    1    3    3  502    0 -0.65403398007E+02 -0.24143140991E+03  0.12123064122E+02  0.25042703302E+03  0.50400001928E-02 0. -1.
       -1    1    3    3    0  502  0.65403398007E+02  0.24143140991E+03  0.41049041229E+03  0.48069648300E+03  0.50400001928E-02 0.  1.
</event>
<event>
 5   0  0.8551000E-03  0.5988680E+03  0.7818609E-02  0.9907757E-01
        3   -1    0    0  501    0  0.00000000000E+00  0.00000000000E+00  0.62178231850E+03  0.62178232670E+03  0.10100000352E+00 0. -1.
       -3   -1    0    0    0  501  0.00000000000E+00  0.00000000000E+00 -0.14419950950E+03  0.14419954487E+03  0.10100000352E+00 0.  1.
    10030    2    1    2    0    0  0.00000000000E+00  0.00000000000E+00  0.47758280900E+03  0.76598187158E+03  0.59886800560E+03 0.  0.
        5    1    3    3  502    0  0.10856193363E+02 -0.16042416479E+03  0.56182388435E+03  0.58439878217E+03  0.46999998093E+01 0. -1.
       -5    1    3    3    0  502 -0.10856193363E+02  0.16042416479E+03 -0.84241075349E+02  0.18158308940E+03  0.46999998093E+01 0.  1.
</event>
<event>
 5   0  0.2142838E-02  0.5966289E+03  0.7818609E-02  0.9912425E-01
       -2   -1    0    0    0  501  0.00000000000E+00  0.00000000000E+00  0.13826817879E+03  0.13826817882E+03  0.25500000920E-02 0. -1.
        2   -1    0    0  501    0  0.00000000000E+00  0.00000000000E+00 -0.64361516640E+03  0.64361516640E+03  0.25500000920E-02 0.  1.
    10030    2    1    2    0    0  0.00000000000E+00  0.00000000000E+00 -0.50534698761E+03  0.78188334522E+03  0.59662885251E+03 0.  0.
        4    1    3    3  502    0  0.88428043377E+02  0.27881558927E+03 -0.32944959427E+03  0.44056361600E+03  0.12699999809E+01 0.  1.
       -4    1    3    3    0  502 -0.88428043377E+02 -0.27881558927E+03 -0.17589739334E+03  0.34131972922E+03  0.12699999809E+01 0. -1.
</event>
<event>
 5   0  0.2142838E-02  0.5998233E+03  0.7818609E-02  0.9905773E-01
        2   -1    0    0  501    0  0.00000000000E+00  0.00000000000E+00  0.37413757265E+03  0.37413757266E+03  0.25500000920E-02 0.  1.
       -2   -1    0    0    0  501  0.00000000000E+00  0.00000000000E+00 -0.24041158793E+03  0.24041158795E+03  0.25500000920E-02 0. -1.
    10030    2    1    2    0    0  0.00000000000E+00  0.00000000000E+00  0.13372598472E+03  0.61454916060E+03  0.59982333383E+03 0.  0.
        4    1    3    3  502    0 -0.28558482333E+03  0.84341326799E+02  0.10342155805E+03  0.31522972939E+03  0.12699999809E+01 0.  1.
       -4    1    3    3    0  502  0.28558482333E+03 -0.84341326799E+02  0.30304426671E+02  0.29931943121E+03  0.12699999809E+01 0. -1.
</event>
<event>
 5   0  0.2142838E-02  0.5988248E+03  0.7818609E-02  0.9907847E-01
       -2   -1    0    0    0  501  0.00000000000E+00  0.00000000000E+00  0.16872179650E+03  0.16872179652E+03  0.25500000920E-02 0. -1.
        2   -1    0    0  501    0  0.00000000000E+00  0.00000000000E+00 -0.53133485572E+03  0.53133485572E+03  0.25500000920E-02 0.  1.
    10030    2    1    2    0    0  0.00000000000E+00  0.00000000000E+00 -0.36261305921E+03  0.70005665225E+03  0.59882475370E+03 0.  0.
        4    1    3    3  502    0 -0.18261202718E+02 -0.17967759205E+03  0.97870696233E+02  0.20542101813E+03  0.12699999809E+01 0. -1.
       -4    1    3    3    0  502  0.18261202718E+02  0.17967759205E+03 -0.46048375544E+03  0.49463563411E+03  0.12699999809E+01 0.  1.
</event>
<event>
 5   0  0.2092587E-02  0.6085107E+03  0.7818609E-02  0.9887905E-01
        2   -1    0    0  501    0  0.00000000000E+00  0.00000000000E+00  0.16335551663E+04  0.16335551663E+04  0.25500000920E-02 0.  1.
       -2   -1    0    0    0  501  0.00000000000E+00  0.00000000000E+00 -0.56668628566E+02  0.56668628623E+02  0.25500000920E-02 0. -1.
    10030    2    1    2    0    0  0.00000000000E+00  0.00000000000E+00  0.15768865378E+04  0.16902237949E+04  0.60851074276E+03 0.  0.
        3    1    3    3  502    0 -0.26441441075E+02  0.16466007793E+02 -0.52227927672E+02  0.60811560156E+02  0.10100000352E+00 0. -1.
       -3    1    3    3    0  502  0.26441441075E+02 -0.16466007793E+02  0.16291144654E+04  0.16294122348E+04  0.10100000352E+00 0.  1.
</event>
<event>
 5   0  0.1276705E-02  0.6406649E+03  0.7818609E-02  0.9824455E-01
       -1   -1    0    0    0  501  0.00000000000E+00  0.00000000000E+00  0.17202194437E+03  0.17202194444E+03  0.50400001928E-02 0.  1.
        1   -1    0    0  501    0  0.00000000000E+00  0.00000000000E+00 -0.59651039261E+03  0.59651039263E+03  0.50400001928E-02 0. -1.
    10030    2    1    2    0    0  0.00000000000E+00  0.00000000000E+00 -0.42448844824E+03  0.76853233707E+03  0.64066489714E+03 0.  0.
        1    1    3    3  502    0 -0.25368308240E+03  0.15142529787E+03 -0.36076119878E+03  0.46629751200E+03  0.50400001928E-02 0. -1.
       -1    1    3    3    0  502  0.25368308240E+03 -0.15142529787E+03 -0.63727249465E+02  0.30223482506E+03  0.50400001928E-02 0.  1.
</event>
<event>
 5   0  0.2141800E-02  0.5950268E+03  0.7818609E-02  0.9915778E-01
        2   -1    0    0  501    0  0.00000000000E+00  0.00000000000E+00  0.12003735993E+04  0.12003735993E+04  0.25500000920E-02 0.  1.
       -2   -1    0    0    0  501  0.00000000000E+00  0.00000000000E+00 -0.73738903497E+02  0.73738903541E+02  0.25500000920E-02 0. -1.
    10030    2    1    2    0    0  0.00000000000E+00  0.00000000000E+00  0.11266346958E+04  0.12741125028E+04  0.59502683310E+03 0.  0.
        2    1    3    3  502    0 -0.15415736468E+03 -0.80531499523E+02  0.46457338603E+02  0.18002249808E+03  0.25500000920E-02 0. -1.
       -2    1    3    3    0  502  0.15415736468E+03  0.80531499523E+02  0.10801773572E+04  0.10940900047E+04  0.25500000920E-02 0.  1.
</event>
<event>
 5   0  0.2179625E-02  0.6027443E+03  0.7818609E-02  0.9899729E-01
        2   -1    0    0  501    0  0.00000000000E+00  0.00000000000E+00  0.53202916159E+03  0.53202916159E+03  0.25500000920E-02 0.  1.
       -2   -1    0    0    0  501  0.00000000000E+00  0.00000000000E+00 -0.17071463550E+03  0.17071463552E+03  0.25500000920E-02 0. -1.
    10030    2    1    2    0    0  0.00000000000E+00  0.00000000000E+00  0.36131452609E+03  0.70274379711E+03  0.60274427215E+03 0.  0.
        1    1    3    3  502    0  0.33326720602E+02 -0.22768495181E+03 -0.46242917768E+02  0.23471155714E+03  0.50400001928E-02 0. -1.
       -1    1    3    3    0  502 -0.33326720602E+02  0.22768495181E+03  0.40755744386E+03  0.46803223997E+03  0.50400001928E-02 0.  1.
</event>
<event>
 5   0  0.1332555E-02  0.6001977E+03  0.7818609E-02  0.9904996E-01
        1   -1    0    0  501    0  0.00000000000E+00  0.00000000000E+00  0.54463819725E+03  0.54463819728E+03  0.50400001928E-02 0.  1.
       -1   -1    0    0    0  501  0.00000000000E+00  0.00000000000E+00 -0.16535625177E+03  0.16535625185E+03  0.50400001928E-02 0. -1.
    10030    2    1    2    0    0  0.00000000000E+00  0.00000000000E+00  0.37928194548E+03  0.70999444913E+03  0.60019773710E+03 0.  0.
        2    1    3    3  502    0  0.13723815199E+03  0.63533513870E+02  0.49626636365E+03  0.51879776545E+03  0.25500000920E-02 0.  1.
       -2    1    3    3    0  502 -0.13723815199E+03 -0.63533513870E+02 -0.11698441817E+03  0.19119668367E+03  0.25500000920E-02 0. -1.
</event>
<event>
 5   0  0.1332555E-02  0.5989823E+03  0.7818609E-02  0.9907520E-01
       -1   -1    0    0    0  501  0.00000000000E+00  0.00000000000E+00  0.63763097641E+02  0.63763097840E+02  0.50400001928E-02 0. -1.
        1   -1    0    0  501    0  0.00000000000E+00  0.00000000000E+00 -0.14066907523E+04  0.14066907523E+04  0.50400001928E-02 0.  1.
    10030    2    1    2    0    0  0.00000000000E+00  0.00000000000E+00 -0.13429276546E+04  0.14704538501E+04  0.59898233677E+03 0.  0.
        2    1    3    3  502    0  0.68669917791E+02 -0.11236128117E+03 -0.13318069980E+04  0.13383013468E+04  0.25500000920E-02 0.  1.
       -2    1    3    3    0  502 -0.68669917791E+02  0.11236128117E+03 -0.11120656673E+02  0.13215250329E+03  0.25500000920E-02 0. -1.
</event>
<event>
 5   0  0.2179625E-02  0.6009489E+03  0.7818609E-02  0.9903439E-01
       -2   -1    0    0    0  501  0.00000000000E+00  0.00000000000E+00  0.52427170598E+02  0.52427170660E+02  0.25500000920E-02 0.  1.
        2   -1    0    0  501    0  0.00000000000E+00  0.00000000000E+00 -0.17221009775E+04  0.17221009775E+04  0.25500000920E-02 0. -1.
    10030    2    1    2    0    0  0.00000000000E+00  0.00000000000E+00 -0.16696738069E+04  0.17745281481E+04  0.60094885570E+03 0.  0.
        1    1    3    3  502    0  0.11062043614E+03  0.12213359064E+03 -0.92898168401E+02  0.18916544233E+03  0.50400001928E-02 0.  1.
       -1    1    3    3    0  502 -0.11062043614E+03 -0.12213359064E+03 -0.15767756385E+04  0.15853627058E+04  0.50400001928E-02 0. -1.
</event>
<event>
 5   0  0.2142838E-02  0.6027317E+03  0.7818609E-02  0.9899755E-01
       -2   -1    0    0    0  501  0.00000000000E+00  0.00000000000E+00  0.21762550171E+03  0.21762550173E+03  0.25500000920E-02 0.  1.
        2   -1    0    0  501    0  0.00000000000E+00  0.00000000000E+00 -0.41732876259E+03  0.41732876260E+03  0.25500000920E-02 0. -1.
    10030    2    1    2    0    0  0.00000000000E+00  0.00000000000E+00 -0.19970326088E+03  0.63495426432E+03  0.60273171924E+03 0.  0.
        4    1    3    3  502    0  0.80640446791E+02 -0.75583950241E+02  0.19550082885E+03  0.22458406483E+03  0.12699999809E+01 0.  1.
       -4    1    3    3    0  502 -0.80640446791E+02  0.75583950241E+02 -0.39520408973E+03  0.41037019950E+03  0.12699999809E+01 0. -1.
</event>
<event>
 5   0  0.2142838E-02  0.6016237E+03  0.7818609E-02  0.9902043E-01
        2   -1    0    0  501    0  0.00000000000E+00  0.00000000000E+00  0.12826474168E+04  0.12826474168E+04  0.25500000920E-02 0.  1.
       -2   -1    0    0    0  501  0.00000000000E+00  0.00000000000E+00 -0.70547659962E+02  0.70547660008E+02  0.25500000920E-02 0. -1.
    10030    2    1    2    0    0  0.00000000000E+00  0.00000000000E+00  0.12120997568E+04  0.13531950768E+04  0.60162371576E+03 0.  0.
        4    1    3    3  502    0 -0.14945001320E+03 -0.15913026105E+03  0.10715303441E+04  0.10935431576E+04  0.12699999809E+01 0.  1.
       -4    1    3    3    0  502  0.14945001320E+03  0.15913026105E+03  0.14056941275E+03  0.25965191917E+03  0.12699999809E+01 0. -1.
</event>
<event>
 5   0  0.1250390E-02  0.6010153E+03  0.7818609E-02  0.9903302E-01
        1   -1    0    0  501    0  0.00000000000E+00  0.00000000000E+00  0.10453350024E+04  0.10453350024E+04  0.50400001928E-02 0. -1.
       -1   -1    0    0    0  501  0.00000000000E+00  0.00000000000E+00 -0.86388440937E+02  0.86388441084E+02  0.50400001928E-02 0.  1.
    10030    2    1    2    0    0  0.00000000000E+00  0.00000000000E+00  0.95894656150E+03  0.11317234435E+04  0.60101534492E+03 0.  0.
        3    1    3    3  502    0  0.13774840563E+03 -0.47539549156E+02  0.97435358369E+03  0.98519010766E+03  0.10100000352E+00 0. -1.
       -3    1    3    3    0  502 -0.13774840563E+03  0.47539549156E+02 -0.15407022189E+02  0.14653333587E+03  0.10100000352E+00 0.  1.
</event>
<event>
 5   0  0.8551000E-03  0.6065580E+03  0.7818609E-02  0.9891893E-01
       -3   -1    0    0    0  501  0.00000000000E+00  0.00000000000E+00  0.10316885334E+03  0.10316890278E+03  0.10100000352E+00 0. -1.
        3   -1    0    0  501    0  0.00000000000E+00  0.00000000000E+00 -0.89153005855E+03  0.89153006427E+03  0.10100000352E+00 0.  1.
    10030    2    1    2    0    0  0.00000000000E+00  0.00000000000E+00 -0.78836120521E+03  0.99469896705E+03  0.60655803116E+03 0.  0.
        4    1    3    3  502    0 -0.24084892301E+03  0.36934607893E+02 -0.98068644118E+02  0.26266221813E+03  0.12699999809E+01 0. -1.
       -4    1    3    3    0  502  0.24084892301E+03 -0.36934607893E+02 -0.69029256109E+03  0.73203674892E+03  0.12699999809E+01 0.  1.
</event>
<event>
 5   0  0.1250390E-02  0.5995020E+03  0.7818609E-02  0.9906440E-01
       -1   -1    0    0    0  501  0.00000000000E+00  0.00000000000E+00  0.84935174784E+02  0.84935174934E+02  0.50400001928E-02 0. -1.
        1   -1    0    0  501    0  0.00000000000E+00  0.00000000000E+00 -0.10578734554E+04  0.10578734555E+04  0.50400001928E-02 0.  1.
    10030    2    1    2    0    0  0.00000000000E+00  0.00000000000E+00 -0.97293828066E+03  0.11428086304E+04  0.59950201644E+03 0.  0.
        3    1    3    3  502    0  0.18483753499E+03 -0.20702198729E+03 -0.70237092424E+03  0.75521383924E+03  0.10100000352E+00 0.  1.
       -3    1    3    3    0  502 -0.18483753499E+03  0.20702198729E+03 -0.27056735642E+03  0.38759479115E+03  0.10100000352E+00 0. -1.
</event>
<event>
 5   0  0.2141800E-02  0.6056926E+03  0.7818609E-02  0.9893666E-01
       -2   -1    0    0    0  501  0.00000000000E+00  0.00000000000E+00  0.13913544017E+03  0.13913544019E+03  0.25500000920E-02 0. -1.
        2   -1    0    0  501    0  0.00000000000E+00  0.00000000000E+00 -0.65918414183E+03  0.65918414184E+03  0.25500000920E-02 0.  1.
    10030    2    1    2    0    0  0.00000000000E+00  0.00000000000E+00 -0.52004870166E+03  0.79831958203E+03  0.60569258123E+03 0.  0.
        2    1    3    3  502    0 -0.21752215025E+03 -0.10084935284E+03 -0.16173565839E+02  0.24030826465E+03  0.25500000920E-02 0. -1.
       -2    1    3    3    0  502  0.21752215025E+03  0.10084935284E+03 -0.50387513583E+03  0.55801131739E+03  0.25500000920E-02 0.  1.
</event>
<event>
 5   0  0.1332555E-02  0.5896277E+03  0.7818609E-02  0.9927162E-01
       -1   -1    0    0    0  501  0.00000000000E+00  0.00000000000E+00  0.11936000237E+03  0.11936000248E+03  0.50400001928E-02 0. -1.
        1   -1    0    0  501    0  0.00000000000E+00  0.00000000000E+00 -0.72817708571E+03  0.72817708573E+03  0.50400001928E-02 0.  1.
    10030    2    1    2    0    0  0.00000000000E+00  0.00000000000E+00 -0.60881708334E+03  0.84753708821E+03  0.58962774267E+03 0.  0.
        2    1    3    3  502    0  0.28686488893E+03  0.34483822804E+02 -0.38864889153E+03  0.48428148780E+03  0.25500000920E-02 0.  1.
       -2    1    3    3    0  502 -0.28686488893E+03 -0.34483822804E+02 -0.22016819181E+03  0.36325560040E+03  0.25500000920E-02 0. -1.
</event>
<event>
 5   0  0.1332555E-02  0.5984459E+03  0.7818609E-02  0.9908636E-01
        1   -1    0    0  501    0  0.00000000000E+00  0.00000000000E+00  0.67100535680E+03  0.67100535682E+03  0.50400001928E-02 0.  1.
       -1   -1    0    0    0  501  0.00000000000E+00  0.00000000000E+00 -0.13343317103E+03  0.13343317112E+03  0.50400001928E-02 0. -1.
    10030    2    1    2    0    0  0.00000000000E+00  0.00000000000E+00  0.53757218577E+03  0.80443852794E+03  0.59844589590E+03 0.  0.
        2    1    3    3  502    0  0.15251189379E+03  0.11111264317E+03  0.58094594102E+03  0.61082246489E+03  0.25500000920E-02 0.  1.
       -2    1    3    3    0  502 -0.15251189379E+03 -0.11111264317E+03 -0.43373755249E+02  0.19361606305E+03  0.25500000920E-02 0. -1.
</event>
<event>
 5   0  0.1276705E-02  0.6013895E+03  0.7818609E-02  0.9902528E-01
        1   -1    0    0  501    0  0.00000000000E+00  0.00000000000E+00  0.17195508141E+04  0.17195508141E+04  0.50400001928E-02 0. -1.
       -1   -1    0    0    0  501  0.00000000000E+00  0.00000000000E+00 -0.52581940443E+02  0.52581940684E+02  0.50400001928E-02 0.  1.
    10030    2    1    2    0    0  0.00000000000E+00  0.00000000000E+00  0.16669688737E+04  0.17721327548E+04  0.60138945357E+03 0.  0.
        1    1    3    3  502    0 -0.21562360434E+02 -0.26738473667E+03  0.43314327316E+03  0.50948270618E+03  0.50400001928E-02 0.  1.
       -1    1    3    3    0  502  0.21562360434E+02  0.26738473667E+03  0.12338256005E+04  0.12626500486E+04  0.50400001928E-02 0. -1.
</event>
<event>
 5   0  0.2141800E-02  0.6010599E+03  0.7818609E-02  0.9903209E-01
       -2   -1    0    0    0  501  0.00000000000E+00  0.00000000000E+00  0.28688546511E+03  0.28688546512E+03  0.25500000920E-02 0. -1.
        2   -1    0    0  501    0  0.00000000000E+00  0.00000000000E+00 -0.31482340723E+03  0.31482340724E+03  0.25500000920E-02 0.  1.
    10030    2    1    2    0    0  0.00000000000E+00  0.00000000000E+00 -0.27937942122E+02  0.60170887236E+03  0.60105992918E+03 0.  0.
        2    1    3    3  502    0 -0.42520835972E+02 -0.29226477166E+03 -0.69630633107E+02  0.30343886258E+03  0.25500000920E-02 0.  1.
       -2    1    3    3    0  502  0.42520835972E+02  0.29226477166E+03  0.41692690986E+02  0.29827000978E+03  0.25500000920E-02 0. -1.
</event>
<event>
 5   0  0.2142838E-02  0.5999017E+03  0.7818609E-02  0.9905610E-01
       -2   -1    0    0    0  501  0.00000000000E+00  0.00000000000E+00  0.12884373543E+03  0.12884373545E+03  0.25500000920E-02 0.  1.
        2   -1    0    0  501    0  0.00000000000E+00  0.00000000000E+00 -0.69829173563E+03  0.69829173564E+03  0.25500000920E-02 0. -1.
    10030    2    1    2    0    0  0.00000000000E+00  0.00000000000E+00 -0.56944800020E+03  0.82713547109E+03  0.59990171078E+03 0.  0.
        4    1    3    3  502    0  0.18263993567E+02  0.14641612944E+02 -0.69702671154E+03  0.69742081973E+03  0.12699999809E+01 0. -1.
       -4    1    3    3    0  502 -0.18263993567E+02 -0.14641612944E+02  0.12757871134E+03  0.12971465136E+03  0.12699999809E+01 0.  1.
</event>
<event>
 5   0  0.1276705E-02  0.5973439E+03  0.7818609E-02  0.9910932E-01
        1   -1    0    0  501    0  0.00000000000E+00  0.00000000000E+00  0.11450111878E+04  0.11450111878E+04  0.50400001928E-02 0.  1.
       -1   -1    0    0    0  501  0.00000000000E+00  0.00000000000E+00 -0.77907482798E+02  0.77907482961E+02  0.50400001928E-02 0. -1.
    10030    2    1    2    0    0  0.00000000000E+00  0.00000000000E+00  0.10671037050E+04  0.12229186708E+04  0.59734391945E+03 0.  0.
        1    1    3    3  502    0 -0.15252092155E+03 -0.15482268425E+03  0.11412693766E+03  0.24547434285E+03  0.50400001928E-02 0. -1.
       -1    1    3    3    0  502  0.15252092155E+03  0.15482268425E+03  0.95297676737E+03  0.97744432795E+03  0.50400001928E-02 0.  1.
</event>
<event>
 5   0  0.2179625E-02  0.5972313E+03  0.7818609E-02  0.9911167E-01
        2   -1    0    0  501    0  0.00000000000E+00  0.00000000000E+00  0.29564458463E+03  0.29564458464E+03  0.25500000920E-02 0.  1.
       -2   -1    0    0    0  501  0.00000000000E+00  0.00000000000E+00 -0.30161653291E+03  0.30161653292E+03  0.25500000920E-02 0. -1.
    10030    2    1    2    0    0  0.00000000000E+00  0.00000000000E+00 -0.59719482842E+01  0.59726111756E+03  0.59723126038E+03 0.  0.
        1    1    3    3  502    0  0.21757365949E+03  0.51619440406E+02 -0.20090602619E+03  0.30060953963E+03  0.50400001928E-02 0. -1.
       -1    1    3    3    0  502 -0.21757365949E+03 -0.51619440406E+02  0.19493407790E+03  0.29665157793E+03  0.50400001928E-02 0.  1.
</event>
<event>
 5   0  0.1332555E-02  0.5962934E+03  0.7818609E-02  0.9913126E-01
        1   -1    0    0  501    0  0.00000000000E+00  0.00000000000E+00  0.24849647282E+04  0.24849647283E+04  0.50400001928E-02 0.  1.
       -1   -1    0    0    0  501  0.00000000000E+00  0.00000000000E+00 -0.35771717389E+02  0.35771717744E+02  0.50400001928E-02 0. -1.
    10030    2    1    2    0    0  0.00000000000E+00  0.00000000000E+00  0.24491930109E+04  0.25207364460E+04  0.59629340575E+03 0.  0.
        2    1    3    3  502    0 -0.28579110097E+03 -0.43730036663E+02  0.15324267819E+04  0.15594616736E+04  0.25500000920E-02 0.  1.
       -2    1    3    3    0  502  0.28579110097E+03  0.43730036663E+02  0.91676622898E+03  0.96127477243E+03  0.25500000920E-02 0. -1.
</event>
<event>
 5   0  0.1303808E-02  0.5990960E+03  0.7818609E-02  0.9907283E-01
       -1   -1    0    0    0  501  0.00000000000E+00  0.00000000000E+00  0.30840281239E+03  0.30840281243E+03  0.50400001928E-02 0.  1.
        1   -1    0    0  501    0  0.00000000000E+00  0.00000000000E+00 -0.29094747154E+03  0.29094747158E+03  0.50400001928E-02 0. -1.
    10030    2    1    2    0    0  0.00000000000E+00  0.00000000000E+00  0.17455340853E+02  0.59935028402E+03  0.59909604741E+03 0.  0.
        4    1    3    3  502    0 -0.22895621823E+03  0.15428036254E+03 -0.10752846589E+03  0.29628932483E+03  0.12699999809E+01 0. -1.
       -4    1    3    3    0  502  0.22895621823E+03 -0.15428036254E+03  0.12498380675E+03  0.30306095918E+03  0.12699999809E+01 0.  1.
</event>
<event>
 5   0  0.1276705E-02  0.5988628E+03  0.7818609E-02  0.9907768E-01
        1   -1    0    0  501    0  0.00000000000E+00  0.00000000000E+00  0.27455248103E+03  0.27455248107E+03  0.50400001928E-02 0. -1.
       -1   -1    0    0    0  501  0.00000000000E+00  0.00000000000E+00 -0.32656469918E+03  0.32656469922E+03  0.50400001928E-02 0.  1.
    10030    2    1    2    0    0  0.00000000000E+00  0.00000000000E+00 -0.52012218151E+02  0.60111718029E+03  0.59886275022E+03 0.  0.
        1    1    3    3  502    0 -0.19626711342E+03  0.21507627039E+03  0.44117935403E+02  0.29449104255E+03  0.50400001928E-02 0.  1.
       -1    1    3    3    0  502  0.19626711342E+03 -0.21507627039E+03 -0.96130153554E+02  0.30662613774E+03  0.50400001928E-02 0. -1.
</event>
<event>
 5   0  0.1276705E-02  0.6001909E+03  0.7818609E-02  0.9905010E-01
       -1   -1    0    0    0  501  0.00000000000E+00  0.00000000000E+00  0.49663510169E+03  0.49663510171E+03  0.50400001928E-02 0. -1.
        1   -1    0    0  501    0  0.00000000000E+00  0.00000000000E+00 -0.18133492335E+03  0.18133492342E+03  0.50400001928E-02 0.  1.
    10030    2    1    2    0    0  0.00000000000E+00  0.00000000000E+00  0.31530017834E+03  0.67797002513E+03  0.60019093005E+03 0.  0.
        1    1    3    3  502    0 -0.12560640480E+03  0.26137052586E+03  0.70402341849E+02  0.29840913270E+03  0.50400001928E-02 0. -1.
       -1    1    3    3    0  502  0.12560640480E+03 -0.26137052586E+03  0.24489783649E+03  0.37956089243E+03  0.50400001928E-02 0.  1.
</event>
<event>
 5   0  0.1276705E-02  0.5986213E+03  0.7818609E-02  0.9908271E-01
       -1   -1    0    0    0  501  0.00000000000E+00  0.00000000000E+00  0.14685663289E+03  0.14685663297E+03  0.50400001928E-02 0. -1.
        1   -1    0    0  501    0  0.00000000000E+00  0.00000000000E+00 -0.61002935657E+03  0.61002935659E+03  0.50400001928E-02 0.  1.
    10030    2    1    2    0    0  0.00000000000E+00  0.00000000000E+00 -0.46317272368E+03  0.75688598956E+03  0.59862127362E+03 0.  0.
        1    1    3    3  502    0 -0.27166474607E+03  0.10383181716E+03 -0.32102811463E+03  0.43317644318E+03  0.50400001928E-02 0.  1.
       -1    1    3    3    0  502  0.27166474607E+03 -0.10383181716E+03 -0.14214460905E+03  0.32370954638E+03  0.50400001928E-02 0. -1.
</event>
<event>
 5   0  0.8551000E-03  0.5980946E+03  0.7818609E-02  0.9909367E-01
       -3   -1    0    0    0  501  0.00000000000E+00  0.00000000000E+00  0.11046913562E+03  0.11046918179E+03  0.10100000352E+00 0. -1.
        3   -1    0    0  501    0  0.00000000000E+00  0.00000000000E+00 -0.80954070900E+03  0.80954071530E+03  0.10100000352E+00 0.  1.
    10030    2    1    2    0    0  0.00000000000E+00  0.00000000000E+00 -0.69907157338E+03  0.92000989709E+03  0.59809459623E+03 0.  0.
        5    1    3    3  502    0 -0.27292296934E+03 -0.10082655417E+03 -0.24347279573E+03  0.37941274818E+03  0.46999998093E+01 0.  1.
       -5    1    3    3    0  502  0.27292296934E+03  0.10082655417E+03 -0.45559877764E+03  0.54059714891E+03  0.46999998093E+01 0. -1.
</event>
<event>
 5   0  0.1332555E-02  0.5993668E+03  0.7818609E-02  0.9906721E-01
       -1   -1    0    0    0  501  0.00000000000E+00  0.00000000000E+00  0.15792358707E+03  0.15792358715E+03  0.50400001928E-02 0. -1.
        1   -1    0    0  501    0  0.00000000000E+00  0.00000000000E+00 -0.56869363211E+03  0.56869363213E+03  0.50400001928E-02 0.  1.
    10030    2    1    2    0    0  0.00000000000E+00  0.00000000000E+00 -0.41077004504E+03  0.72661721928E+03  0.59936679374E+03 0.  0.
        2    1    3    3  502    0  0.10050364617E+03  0.23545064528E+03 -0.39425682401E+03  0.47008130418E+03  0.25500000920E-02 0.  1.
       -2    1    3    3    0  502 -0.10050364617E+03 -0.23545064528E+03 -0.16513221034E+02  0.25653591509E+03  0.25500000920E-02 0. -1.
</event>
<event>
 5   0  0.1303808E-02  0.6001700E+03  0.7818609E-02  0.9905053E-01
       -1   -1    0    0    0  501  0.00000000000E+00  0.00000000000E+00  0.11225247666E+03  0.11225247677E+03  0.50400001928E-02 0. -1.
        1   -1    0    0  501    0  0.00000000000E+00  0.00000000000E+00 -0.80221847581E+03  0.80221847583E+03  0.50400001928E-02 0.  1.
    10030    2    1    2    0    0  0.00000000000E+00  0.00000000000E+00 -0.68996599915E+03  0.91447095260E+03  0.60017001189E+03 0.  0.
        4    1    3    3  502    0  0.10045832748E+03 -0.17703388732E+02  0.85020966814E+02  0.13279858143E+03  0.12699999809E+01 0. -1.
       -4    1    3    3    0  502 -0.10045832748E+03  0.17703388732E+02 -0.77498696596E+03  0.78167237117E+03  0.12699999809E+01 0.  1.
</event>
<event>
 5   0  0.2141800E-02  0.5971160E+03  0.7818609E-02  0.9911408E-01
       -2   -1    0    0    0  501  0.00000000000E+00  0.00000000000E+00  0.76313310855E+02  0.76313310898E+02  0.25500000920E-02 0.  1.
        2   -1    0    0  501    0  0.00000000000E+00  0.00000000000E+00 -0.11680385252E+04  0.11680385252E+04  0.25500000920E-02 0. -1.
    10030    2    1    2    0    0  0.00000000000E+00  0.00000000000E+00 -0.10917252144E+04  0.12443518361E+04  0.59711602589E+03 0.  0.
        2    1    3    3  502    0 -0.47413613886E+02  0.93751364578E+02  0.36520329869E+02  0.11122546310E+03  0.25500000920E-02 0.  1.
       -2    1    3    3    0  502  0.47413613886E+02 -0.93751364578E+02 -0.11282455442E+04  0.11331263730E+04  0.25500000920E-02 0. -1.
</event>
<event>
 5   0  0.8551000E-03  0.6000623E+03  0.7818609E-02  0.9905277E-01
       -4   -1    0    0    0  501  0.00000000000E+00  0.00000000000E+00  0.45487344809E+03  0.45487522099E+03  0.12699999809E+01 0. -1.
        4   -1    0    0  501    0  0.00000000000E+00  0.00000000000E+00 -0.19789409669E+03  0.19789817180E+03  0.12699999809E+01 0.  1.
    10030    2    1    2    0    0  0.00000000000E+00  0.00000000000E+00  0.25697935140E+03  0.65277339280E+03  0.60006225952E+03 0.  0.
        5    1    3    3  502    0  0.11154310188E+01 -0.17505822312E+03 -0.13652892589E+03  0.22205599129E+03  0.46999998093E+01 0.  1.
       -5    1    3    3    0  502 -0.11154310188E+01  0.17505822312E+03  0.39350827729E+03  0.43071740150E+03  0.46999998093E+01 0. -1.
</event>
<event>
 5   0  0.1337051E-02  0.6000641E+03  0.7818609E-02  0.9905273E-01
        1   -1    0    0  501    0  0.00000000000E+00  0.00000000000E+00  0.80027688707E+02  0.80027688866E+02  0.50400001928E-02 0.  1.
       -1   -1    0    0    0  501  0.00000000000E+00  0.00000000000E+00 -0.11248509989E+04  0.11248509989E+04  0.50400001928E-02 0. -1.
    10030    2    1    2    0    0  0.00000000000E+00  0.00000000000E+00 -0.10448233102E+04  0.12048786878E+04  0.60006408219E+03 0.  0.
        5    1    3    3  502    0  0.55575086651E+02 -0.94172894443E+02 -0.10833360814E+04  0.10888508987E+04  0.46999998093E+01 0. -1.
       -5    1    3    3    0  502 -0.55575086651E+02  0.94172894443E+02  0.38512771186E+02  0.11602778911E+03  0.46999998093E+01 0.  1.
</event>
<event>
 5   0  0.2179625E-02  0.5992178E+03  0.7818609E-02  0.9907030E-01
       -2   -1    0    0    0  501  0.00000000000E+00  0.00000000000E+00  0.70044718338E+02  0.70044718385E+02  0.25500000920E-02 0. -1.
        2   -1    0    0  501    0  0.00000000000E+00  0.00000000000E+00 -0.12815453988E+04  0.12815453988E+04  0.25500000920E-02 0.  1.
    10030    2    1    2    0    0  0.00000000000E+00  0.00000000000E+00 -0.12115006804E+04  0.13515901171E+04  0.59921777853E+03 0.  0.
        1    1    3    3  502    0 -0.11141292047E+03  0.16306015789E+03 -0.11139546858E+04  0.11313251062E+04  0.50400001928E-02 0.  1.
       -1    1    3    3    0  502  0.11141292047E+03 -0.16306015789E+03 -0.97545994603E+02  0.22026501090E+03  0.50400001928E-02 0. -1.
</event>
<event>
 5   0  0.2179625E-02  0.6002878E+03  0.7818609E-02  0.9904809E-01
       -2   -1    0    0    0  501  0.00000000000E+00  0.00000000000E+00  0.16612218087E+03  0.16612218088E+03  0.25500000920E-02 0. -1.
        2   -1    0    0  501    0  0.00000000000E+00  0.00000000000E+00 -0.54228972825E+03  0.54228972826E+03  0.25500000920E-02 0.  1.
    10030    2    1    2    0    0  0.00000000000E+00  0.00000000000E+00 -0.37616754739E+03  0.70841190915E+03  0.60028777208E+03 0.  0.
        1    1    3    3  502    0 -0.93174119634E+02 -0.88314176576E+01 -0.52462911058E+03  0.53291191974E+03  0.50400001928E-02 0.  1.
       -1    1    3    3    0  502  0.93174119634E+02  0.88314176576E+01  0.14846156320E+03  0.17549998940E+03  0.50400001928E-02 0. -1.
</event>
<event>
 5   0  0.2141800E-02  0.5967993E+03  0.7818609E-02  0.9912069E-01
        2   -1    0    0  501    0  0.00000000000E+00  0.00000000000E+00  0.16036973930E+04  0.16036973930E+04  0.25500000920E-02 0. -1.
       -2   -1    0    0    0  501  0.00000000000E+00  0.00000000000E+00 -0.55523169049E+02  0.55523169108E+02  0.25500000920E-02 0.  1.
    10030    2    1    2    0    0  0.00000000000E+00  0.00000000000E+00  0.15481742239E+04  0.16592205621E+04  0.59679933480E+03 0.  0.
        2    1    3    3  502    0  0.74123991131E+02  0.28901859242E+03  0.76288023105E+03  0.81915344091E+03  0.25500000920E-02 0. -1.
       -2    1    3    3    0  502 -0.74123991131E+02 -0.28901859242E+03  0.78529399290E+03  0.84006712119E+03  0.25500000920E-02 0.  1.
</event>
<event>
 5   0  0.2126207E-02  0.5988576E+03  0.7818609E-02  0.9907779E-01
       -2   -1    0    0    0  501  0.00000000000E+00  0.00000000000E+00  0.19157482759E+04  0.19157482759E+04  0.25500000920E-02 0.  1.
        2   -1    0    0  501    0  0.00000000000E+00  0.00000000000E+00 -0.46800306340E+02  0.46800306409E+02  0.25500000920E-02 0. -1.
    10030    2    1    2    0    0  0.00000000000E+00  0.00000000000E+00  0.18689479695E+04  0.19625485823E+04  0.59885759994E+03 0.  0.
        5    1    3    3  502    0 -0.47386057939E+02  0.14556299096E+03  0.91273700461E+02  0.17828909450E+03  0.46999998093E+01 0. -1.
       -5    1    3    3    0  502  0.47386057939E+02 -0.14556299096E+03  0.17776742691E+04  0.17842594878E+04  0.46999998093E+01 0.  1.
</event>
<event>
 5   0  0.1332555E-02  0.5904262E+03  0.7818609E-02  0.9925470E-01
       -1   -1    0    0    0  501  0.00000000000E+00  0.00000000000E+00  0.11103281528E+03  0.11103281539E+03  0.50400001928E-02 0. -1.
        1   -1    0    0  501    0  0.00000000000E+00  0.00000000000E+00 -0.78491006015E+03  0.78491006016E+03  0.50400001928E-02 0.  1.
    10030    2    1    2    0    0  0.00000000000E+00  0.00000000000E+00 -0.67387724487E+03  0.89594287555E+03  0.59042619784E+03 0.  0.
        2    1    3    3  502    0  0.28676086083E+03 -0.57060263983E+02 -0.27505510029E+03  0.40142617407E+03  0.25500000920E-02 0.  1.
       -2    1    3    3    0  502 -0.28676086083E+03  0.57060263983E+02 -0.39882214458E+03  0.49451670148E+03  0.25500000920E-02 0. -1.
</event>
<event>
 5   0  0.2179625E-02  0.5983345E+03  0.7818609E-02  0.9908868E-01
       -2   -1    0    0    0  501  0.00000000000E+00  0.00000000000E+00  0.46890706878E+02  0.46890706947E+02  0.25500000920E-02 0.  1.
        2   -1    0    0  501    0  0.00000000000E+00  0.00000000000E+00 -0.19087158597E+04  0.19087158597E+04  0.25500000920E-02 0. -1.
    10030    2    1    2    0    0  0.00000000000E+00  0.00000000000E+00 -0.18618251529E+04  0.19556065667E+04  0.59833447489E+03 0.  0.
        1    1    3    3  502    0  0.17445993814E+03 -0.19266982181E+03 -0.44675525067E+03  0.51686379664E+03  0.50400001928E-02 0.  1.
       -1    1    3    3    0  502 -0.17445993814E+03  0.19266982181E+03 -0.14150699022E+04  0.14387427700E+04  0.50400001928E-02 0. -1.
</event>
<event>
 5   0  0.1276705E-02  0.5998097E+03  0.7818609E-02  0.9905801E-01
       -1   -1    0    0    0  501  0.00000000000E+00  0.00000000000E+00  0.24857330287E+03  0.24857330293E+03  0.50400001928E-02 0.  1.
        1   -1    0    0  501    0  0.00000000000E+00  0.00000000000E+00 -0.36183660421E+03  0.36183660424E+03  0.50400001928E-02 0. -1.
    10030    2    1    2    0    0  0.00000000000E+00  0.00000000000E+00 -0.11326330133E+03  0.61040990717E+03  0.59980970261E+03 0.  0.
        1    1    3    3  502    0  0.18331866266E+02  0.74846653234E+02  0.23832639300E+03  0.25047464631E+03  0.50400001928E-02 0.  1.
       -1    1    3    3    0  502 -0.18331866266E+02 -0.74846653234E+02 -0.35158969433E+03  0.35993526085E+03  0.50400001928E-02 0. -1.
</event>
<event>
 5   0  0.8551000E-03  0.5971956E+03  0.7818609E-02  0.9911241E-01
       -4   -1    0    0    0  501  0.00000000000E+00  0.00000000000E+00  0.38722553428E+03  0.38722761692E+03  0.12699999809E+01 0.  1.
        4   -1    0    0  501    0  0.00000000000E+00  0.00000000000E+00 -0.23025062313E+03  0.23025412559E+03  0.12699999809E+01 0. -1.
    10030    2    1    2    0    0  0.00000000000E+00  0.00000000000E+00  0.15697491115E+03  0.61748174251E+03  0.59719559576E+03 0.  0.
        1    1    3    3  502    0  0.21314720022E+03  0.15175938607E+03 -0.70267610419E+02  0.27092467094E+03  0.50400001928E-02 0. -1.
       -1    1    3    3    0  502 -0.21314720022E+03 -0.15175938607E+03  0.22724252157E+03  0.34655707157E+03  0.50400001928E-02 0.  1.
</event>
<event>
 5   0  0.1276705E-02  0.6009857E+03  0.7818609E-02  0.9903363E-01
        1   -1    0    0  501    0  0.00000000000E+00  0.00000000000E+00  0.77832507383E+03  0.77832507384E+03  0.50400001928E-02 0. -1.
       -1   -1    0    0    0  501  0.00000000000E+00  0.00000000000E+00 -0.11601315658E+03  0.11601315669E+03  0.50400001928E-02 0.  1.
    10030    2    1    2    0    0  0.00000000000E+00  0.00000000000E+00  0.66231191725E+03  0.89433823053E+03  0.60098568606E+03 0.  0.
        1    1    3    3  502    0 -0.11070358844E+03  0.26492362741E+03  0.46305515806E+03  0.54484850398E+03  0.50400001928E-02 0. -1.
       -1    1    3    3    0  502  0.11070358844E+03 -0.26492362741E+03  0.19925675919E+03  0.34948972655E+03  0.50400001928E-02 0.  1.
</event>
<event>
 5   0  0.1337051E-02  0.5901999E+03  0.7818609E-02  0.9925949E-01
       -1   -1    0    0    0  501  0.00000000000E+00  0.00000000000E+00  0.35700722303E+03  0.35700722306E+03  0.50400001928E-02 0.  1.
        1   -1    0    0  501    0  0.00000000000E+00  0.00000000000E+00 -0.24392779293E+03  0.24392779298E+03  0.50400001928E-02 0. -1.
    10030    2    1    2    0    0  0.00000000000E+00  0.00000000000E+00  0.11307943010E+03  0.60093501605E+03  0.59019991190E+03 0.  0.
        5    1    3    3  502    0 -0.23324022482E+03 -0.13446933789E+03 -0.66399540973E+02  0.27733372378E+03  0.46999998093E+01 0. -1.
       -5    1    3    3    0  502  0.23324022482E+03  0.13446933789E+03  0.17947897107E+03  0.32360129227E+03  0.46999998093E+01 0.  1.
</event>
<event>
 5   0  0.8551000E-03  0.6006833E+03  0.7818609E-02  0.9903989E-01
        4   -1    0    0  501    0  0.00000000000E+00  0.00000000000E+00  0.20971323171E+03  0.20971707716E+03  0.12699999809E+01 0. -1.
       -4   -1    0    0    0  501  0.00000000000E+00  0.00000000000E+00 -0.43012683336E+03  0.43012870826E+03  0.12699999809E+01 0.  1.
    10030    2    1    2    0    0  0.00000000000E+00  0.00000000000E+00 -0.22041360165E+03  0.63984578543E+03  0.60068333866E+03 0.  0.
        3    1    3    3  502    0 -0.22111134683E+03  0.18885904553E+03 -0.19025361598E+03  0.34749736024E+03  0.10100000352E+00 0.  1.
       -3    1    3    3    0  502  0.22111134683E+03 -0.18885904553E+03 -0.30159985664E+02  0.29234842519E+03  0.10100000352E+00 0. -1.
</event>
<event>
 5   0  0.2179625E-02  0.5967120E+03  0.7818609E-02  0.9912251E-01
        2   -1    0    0  501    0  0.00000000000E+00  0.00000000000E+00  0.46905354053E+03  0.46905354054E+03  0.25500000920E-02 0.  1.
       -2   -1    0    0    0  501  0.00000000000E+00  0.00000000000E+00 -0.18977857576E+03  0.18977857578E+03  0.25500000920E-02 0. -1.
    10030    2    1    2    0    0  0.00000000000E+00  0.00000000000E+00  0.27927496477E+03  0.65883211632E+03  0.59671203402E+03 0.  0.
        1    1    3    3  502    0 -0.26854474285E+02  0.12617019703E+03 -0.15739773823E+03  0.20350461772E+03  0.50400001928E-02 0. -1.
       -1    1    3    3    0  502  0.26854474285E+02 -0.12617019703E+03  0.43667270300E+03  0.45532749860E+03  0.50400001928E-02 0.  1.
</event>
<event>
 5   0  0.2092587E-02  0.6000699E+03  0.7818609E-02  0.9905261E-01
        2   -1    0    0  501    0  0.00000000000E+00  0.00000000000E+00  0.32303945004E+03  0.32303945005E+03  0.25500000920E-02 0. -1.
       -2   -1    0    0    0  501  0.00000000000E+00  0.00000000000E+00 -0.27866867494E+03  0.27866867495E+03  0.25500000920E-02 0.  1.
    10030    2    1    2    0    0  0.00000000000E+00  0.00000000000E+00  0.44370775100E+02  0.60170812500E+03  0.60006991426E+03 0.  0.
        3    1    3    3  502    0  0.15939853275E+03 -0.72837352050E+02 -0.22201137678E+03  0.28284666114E+03  0.10100000352E+00 0.  1.
       -3    1    3    3    0  502 -0.15939853275E+03  0.72837352050E+02  0.26638215188E+03  0.31886146386E+03  0.10100000352E+00 0. -1.
</event>
<event>
 5   0  0.1276705E-02  0.6012977E+03  0.7818609E-02  0.9902717E-01
        1   -1    0    0  501    0  0.00000000000E+00  0.00000000000E+00  0.64323996661E+03  0.64323996663E+03  0.50400001928E-02 0. -1.
       -1   -1    0    0    0  501  0.00000000000E+00  0.00000000000E+00 -0.14052255777E+03  0.14052255786E+03  0.50400001928E-02 0.  1.
    10030    2    1    2    0    0  0.00000000000E+00  0.00000000000E+00  0.50271740884E+03  0.78376252449E+03  0.60129768138E+03 0.  0.
        1    1    3    3  502    0  0.19039040458E+03 -0.18602985226E+03  0.43353497862E+03  0.50873194298E+03  0.50400001928E-02 0. -1.
       -1    1    3    3    0  502 -0.19039040458E+03  0.18602985226E+03  0.69182430217E+02  0.27503058151E+03  0.50400001928E-02 0.  1.
</event>
<event>
 5   0  0.1332555E-02  0.5973386E+03  0.7818609E-02  0.9910943E-01
       -1   -1    0    0    0  501  0.00000000000E+00  0.00000000000E+00  0.43645840835E+03  0.43645840838E+03  0.50400001928E-02 0. -1.
        1   -1    0    0  501    0  0.00000000000E+00  0.00000000000E+00 -0.20437992664E+03  0.20437992670E+03  0.50400001928E-02 0.  1.
    10030    2    1    2    0    0  0.00000000000E+00  0.00000000000E+00  0.23207848171E+03  0.64083833508E+03  0.59733855562E+03 0.  0.
        2    1    3    3  502    0 -0.23198640226E+03  0.43745157449E+02 -0.80237491164E+02  0.24933789248E+03  0.25500000920E-02 0.  1.
       -2    1    3    3    0  502  0.23198640226E+03 -0.43745157449E+02  0.31231597288E+03  0.39150044260E+03  0.25500000920E-02 0. -1.
</event>
<event>
 5   0  0.8551000E-03  0.6010512E+03  0.7818609E-02  0.9903228E-01
        3   -1    0    0  501    0  0.00000000000E+00  0.00000000000E+00  0.85648170358E+03  0.85648170954E+03  0.10100000352E+00 0.  1.
       -3   -1    0    0    0  501  0.00000000000E+00  0.00000000000E+00 -0.10544954655E+03  0.10544959492E+03  0.10100000352E+00 0. -1.
    10030    2    1    2    0    0  0.00000000000E+00  0.00000000000E+00  0.75103215703E+03  0.96193130446E+03  0.60105119050E+03 0.  0.
        2    1    3    3  502    0  0.75299504602E+02  0.97752738490E+01 -0.89844469174E+02  0.11763332869E+03  0.25500000920E-02 0. -1.
       -2    1    3    3    0  502 -0.75299504602E+02 -0.97752738490E+01  0.84087662621E+03  0.84429797577E+03  0.25500000920E-02 0.  1.
</event>
<event>
 5   0  0.1303808E-02  0.5979869E+03  0.7818609E-02  0.9909591E-01
        1   -1    0    0  501    0  0.00000000000E+00  0.00000000000E+00  0.40456777792E+03  0.40456777796E+03  0.50400001928E-02 0.  1.
       -1   -1    0    0    0  501  0.00000000000E+00  0.00000000000E+00 -0.22096933648E+03  0.22096933654E+03  0.50400001928E-02 0. -1.
    10030    2    1    2    0    0  0.00000000000E+00  0.00000000000E+00  0.18359844144E+03  0.62553711449E+03  0.59798686767E+03 0.  0.
        4    1    3    3  502    0  0.24214274785E+03 -0.14988485163E+03 -0.34845376941E+01  0.28480227174E+03  0.12699999809E+01 0. -1.
       -4    1    3    3    0  502 -0.24214274785E+03  0.14988485163E+03  0.18708297914E+03  0.34073484275E+03  0.12699999809E+01 0.  1.
</event>
<event>
 5   0  0.1332555E-02  0.6006631E+03  0.7818609E-02  0.9904031E-01
        1   -1    0    0  501    0  0.00000000000E+00  0.00000000000E+00  0.94849521255E+03  0.94849521256E+03  0.50400001928E-02 0. -1.
       -1   -1    0    0    0  501  0.00000000000E+00  0.00000000000E+00 -0.95096998673E+02  0.95096998807E+02  0.50400001928E-02 0.  1.
    10030    2    1    2    0    0  0.00000000000E+00  0.00000000000E+00  0.85339821387E+03  0.10435922114E+04  0.60066312704E+03 0.  0.
        2    1    3    3  502    0 -0.36957440885E+02  0.13934187404E+03  0.88445389424E+03  0.89612538260E+03  0.25500000920E-02 0. -1.
       -2    1    3    3    0  502  0.36957440885E+02 -0.13934187404E+03 -0.31055680368E+02  0.14746682877E+03  0.25500000920E-02 0.  1.
</event>
<event>
 5   0  0.1250390E-02  0.5993687E+03  0.7818609E-02  0.9906717E-01
        1   -1    0    0  501    0  0.00000000000E+00  0.00000000000E+00  0.25757188130E+03  0.25757188135E+03  0.50400001928E-02 0. -1.
       -1   -1    0    0    0  501  0.00000000000E+00  0.00000000000E+00 -0.34868206317E+03  0.34868206321E+03  0.50400001928E-02 0.  1.
    10030    2    1    2    0    0  0.00000000000E+00  0.00000000000E+00 -0.91110181870E+02  0.60625394455E+03  0.59936865120E+03 0.  0.
        3    1    3    3  502    0  0.11377458477E+03 -0.10533125826E+03  0.21385026974E+03  0.26414253382E+03  0.10100000352E+00 0. -1.
       -3    1    3    3    0  502 -0.11377458477E+03  0.10533125826E+03 -0.30496045161E+03  0.34211141073E+03  0.10100000352E+00 0.  1.
</event>
<event>
 5   0  0.2179625E-02  0.5996102E+03  0.7818609E-02  0.9906215E-01
        2   -1    0    0  501    0  0.00000000000E+00  0.00000000000E+00  0.58925689110E+03  0.58925689110E+03  0.25500000920E-02 0. -1.
       -2   -1    0    0    0  501  0.00000000000E+00  0.00000000000E+00 -0.15253637331E+03  0.15253637334E+03  0.25500000920E-02 0.  1.
    10030    2    1    2    0    0  0.00000000000E+00  0.00000000000E+00  0.43672051778E+03  0.74179326444E+03  0.59961023717E+03 0.  0.
        1    1    3    3  502    0  0.24472841110E+03  0.10557302623E+03  0.48529205595E+02  0.27091095011E+03  0.50400001928E-02 0.  1.
       -1    1    3    3    0  502 -0.24472841110E+03 -0.10557302623E+03  0.38819131219E+03  0.47088231433E+03  0.50400001928E-02 0. -1.
</event>
<event>
 5   0  0.1337051E-02  0.5985357E+03  0.7818609E-02  0.9908449E-01
       -1   -1    0    0    0  501  0.00000000000E+00  0.00000000000E+00  0.20164138749E+03  0.20164138755E+03  0.50400001928E-02 0.  1.
        1   -1    0    0  501    0  0.00000000000E+00  0.00000000000E+00 -0.44416097992E+03  0.44416097995E+03  0.50400001928E-02 0. -1.
    10030    2    1    2    0    0  0.00000000000E+00  0.00000000000E+00 -0.24251959243E+03  0.64580236750E+03  0.59853566741E+03 0.  0.
        5    1    3    3  502    0 -0.12529532226E+03 -0.31454305904E+02 -0.41248363632E+03  0.43226511700E+03  0.46999998093E+01 0. -1.
       -5    1    3    3    0  502  0.12529532226E+03  0.31454305904E+02  0.16996404389E+03  0.21353725051E+03  0.46999998093E+01 0.  1.
</event>
<event>
 5   0  0.2141800E-02  0.6000779E+03  0.7818609E-02  0.9905244E-01
        2   -1    0    0  501    0  0.00000000000E+00  0.00000000000E+00  0.85904442686E+03  0.85904442686E+03  0.25500000920E-02 0. -1.
       -2   -1    0    0    0  501  0.00000000000E+00  0.00000000000E+00 -0.10479478569E+03  0.10479478573E+03  0.25500000920E-02 0.  1.
    10030    2    1    2    0    0  0.00000000000E+00  0.00000000000E+00  0.75424964116E+03  0.96383921259E+03  0.60007791705E+03 0.  0.
        2    1    3    3  502    0 -0.70947121771E+02 -0.18760466725E+03  0.73554056008E+03  0.76239682633E+03  0.25500000920E-02 0. -1.
       -2    1    3    3    0  502  0.70947121771E+02  0.18760466725E+03  0.18709081083E+02  0.20144238626E+03  0.25500000920E-02 0.  1.
</event>
<event>
 5   0  0.1332555E-02  0.5985482E+03  0.7818609E-02  0.9908423E-01
        1   -1    0    0  501    0  0.00000000000E+00  0.00000000000E+00  0.40301105690E+03  0.40301105693E+03  0.50400001928E-02 0. -1.
       -1   -1    0    0    0  501  0.00000000000E+00  0.00000000000E+00 -0.22223954193E+03  0.22223954199E+03  0.50400001928E-02 0.  1.
    10030    2    1    2    0    0  0.00000000000E+00  0.00000000000E+00  0.18077151497E+03  0.62525059892E+03  0.59854821930E+03 0.  0.
        2    1    3    3  502    0  0.10792359672E+03  0.21445797252E+03  0.27703328835E+03  0.36658855352E+03  0.25500000920E-02 0. -1.
       -2    1    3    3    0  502 -0.10792359672E+03 -0.21445797252E+03 -0.96261773381E+02  0.25866204540E+03  0.25500000920E-02 0.  1.
</event>
<event>
 5   0  0.2092587E-02  0.5953454E+03  0.7818609E-02  0.9915110E-01
        2   -1    0    0  501    0  0.00000000000E+00  0.00000000000E+00  0.22140601264E+03  0.22140601265E+03  0.25500000920E-02 0. -1.
       -2   -1    0    0    0  501  0.00000000000E+00  0.00000000000E+00 -0.40021061818E+03  0.40021061819E+03  0.25500000920E-02 0.  1.
    10030    2    1    2    0    0  0.00000000000E+00  0.00000000000E+00 -0.17880460554E+03  0.62161663084E+03  0.59534540291E+03 0.  0.
        3    1    3    3  502    0  0.20937714266E+03 -0.20907306223E+03 -0.12337568611E+03  0.32058057231E+03  0.10100000352E+00 0. -1.
       -3    1    3    3    0  502 -0.20937714266E+03  0.20907306223E+03 -0.55428919433E+02  0.30103605852E+03  0.10100000352E+00 0.  1.
</event>
<event>
 5   0  0.1276705E-02  0.6003827E+03  0.7818609E-02  0.9904612E-01
        1   -1    0    0  501    0  0.00000000000E+00  0.00000000000E+00  0.46256389324E+03  0.46256389326E+03  0.50400001928E-02 0. -1.
       -1   -1    0    0    0  501  0.00000000000E+00  0.00000000000E+00 -0.19481598409E+03  0.19481598415E+03  0.50400001928E-02 0.  1.
    10030    2    1    2    0    0  0.00000000000E+00  0.00000000000E+00  0.26774790915E+03  0.65737987742E+03  0.60038267828E+03 0.  0.
        1    1    3    3  502    0 -0.62264929536E+02  0.50013540637E+02 -0.18297028905E+03  0.19964068322E+03  0.50400001928E-02 0.  1.
       -1    1    3    3    0  502  0.62264929536E+02 -0.50013540637E+02  0.45071819819E+03  0.45773919420E+03  0.50400001928E-02 0. -1.
</event>
<event>
 5   0  0.2092587E-02  0.6006426E+03  0.7818609E-02  0.9904074E-01
       -2   -1    0    0    0  501  0.00000000000E+00  0.00000000000E+00  0.20889563101E+03  0.20889563103E+03  0.25500000920E-02 0.  1.
        2   -1    0    0  501    0  0.00000000000E+00  0.00000000000E+00 -0.43176046058E+03  0.43176046058E+03  0.25500000920E-02 0. -1.
    10030    2    1    2    0    0  0.00000000000E+00  0.00000000000E+00 -0.22286482956E+03  0.64065609161E+03  0.60064256881E+03 0.  0.
        3    1    3    3  502    0 -0.16998629818E+03 -0.87174937540E+02  0.13573323771E+03  0.23434660937E+03  0.10100000352E+00 0.  1.
       -3    1    3    3    0  502  0.16998629818E+03  0.87174937540E+02 -0.35859806727E+03  0.40630948224E+03  0.10100000352E+00 0. -1.
</event>
<event>
 5   0  0.1250390E-02  0.5862633E+03  0.7818609E-02  0.9934322E-01
        1   -1    0    0  501    0  0.00000000000E+00  0.00000000000E+00  0.54475354330E+03  0.54475354332E+03  0.50400001928E-02 0. -1.
       -1   -1    0    0    0  501  0.00000000000E+00  0.00000000000E+00 -0.15773403569E+03  0.15773403577E+03  0.50400001928E-02 0.  1.
    10030    2    1    2    0    0  0.00000000000E+00  0.00000000000E+00  0.38701950761E+03  0.70248757909E+03  0.58626333631E+03 0.  0.
        3    1    3    3  502    0  0.19309154420E+03 -0.21383918879E+03  0.25819973157E+03  0.38688325718E+03  0.10100000352E+00 0. -1.
       -3    1    3    3    0  502 -0.19309154420E+03  0.21383918879E+03  0.12881977604E+03  0.31560432191E+03  0.10100000352E+00 0.  1.
</event>
<event>
 5   0  0.1337051E-02  0.6026032E+03  0.7818609E-02  0.9900020E-01
        1   -1    0    0  501    0  0.00000000000E+00  0.00000000000E+00  0.13757083974E+04  0.13757083974E+04  0.50400001928E-02 0. -1.
       -1   -1    0    0    0  501  0.00000000000E+00  0.00000000000E+00 -0.65989761413E+02  0.65989761605E+02  0.50400001928E-02 0.  1.
    10030    2    1    2    0    0  0.00000000000E+00  0.00000000000E+00  0.13097186360E+04  0.14416981590E+04  0.60260324946E+03 0.  0.
        5    1    3    3  502    0 -0.18105145554E+03 -0.23550378262E+03  0.77493356715E+03  0.82993119274E+03  0.46999998093E+01 0. -1.
       -5    1    3    3    0  502  0.18105145554E+03  0.23550378262E+03  0.53478506885E+03  0.61176696629E+03  0.46999998093E+01 0.  1.
</event>
<event>
 5   0  0.1250390E-02  0.5966636E+03  0.7818609E-02  0.9912352E-01
       -1   -1    0    0    0  501  0.00000000000E+00  0.00000000000E+00  0.13735952382E+03  0.13735952392E+03  0.50400001928E-02 0.  1.
        1   -1    0    0  501    0  0.00000000000E+00  0.00000000000E+00 -0.64794833273E+03  0.64794833274E+03  0.50400001928E-02 0. -1.
    10030    2    1    2    0    0  0.00000000000E+00  0.00000000000E+00 -0.51058880890E+03  0.78530785666E+03  0.59666363888E+03 0.  0.
        3    1    3    3  502    0 -0.17648507264E+03  0.10421474846E+03 -0.54061449952E+03  0.57816238372E+03  0.10100000352E+00 0. -1.
       -3    1    3    3    0  502  0.17648507264E+03 -0.10421474846E+03  0.30025690620E+02  0.20714547294E+03  0.10100000352E+00 0.  1.
</event>
<event>
 5   0  0.2126207E-02  0.6014782E+03  0.7818609E-02  0.9902344E-01
       -2   -1    0    0    0  501  0.00000000000E+00  0.00000000000E+00  0.35267429526E+03  0.35267429527E+03  0.25500000920E-02 0.  1.
        2   -1    0    0  501    0  0.00000000000E+00  0.00000000000E+00 -0.25645191710E+03  0.25645191711E+03  0.25500000920E-02 0. -1.
    10030    2    1    2    0    0  0.00000000000E+00  0.00000000000E+00  0.96222378157E+02  0.60912621238E+03  0.60147817629E+03 0.  0.
        5    1    3    3  502    0  0.73230067219E+02 -0.68351193731E+02 -0.23902065065E+03  0.25920549737E+03  0.46999998093E+01 0. -1.
       -5    1    3    3    0  502 -0.73230067219E+02  0.68351193731E+02  0.33524302881E+03  0.34992071501E+03  0.46999998093E+01 0.  1.
</event>
<event>
 5   0  0.2179625E-02  0.6017623E+03  0.7818609E-02  0.9901757E-01
       -2   -1    0    0    0  501  0.00000000000E+00  0.00000000000E+00  0.20664516614E+03  0.20664516616E+03  0.25500000920E-02 0.  1.
        2   -1    0    0  501    0  0.00000000000E+00  0.00000000000E+00 -0.43809135542E+03  0.43809135543E+03  0.25500000920E-02 0. -1.
    10030    2    1    2    0    0  0.00000000000E+00  0.00000000000E+00 -0.23144618928E+03  0.64473652158E+03  0.60176228175E+03 0.  0.
        1    1    3    3  502    0  0.24932535271E+03 -0.78615507071E+02  0.43863402576E+02  0.26508022854E+03  0.50400001928E-02 0.  1.
       -1    1    3    3    0  502 -0.24932535271E+03  0.78615507071E+02 -0.27530959185E+03  0.37965629304E+03  0.50400001928E-02 0. -1.
</event>
<event>
 5   0  0.2179625E-02  0.5994174E+03  0.7818609E-02  0.9906615E-01
       -2   -1    0    0    0  501  0.00000000000E+00  0.00000000000E+00  0.11570892130E+03  0.11570892133E+03  0.25500000920E-02 0. -1.
        2   -1    0    0  501    0  0.00000000000E+00  0.00000000000E+00 -0.77630408067E+03  0.77630408068E+03  0.25500000920E-02 0.  1.
    10030    2    1    2    0    0  0.00000000000E+00  0.00000000000E+00 -0.66059515938E+03  0.89201300200E+03  0.59941740978E+03 0.  0.
        1    1    3    3  502    0 -0.25232625552E+03  0.15981830061E+03 -0.36719846436E+03  0.47333406880E+03  0.50400001928E-02 0.  1.
       -1    1    3    3    0  502  0.25232625552E+03 -0.15981830061E+03 -0.29339669502E+03  0.41867893320E+03  0.50400001928E-02 0. -1.
</event>
<event>
 5   0  0.1332555E-02  0.6009724E+03  0.7818609E-02  0.9903391E-01
       -1   -1    0    0    0  501  0.00000000000E+00  0.00000000000E+00  0.17126464864E+03  0.17126464872E+03  0.50400001928E-02 0.  1.
        1   -1    0    0  501    0  0.00000000000E+00  0.00000000000E+00 -0.52720721374E+03  0.52720721376E+03  0.50400001928E-02 0. -1.
    10030    2    1    2    0    0  0.00000000000E+00  0.00000000000E+00 -0.35594256510E+03  0.69847186248E+03  0.60097240621E+03 0.  0.
        2    1    3    3  502    0 -0.23096910500E+03  0.17867149693E+03 -0.95610411319E+02  0.30726467750E+03  0.25500000920E-02 0.  1.
       -2    1    3    3    0  502  0.23096910500E+03 -0.17867149693E+03 -0.26033215378E+03  0.39120718498E+03  0.25500000920E-02 0. -1.
</event>
<event>
 5   0  0.8551000E-03  0.5975599E+03  0.7818609E-02  0.9910481E-01
       -4   -1    0    0    0  501  0.00000000000E+00  0.00000000000E+00  0.16639898117E+03  0.16640382759E+03  0.12699999809E+01 0. -1.
        4   -1    0    0  501    0  0.00000000000E+00  0.00000000000E+00 -0.53646502399E+03  0.53646652726E+03  0.12699999809E+01 0.  1.
    10030    2    1    2    0    0  0.00000000000E+00  0.00000000000E+00 -0.37006604282E+03  0.70287035484E+03  0.59755992140E+03 0.  0.
        2    1    3    3  502    0  0.25371230360E+03 -0.41746958950E+02 -0.36402448463E+03  0.44567540542E+03  0.25500000920E-02 0.  1.
       -2    1    3    3    0  502 -0.25371230360E+03  0.41746958950E+02 -0.60415581901E+01  0.25719494943E+03  0.25500000920E-02 0. -1.
</event>
<event>
 5   0  0.2141800E-02  0.5986721E+03  0.7818609E-02  0.9908165E-01
       -2   -1    0    0    0  501  0.00000000000E+00  0.00000000000E+00  0.64514560388E+02  0.64514560439E+02  0.25500000920E-02 0.  1.
        2   -1    0    0  501    0  0.00000000000E+00  0.00000000000E+00 -0.13888660737E+04  0.13888660737E+04  0.25500000920E-02 0. -1.
    10030    2    1    2    0    0  0.00000000000E+00  0.00000000000E+00 -0.13243515133E+04  0.14533806341E+04  0.59867214473E+03 0.  0.
        2    1    3    3  502    0 -0.26309318087E+03  0.69134697505E+01 -0.31597666193E+03  0.41122629874E+03  0.25500000920E-02 0.  1.
       -2    1    3    3    0  502  0.26309318087E+03 -0.69134697505E+01 -0.10083748514E+04  0.10421543354E+04  0.25500000920E-02 0. -1.
</event>
<event>
 5   0  0.1337051E-02  0.6003520E+03  0.7818609E-02  0.9904676E-01
       -1   -1    0    0    0  501  0.00000000000E+00  0.00000000000E+00  0.54828563939E+02  0.54828564171E+02  0.50400001928E-02 0.  1.
        1   -1    0    0  501    0  0.00000000000E+00  0.00000000000E+00 -0.16434067997E+04  0.16434067997E+04  0.50400001928E-02 0. -1.
    10030    2    1    2    0    0  0.00000000000E+00  0.00000000000E+00 -0.15885782357E+04  0.16982353638E+04  0.60035201339E+03 0.  0.
        5    1    3    3  502    0 -0.66640514611E+01 -0.17518376114E+03 -0.10515859697E+03  0.20448515903E+03  0.46999998093E+01 0.  1.
       -5    1    3    3    0  502  0.66640514611E+01  0.17518376114E+03 -0.14834196387E+04  0.14937502048E+04  0.46999998093E+01 0. -1.
</event>
<event>
 5   0  0.1303808E-02  0.5976608E+03  0.7818609E-02  0.9910271E-01
        1   -1    0    0  501    0  0.00000000000E+00  0.00000000000E+00  0.10422427074E+03  0.10422427086E+03  0.50400001928E-02 0.  1.
       -1   -1    0    0    0  501  0.00000000000E+00  0.00000000000E+00 -0.85680241638E+03  0.85680241639E+03  0.50400001928E-02 0. -1.
    10030    2    1    2    0    0  0.00000000000E+00  0.00000000000E+00 -0.75257814564E+03  0.96102668725E+03  0.59766079703E+03 0.  0.
        4    1    3    3  502    0  0.18967597491E+03  0.12606187542E+03 -0.68737992479E+03  0.72412798993E+03  0.12699999809E+01 0. -1.
       -4    1    3    3    0  502 -0.18967597491E+03 -0.12606187542E+03 -0.65198220856E+02  0.23689869733E+03  0.12699999809E+01 0.  1.
</event>
<event>
 5   0  0.1250390E-02  0.6005133E+03  0.7818609E-02  0.9904342E-01
       -1   -1    0    0    0  501  0.00000000000E+00  0.00000000000E+00  0.29606601982E+03  0.29606601986E+03  0.50400001928E-02 0.  1.
        1   -1    0    0  501    0  0.00000000000E+00  0.00000000000E+00 -0.30450655892E+03  0.30450655897E+03  0.50400001928E-02 0. -1.
    10030    2    1    2    0    0  0.00000000000E+00  0.00000000000E+00 -0.84405391026E+01  0.60057257883E+03  0.60051326359E+03 0.  0.
        3    1    3    3  502    0 -0.57205934949E+02  0.16091260187E+03 -0.25120346556E+03  0.30375742912E+03  0.10100000352E+00 0. -1.
       -3    1    3    3    0  502  0.57205934949E+02 -0.16091260187E+03  0.24276292646E+03  0.29681514971E+03  0.10100000352E+00 0.  1.
</event>
<event>
 5   0  0.1250390E-02  0.5986801E+03  0.7818609E-02  0.9908148E-01
       -1   -1    0    0    0  501  0.00000000000E+00  0.00000000000E+00  0.80174347164E+02  0.80174347322E+02  0.50400001928E-02 0.  1.
        1   -1    0    0  501    0  0.00000000000E+00  0.00000000000E+00 -0.11176201386E+04  0.11176201386E+04  0.50400001928E-02 0. -1.
    10030    2    1    2    0    0  0.00000000000E+00  0.00000000000E+00 -0.10374457915E+04  0.11977944860E+04  0.59868009853E+03 0.  0.
        3    1    3    3  502    0  0.12366476680E+03 -0.23937287454E+03 -0.25776734180E+03  0.37287579743E+03  0.10100000352E+00 0.  1.
       -3    1    3    3    0  502 -0.12366476680E+03  0.23937287454E+03 -0.77967844967E+03  0.82491868854E+03  0.10100000352E+00 0. -1.
</event>
<event>
 5   0  0.2141800E-02  0.5985005E+03  0.7818609E-02  0.9908522E-01
       -2   -1    0    0    0  501  0.00000000000E+00  0.00000000000E+00  0.19502226417E+03  0.19502226419E+03  0.25500000920E-02 0.  1.
        2   -1    0    0  501    0  0.00000000000E+00  0.00000000000E+00 -0.45918201297E+03  0.45918201297E+03  0.25500000920E-02 0. -1.
    10030    2    1    2    0    0  0.00000000000E+00  0.00000000000E+00 -0.26415974879E+03  0.65420427716E+03  0.59850051243E+03 0.  0.
        2    1    3    3  502    0 -0.10619916731E+03 -0.55998556783E+02  0.16754279129E+03  0.20611814190E+03  0.25500000920E-02 0.  1.
       -2    1    3    3    0  502  0.10619916731E+03  0.55998556783E+02 -0.43170254008E+03  0.44808613527E+03  0.25500000920E-02 0. -1.
</event>
<event>
 5   0  0.2141800E-02  0.6018422E+03  0.7818609E-02  0.9901591E-01
       -2   -1    0    0    0  501  0.00000000000E+00  0.00000000000E+00  0.14265686015E+03  0.14265686018E+03  0.25500000920E-02 0. -1.
        2   -1    0    0  501    0  0.00000000000E+00  0.00000000000E+00 -0.63476447449E+03  0.63476447449E+03  0.25500000920E-02 0.  1.
    10030    2    1    2    0    0  0.00000000000E+00  0.00000000000E+00 -0.49210761433E+03  0.77742133467E+03  0.60184219486E+03 0.  0.
        2    1    3    3  502    0 -0.92142860980E+02  0.69156183566E+02 -0.60514861644E+03  0.61601763980E+03  0.25500000920E-02 0.  1.
       -2    1    3    3    0  502  0.92142860980E+02 -0.69156183566E+02  0.11304100211E+03  0.16140369487E+03  0.25500000920E-02 0. -1.
</event>
<event>
 5   0  0.1303808E-02  0.5996223E+03  0.7818609E-02  0.9906190E-01
        1   -1    0    0  501    0  0.00000000000E+00  0.00000000000E+00  0.27531996610E+03  0.27531996614E+03  0.50400001928E-02 0.  1.
       -1   -1    0    0    0  501  0.00000000000E+00  0.00000000000E+00 -0.32648090867E+03  0.32648090871E+03  0.50400001928E-02 0. -1.
    10030    2    1    2    0    0  0.00000000000E+00  0.00000000000E+00 -0.51160942573E+02  0.60180087485E+03  0.59962225686E+03 0.  0.
        4    1    3    3  502    0  0.12828598676E+03  0.23394748860E+03  0.11165102864E+03  0.28923396571E+03  0.12699999809E+01 0.  1.
       -4    1    3    3    0  502 -0.12828598676E+03 -0.23394748860E+03 -0.16281197122E+03  0.31256690914E+03  0.12699999809E+01 0. -1.
</event>
<event>
 5   0  0.1276705E-02  0.5987787E+03  0.7818609E-02  0.9907943E-01
        1   -1    0    0  501    0  0.00000000000E+00  0.00000000000E+00  0.10434430607E+03  0.10434430619E+03  0.50400001928E-02 0.  1.
       -1   -1    0    0    0  501  0.00000000000E+00  0.00000000000E+00 -0.85902131824E+03  0.85902131826E+03  0.50400001928E-02 0. -1.
    10030    2    1    2    0    0  0.00000000000E+00  0.00000000000E+00 -0.75467701218E+03  0.96336562445E+03  0.59877870175E+03 0.  0.
        1    1    3    3  502    0 -0.55857462584E+02 -0.12137890402E+03  0.53713650531E+02  0.14400712047E+03  0.50400001928E-02 0.  1.
       -1    1    3    3    0  502  0.55857462584E+02  0.12137890402E+03 -0.80839066271E+03  0.81935850398E+03  0.50400001928E-02 0. -1.
</event>
<event>
 5   0  0.1276705E-02  0.5962627E+03  0.7818609E-02  0.9913190E-01
       -1   -1    0    0    0  501  0.00000000000E+00  0.00000000000E+00  0.20282903804E+03  0.20282903810E+03  0.50400001928E-02 0.  1.
        1   -1    0    0  501    0  0.00000000000E+00  0.00000000000E+00 -0.43821284001E+03  0.43821284004E+03  0.50400001928E-02 0. -1.
    10030    2    1    2    0    0  0.00000000000E+00  0.00000000000E+00 -0.23538380197E+03  0.64104187815E+03  0.59626265631E+03 0.  0.
        1    1    3    3  502    0 -0.88252990119E+02 -0.14667356715E+03 -0.38011441629E+03  0.41687971294E+03  0.50400001928E-02 0. -1.
       -1    1    3    3    0  502  0.88252990119E+02  0.14667356715E+03  0.14473061431E+03  0.22416216521E+03  0.50400001928E-02 0.  1.
</event>
<event>
 5   0  0.8551000E-03  0.6030171E+03  0.7818609E-02  0.9899166E-01
        3   -1    0    0  501    0  0.00000000000E+00  0.00000000000E+00  0.32033017026E+03  0.32033018618E+03  0.10100000352E+00 0. -1.
       -3   -1    0    0    0  501  0.00000000000E+00  0.00000000000E+00 -0.28379275512E+03  0.28379277309E+03  0.10100000352E+00 0.  1.
    10030    2    1    2    0    0  0.00000000000E+00  0.00000000000E+00  0.36537415140E+02  0.60412295928E+03  0.60301705384E+03 0.  0.
        3    1    3    3  502    0  0.18643194980E+02  0.14415318592E+03  0.28291158385E+03  0.31806710645E+03  0.10100000352E+00 0. -1.
       -3    1    3    3    0  502 -0.18643194980E+02 -0.14415318592E+03 -0.24637416871E+03  0.28605585283E+03  0.10100000352E+00 0.  1.
</event>
<event>
 5   0  0.8551000E-03  0.6010102E+03  0.7818609E-02  0.9903312E-01
        3   -1    0    0  501    0  0.00000000000E+00  0.00000000000E+00  0.47403448853E+03  0.47403449929E+03  0.10100000352E+00 0.  1.
       -3   -1    0    0    0  501  0.00000000000E+00  0.00000000000E+00 -0.19049941887E+03  0.19049944565E+03  0.10100000352E+00 0. -1.
    10030    2    1    2    0    0  0.00000000000E+00  0.00000000000E+00  0.28353506966E+03  0.66453394494E+03  0.60101017316E+03 0.  0.
        4    1    3    3  502    0  0.12220845918E+03  0.33333670571E+02  0.44306821197E+03  0.46082219396E+03  0.12699999809E+01 0.  1.
       -4    1    3    3    0  502 -0.12220845918E+03 -0.33333670571E+02 -0.15953314231E+03  0.20371175098E+03  0.12699999809E+01 0. -1.
</event>
<event>
 5   0  0.1337051E-02  0.6007033E+03  0.7818609E-02  0.9903948E-01
        1   -1    0    0  501    0  0.00000000000E+00  0.00000000000E+00  0.33652238239E+03  0.33652238242E+03  0.50400001928E-02 0. -1.
       -1   -1    0    0    0  501  0.00000000000E+00  0.00000000000E+00 -0.26806871255E+03  0.26806871259E+03  0.50400001928E-02 0.  1.
    10030    2    1    2    0    0  0.00000000000E+00  0.00000000000E+00  0.68453669840E+02  0.60459109502E+03  0.60070332716E+03 0.  0.
        5    1    3    3  502    0 -0.25978838211E+03  0.82681966486E+02 -0.92535592870E+02  0.28794311418E+03  0.46999998093E+01 0.  1.
       -5    1    3    3    0  502  0.25978838211E+03 -0.82681966486E+02  0.16098926271E+03  0.31664798083E+03  0.46999998093E+01 0. -1.
</event>
<event>
 5   0  0.2179625E-02  0.6001078E+03  0.7818609E-02  0.9905183E-01
       -2   -1    0    0    0  501  0.00000000000E+00  0.00000000000E+00  0.62766483968E+03  0.62766483968E+03  0.25500000920E-02 0. -1.
        2   -1    0    0  501    0  0.00000000000E+00  0.00000000000E+00 -0.14344013716E+03  0.14344013719E+03  0.25500000920E-02 0.  1.
    10030    2    1    2    0    0  0.00000000000E+00  0.00000000000E+00  0.48422470251E+03  0.77110497687E+03  0.60010775934E+03 0.  0.
        1    1    3    3  502    0 -0.22467528133E+03  0.27931076720E+02  0.49512958705E+03  0.54443772379E+03  0.50400001928E-02 0. -1.
       -1    1    3    3    0  502  0.22467528133E+03 -0.27931076720E+02 -0.10904884534E+02  0.22666725308E+03  0.50400001928E-02 0.  1.
</event>
<event>
 5   0  0.2092587E-02  0.5967117E+03  0.7818609E-02  0.9912252E-01
        2   -1    0    0  501    0  0.00000000000E+00  0.00000000000E+00  0.14719279087E+04  0.14719279087E+04  0.25500000920E-02 0.  1.
       -2   -1    0    0    0  501  0.00000000000E+00  0.00000000000E+00 -0.60475934342E+02  0.60475934396E+02  0.25500000920E-02 0. -1.
    10030    2    1    2    0    0  0.00000000000E+00  0.00000000000E+00  0.14114519744E+04  0.15324038431E+04  0.59671170797E+03 0.  0.
        3    1    3    3  502    0 -0.17853579194E+02  0.26795793388E+03  0.37191499480E+03  0.45873846381E+03  0.10100000352E+00 0. -1.
       -3    1    3    3    0  502  0.17853579194E+02 -0.26795793388E+03  0.10395369796E+04  0.10736653793E+04  0.10100000352E+00 0.  1.
</event>
<event>
 5   0  0.2179625E-02  0.6008399E+03  0.7818609E-02  0.9903665E-01
       -2   -1    0    0    0  501  0.00000000000E+00  0.00000000000E+00  0.11819269981E+03  0.11819269984E+03  0.25500000920E-02 0. -1.
        2   -1    0    0  501    0  0.00000000000E+00  0.00000000000E+00 -0.76360181197E+03  0.76360181197E+03  0.25500000920E-02 0.  1.
    10030    2    1    2    0    0  0.00000000000E+00  0.00000000000E+00 -0.64540911216E+03  0.88179451181E+03  0.60083994459E+03 0.  0.
        1    1    3    3  502    0 -0.29287161698E+02  0.18335145026E+03  0.23900485752E+02  0.18720770656E+03  0.50400001928E-02 0. -1.
       -1    1    3    3    0  502  0.29287161698E+02 -0.18335145026E+03 -0.66930959791E+03  0.69458680525E+03  0.50400001928E-02 0.  1.
</event>
<event>
 5   0  0.8551000E-03  0.6016047E+03  0.7818609E-02  0.9902082E-01
       -3   -1    0    0    0  501  0.00000000000E+00  0.00000000000E+00  0.16213807475E+04  0.16213807507E+04  0.10100000352E+00 0.  1.
        3   -1    0    0  501    0  0.00000000000E+00  0.00000000000E+00 -0.55805497949E+02  0.55805589346E+02  0.10100000352E+00 0. -1.
    10030    2    1    2    0    0  0.00000000000E+00  0.00000000000E+00  0.15655752496E+04  0.16771863400E+04  0.60160465179E+03 0.  0.
        1    1    3    3  502    0 -0.28434266852E+03 -0.69877894382E+02  0.59068105254E+03  0.65927064179E+03  0.50400001928E-02 0. -1.
       -1    1    3    3    0  502  0.28434266852E+03  0.69877894382E+02  0.97489419704E+03  0.10179156982E+04  0.50400001928E-02 0.  1.
</event>
<event>
 5   0  0.2092587E-02  0.5998132E+03  0.7818609E-02  0.9905794E-01
        2   -1    0    0  501    0  0.00000000000E+00  0.00000000000E+00  0.60742156340E+03  0.60742156340E+03  0.25500000920E-02 0. -1.
       -2   -1    0    0    0  501  0.00000000000E+00  0.00000000000E+00 -0.14807504542E+03  0.14807504544E+03  0.25500000920E-02 0.  1.
    10030    2    1    2    0    0  0.00000000000E+00  0.00000000000E+00  0.45934651798E+03  0.75549660885E+03  0.59981322293E+03 0.  0.
        3    1    3    3  502    0  0.73095881916E+02  0.15967458700E+03 -0.76543203234E+02  0.19156683912E+03  0.10100000352E+00 0.  1.
       -3    1    3    3    0  502 -0.73095881916E+02 -0.15967458700E+03  0.53588972121E+03  0.56392976973E+03  0.10100000352E+00 0. -1.
</event>
<event>
 5   0  0.2126207E-02  0.5961897E+03  0.7818609E-02  0.9913343E-01
       -2   -1    0    0    0  501  0.00000000000E+00  0.00000000000E+00  0.50218346693E+03  0.50218346694E+03  0.25500000920E-02 0.  1.
        2   -1    0    0  501    0  0.00000000000E+00  0.00000000000E+00 -0.17694834976E+03  0.17694834978E+03  0.25500000920E-02 0. -1.
    10030    2    1    2    0    0  0.00000000000E+00  0.00000000000E+00  0.32523511717E+03  0.67913181671E+03  0.59618968712E+03 0.  0.
        5    1    3    3  502    0 -0.21355000424E+03  0.20608261678E+03  0.19411988063E+03  0.35465231890E+03  0.46999998093E+01 0.  1.
       -5    1    3    3    0  502  0.21355000424E+03 -0.20608261678E+03  0.13111523655E+03  0.32447949781E+03  0.46999998093E+01 0. -1.
</event>
<event>
 5   0  0.8551000E-03  0.5995504E+03  0.7818609E-02  0.9906339E-01
       -4   -1    0    0    0  501  0.00000000000E+00  0.00000000000E+00  0.65314499472E+03  0.65314622943E+03  0.12699999809E+01 0.  1.
        4   -1    0    0  501    0  0.00000000000E+00  0.00000000000E+00 -0.13758409297E+03  0.13758995435E+03  0.12699999809E+01 0. -1.
    10030    2    1    2    0    0  0.00000000000E+00  0.00000000000E+00  0.51556090174E+03  0.79073618379E+03  0.59955038899E+03 0.  0.
        2    1    3    3  502    0 -0.18832453681E+03 -0.12763346196E+03  0.51524544687E+03  0.56323556555E+03  0.25500000920E-02 0.  1.
       -2    1    3    3    0  502  0.18832453681E+03  0.12763346196E+03  0.31545487416E+00  0.22750061823E+03  0.25500000920E-02 0. -1.
</event>
<event>
 5   0  0.1276705E-02  0.6020643E+03  0.7818609E-02  0.9901132E-01
       -1   -1    0    0    0  501  0.00000000000E+00  0.00000000000E+00  0.36870349083E+02  0.36870349427E+02  0.50400001928E-02 0. -1.
        1   -1    0    0  501    0  0.00000000000E+00  0.00000000000E+00 -0.24578113570E+04  0.24578113570E+04  0.50400001928E-02 0.  1.
    10030    2    1    2    0    0  0.00000000000E+00  0.00000000000E+00 -0.24209410080E+04  0.24946817065E+04  0.60206432597E+03 0.  0.
        1    1    3    3  502    0 -0.13135986448E+03 -0.26945659480E+03 -0.13245567763E+04  0.13580548311E+04  0.50400001928E-02 0.  1.
       -1    1    3    3    0  502  0.13135986448E+03  0.26945659480E+03 -0.10963842316E+04  0.11366268754E+04  0.50400001928E-02 0. -1.
</event>
<event>
 5   0  0.2179625E-02  0.6032986E+03  0.7818609E-02  0.9898586E-01
       -2   -1    0    0    0  501  0.00000000000E+00  0.00000000000E+00  0.11090620633E+03  0.11090620636E+03  0.25500000920E-02 0.  1.
        2   -1    0    0  501    0  0.00000000000E+00  0.00000000000E+00 -0.82044378446E+03  0.82044378446E+03  0.25500000920E-02 0. -1.
    10030    2    1    2    0    0  0.00000000000E+00  0.00000000000E+00 -0.70953757813E+03  0.93134999082E+03  0.60329862475E+03 0.  0.
        1    1    3    3  502    0 -0.13260201290E+02  0.12410947341E+03 -0.77870897926E+03  0.78864863452E+03  0.50400001928E-02 0. -1.
       -1    1    3    3    0  502  0.13260201290E+02 -0.12410947341E+03  0.69171401134E+02  0.14270135630E+03  0.50400001928E-02 0.  1.
</event>
<event>
 5   0  0.1250390E-02  0.5992462E+03  0.7818609E-02  0.9906971E-01
       -1   -1    0    0    0  501  0.00000000000E+00  0.00000000000E+00  0.12568430795E+03  0.12568430806E+03  0.50400001928E-02 0. -1.
        1   -1    0    0  501    0  0.00000000000E+00  0.00000000000E+00 -0.71428163301E+03  0.71428163302E+03  0.50400001928E-02 0.  1.
    10030    2    1    2    0    0  0.00000000000E+00  0.00000000000E+00 -0.58859732505E+03  0.83996594108E+03  0.59924616904E+03 0.  0.
        3    1    3    3  502    0 -0.25456610410E+02  0.10376330817E+03 -0.68667353166E+03  0.69493554551E+03  0.10100000352E+00 0.  1.
       -3    1    3    3    0  502  0.25456610410E+02 -0.10376330817E+03  0.98076206604E+02  0.14503039557E+03  0.10100000352E+00 0. -1.
</event>
<event>
 5   0  0.1332555E-02  0.6159114E+03  0.7818609E-02  0.9872934E-01
       -1   -1    0    0    0  501  0.00000000000E+00  0.00000000000E+00  0.37149608021E+03  0.37149608025E+03  0.50400001928E-02 0.  1.
        1   -1    0    0  501    0  0.00000000000E+00  0.00000000000E+00 -0.25528321184E+03  0.25528321189E+03  0.50400001928E-02 0. -1.
    10030    2    1    2    0    0  0.00000000000E+00  0.00000000000E+00  0.11621286837E+03  0.62677929213E+03  0.61591139807E+03 0.  0.
        2    1    3    3  502    0 -0.18205434370E+03  0.13075864972E+03  0.27300820246E+03  0.35323517259E+03  0.25500000920E-02 0.  1.
       -2    1    3    3    0  502  0.18205434370E+03 -0.13075864972E+03 -0.15679533409E+03  0.27354411954E+03  0.25500000920E-02 0. -1.
</event>
<event>
 5   0  0.1303808E-02  0.5991443E+03  0.7818609E-02  0.9907183E-01
        1   -1    0    0  501    0  0.00000000000E+00  0.00000000000E+00  0.63724244602E+03  0.63724244604E+03  0.50400001928E-02 0.  1.
       -1   -1    0    0    0  501  0.00000000000E+00  0.00000000000E+00 -0.14083097997E+03  0.14083098006E+03  0.50400001928E-02 0. -1.
    10030    2    1    2    0    0  0.00000000000E+00  0.00000000000E+00  0.49641146606E+03  0.77807342610E+03  0.59914431715E+03 0.  0.
        4    1    3    3  502    0 -0.11248047960E+03  0.17150594362E+03  0.53176102769E+03  0.56994521706E+03  0.12699999809E+01 0.  1.
       -4    1    3    3    0  502  0.11248047960E+03 -0.17150594362E+03 -0.35349561628E+02  0.20812820903E+03  0.12699999809E+01 0. -1.
</event>
<event>
 5   0  0.2142838E-02  0.5999450E+03  0.7818609E-02  0.9905520E-01
        2   -1    0    0  501    0  0.00000000000E+00  0.00000000000E+00  0.15135946917E+04  0.15135946917E+04  0.25500000920E-02 0. -1.
       -2   -1    0    0    0  501  0.00000000000E+00  0.00000000000E+00 -0.59450187405E+02  0.59450187460E+02  0.25500000920E-02 0.  1.
    10030    2    1    2    0    0  0.00000000000E+00  0.00000000000E+00  0.14541445043E+04  0.15730448791E+04  0.59994495788E+03 0.  0.
        4    1    3    3  502    0  0.10122533625E+03 -0.10693643935E+02 -0.12777256808E+02  0.10259529185E+03  0.12699999809E+01 0.  1.
       -4    1    3    3    0  502 -0.10122533625E+03  0.10693643935E+02  0.14669217611E+04  0.14704495873E+04  0.12699999809E+01 0. -1.
</event>
<event>
 5   0  0.1337051E-02  0.5989232E+03  0.7818609E-02  0.9907643E-01
        1   -1    0    0  501    0  0.00000000000E+00  0.00000000000E+00  0.32367001570E+03  0.32367001574E+03  0.50400001928E-02 0.  1.
       -1   -1    0    0    0  501  0.00000000000E+00  0.00000000000E+00 -0.27706380134E+03  0.27706380138E+03  0.50400001928E-02 0. -1.
    10030    2    1    2    0    0  0.00000000000E+00  0.00000000000E+00  0.46606214359E+02  0.60073381712E+03  0.59892318357E+03 0.  0.
        5    1    3    3  502    0 -0.22627539839E+03 -0.53669482375E+02  0.21248450928E+03  0.31504400635E+03  0.46999998093E+01 0.  1.
       -5    1    3    3    0  502  0.22627539839E+03  0.53669482375E+02 -0.16587829492E+03  0.28568981077E+03  0.46999998093E+01 0. -1.
</event>
<event>
 5   0  0.1250390E-02  0.6023775E+03  0.7818609E-02  0.9900486E-01
       -1   -1    0    0    0  501  0.00000000000E+00  0.00000000000E+00  0.53334298710E+03  0.53334298712E+03  0.50400001928E-02 0. -1.
        1   -1    0    0  501    0  0.00000000000E+00  0.00000000000E+00 -0.17008689898E+03  0.17008689906E+03  0.50400001928E-02 0.  1.
    10030    2    1    2    0    0  0.00000000000E+00  0.00000000000E+00  0.36325608811E+03  0.70342988618E+03  0.60237747237E+03 0.  0.
        3    1    3    3  502    0 -0.17025579464E+03  0.66827609626E+02  0.46106518901E+03  0.49601822924E+03  0.10100000352E+00 0. -1.
       -3    1    3    3    0  502  0.17025579464E+03 -0.66827609626E+02 -0.97809100898E+02  0.20741165694E+03  0.10100000352E+00 0.  1.
</event>
<event>
 5   0  0.1337051E-02  0.5986220E+03  0.7818609E-02  0.9908269E-01
       -1   -1    0    0    0  501  0.00000000000E+00  0.00000000000E+00  0.23289041307E+03  0.23289041312E+03  0.50400001928E-02 0. -1.
        1   -1    0    0  501    0  0.00000000000E+00  0.00000000000E+00 -0.38467474432E+03  0.38467474435E+03  0.50400001928E-02 0.  1.
    10030    2    1    2    0    0  0.00000000000E+00  0.00000000000E+00 -0.15178433126E+03  0.61756515747E+03  0.59862195124E+03 0.  0.
        5    1    3    3  502    0 -0.88732057003E+02  0.24324958734E+03  0.78927528291E+02  0.27073120323E+03  0.46999998093E+01 0. -1.
       -5    1    3    3    0  502  0.88732057003E+02 -0.24324958734E+03 -0.23071185955E+03  0.34683395424E+03  0.46999998093E+01 0.  1.
</event>
<event>
 5   0  0.2126207E-02  0.6000796E+03  0.7818609E-02  0.9905241E-01
       -2   -1    0    0    0  501  0.00000000000E+00  0.00000000000E+00  0.14864139249E+03  0.14864139251E+03  0.25500000920E-02 0. -1.
        2   -1    0    0  501    0  0.00000000000E+00  0.00000000000E+00 -0.60564484674E+03  0.60564484675E+03  0.25500000920E-02 0.  1.
    10030    2    1    2    0    0  0.00000000000E+00  0.00000000000E+00 -0.45700345425E+03  0.75428623926E+03  0.60007963934E+03 0.  0.
        5    1    3    3  502    0  0.21900541722E+03 -0.11052157950E+03 -0.11428655937E+02  0.24562389232E+03  0.46999998093E+01 0. -1.
       -5    1    3    3    0  502 -0.21900541722E+03  0.11052157950E+03 -0.44557479831E+03  0.50866234694E+03  0.46999998093E+01 0.  1.
</event>
<event>
 5   0  0.2179625E-02  0.5963131E+03  0.7818609E-02  0.9913085E-01
       -2   -1    0    0    0  501  0.00000000000E+00  0.00000000000E+00  0.54452190333E+03  0.54452190333E+03  0.25500000920E-02 0. -1.
        2   -1    0    0  501    0  0.00000000000E+00  0.00000000000E+00 -0.16325760311E+03  0.16325760313E+03  0.25500000920E-02 0.  1.
    10030    2    1    2    0    0  0.00000000000E+00  0.00000000000E+00  0.38126430022E+03  0.70777950646E+03  0.59631314185E+03 0.  0.
        1    1    3    3  502    0 -0.24159258055E+03  0.86259211411E+02  0.37098909993E+03  0.45104383248E+03  0.50400001928E-02 0.  1.
       -1    1    3    3    0  502  0.24159258055E+03 -0.86259211411E+02  0.10275200291E+02  0.25673567398E+03  0.50400001928E-02 0. -1.
</event>
<event>
 5   0  0.1332555E-02  0.5993965E+03  0.7818609E-02  0.9906659E-01
        1   -1    0    0  501    0  0.00000000000E+00  0.00000000000E+00  0.21019502627E+03  0.21019502633E+03  0.50400001928E-02 0. -1.
       -1   -1    0    0    0  501  0.00000000000E+00  0.00000000000E+00 -0.42731282882E+03  0.42731282885E+03  0.50400001928E-02 0.  1.
    10030    2    1    2    0    0  0.00000000000E+00  0.00000000000E+00 -0.21711780255E+03  0.63750785518E+03  0.59939646749E+03 0.  0.
        2    1    3    3  502    0  0.92660909817E+02  0.24702549317E+03 -0.25976506072E+03  0.37025062493E+03  0.25500000920E-02 0.  1.
       -2    1    3    3    0  502 -0.92660909817E+02 -0.24702549317E+03  0.42647258173E+02  0.26725723025E+03  0.25500000920E-02 0. -1.
</event>
<event>
 5   0  0.8551000E-03  0.5998967E+03  0.7818609E-02  0.9905620E-01
        4   -1    0    0  501    0  0.00000000000E+00  0.00000000000E+00  0.47784658020E+03  0.47784826787E+03  0.12699999809E+01 0.  1.
       -4   -1    0    0    0  501  0.00000000000E+00  0.00000000000E+00 -0.18827593093E+03  0.18828021422E+03  0.12699999809E+01 0. -1.
    10030    2    1    2    0    0  0.00000000000E+00  0.00000000000E+00  0.28957064927E+03  0.66612848209E+03  0.59989665255E+03 0.  0.
        2    1    3    3  502    0 -0.19453134893E+03 -0.74256035716E+02  0.38452129459E+03  0.43727912202E+03  0.25500000920E-02 0.  1.
       -2    1    3    3    0  502  0.19453134893E+03  0.74256035716E+02 -0.94950645312E+02  0.22884936008E+03  0.25500000920E-02 0. -1.
</event>
<event>
 5   0  0.2179625E-02  0.6029071E+03  0.7818609E-02  0.9899393E-01
        2   -1    0    0  501    0  0.00000000000E+00  0.00000000000E+00  0.72173299051E+03  0.72173299052E+03  0.25500000920E-02 0. -1.
       -2   -1    0    0    0  501  0.00000000000E+00  0.00000000000E+00 -0.12591118224E+03  0.12591118227E+03  0.25500000920E-02 0.  1.
    10030    2    1    2    0    0  0.00000000000E+00  0.00000000000E+00  0.59582180827E+03  0.84764417279E+03  0.60290713750E+03 0.  0.
        1    1    3    3  502    0  0.11727359301E+03 -0.16958951916E+03 -0.11267240545E+02  0.20649612917E+03  0.50400001928E-02 0.  1.
       -1    1    3    3    0  502 -0.11727359301E+03  0.16958951916E+03  0.60708904881E+03  0.64114804362E+03  0.50400001928E-02 0. -1.
</event>
<event>
 5   0  0.8551000E-03  0.6199997E+03  0.7818609E-02  0.9864760E-01
        3   -1    0    0  501    0  0.00000000000E+00  0.00000000000E+00  0.11029881098E+04  0.11029881144E+04  0.10100000352E+00 0. -1.
       -3   -1    0    0    0  501  0.00000000000E+00  0.00000000000E+00 -0.87126848646E+02  0.87126907187E+02  0.10100000352E+00 0.  1.
    10030    2    1    2    0    0  0.00000000000E+00  0.00000000000E+00  0.10158612612E+04  0.11901150216E+04  0.61999972803E+03 0.  0.
        2    1    3    3  502    0  0.18196827295E+03 -0.15905870656E+03  0.13528350090E+03  0.27697247176E+03  0.25500000920E-02 0. -1.
       -2    1    3    3    0  502 -0.18196827295E+03  0.15905870656E+03  0.88057776025E+03  0.91314254985E+03  0.25500000920E-02 0.  1.
</event>
<event>
 5   0  0.2179625E-02  0.6114135E+03  0.7818609E-02  0.9882006E-01
       -2   -1    0    0    0  501  0.00000000000E+00  0.00000000000E+00  0.27051542971E+03  0.27051542972E+03  0.25500000920E-02 0. -1.
        2   -1    0    0  501    0  0.00000000000E+00  0.00000000000E+00 -0.34547608931E+03  0.34547608932E+03  0.25500000920E-02 0.  1.
    10030    2    1    2    0    0  0.00000000000E+00  0.00000000000E+00 -0.74960659606E+02  0.61599151904E+03  0.61141348615E+03 0.  0.
        1    1    3    3  502    0 -0.45071310414E+02  0.13773699198E+03  0.23370739999E+03  0.27499463780E+03  0.50400001928E-02 0. -1.
       -1    1    3    3    0  502  0.45071310414E+02 -0.13773699198E+03 -0.30866805959E+03  0.34099688125E+03  0.50400001928E-02 0.  1.
</event>
<event>
 5   0  0.2092587E-02  0.6000752E+03  0.7818609E-02  0.9905250E-01
        2   -1    0    0  501    0  0.00000000000E+00  0.00000000000E+00  0.14266535906E+04  0.14266535906E+04  0.25500000920E-02 0.  1.
       -2   -1    0    0    0  501  0.00000000000E+00  0.00000000000E+00 -0.63100497614E+02  0.63100497665E+02  0.25500000920E-02 0. -1.
    10030    2    1    2    0    0  0.00000000000E+00  0.00000000000E+00  0.13635530930E+04  0.14897540883E+04  0.60007516706E+03 0.  0.
        3    1    3    3  502    0 -0.94244465662E+02  0.73139122780E+02  0.13652447206E+04  0.13704468279E+04  0.10100000352E+00 0.  1.
       -3    1    3    3    0  502  0.94244465662E+02 -0.73139122780E+02 -0.16916276076E+01  0.11930726044E+03  0.10100000352E+00 0. -1.
</event>
<event>
 5   0  0.1303808E-02  0.5981290E+03  0.7818609E-02  0.9909295E-01
        1   -1    0    0  501    0  0.00000000000E+00  0.00000000000E+00  0.55561252810E+03  0.55561252813E+03  0.50400001928E-02 0.  1.
       -1   -1    0    0    0  501  0.00000000000E+00  0.00000000000E+00 -0.16097474856E+03  0.16097474864E+03  0.50400001928E-02 0. -1.
    10030    2    1    2    0    0  0.00000000000E+00  0.00000000000E+00  0.39463777954E+03  0.71658727676E+03  0.59812903974E+03 0.  0.
        4    1    3    3  502    0 -0.27004256200E+03 -0.26360710593E+02  0.46630829902E+02  0.27530695514E+03  0.12699999809E+01 0. -1.
       -4    1    3    3    0  502  0.27004256200E+03  0.26360710593E+02  0.34800694964E+03  0.44128032162E+03  0.12699999809E+01 0.  1.
</event>
<event>
 5   0  0.1303808E-02  0.5993593E+03  0.7818609E-02  0.9906736E-01
       -1   -1    0    0    0  501  0.00000000000E+00  0.00000000000E+00  0.15637517823E+03  0.15637517831E+03  0.50400001928E-02 0.  1.
        1   -1    0    0  501    0  0.00000000000E+00  0.00000000000E+00 -0.57431040157E+03  0.57431040159E+03  0.50400001928E-02 0. -1.
    10030    2    1    2    0    0  0.00000000000E+00  0.00000000000E+00 -0.41793522334E+03  0.73068557990E+03  0.59935929606E+03 0.  0.
        4    1    3    3  502    0 -0.28665984176E+03  0.82821509588E+02 -0.17507256870E+03  0.34595561065E+03  0.12699999809E+01 0.  1.
       -4    1    3    3    0  502  0.28665984176E+03 -0.82821509588E+02 -0.24286265463E+03  0.38472996925E+03  0.12699999809E+01 0. -1.
</event>
<event>
 5   0  0.1276705E-02  0.5974195E+03  0.7818609E-02  0.9910774E-01
       -1   -1    0    0    0  501  0.00000000000E+00  0.00000000000E+00  0.37978948751E+03  0.37978948755E+03  0.50400001928E-02 0. -1.
        1   -1    0    0  501    0  0.00000000000E+00  0.00000000000E+00 -0.23493936304E+03  0.23493936309E+03  0.50400001928E-02 0.  1.
    10030    2    1    2    0    0  0.00000000000E+00  0.00000000000E+00  0.14485012447E+03  0.61472885064E+03  0.59741945169E+03 0.  0.
        1    1    3    3  502    0 -0.28227754278E+03  0.64714349991E+02 -0.29007401929E+01  0.28961521468E+03  0.50400001928E-02 0. -1.
       -1    1    3    3    0  502  0.28227754278E+03 -0.64714349991E+02  0.14775086467E+03  0.32511363596E+03  0.50400001928E-02 0.  1.
</event>
<event>
 5   0  0.2126207E-02  0.6001555E+03  0.7818609E-02  0.9905084E-01
       -2   -1    0    0    0  501  0.00000000000E+00  0.00000000000E+00  0.28968588591E+03  0.28968588592E+03  0.25500000920E-02 0.  1.
        2   -1    0    0  501    0  0.00000000000E+00  0.00000000000E+00 -0.31084239209E+03  0.31084239210E+03  0.25500000920E-02 0. -1.
    10030    2    1    2    0    0  0.00000000000E+00  0.00000000000E+00 -0.21156506179E+02  0.60052827802E+03  0.60015549231E+03 0.  0.
        5    1    3    3  502    0 -0.12509115677E+03 -0.24919859316E+03  0.10029141637E+03  0.29635821995E+03  0.46999998093E+01 0.  1.
       -5    1    3    3    0  502  0.12509115677E+03  0.24919859316E+03 -0.12144792254E+03  0.30417005807E+03  0.46999998093E+01 0. -1.
</event>
<event>
 5   0  0.1276705E-02  0.5997848E+03  0.7818609E-02  0.9905853E-01
       -1   -1    0    0    0  501  0.00000000000E+00  0.00000000000E+00  0.22088336898E+03  0.22088336904E+03  0.50400001928E-02 0.  1.
        1   -1    0    0  501    0  0.00000000000E+00  0.00000000000E+00 -0.40716256212E+03  0.40716256215E+03  0.50400001928E-02 0. -1.
    10030    2    1    2    0    0  0.00000000000E+00  0.00000000000E+00 -0.18627919314E+03  0.62804593119E+03  0.59978475630E+03 0.  0.
        1    1    3    3  502    0 -0.35385969263E+02 -0.35325521878E+02  0.21648794271E+03  0.22218705786E+03  0.50400001928E-02 0.  1.
       -1    1    3    3    0  502  0.35385969263E+02  0.35325521878E+02 -0.40276713585E+03  0.40585887333E+03  0.50400001928E-02 0. -1.
</event>
<event>
 5   0  0.8551000E-03  0.5991668E+03  0.7818609E-02  0.9907136E-01
        3   -1    0    0  501    0  0.00000000000E+00  0.00000000000E+00  0.96916237119E+03  0.96916237645E+03  0.10100000352E+00 0. -1.
       -3   -1    0    0    0  501  0.00000000000E+00  0.00000000000E+00 -0.92605919723E+02  0.92605974801E+02  0.10100000352E+00 0.  1.
    10030    2    1    2    0    0  0.00000000000E+00  0.00000000000E+00  0.87655645146E+03  0.10617683512E+04  0.59916677070E+03 0.  0.
        2    1    3    3  502    0  0.13757386264E+03  0.11092634976E+03  0.86695547720E+03  0.88478416702E+03  0.25500000920E-02 0. -1.
       -2    1    3    3    0  502 -0.13757386264E+03 -0.11092634976E+03  0.96009742633E+01  0.17698418423E+03  0.25500000920E-02 0.  1.
</event>
<event>
 5   0  0.2126207E-02  0.6001388E+03  0.7818609E-02  0.9905118E-01
       -2   -1    0    0    0  501  0.00000000000E+00  0.00000000000E+00  0.96221885412E+02  0.96221885445E+02  0.25500000920E-02 0.  1.
        2   -1    0    0  501    0  0.00000000000E+00  0.00000000000E+00 -0.93577091876E+03  0.93577091876E+03  0.25500000920E-02 0. -1.
    10030    2    1    2    0    0  0.00000000000E+00  0.00000000000E+00 -0.83954903335E+03  0.10319928042E+04  0.60013879107E+03 0.  0.
        5    1    3    3  502    0 -0.29271993588E+03 -0.65259247409E+02 -0.43474798147E+03  0.52817764780E+03  0.46999998093E+01 0.  1.
       -5    1    3    3    0  502  0.29271993588E+03  0.65259247409E+02 -0.40480105187E+03  0.50381515641E+03  0.46999998093E+01 0. -1.
</event>
<event>
 5   0  0.2179625E-02  0.5990448E+03  0.7818609E-02  0.9907390E-01
       -2   -1    0    0    0  501  0.00000000000E+00  0.00000000000E+00  0.65729652781E+03  0.65729652782E+03  0.25500000920E-02 0.  1.
        2   -1    0    0  501    0  0.00000000000E+00  0.00000000000E+00 -0.13648887818E+03  0.13648887820E+03  0.25500000920E-02 0. -1.
    10030    2    1    2    0    0  0.00000000000E+00  0.00000000000E+00  0.52080764963E+03  0.79378540602E+03  0.59904479205E+03 0.  0.
        1    1    3    3  502    0 -0.17388739472E+03  0.23972208391E+03  0.20099385148E+03  0.35791344193E+03  0.50400001928E-02 0. -1.
       -1    1    3    3    0  502  0.17388739472E+03 -0.23972208391E+03  0.31981379816E+03  0.43587196408E+03  0.50400001928E-02 0.  1.
</event>
<event>
 5   0  0.2142838E-02  0.6000336E+03  0.7818609E-02  0.9905336E-01
       -2   -1    0    0    0  501  0.00000000000E+00  0.00000000000E+00  0.70282275975E+02  0.70282276022E+02  0.25500000920E-02 0. -1.
        2   -1    0    0  501    0  0.00000000000E+00  0.00000000000E+00 -0.12806937256E+04  0.12806937256E+04  0.25500000920E-02 0.  1.
    10030    2    1    2    0    0  0.00000000000E+00  0.00000000000E+00 -0.12104114496E+04  0.13509760016E+04  0.60003356538E+03 0.  0.
        4    1    3    3  502    0  0.85431693249E+02 -0.27986973057E+03 -0.75426147787E+03  0.80903499937E+03  0.12699999809E+01 0.  1.
       -4    1    3    3    0  502 -0.85431693249E+02  0.27986973057E+03 -0.45614997176E+03  0.54194100227E+03  0.12699999809E+01 0. -1.
</event>
<event>
 5   0  0.2126207E-02  0.6004494E+03  0.7818609E-02  0.9904474E-01
        2   -1    0    0  501    0  0.00000000000E+00  0.00000000000E+00  0.18669557032E+04  0.18669557032E+04  0.25500000920E-02 0. -1.
       -2   -1    0    0    0  501  0.00000000000E+00  0.00000000000E+00 -0.48279067503E+02  0.48279067570E+02  0.25500000920E-02 0.  1.
    10030    2    1    2    0    0  0.00000000000E+00  0.00000000000E+00  0.18186766357E+04  0.19152347707E+04  0.60044943329E+03 0.  0.
        5    1    3    3  502    0 -0.87676973845E+02  0.26943457681E+03  0.12255911568E+04  0.12579260775E+04  0.46999998093E+01 0. -1.
       -5    1    3    3    0  502  0.87676973845E+02 -0.26943457681E+03  0.59308547888E+03  0.65730869321E+03  0.46999998093E+01 0.  1.
</event>
<event>
 5   0  0.1303808E-02  0.5999554E+03  0.7818609E-02  0.9905499E-01
        1   -1    0    0  501    0  0.00000000000E+00  0.00000000000E+00  0.36168591709E+03  0.36168591712E+03  0.50400001928E-02 0. -1.
       -1   -1    0    0    0  501  0.00000000000E+00  0.00000000000E+00 -0.24879771646E+03  0.24879771651E+03  0.50400001928E-02 0.  1.
    10030    2    1    2    0    0  0.00000000000E+00  0.00000000000E+00  0.11288820062E+03  0.61048363363E+03  0.59995543259E+03 0.  0.
        4    1    3    3  502    0 -0.24304003856E+03 -0.15540231407E+03  0.14014743966E+03  0.32071990475E+03  0.12699999809E+01 0. -1.
       -4    1    3    3    0  502  0.24304003856E+03  0.15540231407E+03 -0.27259239041E+02  0.28976372888E+03  0.12699999809E+01 0.  1.
</event>
<event>
 5   0  0.2179625E-02  0.6003244E+03  0.7818609E-02  0.9904733E-01
       -2   -1    0    0    0  501  0.00000000000E+00  0.00000000000E+00  0.66840586158E+02  0.66840586206E+02  0.25500000920E-02 0.  1.
        2   -1    0    0  501    0  0.00000000000E+00  0.00000000000E+00 -0.13479435197E+04  0.13479435197E+04  0.25500000920E-02 0. -1.
    10030    2    1    2    0    0  0.00000000000E+00  0.00000000000E+00 -0.12811029336E+04  0.14147841059E+04  0.60032436233E+03 0.  0.
        1    1    3    3  502    0 -0.14534547641E+03 -0.71170893385E+02 -0.12363199251E+04  0.12468670983E+04  0.50400001928E-02 0. -1.
       -1    1    3    3    0  502  0.14534547641E+03  0.71170893385E+02 -0.44783008448E+02  0.16791700762E+03  0.50400001928E-02 0.  1.
</event>
<event>
 5   0  0.1303808E-02  0.6002894E+03  0.7818609E-02  0.9904806E-01
       -1   -1    0    0    0  501  0.00000000000E+00  0.00000000000E+00  0.45868397130E+02  0.45868397407E+02  0.50400001928E-02 0.  1.
        1   -1    0    0  501    0  0.00000000000E+00  0.00000000000E+00 -0.19640282874E+04  0.19640282874E+04  0.50400001928E-02 0. -1.
    10030    2    1    2    0    0  0.00000000000E+00  0.00000000000E+00 -0.19181598902E+04  0.20098966848E+04  0.60028936270E+03 0.  0.
        4    1    3    3  502    0  0.93835122503E+02 -0.20802816893E+03 -0.16118051940E+04  0.16278815514E+04  0.12699999809E+01 0. -1.
       -4    1    3    3    0  502 -0.93835122503E+02  0.20802816893E+03 -0.30635469626E+03  0.38201513334E+03  0.12699999809E+01 0.  1.
</event>
<event>
 5   0  0.1332555E-02  0.5986580E+03  0.7818609E-02  0.9908194E-01
        1   -1    0    0  501    0  0.00000000000E+00  0.00000000000E+00  0.21222152704E+04  0.21222152704E+04  0.50400001928E-02 0.  1.
       -1   -1    0    0    0  501  0.00000000000E+00  0.00000000000E+00 -0.42219018098E+02  0.42219018399E+02  0.50400001928E-02 0. -1.
    10030    2    1    2    0    0  0.00000000000E+00  0.00000000000E+00  0.20799962523E+04  0.21644342888E+04  0.59865798330E+03 0.  0.
        2    1    3    3  502    0  0.89121561434E+02 -0.12056075201E+01  0.20731250158E+04  0.20750401050E+04  0.25500000920E-02 0.  1.
       -2    1    3    3    0  502 -0.89121561434E+02  0.12056075201E+01  0.68712365059E+01  0.89394183813E+02  0.25500000920E-02 0. -1.
</event>
<event>
 5   0  0.8551000E-03  0.5997973E+03  0.7818609E-02  0.9905827E-01
       -4   -1    0    0    0  501  0.00000000000E+00  0.00000000000E+00  0.98802499172E+02  0.98810661078E+02  0.12699999809E+01 0.  1.
        4   -1    0    0  501    0  0.00000000000E+00  0.00000000000E+00 -0.91024666752E+03  0.91024755349E+03  0.12699999809E+01 0. -1.
    10030    2    1    2    0    0  0.00000000000E+00  0.00000000000E+00 -0.81144416835E+03  0.10090582146E+04  0.59979733414E+03 0.  0.
        1    1    3    3  502    0  0.10928229235E+03 -0.30070347746E+02 -0.87283016045E+03  0.88015869833E+03  0.50400001928E-02 0. -1.
       -1    1    3    3    0  502 -0.10928229235E+03  0.30070347746E+02  0.61385992100E+02  0.12889951624E+03  0.50400001928E-02 0.  1.
</event>
<event>
 5   0  0.1276705E-02  0.6099227E+03  0.7818609E-02  0.9885031E-01
        1   -1    0    0  501    0  0.00000000000E+00  0.00000000000E+00  0.52489492821E+03  0.52489492823E+03  0.50400001928E-02 0.  1.
       -1   -1    0    0    0  501  0.00000000000E+00  0.00000000000E+00 -0.17718105551E+03  0.17718105558E+03  0.50400001928E-02 0. -1.
    10030    2    1    2    0    0  0.00000000000E+00  0.00000000000E+00  0.34771387270E+03  0.70207598382E+03  0.60992274083E+03 0.  0.
        1    1    3    3  502    0 -0.29322440311E+03  0.80613737168E+02  0.14754975098E+03  0.33800895585E+03  0.50400001928E-02 0. -1.
       -1    1    3    3    0  502  0.29322440311E+03 -0.80613737168E+02  0.20016412172E+03  0.36406702796E+03  0.50400001928E-02 0.  1.
</event>
<event>
 5   0  0.1303808E-02  0.5978985E+03  0.7818609E-02  0.9909776E-01
       -1   -1    0    0    0  501  0.00000000000E+00  0.00000000000E+00  0.37083310337E+03  0.37083310341E+03  0.50400001928E-02 0. -1.
        1   -1    0    0  501    0  0.00000000000E+00  0.00000000000E+00 -0.24099968899E+03  0.24099968904E+03  0.50400001928E-02 0.  1.
    10030    2    1    2    0    0  0.00000000000E+00  0.00000000000E+00  0.12983341439E+03  0.61183279245E+03  0.59789852854E+03 0.  0.
        4    1    3    3  502    0 -0.22553635190E+03 -0.13742778467E+03  0.20823795380E+03  0.33632974940E+03  0.12699999809E+01 0. -1.
       -4    1    3    3    0  502  0.22553635190E+03  0.13742778467E+03 -0.78404539418E+02  0.27550304305E+03  0.12699999809E+01 0.  1.
</event>
<event>
 5   0  0.2142838E-02  0.5998284E+03  0.7818609E-02  0.9905762E-01
       -2   -1    0    0    0  501  0.00000000000E+00  0.00000000000E+00  0.19787448705E+03  0.19787448707E+03  0.25500000920E-02 0.  1.
        2   -1    0    0  501    0  0.00000000000E+00  0.00000000000E+00 -0.45457361760E+03  0.45457361761E+03  0.25500000920E-02 0. -1.
    10030    2    1    2    0    0  0.00000000000E+00  0.00000000000E+00 -0.25669913055E+03  0.65244810468E+03  0.59982838018E+03 0.  0.
        4    1    3    3  502    0 -0.12733282305E+03 -0.21113992246E+03 -0.31407100167E+03  0.39929427954E+03  0.12699999809E+01 0. -1.
       -4    1    3    3    0  502  0.12733282305E+03  0.21113992246E+03  0.57371871126E+02  0.25315382513E+03  0.12699999809E+01 0.  1.
</event>
<event>
 5   0  0.2142838E-02  0.5947980E+03  0.7818609E-02  0.9916258E-01
        2   -1    0    0  501    0  0.00000000000E+00  0.00000000000E+00  0.12455907157E+04  0.12455907157E+04  0.25500000920E-02 0.  1.
       -2   -1    0    0    0  501  0.00000000000E+00  0.00000000000E+00 -0.71007405582E+02  0.71007405628E+02  0.25500000920E-02 0. -1.
    10030    2    1    2    0    0  0.00000000000E+00  0.00000000000E+00  0.11745833101E+04  0.13165981213E+04  0.59479799989E+03 0.  0.
        4    1    3    3  502    0  0.13415085142E+03  0.24385344129E+03  0.81927462046E+03  0.86525919145E+03  0.12699999809E+01 0.  1.
       -4    1    3    3    0  502 -0.13415085142E+03 -0.24385344129E+03  0.35530868962E+03  0.45133892984E+03  0.12699999809E+01 0. -1.
</event>
<event>
 5   0  0.1250390E-02  0.5996962E+03  0.7818609E-02  0.9906037E-01
       -1   -1    0    0    0  501  0.00000000000E+00  0.00000000000E+00  0.43270391479E+03  0.43270391482E+03  0.50400001928E-02 0. -1.
        1   -1    0    0  501    0  0.00000000000E+00  0.00000000000E+00 -0.20778384777E+03  0.20778384783E+03  0.50400001928E-02 0.  1.
    10030    2    1    2    0    0  0.00000000000E+00  0.00000000000E+00  0.22492006702E+03  0.64048776264E+03  0.59969620438E+03 0.  0.
        3    1    3    3  502    0  0.23260051836E+03  0.10924988945E+03  0.27746947357E+03  0.37819024108E+03  0.10100000352E+00 0. -1.
       -3    1    3    3    0  502 -0.23260051836E+03 -0.10924988945E+03 -0.52549406547E+02  0.26229752156E+03  0.10100000352E+00 0.  1.
</event>
<event>
 5   0  0.2141800E-02  0.5990358E+03  0.7818609E-02  0.9907408E-01
        2   -1    0    0  501    0  0.00000000000E+00  0.00000000000E+00  0.82431552134E+03  0.82431552134E+03  0.25500000920E-02 0.  1.
       -2   -1    0    0    0  501  0.00000000000E+00  0.00000000000E+00 -0.10883086781E+03  0.10883086784E+03  0.25500000920E-02 0. -1.
    10030    2    1    2    0    0  0.00000000000E+00  0.00000000000E+00  0.71548465353E+03  0.93314638919E+03  0.59903580379E+03 0.  0.
        2    1    3    3  502    0 -0.31778576349E+01 -0.20087510374E+03  0.11690716273E+02  0.20124010270E+03  0.25500000920E-02 0. -1.
       -2    1    3    3    0  502  0.31778576349E+01  0.20087510374E+03  0.70379393725E+03  0.73190628649E+03  0.25500000920E-02 0.  1.
</event>
<event>
 5   0  0.1337051E-02  0.5983624E+03  0.7818609E-02  0.9908809E-01
        1   -1    0    0  501    0  0.00000000000E+00  0.00000000000E+00  0.33183859602E+03  0.33183859606E+03  0.50400001928E-02 0. -1.
       -1   -1    0    0    0  501  0.00000000000E+00  0.00000000000E+00 -0.26973770238E+03  0.26973770243E+03  0.50400001928E-02 0.  1.
    10030    2    1    2    0    0  0.00000000000E+00  0.00000000000E+00  0.62100893646E+02  0.60157629849E+03  0.59836236672E+03 0.  0.
        5    1    3    3  502    0 -0.12821962575E+03  0.26562583243E+03  0.81217716829E+02  0.30596693090E+03  0.46999998093E+01 0. -1.
       -5    1    3    3    0  502  0.12821962575E+03 -0.26562583243E+03 -0.19116823182E+02  0.29560936759E+03  0.46999998093E+01 0.  1.
</event>
<event>
 5   0  0.2179625E-02  0.6004009E+03  0.7818609E-02  0.9904575E-01
        2   -1    0    0  501    0  0.00000000000E+00  0.00000000000E+00  0.45127974393E+03  0.45127974393E+03  0.25500000920E-02 0.  1.
       -2   -1    0    0    0  501  0.00000000000E+00  0.00000000000E+00 -0.19969941436E+03  0.19969941438E+03  0.25500000920E-02 0. -1.
    10030    2    1    2    0    0  0.00000000000E+00  0.00000000000E+00  0.25158032956E+03  0.65097915831E+03  0.60040086803E+03 0.  0.
        1    1    3    3  502    0  0.17048729282E+03 -0.22618894949E+03  0.17948019338E+02  0.28381241923E+03  0.50400001928E-02 0. -1.
       -1    1    3    3    0  502 -0.17048729282E+03  0.22618894949E+03  0.23363231023E+03  0.36716673909E+03  0.50400001928E-02 0.  1.
</event>
<event>
 5   0  0.2142838E-02  0.6017134E+03  0.7818609E-02  0.9901858E-01
       -2   -1    0    0    0  501  0.00000000000E+00  0.00000000000E+00  0.77642992670E+02  0.77642992712E+02  0.25500000920E-02 0. -1.
        2   -1    0    0  501    0  0.00000000000E+00  0.00000000000E+00 -0.11657811830E+04  0.11657811830E+04  0.25500000920E-02 0.  1.
    10030    2    1    2    0    0  0.00000000000E+00  0.00000000000E+00 -0.10881381903E+04  0.12434241757E+04  0.60171335327E+03 0.  0.
        4    1    3    3  502    0 -0.12694429343E+03  0.24162970281E+03 -0.80556861274E+03  0.85055403687E+03  0.12699999809E+01 0.  1.
       -4    1    3    3    0  502  0.12694429343E+03 -0.24162970281E+03 -0.28256957760E+03  0.39287013885E+03  0.12699999809E+01 0. -1.
</event>
<event>
 5   0  0.1250390E-02  0.6027241E+03  0.7818609E-02  0.9899770E-01
        1   -1    0    0  501    0  0.00000000000E+00  0.00000000000E+00  0.70025485547E+03  0.70025485549E+03  0.50400001928E-02 0. -1.
       -1   -1    0    0    0  501  0.00000000000E+00  0.00000000000E+00 -0.12969434914E+03  0.12969434923E+03  0.50400001928E-02 0.  1.
    10030    2    1    2    0    0  0.00000000000E+00  0.00000000000E+00  0.57056050634E+03  0.82994920473E+03  0.60272414174E+03 0.  0.
        3    1    3    3  502    0 -0.19696209789E+03 -0.22214898760E+02  0.59786615965E+03  0.62986627532E+03  0.10100000352E+00 0. -1.
       -3    1    3    3    0  502  0.19696209789E+03  0.22214898760E+02 -0.27305653314E+02  0.20008292940E+03  0.10100000352E+00 0.  1.
</event>
<event>
 5   0  0.2142838E-02  0.5986784E+03  0.7818609E-02  0.9908152E-01
       -2   -1    0    0    0  501  0.00000000000E+00  0.00000000000E+00  0.90751175915E+02  0.90751175951E+02  0.25500000920E-02 0.  1.
        2   -1    0    0  501    0  0.00000000000E+00  0.00000000000E+00 -0.98735850093E+03  0.98735850094E+03  0.25500000920E-02 0. -1.
    10030    2    1    2    0    0  0.00000000000E+00  0.00000000000E+00 -0.89660732502E+03  0.10781096769E+04  0.59867836116E+03 0.  0.
        4    1    3    3  502    0  0.58073363581E+02  0.20411476932E+03 -0.68135298477E+02  0.22288873101E+03  0.12699999809E+01 0.  1.
       -4    1    3    3    0  502 -0.58073363581E+02 -0.20411476932E+03 -0.82847202654E+03  0.85522094588E+03  0.12699999809E+01 0. -1.
</event>
<event>
 5   0  0.2126207E-02  0.6018785E+03  0.7818609E-02  0.9901516E-01
        2   -1    0    0  501    0  0.00000000000E+00  0.00000000000E+00  0.11639817204E+03  0.11639817206E+03  0.25500000920E-02 0.  1.
       -2   -1    0    0    0  501  0.00000000000E+00  0.00000000000E+00 -0.77805726216E+03  0.77805726216E+03  0.25500000920E-02 0. -1.
    10030    2    1    2    0    0  0.00000000000E+00  0.00000000000E+00 -0.66165909012E+03  0.89445543423E+03  0.60187853615E+03 0.  0.
        5    1    3    3  502    0  0.94601351680E+02 -0.28403497743E+03 -0.28582557357E+03  0.41393674957E+03  0.46999998093E+01 0.  1.
       -5    1    3    3    0  502 -0.94601351680E+02  0.28403497743E+03 -0.37583351655E+03  0.48051868465E+03  0.46999998093E+01 0. -1.
</event>
<event>
 5   0  0.2179625E-02  0.6006287E+03  0.7818609E-02  0.9904102E-01
        2   -1    0    0  501    0  0.00000000000E+00  0.00000000000E+00  0.85258446724E+03  0.85258446724E+03  0.25500000920E-02 0. -1.
       -2   -1    0    0    0  501  0.00000000000E+00  0.00000000000E+00 -0.10578273871E+03  0.10578273874E+03  0.25500000920E-02 0.  1.
    10030    2    1    2    0    0  0.00000000000E+00  0.00000000000E+00  0.74680172853E+03  0.95836720598E+03  0.60062873705E+03 0.  0.
        1    1    3    3  502    0 -0.18634946056E+03 -0.12955141635E+03  0.59593147777E+02  0.23465087730E+03  0.50400001928E-02 0.  1.
       -1    1    3    3    0  502  0.18634946056E+03  0.12955141635E+03  0.68720858075E+03  0.72371632869E+03  0.50400001928E-02 0. -1.
</event>
<event>
 5   0  0.1303808E-02  0.6011617E+03  0.7818609E-02  0.9902999E-01
       -1   -1    0    0    0  501  0.00000000000E+00  0.00000000000E+00  0.16208941680E+03  0.16208941688E+03  0.50400001928E-02 0. -1.
        1   -1    0    0  501    0  0.00000000000E+00  0.00000000000E+00 -0.55740121942E+03  0.55740121944E+03  0.50400001928E-02 0.  1.
    10030    2    1    2    0    0  0.00000000000E+00  0.00000000000E+00 -0.39531180261E+03  0.71949063632E+03  0.60116167082E+03 0.  0.
        4    1    3    3  502    0  0.19211863508E+03  0.64318271607E+02  0.68086537246E+02  0.21373768844E+03  0.12699999809E+01 0. -1.
       -4    1    3    3    0  502 -0.19211863508E+03 -0.64318271607E+02 -0.46339833986E+03  0.50575294788E+03  0.12699999809E+01 0.  1.
</event>
<event>
 5   0  0.2179625E-02  0.5987794E+03  0.7818609E-02  0.9907942E-01
       -2   -1    0    0    0  501  0.00000000000E+00  0.00000000000E+00  0.58930568716E+02  0.58930568771E+02  0.25500000920E-02 0. -1.
        2   -1    0    0  501    0  0.00000000000E+00  0.00000000000E+00 -0.15210135492E+04  0.15210135492E+04  0.25500000920E-02 0.  1.
    10030    2    1    2    0    0  0.00000000000E+00  0.00000000000E+00 -0.14620829805E+04  0.15799441179E+04  0.59877940353E+03 0.  0.
        1    1    3    3  502    0  0.15865979343E+03  0.86816867863E+02 -0.10150205505E+03  0.20739519233E+03  0.50400001928E-02 0. -1.
       -1    1    3    3    0  502 -0.15865979343E+03 -0.86816867863E+02 -0.13605809254E+04  0.13725489256E+04  0.50400001928E-02 0.  1.
</event>
<event>
 5   0  0.1332555E-02  0.6007129E+03  0.7818609E-02  0.9903928E-01
        1   -1    0    0  501    0  0.00000000000E+00  0.00000000000E+00  0.71830767204E+03  0.71830767206E+03  0.50400001928E-02 0. -1.
       -1   -1    0    0    0  501  0.00000000000E+00  0.00000000000E+00 -0.12559239902E+03  0.12559239912E+03  0.50400001928E-02 0.  1.
    10030    2    1    2    0    0  0.00000000000E+00  0.00000000000E+00  0.59271527302E+03  0.84390007118E+03  0.60071285592E+03 0.  0.
        2    1    3    3  502    0  0.17620062063E+03  0.23191405882E+03  0.19328482327E+03  0.34955659385E+03  0.25500000920E-02 0.  1.
       -2    1    3    3    0  502 -0.17620062063E+03 -0.23191405882E+03  0.39943044975E+03  0.49434347734E+03  0.25500000920E-02 0. -1.
</event>
<event>
 5   0  0.2092587E-02  0.5970981E+03  0.7818609E-02  0.9911445E-01
       -2   -1    0    0    0  501  0.00000000000E+00  0.00000000000E+00  0.86176484788E+02  0.86176484826E+02  0.25500000920E-02 0.  1.
        2   -1    0    0  501    0  0.00000000000E+00  0.00000000000E+00 -0.10342907688E+04  0.10342907688E+04  0.25500000920E-02 0. -1.
    10030    2    1    2    0    0  0.00000000000E+00  0.00000000000E+00 -0.94811428403E+03  0.11204672536E+04  0.59709812503E+03 0.  0.
        3    1    3    3  502    0  0.15007935821E+03 -0.11549097697E+03 -0.90716193247E+03  0.92671719604E+03  0.10100000352E+00 0. -1.
       -3    1    3    3    0  502 -0.15007935821E+03  0.11549097697E+03 -0.40952351565E+02  0.19375005761E+03  0.10100000352E+00 0.  1.
</event>
<event>
 5   0  0.1303808E-02  0.6006465E+03  0.7818609E-02  0.9904066E-01
       -1   -1    0    0    0  501  0.00000000000E+00  0.00000000000E+00  0.10351740692E+03  0.10351740704E+03  0.50400001928E-02 0. -1.
        1   -1    0    0  501    0  0.00000000000E+00  0.00000000000E+00 -0.87129352821E+03  0.87129352823E+03  0.50400001928E-02 0.  1.
    10030    2    1    2    0    0  0.00000000000E+00  0.00000000000E+00 -0.76777612129E+03  0.97481093527E+03  0.60064647430E+03 0.  0.
        4    1    3    3  502    0  0.15419500838E+03 -0.20271815502E+03 -0.12563365262E+03  0.28400031436E+03  0.12699999809E+01 0. -1.
       -4    1    3    3    0  502 -0.15419500838E+03  0.20271815502E+03 -0.64214246867E+03  0.69081062091E+03  0.12699999809E+01 0.  1.
</event>
<event>
 5   0  0.1303808E-02  0.6018911E+03  0.7818609E-02  0.9901490E-01
        1   -1    0    0  501    0  0.00000000000E+00  0.00000000000E+00  0.44152365631E+03  0.44152365634E+03  0.50400001928E-02 0.  1.
       -1   -1    0    0    0  501  0.00000000000E+00  0.00000000000E+00 -0.20512652007E+03  0.20512652013E+03  0.50400001928E-02 0. -1.
    10030    2    1    2    0    0  0.00000000000E+00  0.00000000000E+00  0.23639713624E+03  0.64665017647E+03  0.60189105717E+03 0.  0.
        4    1    3    3  502    0  0.21469849775E+03  0.13119327170E+03 -0.59183732653E+02  0.25847910280E+03  0.12699999809E+01 0. -1.
       -4    1    3    3    0  502 -0.21469849775E+03 -0.13119327170E+03  0.29558086889E+03  0.38817107367E+03  0.12699999809E+01 0.  1.
</event>
<event>
 5   0  0.2179625E-02  0.6010804E+03  0.7818609E-02  0.9903167E-01
       -2   -1    0    0    0  501  0.00000000000E+00  0.00000000000E+00  0.20693245328E+03  0.20693245329E+03  0.25500000920E-02 0.  1.
        2   -1    0    0  501    0  0.00000000000E+00  0.00000000000E+00 -0.43649231123E+03  0.43649231124E+03  0.25500000920E-02 0. -1.
    10030    2    1    2    0    0  0.00000000000E+00  0.00000000000E+00 -0.22955985796E+03  0.64342476454E+03  0.60108044323E+03 0.  0.
        1    1    3    3  502    0 -0.10999922772E+03  0.15775691481E+03 -0.36199838722E+03  0.40991451138E+03  0.50400001928E-02 0. -1.
       -1    1    3    3    0  502  0.10999922772E+03 -0.15775691481E+03  0.13243852926E+03  0.23351025315E+03  0.50400001928E-02 0.  1.
</event>
<event>
 5   0  0.2142838E-02  0.5992121E+03  0.7818609E-02  0.9907042E-01
        2   -1    0    0  501    0  0.00000000000E+00  0.00000000000E+00  0.32305500879E+03  0.32305500880E+03  0.25500000920E-02 0.  1.
       -2   -1    0    0    0  501  0.00000000000E+00  0.00000000000E+00 -0.27785915904E+03  0.27785915905E+03  0.25500000920E-02 0. -1.
    10030    2    1    2    0    0  0.00000000000E+00  0.00000000000E+00  0.45195849754E+02  0.60091416785E+03  0.59921212628E+03 0.  0.
        4    1    3    3  502    0  0.54089193515E+02 -0.23441735483E+03 -0.15647311431E+03  0.28698882470E+03  0.12699999809E+01 0. -1.
       -4    1    3    3    0  502 -0.54089193515E+02  0.23441735483E+03  0.20166896406E+03  0.31392534314E+03  0.12699999809E+01 0.  1.
</event>
<event>
 5   0  0.1337051E-02  0.6001770E+03  0.7818609E-02  0.9905039E-01
       -1   -1    0    0    0  501  0.00000000000E+00  0.00000000000E+00  0.33286323982E+03  0.33286323986E+03  0.50400001928E-02 0.  1.
        1   -1    0    0  501    0  0.00000000000E+00  0.00000000000E+00 -0.27054090069E+03  0.27054090074E+03  0.50400001928E-02 0. -1.
    10030    2    1    2    0    0  0.00000000000E+00  0.00000000000E+00  0.62322339126E+02  0.60340414060E+03  0.60017704299E+03 0.  0.
        5    1    3    3  502    0  0.21923171158E+02 -0.20133057912E+03  0.25374808260E+03  0.32469186461E+03  0.46999998093E+01 0.  1.
       -5    1    3    3    0  502 -0.21923171158E+02  0.20133057912E+03 -0.19142574348E+03  0.27871227599E+03  0.46999998093E+01 0. -1.
</event>
<event>
 5   0  0.2179625E-02  0.5979955E+03  0.7818609E-02  0.9909574E-01
       -2   -1    0    0    0  501  0.00000000000E+00  0.00000000000E+00  0.87506603346E+02  0.87506603383E+02  0.25500000920E-02 0.  1.
        2   -1    0    0  501    0  0.00000000000E+00  0.00000000000E+00 -0.10216331411E+04  0.10216331411E+04  0.25500000920E-02 0. -1.
    10030    2    1    2    0    0  0.00000000000E+00  0.00000000000E+00 -0.93412653774E+03  0.11091397445E+04  0.59799547177E+03 0.  0.
        1    1    3    3  502    0  0.17592859924E+03 -0.20991784370E+03 -0.24462104265E+03  0.36722721532E+03  0.50400001928E-02 0.  1.
       -1    1    3    3    0  502 -0.17592859924E+03  0.20991784370E+03 -0.68950549509E+03  0.74191252916E+03  0.50400001928E-02 0. -1.
</event>
<event>
 5   0  0.2092587E-02  0.6002056E+03  0.7818609E-02  0.9904980E-01
        2   -1    0    0  501    0  0.00000000000E+00  0.00000000000E+00  0.29094445289E+03  0.29094445291E+03  0.25500000920E-02 0. -1.
       -2   -1    0    0    0  501  0.00000000000E+00  0.00000000000E+00 -0.30954939438E+03  0.30954939439E+03  0.25500000920E-02 0.  1.
    10030    2    1    2    0    0  0.00000000000E+00  0.00000000000E+00 -0.18604941488E+02  0.60049384730E+03  0.60020556212E+03 0.  0.
        3    1    3    3  502    0 -0.17248468818E+02  0.29897236160E+03 -0.28797371225E+02  0.30085092898E+03  0.10100000352E+00 0. -1.
       -3    1    3    3    0  502  0.17248468818E+02 -0.29897236160E+03  0.10192429737E+02  0.29964291832E+03  0.10100000352E+00 0.  1.
</event>
<event>
 5   0  0.1276705E-02  0.6038091E+03  0.7818609E-02  0.9897535E-01
       -1   -1    0    0    0  501  0.00000000000E+00  0.00000000000E+00  0.21523170764E+03  0.21523170770E+03  0.50400001928E-02 0.  1.
        1   -1    0    0  501    0  0.00000000000E+00  0.00000000000E+00 -0.42348013473E+03  0.42348013476E+03  0.50400001928E-02 0. -1.
    10030    2    1    2    0    0  0.00000000000E+00  0.00000000000E+00 -0.20824842709E+03  0.63871184246E+03  0.60380908432E+03 0.  0.
        1    1    3    3  502    0  0.98908436829E+02 -0.78021798852E+02  0.18610010625E+03  0.22472990354E+03  0.50400001928E-02 0.  1.
       -1    1    3    3    0  502 -0.98908436829E+02  0.78021798852E+02 -0.39434853335E+03  0.41398193892E+03  0.50400001928E-02 0. -1.
</event>
<event>
 5   0  0.1303808E-02  0.5984324E+03  0.7818609E-02  0.9908664E-01
        1   -1    0    0  501    0  0.00000000000E+00  0.00000000000E+00  0.99390216909E+03  0.99390216910E+03  0.50400001928E-02 0.  1.
       -1   -1    0    0    0  501  0.00000000000E+00  0.00000000000E+00 -0.90079636829E+02  0.90079636970E+02  0.50400001928E-02 0. -1.
    10030    2    1    2    0    0  0.00000000000E+00  0.00000000000E+00  0.90382253226E+03  0.10839818061E+04  0.59843244069E+03 0.  0.
        4    1    3    3  502    0 -0.12212599265E+03 -0.37796247532E+02 -0.38114760229E+02  0.13340787928E+03  0.12699999809E+01 0. -1.
       -4    1    3    3    0  502  0.12212599265E+03  0.37796247532E+02  0.94193729249E+03  0.95057392679E+03  0.12699999809E+01 0.  1.
</event>
<event>
 5   0  0.1250390E-02  0.6006935E+03  0.7818609E-02  0.9903968E-01
       -1   -1    0    0    0  501  0.00000000000E+00  0.00000000000E+00  0.28936169056E+03  0.28936169060E+03  0.50400001928E-02 0.  1.
        1   -1    0    0  501    0  0.00000000000E+00  0.00000000000E+00 -0.31174878431E+03  0.31174878435E+03  0.50400001928E-02 0. -1.
    10030    2    1    2    0    0  0.00000000000E+00  0.00000000000E+00 -0.22387093758E+02  0.60111047495E+03  0.60069345022E+03 0.  0.
        3    1    3    3  502    0  0.23824710233E+03 -0.18221776552E+03  0.44105221548E+01  0.29997409679E+03  0.10100000352E+00 0.  1.
       -3    1    3    3    0  502 -0.23824710233E+03  0.18221776552E+03 -0.26797615913E+02  0.30113637817E+03  0.10100000352E+00 0. -1.
</event>
<event>
 5   0  0.1337051E-02  0.5841404E+03  0.7818609E-02  0.9938867E-01
       -1   -1    0    0    0  501  0.00000000000E+00  0.00000000000E+00  0.39809451842E+02  0.39809452161E+02  0.50400001928E-02 0.  1.
        1   -1    0    0  501    0  0.00000000000E+00  0.00000000000E+00 -0.21428328987E+04  0.21428328987E+04  0.50400001928E-02 0. -1.
    10030    2    1    2    0    0  0.00000000000E+00  0.00000000000E+00 -0.21030234468E+04  0.21826423509E+04  0.58414040586E+03 0.  0.
        5    1    3    3  502    0  0.13966731647E+03  0.21896845776E+03 -0.15504260839E+04  0.15720360289E+04  0.46999998093E+01 0.  1.
       -5    1    3    3    0  502 -0.13966731647E+03 -0.21896845776E+03 -0.55259736299E+03  0.61060632192E+03  0.46999998093E+01 0. -1.
</event>
<event>
 5   0  0.8551000E-03  0.5978665E+03  0.7818609E-02  0.9909842E-01
        3   -1    0    0  501    0  0.00000000000E+00  0.00000000000E+00  0.15248152637E+03  0.15248155982E+03  0.10100000352E+00 0.  1.
       -3   -1    0    0    0  501  0.00000000000E+00  0.00000000000E+00 -0.58604529940E+03  0.58604530810E+03  0.10100000352E+00 0. -1.
    10030    2    1    2    0    0  0.00000000000E+00  0.00000000000E+00 -0.43356377302E+03  0.73852686792E+03  0.59786653140E+03 0.  0.
        5    1    3    3  502    0 -0.20705158391E+03 -0.21393044056E+03 -0.24952041202E+03  0.38848309849E+03  0.46999998093E+01 0.  1.
       -5    1    3    3    0  502  0.20705158391E+03  0.21393044056E+03 -0.18404336100E+03  0.35004376944E+03  0.46999998093E+01 0. -1.
</event>
<event>
 5   0  0.8551000E-03  0.6120540E+03  0.7818609E-02  0.9880709E-01
        3   -1    0    0  501    0  0.00000000000E+00  0.00000000000E+00  0.36870658039E+03  0.36870659422E+03  0.10100000352E+00 0.  1.
       -3   -1    0    0    0  501  0.00000000000E+00  0.00000000000E+00 -0.25400282750E+03  0.25400284758E+03  0.10100000352E+00 0. -1.
    10030    2    1    2    0    0  0.00000000000E+00  0.00000000000E+00  0.11470375289E+03  0.62270944180E+03  0.61205399924E+03 0.  0.
        4    1    3    3  502    0 -0.18103296361E+03 -0.33240193570E+02  0.30609350975E+03  0.35717319887E+03  0.12699999809E+01 0.  1.
       -4    1    3    3    0  502  0.18103296361E+03  0.33240193570E+02 -0.19138975686E+03  0.26553624293E+03  0.12699999809E+01 0. -1.
</event>
<event>
 5   0  0.1250390E-02  0.5990115E+03  0.7818609E-02  0.9907459E-01
       -1   -1    0    0    0  501  0.00000000000E+00  0.00000000000E+00  0.21327785687E+03  0.21327785693E+03  0.50400001928E-02 0. -1.
        1   -1    0    0  501    0  0.00000000000E+00  0.00000000000E+00 -0.42059545724E+03  0.42059545727E+03  0.50400001928E-02 0.  1.
    10030    2    1    2    0    0  0.00000000000E+00  0.00000000000E+00 -0.20731760037E+03  0.63387331419E+03  0.59901151160E+03 0.  0.
        3    1    3    3  502    0 -0.24967229725E+03 -0.48881606852E+02  0.63583566575E+02  0.26223757862E+03  0.10100000352E+00 0. -1.
       -3    1    3    3    0  502  0.24967229725E+03  0.48881606852E+02 -0.27090116694E+03  0.37163573557E+03  0.10100000352E+00 0.  1.
</event>
<event>
 5   0  0.2142838E-02  0.5999611E+03  0.7818609E-02  0.9905487E-01
        2   -1    0    0  501    0  0.00000000000E+00  0.00000000000E+00  0.46531548091E+03  0.46531548092E+03  0.25500000920E-02 0. -1.
       -2   -1    0    0    0  501  0.00000000000E+00  0.00000000000E+00 -0.19339209345E+03  0.19339209347E+03  0.25500000920E-02 0.  1.
    10030    2    1    2    0    0  0.00000000000E+00  0.00000000000E+00  0.27192338746E+03  0.65870757438E+03  0.59996111533E+03 0.  0.
        4    1    3    3  502    0 -0.18263797510E+03 -0.19776569678E+03  0.28128055798E+03  0.38934337797E+03  0.12699999809E+01 0. -1.
       -4    1    3    3    0  502  0.18263797510E+03  0.19776569678E+03 -0.93571705167E+01  0.26936419642E+03  0.12699999809E+01 0.  1.
</event>
<event>
 5   0  0.2179625E-02  0.6022080E+03  0.7818609E-02  0.9900836E-01
        2   -1    0    0  501    0  0.00000000000E+00  0.00000000000E+00  0.83380617029E+03  0.83380617029E+03  0.25500000920E-02 0.  1.
       -2   -1    0    0    0  501  0.00000000000E+00  0.00000000000E+00 -0.10873465920E+03  0.10873465923E+03  0.25500000920E-02 0. -1.
    10030    2    1    2    0    0  0.00000000000E+00  0.00000000000E+00  0.72507151109E+03  0.94254082952E+03  0.60220803640E+03 0.  0.
        1    1    3    3  502    0 -0.82340273973E+02 -0.22782626982E+02  0.81443812613E+03  0.81890685070E+03  0.50400001928E-02 0.  1.
       -1    1    3    3    0  502  0.82340273973E+02  0.22782626982E+02 -0.89366615034E+02  0.12363397882E+03  0.50400001928E-02 0. -1.
</event>
<event>
 5   0  0.1332555E-02  0.6025352E+03  0.7818609E-02  0.9900160E-01
        1   -1    0    0  501    0  0.00000000000E+00  0.00000000000E+00  0.12672093108E+03  0.12672093118E+03  0.50400001928E-02 0.  1.
       -1   -1    0    0    0  501  0.00000000000E+00  0.00000000000E+00 -0.71623665045E+03  0.71623665047E+03  0.50400001928E-02 0. -1.
    10030    2    1    2    0    0  0.00000000000E+00  0.00000000000E+00 -0.58951571937E+03  0.84295758165E+03  0.60253522807E+03 0.  0.
        2    1    3    3  502    0 -0.25261895007E+03  0.12911547198E+03 -0.15294521438E+03  0.32230323865E+03  0.25500000920E-02 0.  1.
       -2    1    3    3    0  502  0.25261895007E+03 -0.12911547198E+03 -0.43657050500E+03  0.52065434299E+03  0.25500000920E-02 0. -1.
</event>
<event>
 5   0  0.2126207E-02  0.6011604E+03  0.7818609E-02  0.9903002E-01
       -2   -1    0    0    0  501  0.00000000000E+00  0.00000000000E+00  0.51497040888E+02  0.51497040951E+02  0.25500000920E-02 0.  1.
        2   -1    0    0  501    0  0.00000000000E+00  0.00000000000E+00 -0.17544397286E+04  0.17544397286E+04  0.25500000920E-02 0. -1.
    10030    2    1    2    0    0  0.00000000000E+00  0.00000000000E+00 -0.17029426877E+04  0.18059367696E+04  0.60116039290E+03 0.  0.
        5    1    3    3  502    0  0.76534278653E+02  0.23075015899E+03 -0.32064665413E+03  0.40241707032E+03  0.46999998093E+01 0.  1.
       -5    1    3    3    0  502 -0.76534278653E+02 -0.23075015899E+03 -0.13822960336E+04  0.14035196992E+04  0.46999998093E+01 0. -1.
</event>
<event>
 5   0  0.8551000E-03  0.6071359E+03  0.7818609E-02  0.9890711E-01
       -3   -1    0    0    0  501  0.00000000000E+00  0.00000000000E+00  0.18295066474E+03  0.18295069262E+03  0.10100000352E+00 0. -1.
        3   -1    0    0  501    0  0.00000000000E+00  0.00000000000E+00 -0.50370672889E+03  0.50370673902E+03  0.10100000352E+00 0.  1.
    10030    2    1    2    0    0  0.00000000000E+00  0.00000000000E+00 -0.32075606415E+03  0.68665743163E+03  0.60713587913E+03 0.  0.
        5    1    3    3  502    0 -0.16278912847E+03  0.12321065873E+03 -0.41440851407E+03  0.46199315288E+03  0.46999998093E+01 0.  1.
       -5    1    3    3    0  502  0.16278912847E+03 -0.12321065873E+03  0.93652449925E+02  0.22466427875E+03  0.46999998093E+01 0. -1.
</event>
<event>
 5   0  0.8551000E-03  0.5981659E+03  0.7818609E-02  0.9909218E-01
       -3   -1    0    0    0  501  0.00000000000E+00  0.00000000000E+00  0.29942369382E+03  0.29942371086E+03  0.10100000352E+00 0.  1.
        3   -1    0    0  501    0  0.00000000000E+00  0.00000000000E+00 -0.29874258729E+03  0.29874260437E+03  0.10100000352E+00 0. -1.
    10030    2    1    2    0    0  0.00000000000E+00  0.00000000000E+00  0.68110653093E+00  0.59816631523E+03  0.59816592745E+03 0.  0.
        5    1    3    3  502    0  0.10988382703E+03  0.11125108755E+03  0.25524711166E+03  0.29937340886E+03  0.46999998093E+01 0.  1.
       -5    1    3    3    0  502 -0.10988382703E+03 -0.11125108755E+03 -0.25456600513E+03  0.29879290636E+03  0.46999998093E+01 0. -1.
</event>
<event>
 5   0  0.1332555E-02  0.5997044E+03  0.7818609E-02  0.9906019E-01
        1   -1    0    0  501    0  0.00000000000E+00  0.00000000000E+00  0.32499842416E+03  0.32499842420E+03  0.50400001928E-02 0.  1.
       -1   -1    0    0    0  501  0.00000000000E+00  0.00000000000E+00 -0.27665166853E+03  0.27665166858E+03  0.50400001928E-02 0. -1.
    10030    2    1    2    0    0  0.00000000000E+00  0.00000000000E+00  0.48346755624E+02  0.60165009278E+03  0.59970444834E+03 0.  0.
        2    1    3    3  502    0  0.15701270270E+03  0.16939385877E+03 -0.16766438068E+03  0.28540955266E+03  0.25500000920E-02 0. -1.
       -2    1    3    3    0  502 -0.15701270270E+03 -0.16939385877E+03  0.21601113631E+03  0.31624054011E+03  0.25500000920E-02 0.  1.
</event>
<event>
 5   0  0.2141800E-02  0.5991384E+03  0.7818609E-02  0.9907195E-01
        2   -1    0    0  501    0  0.00000000000E+00  0.00000000000E+00  0.33752272444E+03  0.33752272445E+03  0.25500000920E-02 0. -1.
       -2   -1    0    0    0  501  0.00000000000E+00  0.00000000000E+00 -0.26588346892E+03  0.26588346894E+03  0.25500000920E-02 0.  1.
    10030    2    1    2    0    0  0.00000000000E+00  0.00000000000E+00  0.71639255518E+02  0.60340619339E+03  0.59913842414E+03 0.  0.
        2    1    3    3  502    0  0.24697587531E+03 -0.32727660808E+02 -0.13171896814E+03  0.28181211710E+03  0.25500000920E-02 0.  1.
       -2    1    3    3    0  502 -0.24697587531E+03  0.32727660808E+02  0.20335822366E+03  0.32159407629E+03  0.25500000920E-02 0. -1.
</event>
<event>
 5   0  0.2092587E-02  0.6009423E+03  0.7818609E-02  0.9903453E-01
        2   -1    0    0  501    0  0.00000000000E+00  0.00000000000E+00  0.41075974135E+03  0.41075974135E+03  0.25500000920E-02 0. -1.
       -2   -1    0    0    0  501  0.00000000000E+00  0.00000000000E+00 -0.21979492617E+03  0.21979492619E+03  0.25500000920E-02 0.  1.
    10030    2    1    2    0    0  0.00000000000E+00  0.00000000000E+00  0.19096481517E+03  0.63055466754E+03  0.60094228352E+03 0.  0.
        3    1    3    3  502    0  0.13296208428E+02 -0.86616333707E+02  0.39705354961E+03  0.40660879219E+03  0.10100000352E+00 0. -1.
       -3    1    3    3    0  502 -0.13296208428E+02  0.86616333707E+02 -0.20608873444E+03  0.22394587535E+03  0.10100000352E+00 0.  1.
</event>
<event>
 5   0  0.8551000E-03  0.5990099E+03  0.7818609E-02  0.9907462E-01
        3   -1    0    0  501    0  0.00000000000E+00  0.00000000000E+00  0.18016178244E+03  0.18016181075E+03  0.10100000352E+00 0.  1.
       -3   -1    0    0    0  501  0.00000000000E+00  0.00000000000E+00 -0.49790361147E+03  0.49790362172E+03  0.10100000352E+00 0. -1.
    10030    2    1    2    0    0  0.00000000000E+00  0.00000000000E+00 -0.31774182903E+03  0.67806543247E+03  0.59900990042E+03 0.  0.
        2    1    3    3  502    0 -0.40473631529E+02  0.13618606619E+03 -0.45733196442E+03  0.47889172593E+03  0.25500000920E-02 0. -1.
       -2    1    3    3    0  502  0.40473631529E+02 -0.13618606619E+03  0.13959013539E+03  0.19917370654E+03  0.25500000920E-02 0.  1.
</event>
<event>
 5   0  0.2179625E-02  0.5993229E+03  0.7818609E-02  0.9906812E-01
       -2   -1    0    0    0  501  0.00000000000E+00  0.00000000000E+00  0.87873359579E+02  0.87873359616E+02  0.25500000920E-02 0.  1.
        2   -1    0    0  501    0  0.00000000000E+00  0.00000000000E+00 -0.10218907183E+04  0.10218907183E+04  0.25500000920E-02 0. -1.
    10030    2    1    2    0    0  0.00000000000E+00  0.00000000000E+00 -0.93401735870E+03  0.11097640779E+04  0.59932285309E+03 0.  0.
        1    1    3    3  502    0  0.26680334621E+03  0.59230225310E+01 -0.21462126166E+03  0.34246371155E+03  0.50400001928E-02 0.  1.
       -1    1    3    3    0  502 -0.26680334621E+03 -0.59230225310E+01 -0.71939609704E+03  0.76730036635E+03  0.50400001928E-02 0. -1.
</event>
<event>
 5   0  0.2142838E-02  0.5991035E+03  0.7818609E-02  0.9907268E-01
       -2   -1    0    0    0  501  0.00000000000E+00  0.00000000000E+00  0.11044700444E+03  0.11044700447E+03  0.25500000920E-02 0.  1.
        2   -1    0    0  501    0  0.00000000000E+00  0.00000000000E+00 -0.81243703872E+03  0.81243703872E+03  0.25500000920E-02 0. -1.
    10030    2    1    2    0    0  0.00000000000E+00  0.00000000000E+00 -0.70199003428E+03  0.92288404319E+03  0.59910345429E+03 0.  0.
        4    1    3    3  502    0  0.23121518478E+02 -0.58427692735E+02 -0.80216628442E+03  0.80462460853E+03  0.12699999809E+01 0. -1.
       -4    1    3    3    0  502 -0.23121518478E+02  0.58427692735E+02  0.10017625014E+03  0.11825943466E+03  0.12699999809E+01 0.  1.
</event>
<event>
 5   0  0.1337051E-02  0.6410640E+03  0.7818609E-02  0.9823693E-01
        1   -1    0    0  501    0  0.00000000000E+00  0.00000000000E+00  0.57389605163E+03  0.57389605165E+03  0.50400001928E-02 0. -1.
       -1   -1    0    0    0  501  0.00000000000E+00  0.00000000000E+00 -0.17902329824E+03  0.17902329831E+03  0.50400001928E-02 0.  1.
    10030    2    1    2    0    0  0.00000000000E+00  0.00000000000E+00  0.39487275339E+03  0.75291934996E+03  0.64106400318E+03 0.  0.
        5    1    3    3  502    0 -0.23447210377E+03 -0.16538475873E+03  0.29730158948E+02  0.28850521350E+03  0.46999998093E+01 0.  1.
       -5    1    3    3    0  502  0.23447210377E+03  0.16538475873E+03  0.36514259444E+03  0.46441413646E+03  0.46999998093E+01 0. -1.
</event>
<event>
 5   0  0.1332555E-02  0.5979631E+03  0.7818609E-02  0.9909641E-01
        1   -1    0    0  501    0  0.00000000000E+00  0.00000000000E+00  0.59672408770E+03  0.59672408772E+03  0.50400001928E-02 0. -1.
       -1   -1    0    0    0  501  0.00000000000E+00  0.00000000000E+00 -0.14980118072E+03  0.14980118080E+03  0.50400001928E-02 0.  1.
    10030    2    1    2    0    0  0.00000000000E+00  0.00000000000E+00  0.44692290698E+03  0.74652526852E+03  0.59796311906E+03 0.  0.
        2    1    3    3  502    0 -0.40969170740E+02  0.14922324202E+03 -0.95916386757E+02  0.18206043548E+03  0.25500000920E-02 0.  1.
       -2    1    3    3    0  502  0.40969170740E+02 -0.14922324202E+03  0.54283929374E+03  0.56446483305E+03  0.25500000920E-02 0. -1.
</event>
<event>
 5   0  0.1337051E-02  0.6003619E+03  0.7818609E-02  0.9904655E-01
        1   -1    0    0  501    0  0.00000000000E+00  0.00000000000E+00  0.57902969312E+03  0.57902969314E+03  0.50400001928E-02 0.  1.
       -1   -1    0    0    0  501  0.00000000000E+00  0.00000000000E+00 -0.15562000714E+03  0.15562000722E+03  0.50400001928E-02 0. -1.
    10030    2    1    2    0    0  0.00000000000E+00  0.00000000000E+00  0.42340968598E+03  0.73464970036E+03  0.60036190757E+03 0.  0.
        5    1    3    3  502    0  0.16951996050E+01  0.25187135958E+03  0.41144741353E+03  0.48244493942E+03  0.46999998093E+01 0.  1.
       -5    1    3    3    0  502 -0.16951996050E+01 -0.25187135958E+03  0.11962272453E+02  0.25220476094E+03  0.46999998093E+01 0. -1.
</event>
<event>
 5   0  0.2092587E-02  0.6005215E+03  0.7818609E-02  0.9904325E-01
       -2   -1    0    0    0  501  0.00000000000E+00  0.00000000000E+00  0.52920507926E+02  0.52920507988E+02  0.25500000920E-02 0.  1.
        2   -1    0    0  501    0  0.00000000000E+00  0.00000000000E+00 -0.17036213492E+04  0.17036213492E+04  0.25500000920E-02 0. -1.
    10030    2    1    2    0    0  0.00000000000E+00  0.00000000000E+00 -0.16507008413E+04  0.17565418572E+04  0.60052146397E+03 0.  0.
        3    1    3    3  502    0  0.29876213856E+03  0.25567022634E+02 -0.77965919669E+03  0.83533284460E+03  0.10100000352E+00 0. -1.
       -3    1    3    3    0  502 -0.29876213856E+03 -0.25567022634E+02 -0.87104164462E+03  0.92120901263E+03  0.10100000352E+00 0.  1.
</event>
<event>
 5   0  0.2141800E-02  0.6008093E+03  0.7818609E-02  0.9903728E-01
       -2   -1    0    0    0  501  0.00000000000E+00  0.00000000000E+00  0.20745455352E+03  0.20745455354E+03  0.25500000920E-02 0. -1.
        2   -1    0    0  501    0  0.00000000000E+00  0.00000000000E+00 -0.43500110577E+03  0.43500110578E+03  0.25500000920E-02 0.  1.
    10030    2    1    2    0    0  0.00000000000E+00  0.00000000000E+00 -0.22754655225E+03  0.64245565931E+03  0.60080932145E+03 0.  0.
        2    1    3    3  502    0  0.21895700297E+03  0.45918447177E+02  0.10060356034E+03  0.24529930554E+03  0.25500000920E-02 0. -1.
       -2    1    3    3    0  502 -0.21895700297E+03 -0.45918447177E+02 -0.32815011259E+03  0.39715635377E+03  0.25500000920E-02 0.  1.
</event>
<event>
 5   0  0.2126207E-02  0.6005655E+03  0.7818609E-02  0.9904234E-01
       -2   -1    0    0    0  501  0.00000000000E+00  0.00000000000E+00  0.11210586770E+03  0.11210586773E+03  0.25500000920E-02 0. -1.
        2   -1    0    0  501    0  0.00000000000E+00  0.00000000000E+00 -0.80432660242E+03  0.80432660242E+03  0.25500000920E-02 0.  1.
    10030    2    1    2    0    0  0.00000000000E+00  0.00000000000E+00 -0.69222073472E+03  0.91643247015E+03  0.60056550581E+03 0.  0.
        5    1    3    3  502    0  0.29282968279E+03 -0.26153757352E+02 -0.25311005811E+03  0.38796911432E+03  0.46999998093E+01 0.  1.
       -5    1    3    3    0  502 -0.29282968279E+03  0.26153757352E+02 -0.43911067660E+03  0.52846335583E+03  0.46999998093E+01 0. -1.
</event>
<event>
 5   0  0.1303808E-02  0.6006633E+03  0.7818609E-02  0.9904031E-01
        1   -1    0    0  501    0  0.00000000000E+00  0.00000000000E+00  0.13198413476E+04  0.13198413476E+04  0.50400001928E-02 0.  1.
       -1   -1    0    0    0  501  0.00000000000E+00  0.00000000000E+00 -0.68340876117E+02  0.68340876303E+02  0.50400001928E-02 0. -1.
    10030    2    1    2    0    0  0.00000000000E+00  0.00000000000E+00  0.12515004715E+04  0.13881822239E+04  0.60066334720E+03 0.  0.
        4    1    3    3  502    0 -0.24923086427E+03 -0.93110022211E+01  0.10124321841E+04  0.10426999850E+04  0.12699999809E+01 0.  1.
       -4    1    3    3    0  502  0.24923086427E+03  0.93110022211E+01  0.23906828743E+03  0.34548223893E+03  0.12699999809E+01 0. -1.
</event>
<event>
 5   0  0.1276705E-02  0.6097499E+03  0.7818609E-02  0.9885382E-01
       -1   -1    0    0    0  501  0.00000000000E+00  0.00000000000E+00  0.18008386233E+03  0.18008386240E+03  0.50400001928E-02 0.  1.
        1   -1    0    0  501    0  0.00000000000E+00  0.00000000000E+00 -0.51614146612E+03  0.51614146614E+03  0.50400001928E-02 0. -1.
    10030    2    1    2    0    0  0.00000000000E+00  0.00000000000E+00 -0.33605760379E+03  0.69622532854E+03  0.60974994468E+03 0.  0.
        1    1    3    3  502    0  0.15275533989E+03  0.27086112521E+02  0.13164408209E+03  0.20346502336E+03  0.50400001928E-02 0.  1.
       -1    1    3    3    0  502 -0.15275533989E+03 -0.27086112521E+02 -0.46770168589E+03  0.49276030518E+03  0.50400001928E-02 0. -1.
</event>
<event>
 5   0  0.2141800E-02  0.6193273E+03  0.7818609E-02  0.9866100E-01
       -2   -1    0    0    0  501  0.00000000000E+00  0.00000000000E+00  0.18424538600E+03  0.18424538602E+03  0.25500000920E-02 0. -1.
        2   -1    0    0  501    0  0.00000000000E+00  0.00000000000E+00 -0.52045574958E+03  0.52045574959E+03  0.25500000920E-02 0.  1.
    10030    2    1    2    0    0  0.00000000000E+00  0.00000000000E+00 -0.33621036358E+03  0.70470113560E+03  0.61932728177E+03 0.  0.
        2    1    3    3  502    0 -0.14024086945E+03  0.14913925073E+03  0.96261942488E+02  0.22622196876E+03  0.25500000920E-02 0. -1.
       -2    1    3    3    0  502  0.14024086945E+03 -0.14913925073E+03 -0.43247230607E+03  0.47847916684E+03  0.25500000920E-02 0.  1.
</event>
<event>
 5   0  0.1337051E-02  0.6003837E+03  0.7818609E-02  0.9904610E-01
        1   -1    0    0  501    0  0.00000000000E+00  0.00000000000E+00  0.99084113552E+03  0.99084113553E+03  0.50400001928E-02 0. -1.
       -1   -1    0    0    0  501  0.00000000000E+00  0.00000000000E+00 -0.90948118567E+02  0.90948118707E+02  0.50400001928E-02 0.  1.
    10030    2    1    2    0    0  0.00000000000E+00  0.00000000000E+00  0.89989301695E+03  0.10817892542E+04  0.60038366785E+03 0.  0.
        5    1    3    3  502    0  0.22131565222E+03 -0.29855301659E+02  0.81130703679E+03  0.84149459588E+03  0.46999998093E+01 0. -1.
       -5    1    3    3    0  502 -0.22131565222E+03  0.29855301659E+02  0.88585980162E+02  0.24029465836E+03  0.46999998093E+01 0.  1.
</event>
<event>
 5   0  0.1303808E-02  0.5994939E+03  0.7818609E-02  0.9906457E-01
        1   -1    0    0  501    0  0.00000000000E+00  0.00000000000E+00  0.80837164509E+03  0.80837164511E+03  0.50400001928E-02 0.  1.
       -1   -1    0    0    0  501  0.00000000000E+00  0.00000000000E+00 -0.11114718359E+03  0.11114718370E+03  0.50400001928E-02 0. -1.
    10030    2    1    2    0    0  0.00000000000E+00  0.00000000000E+00  0.69722446150E+03  0.91951882881E+03  0.59949389223E+03 0.  0.
        4    1    3    3  502    0  0.75765647377E+02  0.10882167240E+02  0.79312462340E+03  0.79681060236E+03  0.12699999809E+01 0.  1.
       -4    1    3    3    0  502 -0.75765647377E+02 -0.10882167240E+02 -0.95900161901E+02  0.12270822645E+03  0.12699999809E+01 0. -1.
</event>
<event>
 5   0  0.2142838E-02  0.5626039E+03  0.7818609E-02  0.9986180E-01
       -2   -1    0    0    0  501  0.00000000000E+00  0.00000000000E+00  0.77553070014E+02  0.77553070056E+02  0.25500000920E-02 0.  1.
        2   -1    0    0  501    0  0.00000000000E+00  0.00000000000E+00 -0.10203438506E+04  0.10203438506E+04  0.25500000920E-02 0. -1.
    10030    2    1    2    0    0  0.00000000000E+00  0.00000000000E+00 -0.94279078057E+03  0.10978969206E+04  0.56260393922E+03 0.  0.
        4    1    3    3  502    0  0.25178041577E+03 -0.23822193448E+02 -0.23105464475E+03  0.34256201837E+03  0.12699999809E+01 0.  1.
       -4    1    3    3    0  502 -0.25178041577E+03  0.23822193448E+02 -0.71173613581E+03  0.75533490227E+03  0.12699999809E+01 0. -1.
</event>
<event>
 5   0  0.1337051E-02  0.6012140E+03  0.7818609E-02  0.9902891E-01
       -1   -1    0    0    0  501  0.00000000000E+00  0.00000000000E+00  0.11803339658E+03  0.11803339669E+03  0.50400001928E-02 0. -1.
        1   -1    0    0  501    0  0.00000000000E+00  0.00000000000E+00 -0.76558480889E+03  0.76558480891E+03  0.50400001928E-02 0.  1.
    10030    2    1    2    0    0  0.00000000000E+00  0.00000000000E+00 -0.64755141231E+03  0.88361820559E+03  0.60121402318E+03 0.  0.
        5    1    3    3  502    0 -0.97291233781E+02 -0.28000545174E+03 -0.25067491439E+03  0.38823786507E+03  0.46999998093E+01 0. -1.
       -5    1    3    3    0  502  0.97291233781E+02  0.28000545174E+03 -0.39687649792E+03  0.49538034052E+03  0.46999998093E+01 0.  1.
</event>
<event>
 5   0  0.2126207E-02  0.6024814E+03  0.7818609E-02  0.9900271E-01
        2   -1    0    0  501    0  0.00000000000E+00  0.00000000000E+00  0.64492335656E+03  0.64492335657E+03  0.25500000920E-02 0.  1.
       -2   -1    0    0    0  501  0.00000000000E+00  0.00000000000E+00 -0.14070812507E+03  0.14070812509E+03  0.25500000920E-02 0. -1.
    10030    2    1    2    0    0  0.00000000000E+00  0.00000000000E+00  0.50421523149E+03  0.78563148166E+03  0.60248139001E+03 0.  0.
        5    1    3    3  502    0 -0.22424745477E+03  0.34806377265E+01  0.51428748672E+03  0.56108176303E+03  0.46999998093E+01 0.  1.
       -5    1    3    3    0  502  0.22424745477E+03 -0.34806377265E+01 -0.10072255228E+02  0.22454971863E+03  0.46999998093E+01 0. -1.
</event>
<event>
 5   0  0.2179625E-02  0.5986819E+03  0.7818609E-02  0.9908145E-01
        2   -1    0    0  501    0  0.00000000000E+00  0.00000000000E+00  0.31726483145E+03  0.31726483146E+03  0.25500000920E-02 0. -1.
       -2   -1    0    0    0  501  0.00000000000E+00  0.00000000000E+00 -0.28242966415E+03  0.28242966416E+03  0.25500000920E-02 0.  1.
    10030    2    1    2    0    0  0.00000000000E+00  0.00000000000E+00  0.34835167303E+02  0.59969449562E+03  0.59868188481E+03 0.  0.
        1    1    3    3  502    0 -0.26316782004E+03  0.63021116451E+02  0.14560292163E+03  0.30729330197E+03  0.50400001928E-02 0. -1.
       -1    1    3    3    0  502  0.26316782004E+03 -0.63021116451E+02 -0.11076775433E+03  0.29240119365E+03  0.50400001928E-02 0.  1.
</event>
<event>
 5   0  0.1276705E-02  0.6008043E+03  0.7818609E-02  0.9903739E-01
        1   -1    0    0  501    0  0.00000000000E+00  0.00000000000E+00  0.42574838545E+03  0.42574838548E+03  0.50400001928E-02 0.  1.
       -1   -1    0    0    0  501  0.00000000000E+00  0.00000000000E+00 -0.21195960149E+03  0.21195960155E+03  0.50400001928E-02 0. -1.
    10030    2    1    2    0    0  0.00000000000E+00  0.00000000000E+00  0.21378878396E+03  0.63770798704E+03  0.60080432138E+03 0.  0.
        1    1    3    3  502    0  0.20158133289E+03 -0.15805290698E+03  0.27345915330E+03  0.37469409353E+03  0.50400001928E-02 0.  1.
       -1    1    3    3    0  502 -0.20158133289E+03  0.15805290698E+03 -0.59670369344E+02  0.26301389351E+03  0.50400001928E-02 0. -1.
</event>
<event>
 5   0  0.8551000E-03  0.6012073E+03  0.7818609E-02  0.9902904E-01
       -3   -1    0    0    0  501  0.00000000000E+00  0.00000000000E+00  0.17195321132E+03  0.17195324098E+03  0.10100000352E+00 0.  1.
        3   -1    0    0  501    0  0.00000000000E+00  0.00000000000E+00 -0.52550655519E+03  0.52550656489E+03  0.10100000352E+00 0. -1.
    10030    2    1    2    0    0  0.00000000000E+00  0.00000000000E+00 -0.35355334387E+03  0.69745980587E+03  0.60120729690E+03 0.  0.
        4    1    3    3  502    0  0.30049110114E+03  0.32035658825E+01 -0.18544066492E+03  0.35312181723E+03  0.12699999809E+01 0.  1.
       -4    1    3    3    0  502 -0.30049110114E+03 -0.32035658825E+01 -0.16811267895E+03  0.34433798865E+03  0.12699999809E+01 0. -1.
</event>
<event>
 5   0  0.1332555E-02  0.5986638E+03  0.7818609E-02  0.9908182E-01
       -1   -1    0    0    0  501  0.00000000000E+00  0.00000000000E+00  0.23962447468E+03  0.23962447473E+03  0.50400001928E-02 0.  1.
        1   -1    0    0  501    0  0.00000000000E+00  0.00000000000E+00 -0.37391668088E+03  0.37391668092E+03  0.50400001928E-02 0. -1.
    10030    2    1    2    0    0  0.00000000000E+00  0.00000000000E+00 -0.13429220621E+03  0.61354115565E+03  0.59866380634E+03 0.  0.
        2    1    3    3  502    0 -0.91835127535E+01  0.29793257056E+03 -0.39052571817E+02  0.30062145113E+03  0.25500000920E-02 0.  1.
       -2    1    3    3    0  502  0.91835127535E+01 -0.29793257056E+03 -0.95239634389E+02  0.31291970451E+03  0.25500000920E-02 0. -1.
</event>
<event>
 5   0  0.1303808E-02  0.6016660E+03  0.7818609E-02  0.9901956E-01
       -1   -1    0    0    0  501  0.00000000000E+00  0.00000000000E+00  0.15284713046E+03  0.15284713054E+03  0.50400001928E-02 0. -1.
        1   -1    0    0  501    0  0.00000000000E+00  0.00000000000E+00 -0.59209809584E+03  0.59209809586E+03  0.50400001928E-02 0.  1.
    10030    2    1    2    0    0  0.00000000000E+00  0.00000000000E+00 -0.43925096538E+03  0.74494522640E+03  0.60166600349E+03 0.  0.
        4    1    3    3  502    0  0.47397131757E+02 -0.18218755559E+03  0.70902067070E+02  0.20116537855E+03  0.12699999809E+01 0. -1.
       -4    1    3    3    0  502 -0.47397131757E+02  0.18218755559E+03 -0.51015303245E+03  0.54377984785E+03  0.12699999809E+01 0.  1.
</event>
<event>
 5   0  0.1303808E-02  0.6001028E+03  0.7818609E-02  0.9905193E-01
        1   -1    0    0  501    0  0.00000000000E+00  0.00000000000E+00  0.22953536487E+03  0.22953536492E+03  0.50400001928E-02 0.  1.
       -1   -1    0    0    0  501  0.00000000000E+00  0.00000000000E+00 -0.39223077495E+03  0.39223077498E+03  0.50400001928E-02 0. -1.
    10030    2    1    2    0    0  0.00000000000E+00  0.00000000000E+00 -0.16269541008E+03  0.62176613990E+03  0.60010277142E+03 0.  0.
        4    1    3    3  502    0 -0.12484361734E+03 -0.26972716853E+03 -0.38747170276E+02  0.29973593435E+03  0.12699999809E+01 0. -1.
       -4    1    3    3    0  502  0.12484361734E+03  0.26972716853E+03 -0.12394823981E+03  0.32203020555E+03  0.12699999809E+01 0.  1.
</event>
<event>
 5   0  0.1276705E-02  0.5962196E+03  0.7818609E-02  0.9913280E-01
       -1   -1    0    0    0  501  0.00000000000E+00  0.00000000000E+00  0.27173083397E+03  0.27173083401E+03  0.50400001928E-02 0.  1.
        1   -1    0    0  501    0  0.00000000000E+00  0.00000000000E+00 -0.32704960913E+03  0.32704960917E+03  0.50400001928E-02 0. -1.
    10030    2    1    2    0    0  0.00000000000E+00  0.00000000000E+00 -0.55318775163E+02  0.59878044318E+03  0.59621963424E+03 0.  0.
        1    1    3    3  502    0 -0.10125927294E+03 -0.27235731105E+03  0.39241424206E+02  0.29320954050E+03  0.50400001928E-02 0.  1.
       -1    1    3    3    0  502  0.10125927294E+03  0.27235731105E+03 -0.94560199368E+02  0.30557090269E+03  0.50400001928E-02 0. -1.
</event>
<event>
 5   0  0.2126207E-02  0.5931346E+03  0.7818609E-02  0.9919753E-01
        2   -1    0    0  501    0  0.00000000000E+00  0.00000000000E+00  0.38521474473E+03  0.38521474474E+03  0.25500000920E-02 0.  1.
       -2   -1    0    0    0  501  0.00000000000E+00  0.00000000000E+00 -0.22831983889E+03  0.22831983890E+03  0.25500000920E-02 0. -1.
    10030    2    1    2    0    0  0.00000000000E+00  0.00000000000E+00  0.15689490584E+03  0.61353458365E+03  0.59313461697E+03 0.  0.
        5    1    3    3  502    0 -0.12924959518E+03  0.20846045056E+03 -0.93923789199E+02  0.26268800025E+03  0.46999998093E+01 0. -1.
       -5    1    3    3    0  502  0.12924959518E+03 -0.20846045056E+03  0.25081869504E+03  0.35084658340E+03  0.46999998093E+01 0.  1.
</event>
<event>
 5   0  0.2141800E-02  0.5987567E+03  0.7818609E-02  0.9907989E-01
       -2   -1    0    0    0  501  0.00000000000E+00  0.00000000000E+00  0.17308745845E+03  0.17308745847E+03  0.25500000920E-02 0.  1.
        2   -1    0    0  501    0  0.00000000000E+00  0.00000000000E+00 -0.51781561126E+03  0.51781561126E+03  0.25500000920E-02 0. -1.
    10030    2    1    2    0    0  0.00000000000E+00  0.00000000000E+00 -0.34472815281E+03  0.69090306973E+03  0.59875667213E+03 0.  0.
        2    1    3    3  502    0 -0.28623176459E+03 -0.86258936921E+02 -0.19090417078E+03  0.35470217040E+03  0.25500000920E-02 0.  1.
       -2    1    3    3    0  502  0.28623176459E+03  0.86258936921E+02 -0.15382398203E+03  0.33620089933E+03  0.25500000920E-02 0. -1.
</event>
<event>
 5   0  0.1332555E-02  0.5996204E+03  0.7818609E-02  0.9906194E-01
        1   -1    0    0  501    0  0.00000000000E+00  0.00000000000E+00  0.18761661776E+04  0.18761661776E+04  0.50400001928E-02 0. -1.
       -1   -1    0    0    0  501  0.00000000000E+00  0.00000000000E+00 -0.47909483794E+02  0.47909484059E+02  0.50400001928E-02 0.  1.
    10030    2    1    2    0    0  0.00000000000E+00  0.00000000000E+00  0.18282566938E+04  0.19240756616E+04  0.59962039105E+03 0.  0.
        2    1    3    3  502    0 -0.31269642163E+02 -0.18017812984E+03  0.15177654614E+03  0.23765114971E+03  0.25500000920E-02 0.  1.
       -2    1    3    3    0  502  0.31269642163E+02  0.18017812984E+03  0.16764801476E+04  0.16864245119E+04  0.25500000920E-02 0. -1.
</event>
<event>
 5   0  0.1303808E-02  0.5993687E+03  0.7818609E-02  0.9906717E-01
        1   -1    0    0  501    0  0.00000000000E+00  0.00000000000E+00  0.69997962841E+03  0.69997962843E+03  0.50400001928E-02 0. -1.
       -1   -1    0    0    0  501  0.00000000000E+00  0.00000000000E+00 -0.12830476386E+03  0.12830476396E+03  0.50400001928E-02 0.  1.
    10030    2    1    2    0    0  0.00000000000E+00  0.00000000000E+00  0.57167486455E+03  0.82828439238E+03  0.59936873785E+03 0.  0.
        4    1    3    3  502    0 -0.25909535211E+03 -0.13473356353E+03  0.19287184871E+03  0.34997813867E+03  0.12699999809E+01 0.  1.
       -4    1    3    3    0  502  0.25909535211E+03  0.13473356353E+03  0.37880301584E+03  0.47830625371E+03  0.12699999809E+01 0. -1.
</event>
<event>
 5   0  0.1250390E-02  0.5960827E+03  0.7818609E-02  0.9913567E-01
        1   -1    0    0  501    0  0.00000000000E+00  0.00000000000E+00  0.15265425640E+04  0.15265425640E+04  0.50400001928E-02 0. -1.
       -1   -1    0    0    0  501  0.00000000000E+00  0.00000000000E+00 -0.58189436156E+02  0.58189436374E+02  0.50400001928E-02 0.  1.
    10030    2    1    2    0    0  0.00000000000E+00  0.00000000000E+00  0.14683531278E+04  0.15847320004E+04  0.59608271656E+03 0.  0.
        3    1    3    3  502    0 -0.71047878804E+02 -0.62979569084E+02  0.14852630747E+04  0.14882945403E+04  0.10100000352E+00 0. -1.
       -3    1    3    3    0  502  0.71047878804E+02  0.62979569084E+02 -0.16909946913E+02  0.96437460098E+02  0.10100000352E+00 0.  1.
</event>
<event>
 5   0  0.1276705E-02  0.6066217E+03  0.7818609E-02  0.9891763E-01
       -1   -1    0    0    0  501  0.00000000000E+00  0.00000000000E+00  0.49456025024E+03  0.49456025026E+03  0.50400001928E-02 0.  1.
        1   -1    0    0  501    0  0.00000000000E+00  0.00000000000E+00 -0.18601873931E+03  0.18601873938E+03  0.50400001928E-02 0. -1.
    10030    2    1    2    0    0  0.00000000000E+00  0.00000000000E+00  0.30854151092E+03  0.68057898964E+03  0.60662170847E+03 0.  0.
        1    1    3    3  502    0 -0.78095573338E+00  0.95456784256E+02 -0.16872603852E+03  0.19385841136E+03  0.50400001928E-02 0. -1.
       -1    1    3    3    0  502  0.78095573338E+00 -0.95456784256E+02  0.47726754944E+03  0.48672057829E+03  0.50400001928E-02 0.  1.
</event>
<event>
 5   0  0.8551000E-03  0.6003739E+03  0.7818609E-02  0.9904631E-01
        3   -1    0    0  501    0  0.00000000000E+00  0.00000000000E+00  0.19481501513E+03  0.19481504131E+03  0.10100000352E+00 0.  1.
       -3   -1    0    0    0  501  0.00000000000E+00  0.00000000000E+00 -0.46255263657E+03  0.46255264759E+03  0.10100000352E+00 0. -1.
    10030    2    1    2    0    0  0.00000000000E+00  0.00000000000E+00 -0.26773762144E+03  0.65736768890E+03  0.60037392055E+03 0.  0.
        5    1    3    3  502    0  0.24692872737E+03  0.12405147565E+03 -0.55816631937E+01  0.27643409698E+03  0.46999998093E+01 0.  1.
       -5    1    3    3    0  502 -0.24692872737E+03 -0.12405147565E+03 -0.26215595824E+03  0.38093359192E+03  0.46999998093E+01 0. -1.
</event>
<event>
 5   0  0.1332555E-02  0.5921260E+03  0.7818609E-02  0.9921878E-01
        1   -1    0    0  501    0  0.00000000000E+00  0.00000000000E+00  0.77918764087E+03  0.77918764089E+03  0.50400001928E-02 0. -1.
       -1   -1    0    0    0  501  0.00000000000E+00  0.00000000000E+00 -0.11249319239E+03  0.11249319250E+03  0.50400001928E-02 0.  1.
    10030    2    1    2    0    0  0.00000000000E+00  0.00000000000E+00  0.66669444848E+03  0.89168083339E+03  0.59212601783E+03 0.  0.
        2    1    3    3  502    0 -0.24495270912E+03 -0.28976666559E+02  0.57992759564E+03  0.63020432647E+03  0.25500000920E-02 0. -1.
       -2    1    3    3    0  502  0.24495270912E+03  0.28976666559E+02  0.86766852848E+02  0.26147650692E+03  0.25500000920E-02 0.  1.
</event>
<event>
 5   0  0.1303808E-02  0.6003306E+03  0.7818609E-02  0.9904720E-01
        1   -1    0    0  501    0  0.00000000000E+00  0.00000000000E+00  0.12502946157E+04  0.12502946157E+04  0.50400001928E-02 0.  1.
       -1   -1    0    0    0  501  0.00000000000E+00  0.00000000000E+00 -0.72062373326E+02  0.72062373502E+02  0.50400001928E-02 0. -1.
    10030    2    1    2    0    0  0.00000000000E+00  0.00000000000E+00  0.11782322424E+04  0.13223569892E+04  0.60033056723E+03 0.  0.
        4    1    3    3  502    0 -0.10764125533E+03 -0.20279801707E+03  0.10150092305E+04  0.10406531730E+04  0.12699999809E+01 0.  1.
       -4    1    3    3    0  502  0.10764125533E+03  0.20279801707E+03  0.16322301194E+03  0.28170381627E+03  0.12699999809E+01 0. -1.
</event>
<event>
 5   0  0.1250390E-02  0.6007826E+03  0.7818609E-02  0.9903784E-01
        1   -1    0    0  501    0  0.00000000000E+00  0.00000000000E+00  0.28188282498E+03  0.28188282503E+03  0.50400001928E-02 0.  1.
       -1   -1    0    0    0  501  0.00000000000E+00  0.00000000000E+00 -0.32011503952E+03  0.32011503956E+03  0.50400001928E-02 0. -1.
    10030    2    1    2    0    0  0.00000000000E+00  0.00000000000E+00 -0.38232214539E+02  0.60199786459E+03  0.60078259524E+03 0.  0.
        3    1    3    3  502    0  0.10362608744E+03  0.80428812203E+01  0.26329059201E+03  0.28306359705E+03  0.10100000352E+00 0.  1.
       -3    1    3    3    0  502 -0.10362608744E+03 -0.80428812203E+01 -0.30152280655E+03  0.31893426753E+03  0.10100000352E+00 0. -1.
</event>
<event>
 5   0  0.2141800E-02  0.6008531E+03  0.7818609E-02  0.9903638E-01
        2   -1    0    0  501    0  0.00000000000E+00  0.00000000000E+00  0.10305431974E+04  0.10305431974E+04  0.25500000920E-02 0.  1.
       -2   -1    0    0    0  501  0.00000000000E+00  0.00000000000E+00 -0.87581102212E+02  0.87581102249E+02  0.25500000920E-02 0. -1.
    10030    2    1    2    0    0  0.00000000000E+00  0.00000000000E+00  0.94296209515E+03  0.11181242996E+04  0.60085309061E+03 0.  0.
        2    1    3    3  502    0 -0.15850988144E+03 -0.19039525446E+03  0.15523639506E+03  0.29235949411E+03  0.25500000920E-02 0. -1.
       -2    1    3    3    0  502  0.15850988144E+03  0.19039525446E+03  0.78772570009E+03  0.82576480551E+03  0.25500000920E-02 0.  1.
</event>
<event>
 5   0  0.1337051E-02  0.6007050E+03  0.7818609E-02  0.9903944E-01
       -1   -1    0    0    0  501  0.00000000000E+00  0.00000000000E+00  0.57576428787E+03  0.57576428789E+03  0.50400001928E-02 0. -1.
        1   -1    0    0  501    0  0.00000000000E+00  0.00000000000E+00 -0.15668154145E+03  0.15668154153E+03  0.50400001928E-02 0.  1.
    10030    2    1    2    0    0  0.00000000000E+00  0.00000000000E+00  0.41908274642E+03  0.73244582943E+03  0.60070503968E+03 0.  0.
        5    1    3    3  502    0 -0.20587764687E+03 -0.10496055549E+03 -0.24322282600E+02  0.23241339703E+03  0.46999998093E+01 0.  1.
       -5    1    3    3    0  502  0.20587764687E+03  0.10496055549E+03  0.44340502902E+03  0.50003243240E+03  0.46999998093E+01 0. -1.
</event>
<event>
 5   0  0.2179625E-02  0.5996599E+03  0.7818609E-02  0.9906112E-01
        2   -1    0    0  501    0  0.00000000000E+00  0.00000000000E+00  0.15700971097E+04  0.15700971097E+04  0.25500000920E-02 0. -1.
       -2   -1    0    0    0  501  0.00000000000E+00  0.00000000000E+00 -0.57256321394E+02  0.57256321450E+02  0.25500000920E-02 0.  1.
    10030    2    1    2    0    0  0.00000000000E+00  0.00000000000E+00  0.15128407883E+04  0.16273534311E+04  0.59965985285E+03 0.  0.
        1    1    3    3  502    0  0.70791130129E+02 -0.25498106838E+03  0.37386919917E+03  0.45804465661E+03  0.50400001928E-02 0.  1.
       -1    1    3    3    0  502 -0.70791130129E+02  0.25498106838E+03  0.11389715891E+04  0.11693087745E+04  0.50400001928E-02 0. -1.
</event>
<event>
 5   0  0.1250390E-02  0.6069623E+03  0.7818609E-02  0.9891066E-01
       -1   -1    0    0    0  501  0.00000000000E+00  0.00000000000E+00  0.56570901414E+03  0.56570901416E+03  0.50400001928E-02 0. -1.
        1   -1    0    0  501    0  0.00000000000E+00  0.00000000000E+00 -0.16280598363E+03  0.16280598371E+03  0.50400001928E-02 0.  1.
    10030    2    1    2    0    0  0.00000000000E+00  0.00000000000E+00  0.40290303050E+03  0.72851499787E+03  0.60696231360E+03 0.  0.
        3    1    3    3  502    0 -0.19529401067E+03 -0.79098260876E+02 -0.60702504483E+02  0.21927400605E+03  0.10100000352E+00 0.  1.
       -3    1    3    3    0  502  0.19529401067E+03  0.79098260876E+02  0.46360553499E+03  0.50924099182E+03  0.10100000352E+00 0. -1.
</event>
<event>
 5   0  0.2179625E-02  0.5997768E+03  0.7818609E-02  0.9905869E-01
       -2   -1    0    0    0  501  0.00000000000E+00  0.00000000000E+00  0.43063429085E+03  0.43063429086E+03  0.25500000920E-02 0. -1.
        2   -1    0    0  501    0  0.00000000000E+00  0.00000000000E+00 -0.20883855370E+03  0.20883855371E+03  0.25500000920E-02 0.  1.
    10030    2    1    2    0    0  0.00000000000E+00  0.00000000000E+00  0.22179573715E+03  0.63947284457E+03  0.59977676674E+03 0.  0.
        1    1    3    3  502    0 -0.14742157154E+02  0.27322733288E+03 -0.19954477766E+02  0.27435139482E+03  0.50400001928E-02 0.  1.
       -1    1    3    3    0  502  0.14742157154E+02 -0.27322733288E+03  0.24175021492E+03  0.36512144975E+03  0.50400001928E-02 0. -1.
</event>
<event>
 5   0  0.1276705E-02  0.6171741E+03  0.7818609E-02  0.9870402E-01
       -1   -1    0    0    0  501  0.00000000000E+00  0.00000000000E+00  0.85638860537E+03  0.85638860539E+03  0.50400001928E-02 0. -1.
        1   -1    0    0  501    0  0.00000000000E+00  0.00000000000E+00 -0.11119479851E+03  0.11119479862E+03  0.50400001928E-02 0.  1.
    10030    2    1    2    0    0  0.00000000000E+00  0.00000000000E+00  0.74519380687E+03  0.96758340401E+03  0.61717407101E+03 0.  0.
        1    1    3    3  502    0 -0.64466141176E+02 -0.92119669584E+02 -0.77938376911E+02  0.13680755646E+03  0.50400001928E-02 0.  1.
       -1    1    3    3    0  502  0.64466141176E+02  0.92119669584E+02  0.82313218378E+03  0.83077584755E+03  0.50400001928E-02 0. -1.
</event>
<event>
 5   0  0.2126207E-02  0.6021894E+03  0.7818609E-02  0.9900874E-01
       -2   -1    0    0    0  501  0.00000000000E+00  0.00000000000E+00  0.63051552337E+02  0.63051552389E+02  0.25500000920E-02 0.  1.
        2   -1    0    0  501    0  0.00000000000E+00  0.00000000000E+00 -0.14378396722E+04  0.14378396722E+04  0.25500000920E-02 0. -1.
    10030    2    1    2    0    0  0.00000000000E+00  0.00000000000E+00 -0.13747881198E+04  0.15008912245E+04  0.60218941665E+03 0.  0.
        5    1    3    3  502    0 -0.14792646192E+03  0.17323931228E+03 -0.19681817204E+03  0.30108733002E+03  0.46999998093E+01 0.  1.
       -5    1    3    3    0  502  0.14792646192E+03 -0.17323931228E+03 -0.11779699478E+04  0.11998038945E+04  0.46999998093E+01 0. -1.
</event>
<event>
 5   0  0.1332555E-02  0.6003220E+03  0.7818609E-02  0.9904738E-01
        1   -1    0    0  501    0  0.00000000000E+00  0.00000000000E+00  0.79875787388E+03  0.79875787390E+03  0.50400001928E-02 0. -1.
       -1   -1    0    0    0  501  0.00000000000E+00  0.00000000000E+00 -0.11279590926E+03  0.11279590938E+03  0.50400001928E-02 0.  1.
    10030    2    1    2    0    0  0.00000000000E+00  0.00000000000E+00  0.68596196462E+03  0.91155378328E+03  0.60032198269E+03 0.  0.
        2    1    3    3  502    0 -0.19089655247E+03  0.25490433799E+02  0.69257014816E+03  0.71884954343E+03  0.25500000920E-02 0. -1.
       -2    1    3    3    0  502  0.19089655247E+03 -0.25490433799E+02 -0.66081835398E+01  0.19270423985E+03  0.25500000920E-02 0.  1.
</event>
<event>
 5   0  0.2092587E-02  0.5999394E+03  0.7818609E-02  0.9905532E-01
        2   -1    0    0  501    0  0.00000000000E+00  0.00000000000E+00  0.23371077868E+03  0.23371077869E+03  0.25500000920E-02 0. -1.
       -2   -1    0    0    0  501  0.00000000000E+00  0.00000000000E+00 -0.38501352446E+03  0.38501352447E+03  0.25500000920E-02 0.  1.
    10030    2    1    2    0    0  0.00000000000E+00  0.00000000000E+00 -0.15130274578E+03  0.61872430316E+03  0.59993936563E+03 0.  0.
        3    1    3    3  502    0 -0.21218829344E+03  0.20861815766E+03 -0.36564904675E+02  0.29980395266E+03  0.10100000352E+00 0. -1.
       -3    1    3    3    0  502  0.21218829344E+03 -0.20861815766E+03 -0.11473784111E+03  0.31892035049E+03  0.10100000352E+00 0.  1.
</event>
<event>
 5   0  0.2141800E-02  0.6007226E+03  0.7818609E-02  0.9903908E-01
        2   -1    0    0  501    0  0.00000000000E+00  0.00000000000E+00  0.79849163560E+03  0.79849163560E+03  0.25500000920E-02 0.  1.
       -2   -1    0    0    0  501  0.00000000000E+00  0.00000000000E+00 -0.11298417925E+03  0.11298417928E+03  0.25500000920E-02 0. -1.
    10030    2    1    2    0    0  0.00000000000E+00  0.00000000000E+00  0.68550745635E+03  0.91147581488E+03  0.60072263850E+03 0.  0.
        2    1    3    3  502    0 -0.51561225539E+01  0.19060125337E+03  0.69488968021E+03  0.72057413988E+03  0.25500000920E-02 0.  1.
       -2    1    3    3    0  502  0.51561225539E+01 -0.19060125337E+03 -0.93822238642E+01  0.19090167500E+03  0.25500000920E-02 0. -1.
</event>
<event>
 5   0  0.8551000E-03  0.6004969E+03  0.7818609E-02  0.9904376E-01
       -4   -1    0    0    0  501  0.00000000000E+00  0.00000000000E+00  0.18834566869E+03  0.18834995040E+03  0.12699999809E+01 0.  1.
        4   -1    0    0  501    0  0.00000000000E+00  0.00000000000E+00 -0.47862597997E+03  0.47862766490E+03  0.12699999809E+01 0. -1.
    10030    2    1    2    0    0  0.00000000000E+00  0.00000000000E+00 -0.29028031128E+03  0.66697761529E+03  0.60049686109E+03 0.  0.
        1    1    3    3  502    0  0.14950485007E+03 -0.15163718402E+03 -0.38024246564E+03  0.43580944055E+03  0.50400001928E-02 0. -1.
       -1    1    3    3    0  502 -0.14950485007E+03  0.15163718402E+03  0.89962154356E+02  0.23116817474E+03  0.50400001928E-02 0.  1.
</event>
<event>
 5   0  0.2126207E-02  0.5944995E+03  0.7818609E-02  0.9916884E-01
       -2   -1    0    0    0  501  0.00000000000E+00  0.00000000000E+00  0.36671794359E+03  0.36671794360E+03  0.25500000920E-02 0. -1.
        2   -1    0    0  501    0  0.00000000000E+00  0.00000000000E+00 -0.24094110537E+03  0.24094110539E+03  0.25500000920E-02 0.  1.
    10030    2    1    2    0    0  0.00000000000E+00  0.00000000000E+00  0.12577683822E+03  0.60765904898E+03  0.59449954313E+03 0.  0.
        5    1    3    3  502    0  0.16630523856E+03 -0.19250589243E+03  0.21997632257E+03  0.33634450119E+03  0.46999998093E+01 0. -1.
       -5    1    3    3    0  502 -0.16630523856E+03  0.19250589243E+03 -0.94199484351E+02  0.27131454779E+03  0.46999998093E+01 0.  1.
</event>
<event>
 5   0  0.2126207E-02  0.5990089E+03  0.7818609E-02  0.9907464E-01
        2   -1    0    0  501    0  0.00000000000E+00  0.00000000000E+00  0.89023623212E+03  0.89023623213E+03  0.25500000920E-02 0.  1.
       -2   -1    0    0    0  501  0.00000000000E+00  0.00000000000E+00 -0.10076305140E+03  0.10076305143E+03  0.25500000920E-02 0. -1.
    10030    2    1    2    0    0  0.00000000000E+00  0.00000000000E+00  0.78947318072E+03  0.99099928356E+03  0.59900891223E+03 0.  0.
        5    1    3    3  502    0  0.51201869693E+02 -0.29457202413E+03  0.36673273597E+03  0.47319055199E+03  0.46999998093E+01 0. -1.
       -5    1    3    3    0  502 -0.51201869693E+02  0.29457202413E+03  0.42274044475E+03  0.51780873157E+03  0.46999998093E+01 0.  1.
</event>
<event>
 5   0  0.2092587E-02  0.6001142E+03  0.7818609E-02  0.9905169E-01
       -2   -1    0    0    0  501  0.00000000000E+00  0.00000000000E+00  0.15552386566E+03  0.15552386568E+03  0.25500000920E-02 0.  1.
        2   -1    0    0  501    0  0.00000000000E+00  0.00000000000E+00 -0.57890968403E+03  0.57890968403E+03  0.25500000920E-02 0. -1.
    10030    2    1    2    0    0  0.00000000000E+00  0.00000000000E+00 -0.42338581837E+03  0.73443354971E+03  0.60011422892E+03 0.  0.
        3    1    3    3  502    0  0.92312262361E+02  0.73282006077E+02  0.12600783892E+03  0.17253924732E+03  0.10100000352E+00 0.  1.
       -3    1    3    3    0  502 -0.92312262361E+02 -0.73282006077E+02 -0.54939365728E+03  0.56189430239E+03  0.10100000352E+00 0. -1.
</event>
<event>
 5   0  0.2179625E-02  0.6066285E+03  0.7818609E-02  0.9891749E-01
        2   -1    0    0  501    0  0.00000000000E+00  0.00000000000E+00  0.77476841800E+03  0.77476841801E+03  0.25500000920E-02 0.  1.
       -2   -1    0    0    0  501  0.00000000000E+00  0.00000000000E+00 -0.11874455452E+03  0.11874455455E+03  0.25500000920E-02 0. -1.
    10030    2    1    2    0    0  0.00000000000E+00  0.00000000000E+00  0.65602386348E+03  0.89351297256E+03  0.60662848818E+03 0.  0.
        1    1    3    3  502    0 -0.25245012765E+03  0.91807334054E+02  0.12054563758E+03  0.29443319158E+03  0.50400001928E-02 0. -1.
       -1    1    3    3    0  502  0.25245012765E+03 -0.91807334054E+02  0.53547822590E+03  0.59907978098E+03  0.50400001928E-02 0.  1.
</event>
<event>
 5   0  0.1337051E-02  0.6014219E+03  0.7818609E-02  0.9902460E-01
        1   -1    0    0  501    0  0.00000000000E+00  0.00000000000E+00  0.15493637966E+04  0.15493637966E+04  0.50400001928E-02 0. -1.
       -1   -1    0    0    0  501  0.00000000000E+00  0.00000000000E+00 -0.58364005858E+02  0.58364006076E+02  0.50400001928E-02 0.  1.
    10030    2    1    2    0    0  0.00000000000E+00  0.00000000000E+00  0.14909997907E+04  0.16077278027E+04  0.60142190808E+03 0.  0.
        5    1    3    3  502    0 -0.23404689808E+02 -0.19806659011E+03  0.13469833199E+04  0.13616770203E+04  0.46999998093E+01 0. -1.
       -5    1    3    3    0  502  0.23404689808E+02  0.19806659011E+03  0.14401647085E+03  0.24605078236E+03  0.46999998093E+01 0.  1.
</event>
<event>
 5   0  0.1276705E-02  0.5993395E+03  0.7818609E-02  0.9906777E-01
       -1   -1    0    0    0  501  0.00000000000E+00  0.00000000000E+00  0.15199501605E+03  0.15199501614E+03  0.50400001928E-02 0. -1.
        1   -1    0    0  501    0  0.00000000000E+00  0.00000000000E+00 -0.59082175511E+03  0.59082175513E+03  0.50400001928E-02 0.  1.
    10030    2    1    2    0    0  0.00000000000E+00  0.00000000000E+00 -0.43882673906E+03  0.74281677127E+03  0.59933951043E+03 0.  0.
        1    1    3    3  502    0 -0.18835390790E+03 -0.41796616509E+02  0.64777447010E+02  0.20351970283E+03  0.50400001928E-02 0. -1.
       -1    1    3    3    0  502  0.18835390790E+03  0.41796616509E+02 -0.50360418607E+03  0.53929706844E+03  0.50400001928E-02 0.  1.
</event>
<event>
 5   0  0.8551000E-03  0.5952461E+03  0.7818609E-02  0.9915318E-01
        3   -1    0    0  501    0  0.00000000000E+00  0.00000000000E+00  0.12489198715E+03  0.12489202799E+03  0.10100000352E+00 0.  1.
       -3   -1    0    0    0  501  0.00000000000E+00  0.00000000000E+00 -0.70924855181E+03  0.70924855900E+03  0.10100000352E+00 0. -1.
    10030    2    1    2    0    0  0.00000000000E+00  0.00000000000E+00 -0.58435656466E+03  0.83414058699E+03  0.59524610389E+03 0.  0.
        4    1    3    3  502    0 -0.56200106426E+02  0.74039428061E+02 -0.68838167320E+03  0.69463028279E+03  0.12699999809E+01 0. -1.
       -4    1    3    3    0  502  0.56200106426E+02 -0.74039428061E+02  0.10402510854E+03  0.13951030420E+03  0.12699999809E+01 0.  1.
</event>
<event>
 5   0  0.2141800E-02  0.6006361E+03  0.7818609E-02  0.9904087E-01
       -2   -1    0    0    0  501  0.00000000000E+00  0.00000000000E+00  0.12849810888E+03  0.12849810890E+03  0.25500000920E-02 0.  1.
        2   -1    0    0  501    0  0.00000000000E+00  0.00000000000E+00 -0.70188519880E+03  0.70188519881E+03  0.25500000920E-02 0. -1.
    10030    2    1    2    0    0  0.00000000000E+00  0.00000000000E+00 -0.57338708993E+03  0.83038330771E+03  0.60063606520E+03 0.  0.
        2    1    3    3  502    0 -0.72519755515E+02 -0.24748641733E+03 -0.73938948721E+02  0.26828270509E+03  0.25500000920E-02 0.  1.
       -2    1    3    3    0  502  0.72519755515E+02  0.24748641733E+03 -0.49944814120E+03  0.56210060262E+03  0.25500000920E-02 0. -1.
</event>
<event>
 5   0  0.1332555E-02  0.6072866E+03  0.7818609E-02  0.9890403E-01
        1   -1    0    0  501    0  0.00000000000E+00  0.00000000000E+00  0.10125551005E+04  0.10125551005E+04  0.50400001928E-02 0.  1.
       -1   -1    0    0    0  501  0.00000000000E+00  0.00000000000E+00 -0.91056031461E+02  0.91056031601E+02  0.50400001928E-02 0. -1.
    10030    2    1    2    0    0  0.00000000000E+00  0.00000000000E+00  0.92149906904E+03  0.11036111321E+04  0.60728658530E+03 0.  0.
        2    1    3    3  502    0  0.57202846158E+02  0.12104516634E+03 -0.34522900148E+02  0.13826036505E+03  0.25500000920E-02 0. -1.
       -2    1    3    3    0  502 -0.57202846158E+02 -0.12104516634E+03  0.95602196919E+03  0.96535076707E+03  0.25500000920E-02 0.  1.
</event>
<event>
 5   0  0.2179625E-02  0.6020415E+03  0.7818609E-02  0.9901180E-01
        2   -1    0    0  501    0  0.00000000000E+00  0.00000000000E+00  0.20593250338E+03  0.20593250339E+03  0.25500000920E-02 0.  1.
       -2   -1    0    0    0  501  0.00000000000E+00  0.00000000000E+00 -0.44001551227E+03  0.44001551228E+03  0.25500000920E-02 0. -1.
    10030    2    1    2    0    0  0.00000000000E+00  0.00000000000E+00 -0.23408300889E+03  0.64594801567E+03  0.60204151343E+03 0.  0.
        1    1    3    3  502    0 -0.21418778670E+03  0.14816398434E+03 -0.27899528408E+03  0.38166391340E+03  0.50400001928E-02 0. -1.
       -1    1    3    3    0  502  0.21418778670E+03 -0.14816398434E+03  0.44912275192E+02  0.26428410227E+03  0.50400001928E-02 0.  1.
</event>
<event>
 5   0  0.2126207E-02  0.5862536E+03  0.7818609E-02  0.9934343E-01
        2   -1    0    0  501    0  0.00000000000E+00  0.00000000000E+00  0.22891052188E+03  0.22891052189E+03  0.25500000920E-02 0.  1.
       -2   -1    0    0    0  501  0.00000000000E+00  0.00000000000E+00 -0.37535767012E+03  0.37535767013E+03  0.25500000920E-02 0. -1.
    10030    2    1    2    0    0  0.00000000000E+00  0.00000000000E+00 -0.14644714824E+03  0.60426819202E+03  0.58625359757E+03 0.  0.
        5    1    3    3  502    0  0.11921225009E+01 -0.16301782935E+03  0.17782807197E+03  0.24129058626E+03  0.46999998093E+01 0.  1.
       -5    1    3    3    0  502 -0.11921225009E+01  0.16301782935E+03 -0.32427522021E+03  0.36297760576E+03  0.46999998093E+01 0. -1.
</event>
<event>
 5   0  0.8551000E-03  0.5978944E+03  0.7818609E-02  0.9909784E-01
       -3   -1    0    0    0  501  0.00000000000E+00  0.00000000000E+00  0.12904228321E+03  0.12904232274E+03  0.10100000352E+00 0. -1.
        3   -1    0    0  501    0  0.00000000000E+00  0.00000000000E+00 -0.69255922680E+03  0.69255923417E+03  0.10100000352E+00 0.  1.
    10030    2    1    2    0    0  0.00000000000E+00  0.00000000000E+00 -0.56351694359E+03  0.82160155691E+03  0.59789444938E+03 0.  0.
        4    1    3    3  502    0  0.15044238972E+03 -0.42155698399E+02  0.68470795058E+02  0.17058686411E+03  0.12699999809E+01 0. -1.
       -4    1    3    3    0  502 -0.15044238972E+03  0.42155698399E+02 -0.63198773865E+03  0.65101469280E+03  0.12699999809E+01 0.  1.
</event>
<event>
 5   0  0.1250390E-02  0.6007447E+03  0.7818609E-02  0.9903862E-01
        1   -1    0    0  501    0  0.00000000000E+00  0.00000000000E+00  0.13023234473E+04  0.13023234474E+04  0.50400001928E-02 0.  1.
       -1   -1    0    0    0  501  0.00000000000E+00  0.00000000000E+00 -0.69278914574E+02  0.69278914757E+02  0.50400001928E-02 0. -1.
    10030    2    1    2    0    0  0.00000000000E+00  0.00000000000E+00  0.12330445328E+04  0.13716023621E+04  0.60074472112E+03 0.  0.
        3    1    3    3  502    0 -0.19470119772E+03 -0.20589063608E+03  0.84397040706E+03  0.89027274956E+03  0.10100000352E+00 0.  1.
       -3    1    3    3    0  502  0.19470119772E+03  0.20589063608E+03  0.38907412572E+03  0.48132961256E+03  0.10100000352E+00 0. -1.
</event>
<event>
 5   0  0.1337051E-02  0.5998560E+03  0.7818609E-02  0.9905705E-01
       -1   -1    0    0    0  501  0.00000000000E+00  0.00000000000E+00  0.58820547829E+03  0.58820547832E+03  0.50400001928E-02 0. -1.
        1   -1    0    0  501    0  0.00000000000E+00  0.00000000000E+00 -0.15293433087E+03  0.15293433095E+03  0.50400001928E-02 0.  1.
    10030    2    1    2    0    0  0.00000000000E+00  0.00000000000E+00  0.43527114743E+03  0.74113980927E+03  0.59985602031E+03 0.  0.
        5    1    3    3  502    0 -0.13511171902E+03  0.17333305400E+03 -0.34470571362E+02  0.22250805494E+03  0.46999998093E+01 0.  1.
       -5    1    3    3    0  502  0.13511171902E+03 -0.17333305400E+03  0.46974171879E+03  0.51863175433E+03  0.46999998093E+01 0. -1.
</event>
<event>
 5   0  0.2179625E-02  0.6015635E+03  0.7818609E-02  0.9902168E-01
        2   -1    0    0  501    0  0.00000000000E+00  0.00000000000E+00  0.16996209418E+04  0.16996209418E+04  0.25500000920E-02 0. -1.
       -2   -1    0    0    0  501  0.00000000000E+00  0.00000000000E+00 -0.53229323177E+02  0.53229323238E+02  0.25500000920E-02 0.  1.
    10030    2    1    2    0    0  0.00000000000E+00  0.00000000000E+00  0.16463916187E+04  0.17528502651E+04  0.60156353761E+03 0.  0.
        1    1    3    3  502    0  0.24593993933E+03 -0.17200940722E+03  0.88117889268E+03  0.93088663695E+03  0.50400001928E-02 0. -1.
       -1    1    3    3    0  502 -0.24593993933E+03  0.17200940722E+03  0.76521272599E+03  0.82196362813E+03  0.50400001928E-02 0.  1.
</event>
<event>
 5   0  0.2142838E-02  0.5954809E+03  0.7818609E-02  0.9914826E-01
        2   -1    0    0  501    0  0.00000000000E+00  0.00000000000E+00  0.63563661080E+03  0.63563661080E+03  0.25500000920E-02 0.  1.
       -2   -1    0    0    0  501  0.00000000000E+00  0.00000000000E+00 -0.13946548257E+03  0.13946548260E+03  0.25500000920E-02 0. -1.
    10030    2    1    2    0    0  0.00000000000E+00  0.00000000000E+00  0.49617112822E+03  0.77510209340E+03  0.59548087015E+03 0.  0.
        4    1    3    3  502    0 -0.10103013682E+03 -0.12627171257E+03 -0.77314491415E+02  0.17925059951E+03  0.12699999809E+01 0. -1.
       -4    1    3    3    0  502  0.10103013682E+03  0.12627171257E+03  0.57348561964E+03  0.59585149389E+03  0.12699999809E+01 0.  1.
</event>
<event>
 5   0  0.8551000E-03  0.5724057E+03  0.7818609E-02  0.9964369E-01
        4   -1    0    0  501    0  0.00000000000E+00  0.00000000000E+00  0.47202187216E+03  0.47202358066E+03  0.12699999809E+01 0. -1.
       -4   -1    0    0    0  501  0.00000000000E+00  0.00000000000E+00 -0.17353016538E+03  0.17353481264E+03  0.12699999809E+01 0.  1.
    10030    2    1    2    0    0  0.00000000000E+00  0.00000000000E+00  0.29849170678E+03  0.64555839329E+03  0.57240574782E+03 0.  0.
        4    1    3    3  502    0  0.27296978034E+03  0.40845609598E+02  0.23461363103E+03  0.36225134032E+03  0.12699999809E+01 0.  1.
       -4    1    3    3    0  502 -0.27296978034E+03 -0.40845609598E+02  0.63878075744E+02  0.28330705297E+03  0.12699999809E+01 0. -1.
</event>
<event>
 5   0  0.1332555E-02  0.6004198E+03  0.7818609E-02  0.9904535E-01
       -1   -1    0    0    0  501  0.00000000000E+00  0.00000000000E+00  0.36747350643E+03  0.36747350646E+03  0.50400001928E-02 0. -1.
        1   -1    0    0  501    0  0.00000000000E+00  0.00000000000E+00 -0.24525846664E+03  0.24525846669E+03  0.50400001928E-02 0.  1.
    10030    2    1    2    0    0  0.00000000000E+00  0.00000000000E+00  0.12221503979E+03  0.61273197315E+03  0.60041981561E+03 0.  0.
        2    1    3    3  502    0 -0.28172712955E+03 -0.93807284921E+02  0.15973847321E+02  0.29736365957E+03  0.25500000920E-02 0.  1.
       -2    1    3    3    0  502  0.28172712955E+03  0.93807284921E+02  0.10624119247E+03  0.31536831358E+03  0.25500000920E-02 0. -1.
</event>
<event>
 5   0  0.2092587E-02  0.6010937E+03  0.7818609E-02  0.9903140E-01
        2   -1    0    0  501    0  0.00000000000E+00  0.00000000000E+00  0.91670666735E+03  0.91670666735E+03  0.25500000920E-02 0.  1.
       -2   -1    0    0    0  501  0.00000000000E+00  0.00000000000E+00 -0.98535780772E+02  0.98535780805E+02  0.25500000920E-02 0. -1.
    10030    2    1    2    0    0  0.00000000000E+00  0.00000000000E+00  0.81817088658E+03  0.10152424482E+04  0.60109369394E+03 0.  0.
        3    1    3    3  502    0  0.26315911769E+03 -0.13004173564E+03  0.51808528305E+03  0.59546279896E+03  0.10100000352E+00 0.  1.
       -3    1    3    3    0  502 -0.26315911769E+03  0.13004173564E+03  0.30008560353E+03  0.41977964920E+03  0.10100000352E+00 0. -1.
</event>
<event>
 5   0  0.1303808E-02  0.6100210E+03  0.7818609E-02  0.9884831E-01
       -1   -1    0    0    0  501  0.00000000000E+00  0.00000000000E+00  0.19787083799E+03  0.19787083805E+03  0.50400001928E-02 0.  1.
        1   -1    0    0  501    0  0.00000000000E+00  0.00000000000E+00 -0.47016231706E+03  0.47016231709E+03  0.50400001928E-02 0. -1.
    10030    2    1    2    0    0  0.00000000000E+00  0.00000000000E+00 -0.27229147907E+03  0.66803315514E+03  0.61002102160E+03 0.  0.
        4    1    3    3  502    0  0.52532119662E+02  0.29962898732E+03 -0.16045212190E+03  0.34392390141E+03  0.12699999809E+01 0. -1.
       -4    1    3    3    0  502 -0.52532119662E+02 -0.29962898732E+03 -0.11183935718E+03  0.32410925373E+03  0.12699999809E+01 0.  1.
</event>
<event>
 5   0  0.2126207E-02  0.6010612E+03  0.7818609E-02  0.9903207E-01
       -2   -1    0    0    0  501  0.00000000000E+00  0.00000000000E+00  0.10497573258E+03  0.10497573261E+03  0.25500000920E-02 0. -1.
        2   -1    0    0  501    0  0.00000000000E+00  0.00000000000E+00 -0.86037638559E+03  0.86037638559E+03  0.25500000920E-02 0.  1.
    10030    2    1    2    0    0  0.00000000000E+00  0.00000000000E+00 -0.75540065301E+03  0.96535211820E+03  0.60106119950E+03 0.  0.
        5    1    3    3  502    0  0.21253502502E+03  0.17070885922E+03 -0.17464778214E+03  0.32378478853E+03  0.46999998093E+01 0. -1.
       -5    1    3    3    0  502 -0.21253502502E+03 -0.17070885922E+03 -0.58075287087E+03  0.64156732967E+03  0.46999998093E+01 0.  1.
</event>
<event>
 5   0  0.1332555E-02  0.6072351E+03  0.7818609E-02  0.9890508E-01
        1   -1    0    0  501    0  0.00000000000E+00  0.00000000000E+00  0.64443556561E+03  0.64443556563E+03  0.50400001928E-02 0. -1.
       -1   -1    0    0    0  501  0.00000000000E+00  0.00000000000E+00 -0.14304550111E+03  0.14304550120E+03  0.50400001928E-02 0.  1.
    10030    2    1    2    0    0  0.00000000000E+00  0.00000000000E+00  0.50139006450E+03  0.78748106683E+03  0.60723507297E+03 0.  0.
        2    1    3    3  502    0 -0.35400138013E+02  0.30151657701E+03  0.24516370777E+03  0.39021873301E+03  0.25500000920E-02 0. -1.
       -2    1    3    3    0  502  0.35400138013E+02 -0.30151657701E+03  0.25622635673E+03  0.39726233382E+03  0.25500000920E-02 0.  1.
</event>
<event>
 5   0  0.2179625E-02  0.6010374E+03  0.7818609E-02  0.9903256E-01
        2   -1    0    0  501    0  0.00000000000E+00  0.00000000000E+00  0.68524587925E+03  0.68524587925E+03  0.25500000920E-02 0.  1.
       -2   -1    0    0    0  501  0.00000000000E+00  0.00000000000E+00 -0.13179429299E+03  0.13179429301E+03  0.25500000920E-02 0. -1.
    10030    2    1    2    0    0  0.00000000000E+00  0.00000000000E+00  0.55345158626E+03  0.81704017227E+03  0.60103742377E+03 0.  0.
        1    1    3    3  502    0  0.26492598629E+03 -0.11867431567E+03  0.38239215147E+03  0.48009699951E+03  0.50400001928E-02 0. -1.
       -1    1    3    3    0  502 -0.26492598629E+03  0.11867431567E+03  0.17105943479E+03  0.33694317275E+03  0.50400001928E-02 0.  1.
</event>
<event>
 5   0  0.2141800E-02  0.5986524E+03  0.7818609E-02  0.9908206E-01
        2   -1    0    0  501    0  0.00000000000E+00  0.00000000000E+00  0.33306168989E+03  0.33306168990E+03  0.25500000920E-02 0.  1.
       -2   -1    0    0    0  501  0.00000000000E+00  0.00000000000E+00 -0.26900774843E+03  0.26900774844E+03  0.25500000920E-02 0. -1.
    10030    2    1    2    0    0  0.00000000000E+00  0.00000000000E+00  0.64053941457E+02  0.60206943834E+03  0.59865240429E+03 0.  0.
        2    1    3    3  502    0  0.84123777327E+02  0.25953944677E+03  0.15585015964E+03  0.31420822174E+03  0.25500000920E-02 0.  1.
       -2    1    3    3    0  502 -0.84123777327E+02 -0.25953944677E+03 -0.91796218186E+02  0.28786121660E+03  0.25500000920E-02 0. -1.
</event>
<event>
 5   0  0.1337051E-02  0.6003670E+03  0.7818609E-02  0.9904645E-01
       -1   -1    0    0    0  501  0.00000000000E+00  0.00000000000E+00  0.34117360536E+03  0.34117360540E+03  0.50400001928E-02 0.  1.
        1   -1    0    0  501    0  0.00000000000E+00  0.00000000000E+00 -0.26411817090E+03  0.26411817095E+03  0.50400001928E-02 0. -1.
    10030    2    1    2    0    0  0.00000000000E+00  0.00000000000E+00  0.77055434465E+02  0.60529177635E+03  0.60036704984E+03 0.  0.
        5    1    3    3  502    0  0.78539636936E+02 -0.10774308863E+03 -0.23258515707E+03  0.26813241693E+03  0.46999998093E+01 0. -1.
       -5    1    3    3    0  502 -0.78539636936E+02  0.10774308863E+03  0.30964059154E+03  0.33715935942E+03  0.46999998093E+01 0.  1.
</event>
<event>
 5   0  0.1303808E-02  0.5978715E+03  0.7818609E-02  0.9909832E-01
        1   -1    0    0  501    0  0.00000000000E+00  0.00000000000E+00  0.79996492333E+03  0.79996492334E+03  0.50400001928E-02 0.  1.
       -1   -1    0    0    0  501  0.00000000000E+00  0.00000000000E+00 -0.11170813753E+03  0.11170813764E+03  0.50400001928E-02 0. -1.
    10030    2    1    2    0    0  0.00000000000E+00  0.00000000000E+00  0.68825678580E+03  0.91167306098E+03  0.59787153045E+03 0.  0.
        4    1    3    3  502    0  0.26149918302E+03 -0.14352270223E+03  0.37386872580E+03  0.47828864278E+03  0.12699999809E+01 0. -1.
       -4    1    3    3    0  502 -0.26149918302E+03  0.14352270223E+03  0.31438806000E+03  0.43338441821E+03  0.12699999809E+01 0.  1.
</event>
<event>
 5   0  0.8551000E-03  0.5996356E+03  0.7818609E-02  0.9906162E-01
        3   -1    0    0  501    0  0.00000000000E+00  0.00000000000E+00  0.64234156243E+03  0.64234157037E+03  0.10100000352E+00 0. -1.
       -3   -1    0    0    0  501  0.00000000000E+00  0.00000000000E+00 -0.13994222597E+03  0.13994226242E+03  0.10100000352E+00 0.  1.
    10030    2    1    2    0    0  0.00000000000E+00  0.00000000000E+00  0.50239933646E+03  0.78228383279E+03  0.59963564084E+03 0.  0.
        2    1    3    3  502    0  0.51343641650E+01 -0.29435444225E+03  0.17717216145E+03  0.34359987510E+03  0.25500000920E-02 0.  1.
       -2    1    3    3    0  502 -0.51343641650E+01  0.29435444225E+03  0.32522717501E+03  0.43868395769E+03  0.25500000920E-02 0. -1.
</event>
<event>
 5   0  0.2142838E-02  0.5965193E+03  0.7818609E-02  0.9912654E-01
       -2   -1    0    0    0  501  0.00000000000E+00  0.00000000000E+00  0.54729626838E+03  0.54729626838E+03  0.25500000920E-02 0.  1.
        2   -1    0    0  501    0  0.00000000000E+00  0.00000000000E+00 -0.16254234054E+03  0.16254234056E+03  0.25500000920E-02 0. -1.
    10030    2    1    2    0    0  0.00000000000E+00  0.00000000000E+00  0.38475392784E+03  0.70983860894E+03  0.59651929203E+03 0.  0.
        4    1    3    3  502    0 -0.72773199435E+02 -0.23479549552E+02  0.53543034296E+03  0.54086457905E+03  0.12699999809E+01 0.  1.
       -4    1    3    3    0  502  0.72773199435E+02  0.23479549552E+02 -0.15067641513E+03  0.16897402989E+03  0.12699999809E+01 0. -1.
</event>
<event>
 5   0  0.2126207E-02  0.6021768E+03  0.7818609E-02  0.9900900E-01
        2   -1    0    0  501    0  0.00000000000E+00  0.00000000000E+00  0.78258107991E+02  0.78258108033E+02  0.25500000920E-02 0.  1.
       -2   -1    0    0    0  501  0.00000000000E+00  0.00000000000E+00 -0.11584003751E+04  0.11584003751E+04  0.25500000920E-02 0. -1.
    10030    2    1    2    0    0  0.00000000000E+00  0.00000000000E+00 -0.10801422671E+04  0.12366584832E+04  0.60217679026E+03 0.  0.
        5    1    3    3  502    0 -0.68699909795E+02 -0.20505075223E+03 -0.97019443351E+03  0.99401449557E+03  0.46999998093E+01 0. -1.
       -5    1    3    3    0  502  0.68699909795E+02  0.20505075223E+03 -0.10994783363E+03  0.24264398760E+03  0.46999998093E+01 0.  1.
</event>
<event>
 5   0  0.1303808E-02  0.5999180E+03  0.7818609E-02  0.9905576E-01
       -1   -1    0    0    0  501  0.00000000000E+00  0.00000000000E+00  0.79081077727E+02  0.79081077888E+02  0.50400001928E-02 0. -1.
        1   -1    0    0  501    0  0.00000000000E+00  0.00000000000E+00 -0.11377613152E+04  0.11377613152E+04  0.50400001928E-02 0.  1.
    10030    2    1    2    0    0  0.00000000000E+00  0.00000000000E+00 -0.10586802375E+04  0.12168423931E+04  0.59991796475E+03 0.  0.
        4    1    3    3  502    0  0.16981864857E+03 -0.58472048731E+01 -0.27959678384E+02  0.17220894206E+03  0.12699999809E+01 0. -1.
       -4    1    3    3    0  502 -0.16981864857E+03  0.58472048731E+01 -0.10307205591E+04  0.10446334510E+04  0.12699999809E+01 0.  1.
</event>
<event>
 5   0  0.2142838E-02  0.6046274E+03  0.7818609E-02  0.9895852E-01
       -2   -1    0    0    0  501  0.00000000000E+00  0.00000000000E+00  0.91546248578E+03  0.91546248578E+03  0.25500000920E-02 0. -1.
        2   -1    0    0  501    0  0.00000000000E+00  0.00000000000E+00 -0.99833216213E+02  0.99833216246E+02  0.25500000920E-02 0.  1.
    10030    2    1    2    0    0  0.00000000000E+00  0.00000000000E+00  0.81562926956E+03  0.10152957020E+04  0.60462737052E+03 0.  0.
        4    1    3    3  502    0 -0.66222299747E+01 -0.29670763956E+03  0.50446290829E+03  0.58528942929E+03  0.12699999809E+01 0.  1.
       -4    1    3    3    0  502  0.66222299747E+01  0.29670763956E+03  0.31116636128E+03  0.43000627274E+03  0.12699999809E+01 0. -1.
</event>
<event>
 5   0  0.8551000E-03  0.6011441E+03  0.7818609E-02  0.9903035E-01
       -3   -1    0    0    0  501  0.00000000000E+00  0.00000000000E+00  0.49599865868E+03  0.49599866896E+03  0.10100000352E+00 0. -1.
        3   -1    0    0  501    0  0.00000000000E+00  0.00000000000E+00 -0.18214473525E+03  0.18214476325E+03  0.10100000352E+00 0.  1.
    10030    2    1    2    0    0  0.00000000000E+00  0.00000000000E+00  0.31385392342E+03  0.67814343221E+03  0.60114410037E+03 0.  0.
        2    1    3    3  502    0  0.14325757130E+03  0.14263473692E+02  0.45457416401E+03  0.47682685432E+03  0.25500000920E-02 0. -1.
       -2    1    3    3    0  502 -0.14325757130E+03 -0.14263473692E+02 -0.14072024058E+03  0.20131657789E+03  0.25500000920E-02 0.  1.
</event>
<event>
 5   0  0.1250390E-02  0.5997324E+03  0.7818609E-02  0.9905961E-01
       -1   -1    0    0    0  501  0.00000000000E+00  0.00000000000E+00  0.26976917145E+03  0.26976917150E+03  0.50400001928E-02 0. -1.
        1   -1    0    0  501    0  0.00000000000E+00  0.00000000000E+00 -0.33332108209E+03  0.33332108212E+03  0.50400001928E-02 0.  1.
    10030    2    1    2    0    0  0.00000000000E+00  0.00000000000E+00 -0.63551910632E+02  0.60309025363E+03  0.59973244757E+03 0.  0.
        3    1    3    3  502    0  0.26062385936E+01  0.28810555891E+03 -0.11535650368E+03  0.31035260382E+03  0.10100000352E+00 0. -1.
       -3    1    3    3    0  502 -0.26062385936E+01 -0.28810555891E+03  0.51804593050E+02  0.29273764981E+03  0.10100000352E+00 0.  1.
</event>
<event>
 5   0  0.1332555E-02  0.6041086E+03  0.7818609E-02  0.9896918E-01
        1   -1    0    0  501    0  0.00000000000E+00  0.00000000000E+00  0.57208368843E+03  0.57208368845E+03  0.50400001928E-02 0.  1.
       -1   -1    0    0    0  501  0.00000000000E+00  0.00000000000E+00 -0.15948156305E+03  0.15948156312E+03  0.50400001928E-02 0. -1.
    10030    2    1    2    0    0  0.00000000000E+00  0.00000000000E+00  0.41260212538E+03  0.73156525158E+03  0.60410860236E+03 0.  0.
        2    1    3    3  502    0 -0.14213223242E+03  0.10909248576E+03  0.50078180125E+03  0.53186949002E+03  0.25500000920E-02 0.  1.
       -2    1    3    3    0  502  0.14213223242E+03 -0.10909248576E+03 -0.88179675864E+02  0.19969576156E+03  0.25500000920E-02 0. -1.
</event>
<event>
 5   0  0.1332555E-02  0.6003053E+03  0.7818609E-02  0.9904773E-01
        1   -1    0    0  501    0  0.00000000000E+00  0.00000000000E+00  0.10194876249E+04  0.10194876249E+04  0.50400001928E-02 0.  1.
       -1   -1    0    0    0  501  0.00000000000E+00  0.00000000000E+00 -0.88369495387E+02  0.88369495530E+02  0.50400001928E-02 0. -1.
    10030    2    1    2    0    0  0.00000000000E+00  0.00000000000E+00  0.93111812952E+03  0.11078571204E+04  0.60030527918E+03 0.  0.
        2    1    3    3  502    0 -0.26591003278E+03  0.21429474504E+02  0.71943457217E+03  0.76730272484E+03  0.25500000920E-02 0.  1.
       -2    1    3    3    0  502  0.26591003278E+03 -0.21429474504E+02  0.21168355735E+03  0.34055439561E+03  0.25500000920E-02 0. -1.
</event>
<event>
 5   0  0.1276705E-02  0.5989914E+03  0.7818609E-02  0.9907501E-01
        1   -1    0    0  501    0  0.00000000000E+00  0.00000000000E+00  0.16372395920E+03  0.16372395928E+03  0.50400001928E-02 0.  1.
       -1   -1    0    0    0  501  0.00000000000E+00  0.00000000000E+00 -0.54785909197E+03  0.54785909200E+03  0.50400001928E-02 0. -1.
    10030    2    1    2    0    0  0.00000000000E+00  0.00000000000E+00 -0.38413513278E+03  0.71158305127E+03  0.59899135105E+03 0.  0.
        1    1    3    3  502    0  0.13577526396E+03 -0.18111233202E+03  0.40910840602E+02  0.23002238155E+03  0.50400001928E-02 0.  1.
       -1    1    3    3    0  502 -0.13577526396E+03  0.18111233202E+03 -0.42504597338E+03  0.48156066972E+03  0.50400001928E-02 0. -1.
</event>
<event>
 5   0  0.1337051E-02  0.6006943E+03  0.7818609E-02  0.9903967E-01
       -1   -1    0    0    0  501  0.00000000000E+00  0.00000000000E+00  0.15419204177E+03  0.15419204185E+03  0.50400001928E-02 0. -1.
        1   -1    0    0  501    0  0.00000000000E+00  0.00000000000E+00 -0.58503927670E+03  0.58503927672E+03  0.50400001928E-02 0.  1.
    10030    2    1    2    0    0  0.00000000000E+00  0.00000000000E+00 -0.43084723493E+03  0.73923131858E+03  0.60069426709E+03 0.  0.
        5    1    3    3  502    0 -0.26798729996E+03 -0.12081449461E+03 -0.13983283024E+03  0.32555897386E+03  0.46999998093E+01 0. -1.
       -5    1    3    3    0  502  0.26798729996E+03  0.12081449461E+03 -0.29101440469E+03  0.41367234472E+03  0.46999998093E+01 0.  1.
</event>
<event>
 5   0  0.1332555E-02  0.5960600E+03  0.7818609E-02  0.9913614E-01
       -1   -1    0    0    0  501  0.00000000000E+00  0.00000000000E+00  0.21350149697E+03  0.21350149703E+03  0.50400001928E-02 0. -1.
        1   -1    0    0  501    0  0.00000000000E+00  0.00000000000E+00 -0.41602459622E+03  0.41602459625E+03  0.50400001928E-02 0.  1.
    10030    2    1    2    0    0  0.00000000000E+00  0.00000000000E+00 -0.20252309925E+03  0.62952609328E+03  0.59605997717E+03 0.  0.
        2    1    3    3  502    0 -0.19658637570E+03  0.76593275966E+02  0.12105430697E+03  0.24324242697E+03  0.25500000920E-02 0. -1.
       -2    1    3    3    0  502  0.19658637570E+03 -0.76593275966E+02 -0.32357740623E+03  0.38628366631E+03  0.25500000920E-02 0.  1.
</event>
<event>
 5   0  0.2142838E-02  0.5973944E+03  0.7818609E-02  0.9910827E-01
        2   -1    0    0  501    0  0.00000000000E+00  0.00000000000E+00  0.32395527518E+03  0.32395527519E+03  0.25500000920E-02 0.  1.
       -2   -1    0    0    0  501  0.00000000000E+00  0.00000000000E+00 -0.27540841211E+03  0.27540841212E+03  0.25500000920E-02 0. -1.
    10030    2    1    2    0    0  0.00000000000E+00  0.00000000000E+00  0.48546863070E+02  0.59936368731E+03  0.59739436869E+03 0.  0.
        4    1    3    3  502    0  0.37447524381E+02  0.18073974106E+03 -0.21133943651E+03  0.28059782858E+03  0.12699999809E+01 0. -1.
       -4    1    3    3    0  502 -0.37447524381E+02 -0.18073974106E+03  0.25988629958E+03  0.31876585873E+03  0.12699999809E+01 0.  1.
</event>
<event>
 5   0  0.2142838E-02  0.5970521E+03  0.7818609E-02  0.9911541E-01
       -2   -1    0    0    0  501  0.00000000000E+00  0.00000000000E+00  0.18025112752E+03  0.18025112754E+03  0.25500000920E-02 0.  1.
        2   -1    0    0  501    0  0.00000000000E+00  0.00000000000E+00 -0.49440909114E+03  0.49440909114E+03  0.25500000920E-02 0. -1.
    10030    2    1    2    0    0  0.00000000000E+00  0.00000000000E+00 -0.31415796362E+03  0.67466021868E+03  0.59705207860E+03 0.  0.
        4    1    3    3  502    0  0.28369737539E+02 -0.13112468274E+02  0.17839430509E+03  0.18111576359E+03  0.12699999809E+01 0.  1.
       -4    1    3    3    0  502 -0.28369737539E+02  0.13112468274E+02 -0.49255226871E+03  0.49354445509E+03  0.12699999809E+01 0. -1.
</event>
<event>
 5   0  0.2179625E-02  0.5993676E+03  0.7818609E-02  0.9906719E-01
        2   -1    0    0  501    0  0.00000000000E+00  0.00000000000E+00  0.76513470921E+03  0.76513470921E+03  0.25500000920E-02 0.  1.
       -2   -1    0    0    0  501  0.00000000000E+00  0.00000000000E+00 -0.11737852127E+03  0.11737852129E+03  0.25500000920E-02 0. -1.
    10030    2    1    2    0    0  0.00000000000E+00  0.00000000000E+00  0.64775618794E+03  0.88251323050E+03  0.59936760256E+03 0.  0.
        1    1    3    3  502    0  0.26607266642E+03 -0.25774370725E+02  0.52334118559E+03  0.58766059810E+03  0.50400001928E-02 0.  1.
       -1    1    3    3    0  502 -0.26607266642E+03  0.25774370725E+02  0.12441500235E+03  0.29485263240E+03  0.50400001928E-02 0. -1.
</event>
<event>
 5   0  0.1303808E-02  0.6006079E+03  0.7818609E-02  0.9904146E-01
        1   -1    0    0  501    0  0.00000000000E+00  0.00000000000E+00  0.43782801249E+03  0.43782801252E+03  0.50400001928E-02 0.  1.
       -1   -1    0    0    0  501  0.00000000000E+00  0.00000000000E+00 -0.20597694669E+03  0.20597694675E+03  0.50400001928E-02 0. -1.
    10030    2    1    2    0    0  0.00000000000E+00  0.00000000000E+00  0.23185106580E+03  0.64380495927E+03  0.60060794939E+03 0.  0.
        4    1    3    3  502    0  0.12029587114E+03 -0.16456922282E+03 -0.12044907037E+03  0.23677778013E+03  0.12699999809E+01 0. -1.
       -4    1    3    3    0  502 -0.12029587114E+03  0.16456922282E+03  0.35230013617E+03  0.40702717914E+03  0.12699999809E+01 0.  1.
</event>
<event>
 5   0  0.1303808E-02  0.6003784E+03  0.7818609E-02  0.9904621E-01
       -1   -1    0    0    0  501  0.00000000000E+00  0.00000000000E+00  0.40058489393E+03  0.40058489397E+03  0.50400001928E-02 0. -1.
        1   -1    0    0  501    0  0.00000000000E+00  0.00000000000E+00 -0.22495491514E+03  0.22495491519E+03  0.50400001928E-02 0.  1.
    10030    2    1    2    0    0  0.00000000000E+00  0.00000000000E+00  0.17562997880E+03  0.62553980916E+03  0.60037835020E+03 0.  0.
        4    1    3    3  502    0  0.15597054116E+03 -0.17665599325E+03 -0.10592910472E+03  0.25837325285E+03  0.12699999809E+01 0.  1.
       -4    1    3    3    0  502 -0.15597054116E+03  0.17665599325E+03  0.28155908352E+03  0.36716655631E+03  0.12699999809E+01 0. -1.
</event>
<event>
 5   0  0.2126207E-02  0.6007253E+03  0.7818609E-02  0.9903902E-01
        2   -1    0    0  501    0  0.00000000000E+00  0.00000000000E+00  0.87823961872E+03  0.87823961872E+03  0.25500000920E-02 0.  1.
       -2   -1    0    0    0  501  0.00000000000E+00  0.00000000000E+00 -0.10272564892E+03  0.10272564895E+03  0.25500000920E-02 0. -1.
    10030    2    1    2    0    0  0.00000000000E+00  0.00000000000E+00  0.77551396980E+03  0.98096526767E+03  0.60072534409E+03 0.  0.
        5    1    3    3  502    0 -0.95453632397E+02  0.16256111818E+03  0.76952985889E+03  0.79229780184E+03  0.46999998093E+01 0.  1.
       -5    1    3    3    0  502  0.95453632397E+02 -0.16256111818E+03  0.59841109063E+01  0.18866746583E+03  0.46999998093E+01 0. -1.
</event>
<event>
 5   0  0.1337051E-02  0.5993024E+03  0.7818609E-02  0.9906854E-01
        1   -1    0    0  501    0  0.00000000000E+00  0.00000000000E+00  0.45708541491E+03  0.45708541494E+03  0.50400001928E-02 0.  1.
       -1   -1    0    0    0  501  0.00000000000E+00  0.00000000000E+00 -0.19644214972E+03  0.19644214978E+03  0.50400001928E-02 0. -1.
    10030    2    1    2    0    0  0.00000000000E+00  0.00000000000E+00  0.26064326519E+03  0.65352756472E+03  0.59930239959E+03 0.  0.
        5    1    3    3  502    0  0.12288030344E+03  0.26355135593E+03  0.51611409516E+02  0.29537216148E+03  0.46999998093E+01 0.  1.
       -5    1    3    3    0  502 -0.12288030344E+03 -0.26355135593E+03  0.20903185568E+03  0.35815540324E+03  0.46999998093E+01 0. -1.
</event>
<event>
 5   0  0.1337051E-02  0.5983214E+03  0.7818609E-02  0.9908895E-01
        1   -1    0    0  501    0  0.00000000000E+00  0.00000000000E+00  0.13906073721E+03  0.13906073730E+03  0.50400001928E-02 0.  1.
       -1   -1    0    0    0  501  0.00000000000E+00  0.00000000000E+00 -0.64358294807E+03  0.64358294809E+03  0.50400001928E-02 0. -1.
    10030    2    1    2    0    0  0.00000000000E+00  0.00000000000E+00 -0.50452221086E+03  0.78264368539E+03  0.59832138273E+03 0.  0.
        5    1    3    3  502    0 -0.18605625003E+03 -0.60047243876E+02 -0.54839409467E+03  0.58222055335E+03  0.46999998093E+01 0. -1.
       -5    1    3    3    0  502  0.18605625003E+03  0.60047243876E+02  0.43871883810E+02  0.20042313204E+03  0.46999998093E+01 0.  1.
</event>
<event>
 5   0  0.2141800E-02  0.6013755E+03  0.7818609E-02  0.9902556E-01
        2   -1    0    0  501    0  0.00000000000E+00  0.00000000000E+00  0.32348652849E+03  0.32348652850E+03  0.25500000920E-02 0.  1.
       -2   -1    0    0    0  501  0.00000000000E+00  0.00000000000E+00 -0.27949576987E+03  0.27949576988E+03  0.25500000920E-02 0. -1.
    10030    2    1    2    0    0  0.00000000000E+00  0.00000000000E+00  0.43990758623E+02  0.60298229838E+03  0.60137547781E+03 0.  0.
        2    1    3    3  502    0 -0.23520842221E+03 -0.14139492544E+03 -0.10120517287E+03  0.29250301510E+03  0.25500000920E-02 0. -1.
       -2    1    3    3    0  502  0.23520842221E+03  0.14139492544E+03  0.14519593149E+03  0.31047928328E+03  0.25500000920E-02 0.  1.
</event>
<event>
 5   0  0.1250390E-02  0.5996417E+03  0.7818609E-02  0.9906150E-01
        1   -1    0    0  501    0  0.00000000000E+00  0.00000000000E+00  0.86023695789E+03  0.86023695791E+03  0.50400001928E-02 0.  1.
       -1   -1    0    0    0  501  0.00000000000E+00  0.00000000000E+00 -0.10449741875E+03  0.10449741887E+03  0.50400001928E-02 0. -1.
    10030    2    1    2    0    0  0.00000000000E+00  0.00000000000E+00  0.75573953914E+03  0.96473437678E+03  0.59964169862E+03 0.  0.
        3    1    3    3  502    0 -0.19908667795E+03  0.24109678894E+02  0.19288052279E+02  0.20146667495E+03  0.10100000352E+00 0. -1.
       -3    1    3    3    0  502  0.19908667795E+03 -0.24109678894E+02  0.73645148686E+03  0.76326770183E+03  0.10100000352E+00 0.  1.
</event>
<event>
 5   0  0.2092587E-02  0.6223632E+03  0.7818609E-02  0.9860066E-01
       -2   -1    0    0    0  501  0.00000000000E+00  0.00000000000E+00  0.28445019060E+03  0.28445019061E+03  0.25500000920E-02 0.  1.
        2   -1    0    0  501    0  0.00000000000E+00  0.00000000000E+00 -0.34042506898E+03  0.34042506899E+03  0.25500000920E-02 0. -1.
    10030    2    1    2    0    0  0.00000000000E+00  0.00000000000E+00 -0.55974878376E+02  0.62487525960E+03  0.62236316010E+03 0.  0.
        3    1    3    3  502    0  0.11108673369E+03 -0.23837005103E+03  0.13903733192E+03  0.29747593768E+03  0.10100000352E+00 0. -1.
       -3    1    3    3    0  502 -0.11108673369E+03  0.23837005103E+03 -0.19501221029E+03  0.32739932192E+03  0.10100000352E+00 0.  1.
</event>
<event>
 5   0  0.8551000E-03  0.6014626E+03  0.7818609E-02  0.9902376E-01
        3   -1    0    0  501    0  0.00000000000E+00  0.00000000000E+00  0.54546804476E+03  0.54546805411E+03  0.10100000352E+00 0. -1.
       -3   -1    0    0    0  501  0.00000000000E+00  0.00000000000E+00 -0.16580127737E+03  0.16580130813E+03  0.10100000352E+00 0.  1.
    10030    2    1    2    0    0  0.00000000000E+00  0.00000000000E+00  0.37966676739E+03  0.71126936224E+03  0.60146259352E+03 0.  0.
        2    1    3    3  502    0  0.36783330028E+02 -0.69021827297E+02 -0.15356375125E+03  0.17233354785E+03  0.25500000920E-02 0.  1.
       -2    1    3    3    0  502 -0.36783330028E+02  0.69021827297E+02  0.53323051864E+03  0.53893581439E+03  0.25500000920E-02 0. -1.
</event>
<event>
 5   0  0.2142838E-02  0.6028213E+03  0.7818609E-02  0.9899570E-01
       -2   -1    0    0    0  501  0.00000000000E+00  0.00000000000E+00  0.28199619020E+03  0.28199619021E+03  0.25500000920E-02 0.  1.
        2   -1    0    0  501    0  0.00000000000E+00  0.00000000000E+00 -0.32216170043E+03  0.32216170044E+03  0.25500000920E-02 0. -1.
    10030    2    1    2    0    0  0.00000000000E+00  0.00000000000E+00 -0.40165510235E+02  0.60415789065E+03  0.60282127419E+03 0.  0.
        4    1    3    3  502    0  0.83207461262E+02  0.23839867681E+03 -0.18503611344E+03  0.31304534319E+03  0.12699999809E+01 0. -1.
       -4    1    3    3    0  502 -0.83207461262E+02 -0.23839867681E+03  0.14487060321E+03  0.29111254746E+03  0.12699999809E+01 0.  1.
</event>
<event>
 5   0  0.2142838E-02  0.5893157E+03  0.7818609E-02  0.9927824E-01
       -2   -1    0    0    0  501  0.00000000000E+00  0.00000000000E+00  0.12563660014E+03  0.12563660017E+03  0.25500000920E-02 0.  1.
        2   -1    0    0  501    0  0.00000000000E+00  0.00000000000E+00 -0.69106650106E+03  0.69106650106E+03  0.25500000920E-02 0. -1.
    10030    2    1    2    0    0  0.00000000000E+00  0.00000000000E+00 -0.56542990092E+03  0.81670310123E+03  0.58931569020E+03 0.  0.
        4    1    3    3  502    0 -0.50813398594E+02  0.18683626115E+03  0.25093026233E+02  0.19524615956E+03  0.12699999809E+01 0.  1.
       -4    1    3    3    0  502  0.50813398594E+02 -0.18683626115E+03 -0.59052292715E+03  0.62145694167E+03  0.12699999809E+01 0. -1.
</event>
<event>
 5   0  0.1332555E-02  0.6003813E+03  0.7818609E-02  0.9904615E-01
       -1   -1    0    0    0  501  0.00000000000E+00  0.00000000000E+00  0.53585506430E+03  0.53585506432E+03  0.50400001928E-02 0. -1.
        1   -1    0    0  501    0  0.00000000000E+00  0.00000000000E+00 -0.16816937772E+03  0.16816937779E+03  0.50400001928E-02 0.  1.
    10030    2    1    2    0    0  0.00000000000E+00  0.00000000000E+00  0.36768568658E+03  0.70402444212E+03  0.60038125469E+03 0.  0.
        2    1    3    3  502    0 -0.18241764120E+03 -0.15675054277E+03  0.39448396870E+03  0.46202221814E+03  0.25500000920E-02 0. -1.
       -2    1    3    3    0  502  0.18241764120E+03  0.15675054277E+03 -0.26798282124E+02  0.24200222398E+03  0.25500000920E-02 0.  1.
</event>
<event>
 5   0  0.2179625E-02  0.5996808E+03  0.7818609E-02  0.9906068E-01
       -2   -1    0    0    0  501  0.00000000000E+00  0.00000000000E+00  0.64681114089E+03  0.64681114089E+03  0.25500000920E-02 0.  1.
        2   -1    0    0  501    0  0.00000000000E+00  0.00000000000E+00 -0.13899617624E+03  0.13899617627E+03  0.25500000920E-02 0. -1.
    10030    2    1    2    0    0  0.00000000000E+00  0.00000000000E+00  0.50781496465E+03  0.78580731716E+03  0.59968083293E+03 0.  0.
        1    1    3    3  502    0  0.29555017159E+03  0.19456933986E+02  0.19278439280E+03  0.35340387426E+03  0.50400001928E-02 0. -1.
       -1    1    3    3    0  502 -0.29555017159E+03 -0.19456933986E+02  0.31503057184E+03  0.43240344290E+03  0.50400001928E-02 0.  1.
</event>
<event>
 5   0  0.1276705E-02  0.6019168E+03  0.7818609E-02  0.9901437E-01
       -1   -1    0    0    0  501  0.00000000000E+00  0.00000000000E+00  0.22033922443E+03  0.22033922449E+03  0.50400001928E-02 0.  1.
        1   -1    0    0  501    0  0.00000000000E+00  0.00000000000E+00 -0.41107504207E+03  0.41107504210E+03  0.50400001928E-02 0. -1.
    10030    2    1    2    0    0  0.00000000000E+00  0.00000000000E+00 -0.19073581764E+03  0.63141426659E+03  0.60191679153E+03 0.  0.
        1    1    3    3  502    0  0.13451859463E+03  0.39362771189E+02 -0.37474887662E+03  0.40010173783E+03  0.50400001928E-02 0. -1.
       -1    1    3    3    0  502 -0.13451859463E+03 -0.39362771189E+02  0.18401305899E+03  0.23131252876E+03  0.50400001928E-02 0.  1.
</event>
<event>
 5   0  0.1337051E-02  0.6003068E+03  0.7818609E-02  0.9904770E-01
       -1   -1    0    0    0  501  0.00000000000E+00  0.00000000000E+00  0.11220730265E+03  0.11220730276E+03  0.50400001928E-02 0.  1.
        1   -1    0    0  501    0  0.00000000000E+00  0.00000000000E+00 -0.80290742235E+03  0.80290742237E+03  0.50400001928E-02 0. -1.
    10030    2    1    2    0    0  0.00000000000E+00  0.00000000000E+00 -0.69070011971E+03  0.91511472513E+03  0.60030684220E+03 0.  0.
        5    1    3    3  502    0 -0.22477821804E+03  0.19791284638E+03 -0.31582034820E+03  0.43526925506E+03  0.46999998093E+01 0.  1.
       -5    1    3    3    0  502  0.22477821804E+03 -0.19791284638E+03 -0.37487977151E+03  0.47984547007E+03  0.46999998093E+01 0. -1.
</event>
<event>
 5   0  0.2179625E-02  0.5990649E+03  0.7818609E-02  0.9907348E-01
       -2   -1    0    0    0  501  0.00000000000E+00  0.00000000000E+00  0.15966058380E+03  0.15966058382E+03  0.25500000920E-02 0. -1.
        2   -1    0    0  501    0  0.00000000000E+00  0.00000000000E+00 -0.56194009275E+03  0.56194009276E+03  0.25500000920E-02 0.  1.
    10030    2    1    2    0    0  0.00000000000E+00  0.00000000000E+00 -0.40227950895E+03  0.72160067657E+03  0.59906488222E+03 0.  0.
        1    1    3    3  502    0  0.26597887511E+03 -0.13747827015E+03 -0.19073270205E+03  0.35499859215E+03  0.50400001928E-02 0. -1.
       -1    1    3    3    0  502 -0.26597887511E+03  0.13747827015E+03 -0.21154680690E+03  0.36660208443E+03  0.50400001928E-02 0.  1.
</event>
<event>
 5   0  0.1337051E-02  0.6009018E+03  0.7818609E-02  0.9903537E-01
       -1   -1    0    0    0  501  0.00000000000E+00  0.00000000000E+00  0.18373555490E+03  0.18373555497E+03  0.50400001928E-02 0.  1.
        1   -1    0    0  501    0  0.00000000000E+00  0.00000000000E+00 -0.49130792565E+03  0.49130792567E+03  0.50400001928E-02 0. -1.
    10030    2    1    2    0    0  0.00000000000E+00  0.00000000000E+00 -0.30757237074E+03  0.67504348064E+03  0.60090177027E+03 0.  0.
        5    1    3    3  502    0  0.67505877570E+02 -0.20937930774E+03 -0.38360516198E+03  0.44223494696E+03  0.46999998093E+01 0. -1.
       -5    1    3    3    0  502 -0.67505877570E+02  0.20937930774E+03  0.76032791239E+02  0.23280853369E+03  0.46999998093E+01 0.  1.
</event>
<event>
 5   0  0.1250390E-02  0.6018047E+03  0.7818609E-02  0.9901669E-01
        1   -1    0    0  501    0  0.00000000000E+00  0.00000000000E+00  0.13961478091E+03  0.13961478100E+03  0.50400001928E-02 0.  1.
       -1   -1    0    0    0  501  0.00000000000E+00  0.00000000000E+00 -0.64851456055E+03  0.64851456057E+03  0.50400001928E-02 0. -1.
    10030    2    1    2    0    0  0.00000000000E+00  0.00000000000E+00 -0.50889977965E+03  0.78812934157E+03  0.60180468038E+03 0.  0.
        3    1    3    3  502    0 -0.20855833306E+02  0.11285523803E+03 -0.61872614657E+03  0.62928000539E+03  0.10100000352E+00 0. -1.
       -3    1    3    3    0  502  0.20855833306E+02 -0.11285523803E+03  0.10982636692E+03  0.15884933618E+03  0.10100000352E+00 0.  1.
</event>
<event>
 5   0  0.1303808E-02  0.6002523E+03  0.7818609E-02  0.9904883E-01
       -1   -1    0    0    0  501  0.00000000000E+00  0.00000000000E+00  0.53588128145E+02  0.53588128382E+02  0.50400001928E-02 0. -1.
        1   -1    0    0  501    0  0.00000000000E+00  0.00000000000E+00 -0.16808893427E+04  0.16808893427E+04  0.50400001928E-02 0.  1.
    10030    2    1    2    0    0  0.00000000000E+00  0.00000000000E+00 -0.16273012145E+04  0.17344774711E+04  0.60025232596E+03 0.  0.
        4    1    3    3  502    0 -0.27503260092E+03  0.49595239231E+02 -0.11298119451E+04  0.11638639368E+04  0.12699999809E+01 0.  1.
       -4    1    3    3    0  502  0.27503260092E+03 -0.49595239231E+02 -0.49748926944E+03  0.57061353421E+03  0.12699999809E+01 0. -1.
</event>
<event>
 5   0  0.2126207E-02  0.5834646E+03  0.7818609E-02  0.9940318E-01
       -2   -1    0    0    0  501  0.00000000000E+00  0.00000000000E+00  0.14383073113E+03  0.14383073115E+03  0.25500000920E-02 0.  1.
        2   -1    0    0  501    0  0.00000000000E+00  0.00000000000E+00 -0.59172147286E+03  0.59172147287E+03  0.25500000920E-02 0. -1.
    10030    2    1    2    0    0  0.00000000000E+00  0.00000000000E+00 -0.44789074173E+03  0.73555220402E+03  0.58346459045E+03 0.  0.
        5    1    3    3  502    0  0.23814464148E+03 -0.11756704068E+03 -0.71875955416E+02  0.27517834633E+03  0.46999998093E+01 0.  1.
       -5    1    3    3    0  502 -0.23814464148E+03  0.11756704068E+03 -0.37601478631E+03  0.46037385769E+03  0.46999998093E+01 0. -1.
</event>
<event>
 5   0  0.2179625E-02  0.5987975E+03  0.7818609E-02  0.9907904E-01
        2   -1    0    0  501    0  0.00000000000E+00  0.00000000000E+00  0.31283566846E+03  0.31283566847E+03  0.25500000920E-02 0.  1.
       -2   -1    0    0    0  501  0.00000000000E+00  0.00000000000E+00 -0.28653897791E+03  0.28653897792E+03  0.25500000920E-02 0. -1.
    10030    2    1    2    0    0  0.00000000000E+00  0.00000000000E+00  0.26296690554E+02  0.59937464639E+03  0.59879750400E+03 0.  0.
        1    1    3    3  502    0  0.11281473333E+03 -0.19134186544E+03 -0.18779558512E+03  0.29087120061E+03  0.50400001928E-02 0. -1.
       -1    1    3    3    0  502 -0.11281473333E+03  0.19134186544E+03  0.21409227568E+03  0.30850344578E+03  0.50400001928E-02 0.  1.
</event>
<event>
 5   0  0.1332555E-02  0.6028579E+03  0.7818609E-02  0.9899495E-01
       -1   -1    0    0    0  501  0.00000000000E+00  0.00000000000E+00  0.33473879334E+03  0.33473879338E+03  0.50400001928E-02 0. -1.
        1   -1    0    0  501    0  0.00000000000E+00  0.00000000000E+00 -0.27143372275E+03  0.27143372280E+03  0.50400001928E-02 0.  1.
    10030    2    1    2    0    0  0.00000000000E+00  0.00000000000E+00  0.63305070589E+02  0.60617251618E+03  0.60285785009E+03 0.  0.
        2    1    3    3  502    0  0.27353971078E+03 -0.30430005595E+02  0.15524883817E+03  0.31599392459E+03  0.25500000920E-02 0. -1.
       -2    1    3    3    0  502 -0.27353971078E+03  0.30430005595E+02 -0.91943767581E+02  0.29017859159E+03  0.25500000920E-02 0.  1.
</event>
<event>
 5   0  0.1337051E-02  0.6024281E+03  0.7818609E-02  0.9900381E-01
       -1   -1    0    0    0  501  0.00000000000E+00  0.00000000000E+00  0.85263385153E+02  0.85263385302E+02  0.50400001928E-02 0.  1.
        1   -1    0    0  501    0  0.00000000000E+00  0.00000000000E+00 -0.10641131465E+04  0.10641131465E+04  0.50400001928E-02 0. -1.
    10030    2    1    2    0    0  0.00000000000E+00  0.00000000000E+00 -0.97884976137E+03  0.11493765318E+04  0.60242805098E+03 0.  0.
        5    1    3    3  502    0 -0.20826060945E+03  0.21534252779E+03 -0.43022092003E+03  0.52426807623E+03  0.46999998093E+01 0.  1.
       -5    1    3    3    0  502  0.20826060945E+03 -0.21534252779E+03 -0.54862884133E+03  0.62510845560E+03  0.46999998093E+01 0. -1.
</event>
<event>
 5   0  0.2092587E-02  0.5979010E+03  0.7818609E-02  0.9909770E-01
        2   -1    0    0  501    0  0.00000000000E+00  0.00000000000E+00  0.19755690314E+03  0.19755690315E+03  0.25500000920E-02 0.  1.
       -2   -1    0    0    0  501  0.00000000000E+00  0.00000000000E+00 -0.45238313526E+03  0.45238313526E+03  0.25500000920E-02 0. -1.
    10030    2    1    2    0    0  0.00000000000E+00  0.00000000000E+00 -0.25482623212E+03  0.64994003842E+03  0.59790103275E+03 0.  0.
        3    1    3    3  502    0  0.24063422517E+02 -0.21564462739E+03 -0.35095635222E+03  0.41261607457E+03  0.10100000352E+00 0. -1.
       -3    1    3    3    0  502 -0.24063422517E+02  0.21564462739E+03  0.96130120103E+02  0.23732396385E+03  0.10100000352E+00 0.  1.
</event>
<event>
 5   0  0.2179625E-02  0.6051110E+03  0.7818609E-02  0.9894859E-01
       -2   -1    0    0    0  501  0.00000000000E+00  0.00000000000E+00  0.43923074737E+03  0.43923074738E+03  0.25500000920E-02 0.  1.
        2   -1    0    0  501    0  0.00000000000E+00  0.00000000000E+00 -0.20840945551E+03  0.20840945552E+03  0.25500000920E-02 0. -1.
    10030    2    1    2    0    0  0.00000000000E+00  0.00000000000E+00  0.23082129187E+03  0.64764020290E+03  0.60511103414E+03 0.  0.
        1    1    3    3  502    0 -0.44412100111E+02 -0.60923505973E+02  0.42901593399E+03  0.43559015124E+03  0.50400001928E-02 0.  1.
       -1    1    3    3    0  502  0.44412100111E+02  0.60923505973E+02 -0.19819464213E+03  0.21205005166E+03  0.50400001928E-02 0. -1.
</event>
<event>
 5   0  0.8551000E-03  0.6000398E+03  0.7818609E-02  0.9905323E-01
        3   -1    0    0  501    0  0.00000000000E+00  0.00000000000E+00  0.14206898857E+03  0.14206902447E+03  0.10100000352E+00 0.  1.
       -3   -1    0    0    0  501  0.00000000000E+00  0.00000000000E+00 -0.63357898579E+03  0.63357899384E+03  0.10100000352E+00 0. -1.
    10030    2    1    2    0    0  0.00000000000E+00  0.00000000000E+00 -0.49150999722E+03  0.77564801832E+03  0.60003980780E+03 0.  0.
        4    1    3    3  502    0 -0.27274576446E+03  0.53089814318E+02 -0.39201173984E+03  0.48050348332E+03  0.12699999809E+01 0. -1.
       -4    1    3    3    0  502  0.27274576446E+03 -0.53089814318E+02 -0.99498257386E+02  0.29514453500E+03  0.12699999809E+01 0.  1.
</event>
<event>
 5   0  0.1337051E-02  0.5989934E+03  0.7818609E-02  0.9907497E-01
       -1   -1    0    0    0  501  0.00000000000E+00  0.00000000000E+00  0.15238049671E+03  0.15238049679E+03  0.50400001928E-02 0. -1.
        1   -1    0    0  501    0  0.00000000000E+00  0.00000000000E+00 -0.58864662912E+03  0.58864662914E+03  0.50400001928E-02 0.  1.
    10030    2    1    2    0    0  0.00000000000E+00  0.00000000000E+00 -0.43626613241E+03  0.74102712593E+03  0.59899337482E+03 0.  0.
        5    1    3    3  502    0  0.66546570592E+02  0.54976240285E+02  0.13661083133E+03  0.16166459812E+03  0.46999998093E+01 0. -1.
       -5    1    3    3    0  502 -0.66546570592E+02 -0.54976240285E+02 -0.57287696373E+03  0.57936252781E+03  0.46999998093E+01 0.  1.
</event>
<event>
 5   0  0.1332555E-02  0.6011403E+03  0.7818609E-02  0.9903043E-01
       -1   -1    0    0    0  501  0.00000000000E+00  0.00000000000E+00  0.15682527460E+03  0.15682527468E+03  0.50400001928E-02 0. -1.
        1   -1    0    0  501    0  0.00000000000E+00  0.00000000000E+00 -0.57607059687E+03  0.57607059689E+03  0.50400001928E-02 0.  1.
    10030    2    1    2    0    0  0.00000000000E+00  0.00000000000E+00 -0.41924532227E+03  0.73289587157E+03  0.60114034827E+03 0.  0.
        2    1    3    3  502    0 -0.13518454211E+01 -0.33825353033E+02 -0.57373900708E+03  0.57473683564E+03  0.25500000920E-02 0.  1.
       -2    1    3    3    0  502  0.13518454211E+01  0.33825353033E+02  0.15449368481E+03  0.15815903593E+03  0.25500000920E-02 0. -1.
</event>
<event>
 5   0  0.1337051E-02  0.6040494E+03  0.7818609E-02  0.9897040E-01
       -1   -1    0    0    0  501  0.00000000000E+00  0.00000000000E+00  0.67264091325E+03  0.67264091326E+03  0.50400001928E-02 0.  1.
        1   -1    0    0  501    0  0.00000000000E+00  0.00000000000E+00 -0.13561308700E+03  0.13561308710E+03  0.50400001928E-02 0. -1.
    10030    2    1    2    0    0  0.00000000000E+00  0.00000000000E+00  0.53702782624E+03  0.80825400036E+03  0.60404937127E+03 0.  0.
        5    1    3    3  502    0 -0.17773370990E+03  0.21730674915E+03  0.11960210220E+03  0.30518559551E+03  0.46999998093E+01 0.  1.
       -5    1    3    3    0  502  0.17773370990E+03 -0.21730674915E+03  0.41742572404E+03  0.50306840485E+03  0.46999998093E+01 0. -1.
</event>
<event>
 5   0  0.1332555E-02  0.6003713E+03  0.7818609E-02  0.9904636E-01
        1   -1    0    0  501    0  0.00000000000E+00  0.00000000000E+00  0.26423862294E+03  0.26423862298E+03  0.50400001928E-02 0. -1.
       -1   -1    0    0    0  501  0.00000000000E+00  0.00000000000E+00 -0.34102292743E+03  0.34102292747E+03  0.50400001928E-02 0.  1.
    10030    2    1    2    0    0  0.00000000000E+00  0.00000000000E+00 -0.76784304495E+02  0.60526155045E+03  0.60037131430E+03 0.  0.
        2    1    3    3  502    0  0.58415013053E+02  0.54634158913E+02  0.25329868000E+03  0.26562647904E+03  0.25500000920E-02 0. -1.
       -2    1    3    3    0  502 -0.58415013053E+02 -0.54634158913E+02 -0.33008298450E+03  0.33963507141E+03  0.25500000920E-02 0.  1.
</event>
<event>
 5   0  0.1337051E-02  0.6008339E+03  0.7818609E-02  0.9903677E-01
       -1   -1    0    0    0  501  0.00000000000E+00  0.00000000000E+00  0.74156725705E+02  0.74156725876E+02  0.50400001928E-02 0. -1.
        1   -1    0    0  501    0  0.00000000000E+00  0.00000000000E+00 -0.12170216734E+04  0.12170216734E+04  0.50400001928E-02 0.  1.
    10030    2    1    2    0    0  0.00000000000E+00  0.00000000000E+00 -0.11428649477E+04  0.12911783993E+04  0.60083389561E+03 0.  0.
        5    1    3    3  502    0  0.18121427435E+03 -0.52071686977E+02 -0.68929256289E+02  0.20080688779E+03  0.46999998093E+01 0. -1.
       -5    1    3    3    0  502 -0.18121427435E+03  0.52071686977E+02 -0.10739356914E+04  0.10903715115E+04  0.46999998093E+01 0.  1.
</event>
<event>
 5   0  0.8551000E-03  0.5981497E+03  0.7818609E-02  0.9909252E-01
        4   -1    0    0  501    0  0.00000000000E+00  0.00000000000E+00  0.89935714112E+03  0.89935803781E+03  0.12699999809E+01 0.  1.
       -4   -1    0    0    0  501  0.00000000000E+00  0.00000000000E+00 -0.99450212716E+02  0.99458321468E+02  0.12699999809E+01 0. -1.
    10030    2    1    2    0    0  0.00000000000E+00  0.00000000000E+00  0.79990692840E+03  0.99881635928E+03  0.59814966811E+03 0.  0.
        1    1    3    3  502    0 -0.18314032411E+03 -0.16668563409E+03  0.11993072271E+03  0.27515060822E+03  0.50400001928E-02 0. -1.
       -1    1    3    3    0  502  0.18314032411E+03  0.16668563409E+03  0.67997620569E+03  0.72366575106E+03  0.50400001928E-02 0.  1.
</event>
<event>
 5   0  0.2092587E-02  0.5996289E+03  0.7818609E-02  0.9906176E-01
        2   -1    0    0  501    0  0.00000000000E+00  0.00000000000E+00  0.71021712245E+03  0.71021712245E+03  0.25500000920E-02 0. -1.
       -2   -1    0    0    0  501  0.00000000000E+00  0.00000000000E+00 -0.12656508827E+03  0.12656508829E+03  0.25500000920E-02 0.  1.
    10030    2    1    2    0    0  0.00000000000E+00  0.00000000000E+00  0.58365203418E+03  0.83678221075E+03  0.59962886123E+03 0.  0.
        3    1    3    3  502    0  0.60294703820E+02  0.55509712024E+02 -0.11062981984E+03  0.13767987027E+03  0.10100000352E+00 0.  1.
       -3    1    3    3    0  502 -0.60294703820E+02 -0.55509712024E+02  0.69428185402E+03  0.69910234048E+03  0.10100000352E+00 0. -1.
</event>
<event>
 5   0  0.2141800E-02  0.5997638E+03  0.7818609E-02  0.9905896E-01
       -2   -1    0    0    0  501  0.00000000000E+00  0.00000000000E+00  0.37441062374E+03  0.37441062375E+03  0.25500000920E-02 0. -1.
        2   -1    0    0  501    0  0.00000000000E+00  0.00000000000E+00 -0.24018856380E+03  0.24018856381E+03  0.25500000920E-02 0.  1.
    10030    2    1    2    0    0  0.00000000000E+00  0.00000000000E+00  0.13422205994E+03  0.61459918756E+03  0.59976378681E+03 0.  0.
        2    1    3    3  502    0 -0.20668348404E+03 -0.27781699287E+02  0.28793916707E+03  0.35552615843E+03  0.25500000920E-02 0. -1.
       -2    1    3    3    0  502  0.20668348404E+03  0.27781699287E+02 -0.15371710713E+03  0.25907302913E+03  0.25500000920E-02 0.  1.
</event>
<event>
 5   0  0.2179625E-02  0.5974912E+03  0.7818609E-02  0.9910625E-01
        2   -1    0    0  501    0  0.00000000000E+00  0.00000000000E+00  0.95843030556E+02  0.95843030590E+02  0.25500000920E-02 0.  1.
       -2   -1    0    0    0  501  0.00000000000E+00  0.00000000000E+00 -0.93119912622E+03  0.93119912622E+03  0.25500000920E-02 0. -1.
    10030    2    1    2    0    0  0.00000000000E+00  0.00000000000E+00 -0.83535609566E+03  0.10270421568E+04  0.59749124287E+03 0.  0.
        1    1    3    3  502    0 -0.14538002186E+03 -0.14873824146E+03 -0.49047825458E+02  0.21369161059E+03  0.50400001928E-02 0.  1.
       -1    1    3    3    0  502  0.14538002186E+03  0.14873824146E+03 -0.78630827021E+03  0.81335054623E+03  0.50400001928E-02 0. -1.
</event>
<event>
 5   0  0.1332555E-02  0.5966370E+03  0.7818609E-02  0.9912408E-01
       -1   -1    0    0    0  501  0.00000000000E+00  0.00000000000E+00  0.79745661607E+02  0.79745661767E+02  0.50400001928E-02 0. -1.
        1   -1    0    0  501    0  0.00000000000E+00  0.00000000000E+00 -0.11159720463E+04  0.11159720463E+04  0.50400001928E-02 0.  1.
    10030    2    1    2    0    0  0.00000000000E+00  0.00000000000E+00 -0.10362263846E+04  0.11957177080E+04  0.59663700611E+03 0.  0.
        2    1    3    3  502    0  0.22842331670E+03 -0.76717114148E+02 -0.87057890278E+03  0.90331077331E+03  0.25500000920E-02 0.  1.
       -2    1    3    3    0  502 -0.22842331670E+03  0.76717114148E+02 -0.16564748187E+03  0.29240693472E+03  0.25500000920E-02 0. -1.
</event>
<event>
 5   0  0.2142838E-02  0.6009002E+03  0.7818609E-02  0.9903540E-01
       -2   -1    0    0    0  501  0.00000000000E+00  0.00000000000E+00  0.38079180240E+02  0.38079180325E+02  0.25500000920E-02 0. -1.
        2   -1    0    0  501    0  0.00000000000E+00  0.00000000000E+00 -0.23705934503E+04  0.23705934503E+04  0.25500000920E-02 0.  1.
    10030    2    1    2    0    0  0.00000000000E+00  0.00000000000E+00 -0.23325142700E+04  0.24086726306E+04  0.60090017598E+03 0.  0.
        4    1    3    3  502    0 -0.13923244484E+03 -0.24743489127E+03 -0.15602063653E+04  0.15858295036E+04  0.12699999809E+01 0.  1.
       -4    1    3    3    0  502  0.13923244484E+03  0.24743489127E+03 -0.77230790467E+03  0.82284312698E+03  0.12699999809E+01 0. -1.
</event>
<event>
 5   0  0.1303808E-02  0.6018257E+03  0.7818609E-02  0.9901626E-01
        1   -1    0    0  501    0  0.00000000000E+00  0.00000000000E+00  0.21051710150E+04  0.21051710150E+04  0.50400001928E-02 0. -1.
       -1   -1    0    0    0  501  0.00000000000E+00  0.00000000000E+00 -0.43012435318E+02  0.43012435613E+02  0.50400001928E-02 0.  1.
    10030    2    1    2    0    0  0.00000000000E+00  0.00000000000E+00  0.20621585797E+04  0.21481834506E+04  0.60182566392E+03 0.  0.
        4    1    3    3  502    0  0.22920247669E+02  0.10649179491E+03  0.20323138166E+04  0.20352314125E+04  0.12699999809E+01 0. -1.
       -4    1    3    3    0  502 -0.22920247669E+02 -0.10649179491E+03  0.29844763025E+02  0.11295203812E+03  0.12699999809E+01 0.  1.
</event>
<event>
 5   0  0.1332555E-02  0.6059167E+03  0.7818609E-02  0.9893206E-01
       -1   -1    0    0    0  501  0.00000000000E+00  0.00000000000E+00  0.28399237027E+03  0.28399237032E+03  0.50400001928E-02 0. -1.
        1   -1    0    0  501    0  0.00000000000E+00  0.00000000000E+00 -0.32319091359E+03  0.32319091363E+03  0.50400001928E-02 0.  1.
    10030    2    1    2    0    0  0.00000000000E+00  0.00000000000E+00 -0.39198543322E+02  0.60718328395E+03  0.60591667291E+03 0.  0.
        2    1    3    3  502    0  0.27829008444E+03 -0.58147236416E+02  0.85296579583E+02  0.29681977477E+03  0.25500000920E-02 0.  1.
       -2    1    3    3    0  502 -0.27829008444E+03  0.58147236416E+02 -0.12449512291E+03  0.31036350918E+03  0.25500000920E-02 0. -1.
</event>
<event>
 5   0  0.2092587E-02  0.5971868E+03  0.7818609E-02  0.9911260E-01
        2   -1    0    0  501    0  0.00000000000E+00  0.00000000000E+00  0.20650503557E+04  0.20650503557E+04  0.25500000920E-02 0. -1.
       -2   -1    0    0    0  501  0.00000000000E+00  0.00000000000E+00 -0.43174744855E+02  0.43174744931E+02  0.25500000920E-02 0.  1.
    10030    2    1    2    0    0  0.00000000000E+00  0.00000000000E+00  0.20218756109E+04  0.21082251007E+04  0.59718681266E+03 0.  0.
        3    1    3    3  502    0  0.15859776295E+03 -0.18070606852E+03  0.38587150215E+03  0.45464795170E+03  0.10100000352E+00 0.  1.
       -3    1    3    3    0  502 -0.15859776295E+03  0.18070606852E+03  0.16360041087E+04  0.16535771490E+04  0.10100000352E+00 0. -1.
</event>
<event>
 5   0  0.1250390E-02  0.5988297E+03  0.7818609E-02  0.9907837E-01
       -1   -1    0    0    0  501  0.00000000000E+00  0.00000000000E+00  0.17620056092E+03  0.17620056099E+03  0.50400001928E-02 0. -1.
        1   -1    0    0  501    0  0.00000000000E+00  0.00000000000E+00 -0.50879089182E+03  0.50879089185E+03  0.50400001928E-02 0.  1.
    10030    2    1    2    0    0  0.00000000000E+00  0.00000000000E+00 -0.33259033090E+03  0.68499145284E+03  0.59882966047E+03 0.  0.
        3    1    3    3  502    0  0.25587936352E+03  0.15412348122E+03 -0.14282646897E+03  0.33110074989E+03  0.10100000352E+00 0. -1.
       -3    1    3    3    0  502 -0.25587936352E+03 -0.15412348122E+03 -0.18976386192E+03  0.35389070295E+03  0.10100000352E+00 0.  1.
</event>
<event>
 5   0  0.2092587E-02  0.5997556E+03  0.7818609E-02  0.9905913E-01
        2   -1    0    0  501    0  0.00000000000E+00  0.00000000000E+00  0.55915837680E+03  0.55915837681E+03  0.25500000920E-02 0.  1.
       -2   -1    0    0    0  501  0.00000000000E+00  0.00000000000E+00 -0.16082509431E+03  0.16082509433E+03  0.25500000920E-02 0. -1.
    10030    2    1    2    0    0  0.00000000000E+00  0.00000000000E+00  0.39833328249E+03  0.71998347114E+03  0.59975561253E+03 0.  0.
        3    1    3    3  502    0 -0.14727404534E+03 -0.17962332837E+03  0.42685117994E+03  0.48595897413E+03  0.10100000352E+00 0.  1.
       -3    1    3    3    0  502  0.14727404534E+03  0.17962332837E+03 -0.28517897442E+02  0.23402449701E+03  0.10100000352E+00 0. -1.
</event>
<event>
 5   0  0.8551000E-03  0.5992858E+03  0.7818609E-02  0.9906889E-01
       -3   -1    0    0    0  501  0.00000000000E+00  0.00000000000E+00  0.83140279697E+03  0.83140280311E+03  0.10100000352E+00 0.  1.
        3   -1    0    0  501    0  0.00000000000E+00  0.00000000000E+00 -0.10799317481E+03  0.10799322204E+03  0.10100000352E+00 0. -1.
    10030    2    1    2    0    0  0.00000000000E+00  0.00000000000E+00  0.72340962216E+03  0.93939602515E+03  0.59928575040E+03 0.  0.
        1    1    3    3  502    0 -0.43095145590E+02  0.52820054477E+02  0.81908598160E+03  0.82191787607E+03  0.50400001928E-02 0.  1.
       -1    1    3    3    0  502  0.43095145590E+02 -0.52820054477E+02 -0.95676359444E+02  0.11747814908E+03  0.50400001928E-02 0. -1.
</event>
<event>
 5   0  0.1303808E-02  0.6191372E+03  0.7818609E-02  0.9866479E-01
        1   -1    0    0  501    0  0.00000000000E+00  0.00000000000E+00  0.24124092574E+03  0.24124092580E+03  0.50400001928E-02 0.  1.
       -1   -1    0    0    0  501  0.00000000000E+00  0.00000000000E+00 -0.39724899194E+03  0.39724899197E+03  0.50400001928E-02 0. -1.
    10030    2    1    2    0    0  0.00000000000E+00  0.00000000000E+00 -0.15600806620E+03  0.63848991777E+03  0.61913718865E+03 0.  0.
        4    1    3    3  502    0 -0.61212087862E+02  0.17323364688E+03  0.17893081873E+03  0.25646572266E+03  0.12699999809E+01 0.  1.
       -4    1    3    3    0  502  0.61212087862E+02 -0.17323364688E+03 -0.33493888492E+03  0.38202419510E+03  0.12699999809E+01 0. -1.
</event>
<event>
 5   0  0.1337051E-02  0.5986606E+03  0.7818609E-02  0.9908189E-01
       -1   -1    0    0    0  501  0.00000000000E+00  0.00000000000E+00  0.67955130078E+03  0.67955130080E+03  0.50400001928E-02 0. -1.
        1   -1    0    0  501    0  0.00000000000E+00  0.00000000000E+00 -0.13184970313E+03  0.13184970323E+03  0.50400001928E-02 0.  1.
    10030    2    1    2    0    0  0.00000000000E+00  0.00000000000E+00  0.54770159765E+03  0.81140100403E+03  0.59866062947E+03 0.  0.
        5    1    3    3  502    0 -0.16118826626E+03  0.82935088591E+02 -0.48931842641E+02  0.18781986403E+03  0.46999998093E+01 0.  1.
       -5    1    3    3    0  502  0.16118826626E+03 -0.82935088591E+02  0.59663344029E+03  0.62358114001E+03  0.46999998093E+01 0. -1.
</event>
<event>
 5   0  0.2126207E-02  0.5982892E+03  0.7818609E-02  0.9908962E-01
        2   -1    0    0  501    0  0.00000000000E+00  0.00000000000E+00  0.42649217320E+03  0.42649217321E+03  0.25500000920E-02 0. -1.
       -2   -1    0    0    0  501  0.00000000000E+00  0.00000000000E+00 -0.20982209906E+03  0.20982209908E+03  0.25500000920E-02 0.  1.
    10030    2    1    2    0    0  0.00000000000E+00  0.00000000000E+00  0.21667007414E+03  0.63631427228E+03  0.59828917096E+03 0.  0.
        5    1    3    3  502    0  0.14323216839E+03  0.52659519769E+02  0.38193357833E+03  0.41131961701E+03  0.46999998093E+01 0. -1.
       -5    1    3    3    0  502 -0.14323216839E+03 -0.52659519769E+02 -0.16526350419E+03  0.22499465527E+03  0.46999998093E+01 0.  1.
</event>
<event>
 5   0  0.1276705E-02  0.6008291E+03  0.7818609E-02  0.9903688E-01
       -1   -1    0    0    0  501  0.00000000000E+00  0.00000000000E+00  0.23175708101E+03  0.23175708106E+03  0.50400001928E-02 0.  1.
        1   -1    0    0  501    0  0.00000000000E+00  0.00000000000E+00 -0.38941156380E+03  0.38941156383E+03  0.50400001928E-02 0. -1.
    10030    2    1    2    0    0  0.00000000000E+00  0.00000000000E+00 -0.15765448279E+03  0.62116864490E+03  0.60082905178E+03 0.  0.
        1    1    3    3  502    0  0.35259245913E+02  0.24776669632E+02 -0.38619942677E+03  0.38859631373E+03  0.50400001928E-02 0. -1.
       -1    1    3    3    0  502 -0.35259245913E+02 -0.24776669632E+02  0.22854494398E+03  0.23257233117E+03  0.50400001928E-02 0.  1.
</event>
<event>
 5   0  0.2126207E-02  0.6000184E+03  0.7818609E-02  0.9905368E-01
        2   -1    0    0  501    0  0.00000000000E+00  0.00000000000E+00  0.62853780094E+03  0.62853780094E+03  0.25500000920E-02 0.  1.
       -2   -1    0    0    0  501  0.00000000000E+00  0.00000000000E+00 -0.14319826470E+03  0.14319826473E+03  0.25500000920E-02 0. -1.
    10030    2    1    2    0    0  0.00000000000E+00  0.00000000000E+00  0.48533953623E+03  0.77173606567E+03  0.60001840774E+03 0.  0.
        5    1    3    3  502    0 -0.10292731166E+03 -0.27024507115E+03  0.14012100852E+03  0.32137581893E+03  0.46999998093E+01 0. -1.
       -5    1    3    3    0  502  0.10292731166E+03  0.27024507115E+03  0.34521852772E+03  0.45036024674E+03  0.46999998093E+01 0.  1.
</event>
<event>
 5   0  0.1332555E-02  0.5917013E+03  0.7818609E-02  0.9922774E-01
        1   -1    0    0  501    0  0.00000000000E+00  0.00000000000E+00  0.42139564115E+03  0.42139564118E+03  0.50400001928E-02 0. -1.
       -1   -1    0    0    0  501  0.00000000000E+00  0.00000000000E+00 -0.20770888174E+03  0.20770888180E+03  0.50400001928E-02 0.  1.
    10030    2    1    2    0    0  0.00000000000E+00  0.00000000000E+00  0.21368675941E+03  0.62910452298E+03  0.59170133487E+03 0.  0.
        2    1    3    3  502    0  0.99961606060E+02 -0.82292082127E+02 -0.17598587025E+03  0.21848417792E+03  0.25500000920E-02 0.  1.
       -2    1    3    3    0  502 -0.99961606060E+02  0.82292082127E+02  0.38967262966E+03  0.41062034506E+03  0.25500000920E-02 0. -1.
</event>
<event>
 5   0  0.1250390E-02  0.6027929E+03  0.7818609E-02  0.9899629E-01
       -1   -1    0    0    0  501  0.00000000000E+00  0.00000000000E+00  0.35453811289E+03  0.35453811292E+03  0.50400001928E-02 0. -1.
        1   -1    0    0  501    0  0.00000000000E+00  0.00000000000E+00 -0.25622020559E+03  0.25622020564E+03  0.50400001928E-02 0.  1.
    10030    2    1    2    0    0  0.00000000000E+00  0.00000000000E+00  0.98317907302E+02  0.61075831856E+03  0.60279292696E+03 0.  0.
        3    1    3    3  502    0 -0.15509395361E+03 -0.15921842068E+03 -0.15708719517E+03  0.27217831842E+03  0.10100000352E+00 0.  1.
       -3    1    3    3    0  502  0.15509395361E+03  0.15921842068E+03  0.25540510247E+03  0.33858000014E+03  0.10100000352E+00 0. -1.
</event>
<event>
 5   0  0.8551000E-03  0.6049725E+03  0.7818609E-02  0.9895143E-01
       -3   -1    0    0    0  501  0.00000000000E+00  0.00000000000E+00  0.12476021563E+03  0.12476025651E+03  0.10100000352E+00 0.  1.
        3   -1    0    0  501    0  0.00000000000E+00  0.00000000000E+00 -0.73339023877E+03  0.73339024573E+03  0.10100000352E+00 0. -1.
    10030    2    1    2    0    0  0.00000000000E+00  0.00000000000E+00 -0.60863002315E+03  0.85815050224E+03  0.60497254435E+03 0.  0.
        1    1    3    3  502    0  0.71580988256E+02 -0.26920161510E+03 -0.13704926836E+03  0.31044459962E+03  0.50400001928E-02 0.  1.
       -1    1    3    3    0  502 -0.71580988256E+02  0.26920161510E+03 -0.47158075478E+03  0.54770590261E+03  0.50400001928E-02 0. -1.
</event>
<event>
 5   0  0.1337051E-02  0.6005543E+03  0.7818609E-02  0.9904257E-01
       -1   -1    0    0    0  501  0.00000000000E+00  0.00000000000E+00  0.94374581710E+02  0.94374581845E+02  0.50400001928E-02 0.  1.
        1   -1    0    0  501    0  0.00000000000E+00  0.00000000000E+00 -0.95540952860E+03  0.95540952861E+03  0.50400001928E-02 0. -1.
    10030    2    1    2    0    0  0.00000000000E+00  0.00000000000E+00 -0.86103494689E+03  0.10497841105E+04  0.60055432627E+03 0.  0.
        5    1    3    3  502    0 -0.13773115210E+03  0.31078414167E+02  0.32654941726E+02  0.14499714929E+03  0.46999998093E+01 0.  1.
       -5    1    3    3    0  502  0.13773115210E+03 -0.31078414167E+02 -0.89368988862E+03  0.90478696117E+03  0.46999998093E+01 0. -1.
</event>
<event>
 5   0  0.2141800E-02  0.6003446E+03  0.7818609E-02  0.9904691E-01
       -2   -1    0    0    0  501  0.00000000000E+00  0.00000000000E+00  0.12731921823E+03  0.12731921825E+03  0.25500000920E-02 0.  1.
        2   -1    0    0  501    0  0.00000000000E+00  0.00000000000E+00 -0.70769675615E+03  0.70769675615E+03  0.25500000920E-02 0. -1.
    10030    2    1    2    0    0  0.00000000000E+00  0.00000000000E+00 -0.58037753792E+03  0.83501597440E+03  0.60034456022E+03 0.  0.
        2    1    3    3  502    0 -0.15845330539E+03 -0.15769115628E+03 -0.56881743229E+03  0.61116873451E+03  0.25500000920E-02 0. -1.
       -2    1    3    3    0  502  0.15845330539E+03  0.15769115628E+03 -0.11560105631E+02  0.22384723989E+03  0.25500000920E-02 0.  1.
</event>
<event>
 5   0  0.2179625E-02  0.6000834E+03  0.7818609E-02  0.9905233E-01
        2   -1    0    0  501    0  0.00000000000E+00  0.00000000000E+00  0.17606669554E+04  0.17606669554E+04  0.25500000920E-02 0. -1.
       -2   -1    0    0    0  501  0.00000000000E+00  0.00000000000E+00 -0.51131205336E+02  0.51131205400E+02  0.25500000920E-02 0.  1.
    10030    2    1    2    0    0  0.00000000000E+00  0.00000000000E+00  0.17095357501E+04  0.18117981608E+04  0.60008340648E+03 0.  0.
        1    1    3    3  502    0  0.47775632522E+02 -0.70146177391E+02 -0.14134776878E+02  0.86039463086E+02  0.50400001928E-02 0.  1.
       -1    1    3    3    0  502 -0.47775632522E+02  0.70146177391E+02  0.17236705269E+04  0.17257586977E+04  0.50400001928E-02 0. -1.
</event>
<event>
 5   0  0.1303808E-02  0.6002240E+03  0.7818609E-02  0.9904941E-01
       -1   -1    0    0    0  501  0.00000000000E+00  0.00000000000E+00  0.49027900955E+03  0.49027900957E+03  0.50400001928E-02 0. -1.
        1   -1    0    0  501    0  0.00000000000E+00  0.00000000000E+00 -0.18370604130E+03  0.18370604137E+03  0.50400001928E-02 0.  1.
    10030    2    1    2    0    0  0.00000000000E+00  0.00000000000E+00  0.30657296825E+03  0.67398505094E+03  0.60022401154E+03 0.  0.
        4    1    3    3  502    0 -0.93726416011E+02  0.21368456377E+03 -0.58638939213E+02  0.24059482942E+03  0.12699999809E+01 0.  1.
       -4    1    3    3    0  502  0.93726416011E+02 -0.21368456377E+03  0.36521190746E+03  0.43339022151E+03  0.12699999809E+01 0. -1.
</event>
<event>
 5   0  0.1250390E-02  0.5967554E+03  0.7818609E-02  0.9912161E-01
        1   -1    0    0  501    0  0.00000000000E+00  0.00000000000E+00  0.27399493288E+03  0.27399493292E+03  0.50400001928E-02 0.  1.
       -1   -1    0    0    0  501  0.00000000000E+00  0.00000000000E+00 -0.32493026436E+03  0.32493026440E+03  0.50400001928E-02 0. -1.
    10030    2    1    2    0    0  0.00000000000E+00  0.00000000000E+00 -0.50935331482E+02  0.59892519732E+03  0.59675538037E+03 0.  0.
        3    1    3    3  502    0  0.22428812266E+03  0.17852909115E+02  0.17121771946E+03  0.28273557609E+03  0.10100000352E+00 0.  1.
       -3    1    3    3    0  502 -0.22428812266E+03 -0.17852909115E+02 -0.22215305094E+03  0.31618962123E+03  0.10100000352E+00 0. -1.
</event>
<event>
 5   0  0.1250390E-02  0.6010593E+03  0.7818609E-02  0.9903211E-01
       -1   -1    0    0    0  501  0.00000000000E+00  0.00000000000E+00  0.66610169130E+02  0.66610169321E+02  0.50400001928E-02 0.  1.
        1   -1    0    0  501    0  0.00000000000E+00  0.00000000000E+00 -0.13559203422E+04  0.13559203422E+04  0.50400001928E-02 0. -1.
    10030    2    1    2    0    0  0.00000000000E+00  0.00000000000E+00 -0.12893101731E+04  0.14225305116E+04  0.60105934304E+03 0.  0.
        3    1    3    3  502    0 -0.15645025463E+02  0.47973636932E+02 -0.13458226723E+04  0.13467683216E+04  0.10100000352E+00 0. -1.
       -3    1    3    3    0  502  0.15645025463E+02 -0.47973636932E+02  0.56512499179E+02  0.75762189954E+02  0.10100000352E+00 0.  1.
</event>
<event>
 5   0  0.1332555E-02  0.6109981E+03  0.7818609E-02  0.9882848E-01
       -1   -1    0    0    0  501  0.00000000000E+00  0.00000000000E+00  0.29303190194E+03  0.29303190198E+03  0.50400001928E-02 0. -1.
        1   -1    0    0  501    0  0.00000000000E+00  0.00000000000E+00 -0.31849665936E+03  0.31849665940E+03  0.50400001928E-02 0.  1.
    10030    2    1    2    0    0  0.00000000000E+00  0.00000000000E+00 -0.25464757419E+02  0.61152856138E+03  0.61099814035E+03 0.  0.
        2    1    3    3  502    0  0.15209055629E+03 -0.91719156019E+02 -0.26151554270E+03  0.31612389972E+03  0.25500000920E-02 0.  1.
       -2    1    3    3    0  502 -0.15209055629E+03  0.91719156019E+02  0.23605078528E+03  0.29540466166E+03  0.25500000920E-02 0. -1.
</event>
<event>
 5   0  0.2179625E-02  0.5994367E+03  0.7818609E-02  0.9906575E-01
        2   -1    0    0  501    0  0.00000000000E+00  0.00000000000E+00  0.17994738718E+03  0.17994738720E+03  0.25500000920E-02 0. -1.
       -2   -1    0    0    0  501  0.00000000000E+00  0.00000000000E+00 -0.49920760261E+03  0.49920760261E+03  0.25500000920E-02 0.  1.
    10030    2    1    2    0    0  0.00000000000E+00  0.00000000000E+00 -0.31926021543E+03  0.67915498981E+03  0.59943674815E+03 0.  0.
        1    1    3    3  502    0 -0.20902401214E+03 -0.10014888770E+03  0.55668329917E+02  0.23836904233E+03  0.50400001928E-02 0. -1.
       -1    1    3    3    0  502  0.20902401214E+03  0.10014888770E+03 -0.37492854535E+03  0.44078594748E+03  0.50400001928E-02 0.  1.
</event>
<event>
 5   0  0.2092587E-02  0.6053871E+03  0.7818609E-02  0.9894292E-01
       -2   -1    0    0    0  501  0.00000000000E+00  0.00000000000E+00  0.56146401526E+02  0.56146401584E+02  0.25500000920E-02 0.  1.
        2   -1    0    0  501    0  0.00000000000E+00  0.00000000000E+00 -0.16318655736E+04  0.16318655736E+04  0.25500000920E-02 0. -1.
    10030    2    1    2    0    0  0.00000000000E+00  0.00000000000E+00 -0.15757191721E+04  0.16880119752E+04  0.60538708206E+03 0.  0.
        3    1    3    3  502    0 -0.52624537726E+02  0.24555886906E+03 -0.12590348289E+04  0.12838369097E+04  0.10100000352E+00 0. -1.
       -3    1    3    3    0  502  0.52624537726E+02 -0.24555886906E+03 -0.31668434320E+03  0.40417506550E+03  0.10100000352E+00 0.  1.
</event>
<event>
 5   0  0.1250390E-02  0.5966931E+03  0.7818609E-02  0.9912291E-01
        1   -1    0    0  501    0  0.00000000000E+00  0.00000000000E+00  0.17074153708E+03  0.17074153715E+03  0.50400001928E-02 0. -1.
       -1   -1    0    0    0  501  0.00000000000E+00  0.00000000000E+00 -0.52131812009E+03  0.52131812012E+03  0.50400001928E-02 0.  1.
    10030    2    1    2    0    0  0.00000000000E+00  0.00000000000E+00 -0.35057658302E+03  0.69205965727E+03  0.59669307744E+03 0.  0.
        3    1    3    3  502    0  0.34335706618E+02  0.24269360737E+03  0.21989479907E+02  0.24609485008E+03  0.10100000352E+00 0. -1.
       -3    1    3    3    0  502 -0.34335706618E+02 -0.24269360737E+03 -0.37256606292E+03  0.44596480719E+03  0.10100000352E+00 0.  1.
</event>
<event>
 5   0  0.2142838E-02  0.5957720E+03  0.7818609E-02  0.9914217E-01
        2   -1    0    0  501    0  0.00000000000E+00  0.00000000000E+00  0.24349170043E+03  0.24349170044E+03  0.25500000920E-02 0.  1.
       -2   -1    0    0    0  501  0.00000000000E+00  0.00000000000E+00 -0.36443157920E+03  0.36443157920E+03  0.25500000920E-02 0. -1.
    10030    2    1    2    0    0  0.00000000000E+00  0.00000000000E+00 -0.12093987877E+03  0.60792327964E+03  0.59577198630E+03 0.  0.
        4    1    3    3  502    0  0.29087774948E+02 -0.14790394698E+03 -0.32263975799E+03  0.35611754031E+03  0.12699999809E+01 0. -1.
       -4    1    3    3    0  502 -0.29087774948E+02  0.14790394698E+03  0.20169987922E+03  0.25180573933E+03  0.12699999809E+01 0.  1.
</event>
<event>
 5   0  0.1250390E-02  0.6005454E+03  0.7818609E-02  0.9904275E-01
       -1   -1    0    0    0  501  0.00000000000E+00  0.00000000000E+00  0.15385407254E+03  0.15385407262E+03  0.50400001928E-02 0.  1.
        1   -1    0    0  501    0  0.00000000000E+00  0.00000000000E+00 -0.58603388261E+03  0.58603388263E+03  0.50400001928E-02 0. -1.
    10030    2    1    2    0    0  0.00000000000E+00  0.00000000000E+00 -0.43217981007E+03  0.73988795526E+03  0.60054541718E+03 0.  0.
        3    1    3    3  502    0  0.22474988055E+03  0.17772490254E+03 -0.10544705593E+03  0.30531580633E+03  0.10100000352E+00 0.  1.
       -3    1    3    3    0  502 -0.22474988055E+03 -0.17772490254E+03 -0.32673275414E+03  0.43457214892E+03  0.10100000352E+00 0. -1.
</event>
<event>
 5   0  0.1250390E-02  0.6005022E+03  0.7818609E-02  0.9904365E-01
       -1   -1    0    0    0  501  0.00000000000E+00  0.00000000000E+00  0.15093287616E+03  0.15093287625E+03  0.50400001928E-02 0.  1.
        1   -1    0    0  501    0  0.00000000000E+00  0.00000000000E+00 -0.59729023604E+03  0.59729023606E+03  0.50400001928E-02 0. -1.
    10030    2    1    2    0    0  0.00000000000E+00  0.00000000000E+00 -0.44635735987E+03  0.74822311231E+03  0.60050223403E+03 0.  0.
        3    1    3    3  502    0 -0.86382491892E+02 -0.17578215869E+03 -0.50673349014E+03  0.54326802082E+03  0.10100000352E+00 0. -1.
       -3    1    3    3    0  502  0.86382491892E+02  0.17578215869E+03  0.60376130268E+02  0.20495509148E+03  0.10100000352E+00 0.  1.
</event>
<event>
 5   0  0.2126207E-02  0.5997814E+03  0.7818609E-02  0.9905860E-01
       -2   -1    0    0    0  501  0.00000000000E+00  0.00000000000E+00  0.12360110492E+03  0.12360110494E+03  0.25500000920E-02 0. -1.
        2   -1    0    0  501    0  0.00000000000E+00  0.00000000000E+00 -0.72761830648E+03  0.72761830648E+03  0.25500000920E-02 0.  1.
    10030    2    1    2    0    0  0.00000000000E+00  0.00000000000E+00 -0.60401720156E+03  0.85121941142E+03  0.59978138235E+03 0.  0.
        5    1    3    3  502    0  0.59708401877E+02 -0.23170087275E+03 -0.55849809784E+03  0.60761221431E+03  0.46999998093E+01 0.  1.
       -5    1    3    3    0  502 -0.59708401877E+02  0.23170087275E+03 -0.45519103716E+02  0.24360719712E+03  0.46999998093E+01 0. -1.
</event>
<event>
 5   0  0.1303808E-02  0.5996340E+03  0.7818609E-02  0.9906166E-01
       -1   -1    0    0    0  501  0.00000000000E+00  0.00000000000E+00  0.32978786231E+03  0.32978786235E+03  0.50400001928E-02 0.  1.
        1   -1    0    0  501    0  0.00000000000E+00  0.00000000000E+00 -0.27256988539E+03  0.27256988544E+03  0.50400001928E-02 0. -1.
    10030    2    1    2    0    0  0.00000000000E+00  0.00000000000E+00  0.57217976923E+02  0.60235774779E+03  0.59963402125E+03 0.  0.
        4    1    3    3  502    0 -0.66139145269E+02  0.16858734450E+03 -0.21141682333E+03  0.27837881627E+03  0.12699999809E+01 0. -1.
       -4    1    3    3    0  502  0.66139145269E+02 -0.16858734450E+03  0.26863480025E+03  0.32397893152E+03  0.12699999809E+01 0.  1.
</event>
<event>
 5   0  0.1250390E-02  0.5991690E+03  0.7818609E-02  0.9907132E-01
        1   -1    0    0  501    0  0.00000000000E+00  0.00000000000E+00  0.17159419789E+04  0.17159419789E+04  0.50400001928E-02 0. -1.
       -1   -1    0    0    0  501  0.00000000000E+00  0.00000000000E+00 -0.52304145536E+02  0.52304145779E+02  0.50400001928E-02 0.  1.
    10030    2    1    2    0    0  0.00000000000E+00  0.00000000000E+00  0.16636378333E+04  0.17682461246E+04  0.59916902194E+03 0.  0.
        3    1    3    3  502    0  0.35426321771E+02  0.29784484373E+02 -0.41689419377E+02  0.62290911638E+02  0.10100000352E+00 0.  1.
       -3    1    3    3    0  502 -0.35426321771E+02 -0.29784484373E+02  0.17053272527E+04  0.17059552130E+04  0.10100000352E+00 0. -1.
</event>
<event>
 5   0  0.2141800E-02  0.6006692E+03  0.7818609E-02  0.9904019E-01
        2   -1    0    0  501    0  0.00000000000E+00  0.00000000000E+00  0.12983824392E+03  0.12983824394E+03  0.25500000920E-02 0. -1.
       -2   -1    0    0    0  501  0.00000000000E+00  0.00000000000E+00 -0.69471723546E+03  0.69471723546E+03  0.25500000920E-02 0.  1.
    10030    2    1    2    0    0  0.00000000000E+00  0.00000000000E+00 -0.56487899154E+03  0.82455547941E+03  0.60066917978E+03 0.  0.
        2    1    3    3  502    0 -0.23134944200E+03  0.99113152300E+01 -0.54498632865E+03  0.59214094344E+03  0.25500000920E-02 0.  1.
       -2    1    3    3    0  502  0.23134944200E+03 -0.99113152300E+01 -0.19892662896E+02  0.23241453596E+03  0.25500000920E-02 0. -1.
</event>
<event>
 5   0  0.1303808E-02  0.5999032E+03  0.7818609E-02  0.9905607E-01
        1   -1    0    0  501    0  0.00000000000E+00  0.00000000000E+00  0.14445574666E+03  0.14445574675E+03  0.50400001928E-02 0.  1.
       -1   -1    0    0    0  501  0.00000000000E+00  0.00000000000E+00 -0.62282715339E+03  0.62282715341E+03  0.50400001928E-02 0. -1.
    10030    2    1    2    0    0  0.00000000000E+00  0.00000000000E+00 -0.47837140673E+03  0.76728290016E+03  0.59990319727E+03 0.  0.
        4    1    3    3  502    0 -0.17271973127E+03 -0.22095333462E+03 -0.37524789071E+03  0.46847099593E+03  0.12699999809E+01 0. -1.
       -4    1    3    3    0  502  0.17271973127E+03  0.22095333462E+03 -0.10312351602E+03  0.29881190422E+03  0.12699999809E+01 0.  1.
</event>
<event>
 5   0  0.2179625E-02  0.5991571E+03  0.7818609E-02  0.9907156E-01
       -2   -1    0    0    0  501  0.00000000000E+00  0.00000000000E+00  0.78910243389E+02  0.78910243430E+02  0.25500000920E-02 0.  1.
        2   -1    0    0  501    0  0.00000000000E+00  0.00000000000E+00 -0.11373339351E+04  0.11373339351E+04  0.25500000920E-02 0. -1.
    10030    2    1    2    0    0  0.00000000000E+00  0.00000000000E+00 -0.10584236917E+04  0.12162441785E+04  0.59915706675E+03 0.  0.
        1    1    3    3  502    0  0.14693933761E+03  0.18839996139E+03 -0.89607044643E+03  0.92737692412E+03  0.50400001928E-02 0. -1.
       -1    1    3    3    0  502 -0.14693933761E+03 -0.18839996139E+03 -0.16235324526E+03  0.28886725439E+03  0.50400001928E-02 0.  1.
</event>
<event>
 5   0  0.8551000E-03  0.5992101E+03  0.7818609E-02  0.9907046E-01
       -4   -1    0    0    0  501  0.00000000000E+00  0.00000000000E+00  0.97381054806E+03  0.97381137620E+03  0.12699999809E+01 0.  1.
        4   -1    0    0  501    0  0.00000000000E+00  0.00000000000E+00 -0.92172011700E+02  0.92180760687E+02  0.12699999809E+01 0. -1.
    10030    2    1    2    0    0  0.00000000000E+00  0.00000000000E+00  0.88163853636E+03  0.10659921369E+04  0.59921008595E+03 0.  0.
        1    1    3    3  502    0  0.23149989732E+03  0.14318440913E+03  0.21813047715E+03  0.34881926920E+03  0.50400001928E-02 0. -1.
       -1    1    3    3    0  502 -0.23149989732E+03 -0.14318440913E+03  0.66350805922E+03  0.71717286769E+03  0.50400001928E-02 0.  1.
</event>
<event>
 5   0  0.1303808E-02  0.6029281E+03  0.7818609E-02  0.9899350E-01
       -1   -1    0    0    0  501  0.00000000000E+00  0.00000000000E+00  0.50980872204E+03  0.50980872206E+03  0.50400001928E-02 0.  1.
        1   -1    0    0  501    0  0.00000000000E+00  0.00000000000E+00 -0.17826406859E+03  0.17826406866E+03  0.50400001928E-02 0. -1.
    10030    2    1    2    0    0  0.00000000000E+00  0.00000000000E+00  0.33154465345E+03  0.68807279072E+03  0.60292811189E+03 0.  0.
        4    1    3    3  502    0 -0.53587907050E+02  0.97548876717E+02 -0.15395533544E+03  0.18997711794E+03  0.12699999809E+01 0. -1.
       -4    1    3    3    0  502  0.53587907050E+02 -0.97548876717E+02  0.48549998889E+03  0.49809567278E+03  0.12699999809E+01 0.  1.
</event>
<event>
 5   0  0.2092587E-02  0.6020691E+03  0.7818609E-02  0.9901123E-01
       -2   -1    0    0    0  501  0.00000000000E+00  0.00000000000E+00  0.10507632149E+03  0.10507632152E+03  0.25500000920E-02 0.  1.
        2   -1    0    0  501    0  0.00000000000E+00  0.00000000000E+00 -0.86243793735E+03  0.86243793736E+03  0.25500000920E-02 0. -1.
    10030    2    1    2    0    0  0.00000000000E+00  0.00000000000E+00 -0.75736161586E+03  0.96751425888E+03  0.60206911892E+03 0.  0.
        3    1    3    3  502    0 -0.26307075063E+03  0.13999855483E+03 -0.44716126082E+03  0.53736302308E+03  0.10100000352E+00 0. -1.
       -3    1    3    3    0  502  0.26307075063E+03 -0.13999855483E+03 -0.31020035504E+03  0.43015123580E+03  0.10100000352E+00 0.  1.
</event>
<event>
 5   0  0.1250390E-02  0.5974375E+03  0.7818609E-02  0.9910737E-01
       -1   -1    0    0    0  501  0.00000000000E+00  0.00000000000E+00  0.81446899401E+02  0.81446899556E+02  0.50400001928E-02 0. -1.
        1   -1    0    0  501    0  0.00000000000E+00  0.00000000000E+00 -0.10955960857E+04  0.10955960857E+04  0.50400001928E-02 0.  1.
    10030    2    1    2    0    0  0.00000000000E+00  0.00000000000E+00 -0.10141491863E+04  0.11770429852E+04  0.59743754241E+03 0.  0.
        3    1    3    3  502    0 -0.13865632527E+03 -0.86652930443E+02 -0.99960711661E+03  0.10128912600E+04  0.10100000352E+00 0.  1.
       -3    1    3    3    0  502  0.13865632527E+03  0.86652930443E+02 -0.14542069656E+02  0.16415172519E+03  0.10100000352E+00 0. -1.
</event>
<event>
 5   0  0.2141800E-02  0.5886161E+03  0.7818609E-02  0.9929310E-01
       -2   -1    0    0    0  501  0.00000000000E+00  0.00000000000E+00  0.12983097085E+03  0.12983097088E+03  0.25500000920E-02 0.  1.
        2   -1    0    0  501    0  0.00000000000E+00  0.00000000000E+00 -0.66715380016E+03  0.66715380016E+03  0.25500000920E-02 0. -1.
    10030    2    1    2    0    0  0.00000000000E+00  0.00000000000E+00 -0.53732282931E+03  0.79698477104E+03  0.58861609082E+03 0.  0.
        2    1    3    3  502    0  0.60069784635E+02  0.23370290043E+03 -0.40514624424E+02  0.24467705143E+03  0.25500000920E-02 0.  1.
       -2    1    3    3    0  502 -0.60069784635E+02 -0.23370290043E+03 -0.49680820488E+03  0.55230771961E+03  0.25500000920E-02 0. -1.
</event>
<event>
 5   0  0.2092587E-02  0.5903104E+03  0.7818609E-02  0.9925715E-01
        2   -1    0    0  501    0  0.00000000000E+00  0.00000000000E+00  0.22840041934E+03  0.22840041935E+03  0.25500000920E-02 0. -1.
       -2   -1    0    0    0  501  0.00000000000E+00  0.00000000000E+00 -0.38142047300E+03  0.38142047300E+03  0.25500000920E-02 0.  1.
    10030    2    1    2    0    0  0.00000000000E+00  0.00000000000E+00 -0.15302005366E+03  0.60982089236E+03  0.59031041320E+03 0.  0.
        3    1    3    3  502    0  0.77829493693E+02 -0.12432380596E+03  0.18808572504E+03  0.23851643335E+03  0.10100000352E+00 0. -1.
       -3    1    3    3    0  502 -0.77829493693E+02  0.12432380596E+03 -0.34110577869E+03  0.37130445900E+03  0.10100000352E+00 0.  1.
</event>
<event>
 5   0  0.2141800E-02  0.6019172E+03  0.7818609E-02  0.9901436E-01
       -2   -1    0    0    0  501  0.00000000000E+00  0.00000000000E+00  0.21957562443E+03  0.21957562444E+03  0.25500000920E-02 0. -1.
        2   -1    0    0  501    0  0.00000000000E+00  0.00000000000E+00 -0.41250515401E+03  0.41250515401E+03  0.25500000920E-02 0.  1.
    10030    2    1    2    0    0  0.00000000000E+00  0.00000000000E+00 -0.19292952958E+03  0.63208077846E+03  0.60191719290E+03 0.  0.
        2    1    3    3  502    0  0.24976061142E+03  0.11253955332E+03  0.34402019445E+02  0.27609602139E+03  0.25500000920E-02 0. -1.
       -2    1    3    3    0  502 -0.24976061142E+03 -0.11253955332E+03 -0.22733154902E+03  0.35598475707E+03  0.25500000920E-02 0.  1.
</event>
<event>
 5   0  0.2141800E-02  0.6019378E+03  0.7818609E-02  0.9901394E-01
        2   -1    0    0  501    0  0.00000000000E+00  0.00000000000E+00  0.73033230582E+03  0.73033230582E+03  0.25500000920E-02 0. -1.
       -2   -1    0    0    0  501  0.00000000000E+00  0.00000000000E+00 -0.12402885013E+03  0.12402885015E+03  0.25500000920E-02 0.  1.
    10030    2    1    2    0    0  0.00000000000E+00  0.00000000000E+00  0.60630345569E+03  0.85436115598E+03  0.60193779119E+03 0.  0.
        2    1    3    3  502    0  0.16675956285E+03  0.12763947591E+03 -0.28548994968E+01  0.21002080390E+03  0.25500000920E-02 0.  1.
       -2    1    3    3    0  502 -0.16675956285E+03 -0.12763947591E+03  0.60915835519E+03  0.64434035207E+03  0.25500000920E-02 0. -1.
</event>
<event>
 5   0  0.1337051E-02  0.5870706E+03  0.7818609E-02  0.9932600E-01
       -1   -1    0    0    0  501  0.00000000000E+00  0.00000000000E+00  0.31844812920E+03  0.31844812924E+03  0.50400001928E-02 0.  1.
        1   -1    0    0  501    0  0.00000000000E+00  0.00000000000E+00 -0.27057146174E+03  0.27057146179E+03  0.50400001928E-02 0. -1.
    10030    2    1    2    0    0  0.00000000000E+00  0.00000000000E+00  0.47876667461E+02  0.58901959103E+03  0.58707061188E+03 0.  0.
        5    1    3    3  502    0  0.14156913146E+03 -0.22297879052E+03  0.15234573652E+03  0.30494700103E+03  0.46999998093E+01 0.  1.
       -5    1    3    3    0  502 -0.14156913146E+03  0.22297879052E+03 -0.10446906905E+03  0.28407259000E+03  0.46999998093E+01 0. -1.
</event>
<event>
 5   0  0.1303808E-02  0.6059391E+03  0.7818609E-02  0.9893160E-01
       -1   -1    0    0    0  501  0.00000000000E+00  0.00000000000E+00  0.54511611599E+03  0.54511611602E+03  0.50400001928E-02 0.  1.
        1   -1    0    0  501    0  0.00000000000E+00  0.00000000000E+00 -0.16838714059E+03  0.16838714067E+03  0.50400001928E-02 0. -1.
    10030    2    1    2    0    0  0.00000000000E+00  0.00000000000E+00  0.37672897540E+03  0.71350325668E+03  0.60593908637E+03 0.  0.
        4    1    3    3  502    0 -0.13586107131E+03 -0.12217542352E+03 -0.96204645718E+02  0.20649942268E+03  0.12699999809E+01 0. -1.
       -4    1    3    3    0  502  0.13586107131E+03  0.12217542352E+03  0.47293362112E+03  0.50700383400E+03  0.12699999809E+01 0.  1.
</event>
<event>
 5   0  0.2141800E-02  0.5976095E+03  0.7818609E-02  0.9910378E-01
        2   -1    0    0  501    0  0.00000000000E+00  0.00000000000E+00  0.15392401833E+04  0.15392401833E+04  0.25500000920E-02 0. -1.
       -2   -1    0    0    0  501  0.00000000000E+00  0.00000000000E+00 -0.58005415624E+02  0.58005415680E+02  0.25500000920E-02 0.  1.
    10030    2    1    2    0    0  0.00000000000E+00  0.00000000000E+00  0.14812347677E+04  0.15972455990E+04  0.59760945985E+03 0.  0.
        2    1    3    3  502    0 -0.76745302307E+02 -0.13331480941E+03  0.14252815533E+04  0.14335585743E+04  0.25500000920E-02 0. -1.
       -2    1    3    3    0  502  0.76745302307E+02  0.13331480941E+03  0.55953214362E+02  0.16368702464E+03  0.25500000920E-02 0.  1.
</event>
<event>
 5   0  0.2141800E-02  0.5982363E+03  0.7818609E-02  0.9909072E-01
       -2   -1    0    0    0  501  0.00000000000E+00  0.00000000000E+00  0.47546882935E+03  0.47546882936E+03  0.25500000920E-02 0.  1.
        2   -1    0    0  501    0  0.00000000000E+00  0.00000000000E+00 -0.18817564407E+03  0.18817564408E+03  0.25500000920E-02 0. -1.
    10030    2    1    2    0    0  0.00000000000E+00  0.00000000000E+00  0.28729318529E+03  0.66364447344E+03  0.59823625167E+03 0.  0.
        2    1    3    3  502    0 -0.23258455107E+03  0.42556706453E+02  0.34688515935E+03  0.41980466939E+03  0.25500000920E-02 0.  1.
       -2    1    3    3    0  502  0.23258455107E+03 -0.42556706453E+02 -0.59591974061E+02  0.24383980405E+03  0.25500000920E-02 0. -1.
</event>
<event>
 5   0  0.1337051E-02  0.6007600E+03  0.7818609E-02  0.9903831E-01
       -1   -1    0    0    0  501  0.00000000000E+00  0.00000000000E+00  0.16479694315E+03  0.16479694323E+03  0.50400001928E-02 0.  1.
        1   -1    0    0  501    0  0.00000000000E+00  0.00000000000E+00 -0.54751102038E+03  0.54751102041E+03  0.50400001928E-02 0. -1.
    10030    2    1    2    0    0  0.00000000000E+00  0.00000000000E+00 -0.38271407723E+03  0.71230796364E+03  0.60075999380E+03 0.  0.
        5    1    3    3  502    0  0.57107613471E+02 -0.23313245630E+03  0.22703114509E+02  0.24114216368E+03  0.46999998093E+01 0.  1.
       -5    1    3    3    0  502 -0.57107613471E+02  0.23313245630E+03 -0.40541719174E+03  0.47116579996E+03  0.46999998093E+01 0. -1.
</event>
<event>
 5   0  0.2092587E-02  0.5928277E+03  0.7818609E-02  0.9920399E-01
       -2   -1    0    0    0  501  0.00000000000E+00  0.00000000000E+00  0.27302866399E+03  0.27302866400E+03  0.25500000920E-02 0. -1.
        2   -1    0    0  501    0  0.00000000000E+00  0.00000000000E+00 -0.32180197747E+03  0.32180197748E+03  0.25500000920E-02 0.  1.
    10030    2    1    2    0    0  0.00000000000E+00  0.00000000000E+00 -0.48773313482E+02  0.59483064148E+03  0.59282767811E+03 0.  0.
        3    1    3    3  502    0 -0.11981879124E+03  0.25421600258E+03  0.70159276931E+02  0.28966299909E+03  0.10100000352E+00 0. -1.
       -3    1    3    3    0  502  0.11981879124E+03 -0.25421600258E+03 -0.11893259041E+03  0.30516764239E+03  0.10100000352E+00 0.  1.
</event>
<event>
 5   0  0.8551000E-03  0.5996505E+03  0.7818609E-02  0.9906131E-01
       -4   -1    0    0    0  501  0.00000000000E+00  0.00000000000E+00  0.58074522930E+03  0.58074661795E+03  0.12699999809E+01 0. -1.
        4   -1    0    0  501    0  0.00000000000E+00  0.00000000000E+00 -0.15478863777E+03  0.15479384769E+03  0.12699999809E+01 0.  1.
    10030    2    1    2    0    0  0.00000000000E+00  0.00000000000E+00  0.42595659154E+03  0.73554046563E+03  0.59965053049E+03 0.  0.
        4    1    3    3  502    0 -0.14043994014E+03 -0.25988137586E+03  0.15005077758E+03  0.33132847004E+03  0.12699999809E+01 0. -1.
       -4    1    3    3    0  502  0.14043994014E+03  0.25988137586E+03  0.27590581396E+03  0.40421199560E+03  0.12699999809E+01 0.  1.
</event>
<event>
 5   0  0.1276705E-02  0.5998193E+03  0.7818609E-02  0.9905781E-01
        1   -1    0    0  501    0  0.00000000000E+00  0.00000000000E+00  0.92883708223E+03  0.92883708224E+03  0.50400001928E-02 0. -1.
       -1   -1    0    0    0  501  0.00000000000E+00  0.00000000000E+00 -0.96837004393E+02  0.96837004524E+02  0.50400001928E-02 0.  1.
    10030    2    1    2    0    0  0.00000000000E+00  0.00000000000E+00  0.83200007784E+03  0.10256740868E+04  0.59981930841E+03 0.  0.
        1    1    3    3  502    0 -0.23936294082E+03  0.14435143048E+03  0.23014059805E+03  0.36207271067E+03  0.50400001928E-02 0.  1.
       -1    1    3    3    0  502  0.23936294082E+03 -0.14435143048E+03  0.60185947979E+03  0.66360137610E+03  0.50400001928E-02 0. -1.
</event>
<event>
 5   0  0.2141800E-02  0.5996684E+03  0.7818609E-02  0.9906094E-01
       -2   -1    0    0    0  501  0.00000000000E+00  0.00000000000E+00  0.63804823090E+02  0.63804823141E+02  0.25500000920E-02 0. -1.
        2   -1    0    0  501    0  0.00000000000E+00  0.00000000000E+00 -0.14089927531E+04  0.14089927531E+04  0.25500000920E-02 0.  1.
    10030    2    1    2    0    0  0.00000000000E+00  0.00000000000E+00 -0.13451879300E+04  0.14727975762E+04  0.59966835295E+03 0.  0.
        2    1    3    3  502    0 -0.16352108418E+03  0.38378100205E+02 -0.62588015757E+02  0.17924643168E+03  0.25500000920E-02 0. -1.
       -2    1    3    3    0  502  0.16352108418E+03 -0.38378100205E+02 -0.12825999142E+04  0.12935511445E+04  0.25500000920E-02 0.  1.
</event>
<event>
 5   0  0.2126207E-02  0.6001970E+03  0.7818609E-02  0.9904998E-01
        2   -1    0    0  501    0  0.00000000000E+00  0.00000000000E+00  0.65943241276E+03  0.65943241277E+03  0.25500000920E-02 0.  1.
       -2   -1    0    0    0  501  0.00000000000E+00  0.00000000000E+00 -0.13657062244E+03  0.13657062246E+03  0.25500000920E-02 0. -1.
    10030    2    1    2    0    0  0.00000000000E+00  0.00000000000E+00  0.52286179033E+03  0.79600303523E+03  0.60019695126E+03 0.  0.
        5    1    3    3  502    0 -0.29035245359E+03  0.73892784791E+02  0.28331637267E+03  0.41237719138E+03  0.46999998093E+01 0. -1.
       -5    1    3    3    0  502  0.29035245359E+03 -0.73892784791E+02  0.23954541765E+03  0.38362584385E+03  0.46999998093E+01 0.  1.
</event>
<event>
 5   0  0.8551000E-03  0.5959764E+03  0.7818609E-02  0.9913789E-01
       -4   -1    0    0    0  501  0.00000000000E+00  0.00000000000E+00  0.27683707814E+03  0.27683999121E+03  0.12699999809E+01 0. -1.
        4   -1    0    0  501    0  0.00000000000E+00  0.00000000000E+00 -0.32074951136E+03  0.32075202561E+03  0.12699999809E+01 0.  1.
    10030    2    1    2    0    0  0.00000000000E+00  0.00000000000E+00 -0.43912433217E+02  0.59759201682E+03  0.59597643978E+03 0.  0.
        4    1    3    3  502    0  0.12591700655E+03 -0.10302369505E+03  0.22837308580E+03  0.28040123662E+03  0.12699999809E+01 0. -1.
       -4    1    3    3    0  502 -0.12591700655E+03  0.10302369505E+03 -0.27228551902E+03  0.31719078020E+03  0.12699999809E+01 0.  1.
</event>
<event>
 5   0  0.1337051E-02  0.6154145E+03  0.7818609E-02  0.9873932E-01
       -1   -1    0    0    0  501  0.00000000000E+00  0.00000000000E+00  0.46911170852E+03  0.46911170854E+03  0.50400001928E-02 0.  1.
        1   -1    0    0  501    0  0.00000000000E+00  0.00000000000E+00 -0.20183628234E+03  0.20183628240E+03  0.50400001928E-02 0. -1.
    10030    2    1    2    0    0  0.00000000000E+00  0.00000000000E+00  0.26727542618E+03  0.67094799095E+03  0.61541453763E+03 0.  0.
        5    1    3    3  502    0  0.21717802241E+03  0.83513701888E+02  0.35310021876E+03  0.42289796205E+03  0.46999998093E+01 0.  1.
       -5    1    3    3    0  502 -0.21717802241E+03 -0.83513701888E+02 -0.85824792582E+02  0.24805002890E+03  0.46999998093E+01 0. -1.
</event>
<event>
 5   0  0.2142838E-02  0.5979980E+03  0.7818609E-02  0.9909568E-01
       -2   -1    0    0    0  501  0.00000000000E+00  0.00000000000E+00  0.63717171768E+02  0.63717171819E+02  0.25500000920E-02 0.  1.
        2   -1    0    0  501    0  0.00000000000E+00  0.00000000000E+00 -0.14030815589E+04  0.14030815589E+04  0.25500000920E-02 0. -1.
    10030    2    1    2    0    0  0.00000000000E+00  0.00000000000E+00 -0.13393643872E+04  0.14667987308E+04  0.59799795563E+03 0.  0.
        4    1    3    3  502    0  0.50341546203E+02 -0.50232247121E+02  0.42663463385E+02  0.82941750240E+02  0.12699999809E+01 0.  1.
       -4    1    3    3    0  502 -0.50341546203E+02  0.50232247121E+02 -0.13820278506E+04  0.13838569805E+04  0.12699999809E+01 0. -1.
</event>
<event>
 5   0  0.1250390E-02  0.5983092E+03  0.7818609E-02  0.9908920E-01
       -1   -1    0    0    0  501  0.00000000000E+00  0.00000000000E+00  0.15650222136E+04  0.15650222136E+04  0.50400001928E-02 0. -1.
        1   -1    0    0  501    0  0.00000000000E+00  0.00000000000E+00 -0.57183510957E+02  0.57183511179E+02  0.50400001928E-02 0.  1.
    10030    2    1    2    0    0  0.00000000000E+00  0.00000000000E+00  0.15078387027E+04  0.16222057248E+04  0.59830916786E+03 0.  0.
        3    1    3    3  502    0 -0.13201946580E+03 -0.76767806416E+02  0.14513711279E+04  0.14593836359E+04  0.10100000352E+00 0. -1.
       -3    1    3    3    0  502  0.13201946580E+03  0.76767806416E+02  0.56467574747E+02  0.16282208895E+03  0.10100000352E+00 0.  1.
</event>
<event>
 5   0  0.1332555E-02  0.6102202E+03  0.7818609E-02  0.9884426E-01
       -1   -1    0    0    0  501  0.00000000000E+00  0.00000000000E+00  0.24577603235E+03  0.24577603240E+03  0.50400001928E-02 0. -1.
        1   -1    0    0  501    0  0.00000000000E+00  0.00000000000E+00 -0.37876830412E+03  0.37876830416E+03  0.50400001928E-02 0.  1.
    10030    2    1    2    0    0  0.00000000000E+00  0.00000000000E+00 -0.13299227177E+03  0.62454433656E+03  0.61022019302E+03 0.  0.
        2    1    3    3  502    0 -0.65507572106E+02 -0.18368667412E+03 -0.30665318268E+03  0.36341190227E+03  0.25500000920E-02 0.  1.
       -2    1    3    3    0  502  0.65507572106E+02  0.18368667412E+03  0.17366091091E+03  0.26113243429E+03  0.25500000920E-02 0. -1.
</event>
<event>
 5   0  0.2141800E-02  0.5990525E+03  0.7818609E-02  0.9907374E-01
       -2   -1    0    0    0  501  0.00000000000E+00  0.00000000000E+00  0.20069329333E+03  0.20069329335E+03  0.25500000920E-02 0. -1.
        2   -1    0    0  501    0  0.00000000000E+00  0.00000000000E+00 -0.44703019476E+03  0.44703019477E+03  0.25500000920E-02 0.  1.
    10030    2    1    2    0    0  0.00000000000E+00  0.00000000000E+00 -0.24633690143E+03  0.64772348812E+03  0.59905245852E+03 0.  0.
        2    1    3    3  502    0  0.13752147736E+03 -0.34653533498E+02  0.16209003783E+03  0.21537456788E+03  0.25500000920E-02 0. -1.
       -2    1    3    3    0  502 -0.13752147736E+03  0.34653533498E+02 -0.40842693926E+03  0.43234892024E+03  0.25500000920E-02 0.  1.
</event>
<event>
 5   0  0.2126207E-02  0.5791239E+03  0.7818609E-02  0.9949690E-01
        2   -1    0    0  501    0  0.00000000000E+00  0.00000000000E+00  0.44991552453E+03  0.44991552453E+03  0.25500000920E-02 0.  1.
       -2   -1    0    0    0  501  0.00000000000E+00  0.00000000000E+00 -0.18635969462E+03  0.18635969464E+03  0.25500000920E-02 0. -1.
    10030    2    1    2    0    0  0.00000000000E+00  0.00000000000E+00  0.26355582990E+03  0.63627521917E+03  0.57912388921E+03 0.  0.
        5    1    3    3  502    0  0.10141399480E+03 -0.36802860168E+02 -0.16340848899E+03  0.19586646760E+03  0.46999998093E+01 0. -1.
       -5    1    3    3    0  502 -0.10141399480E+03  0.36802860168E+02  0.42696431889E+03  0.44040875157E+03  0.46999998093E+01 0.  1.
</event>
<event>
 5   0  0.1303808E-02  0.5992372E+03  0.7818609E-02  0.9906990E-01
       -1   -1    0    0    0  501  0.00000000000E+00  0.00000000000E+00  0.88309109521E+02  0.88309109664E+02  0.50400001928E-02 0.  1.
        1   -1    0    0  501    0  0.00000000000E+00  0.00000000000E+00 -0.10165576139E+04  0.10165576139E+04  0.50400001928E-02 0. -1.
    10030    2    1    2    0    0  0.00000000000E+00  0.00000000000E+00 -0.92824850435E+03  0.11048667235E+04  0.59923717423E+03 0.  0.
        4    1    3    3  502    0 -0.17099378715E+03 -0.23416305306E+03 -0.32493989156E+03  0.43549828552E+03  0.12699999809E+01 0.  1.
       -4    1    3    3    0  502  0.17099378715E+03  0.23416305306E+03 -0.60330861278E+03  0.66936843802E+03  0.12699999809E+01 0. -1.
</event>
<event>
 5   0  0.2126207E-02  0.5944550E+03  0.7818609E-02  0.9916977E-01
       -2   -1    0    0    0  501  0.00000000000E+00  0.00000000000E+00  0.75015355447E+02  0.75015355490E+02  0.25500000920E-02 0.  1.
        2   -1    0    0  501    0  0.00000000000E+00  0.00000000000E+00 -0.11776815229E+04  0.11776815229E+04  0.25500000920E-02 0. -1.
    10030    2    1    2    0    0  0.00000000000E+00  0.00000000000E+00 -0.11026661675E+04  0.12526968784E+04  0.59445503807E+03 0.  0.
        5    1    3    3  502    0 -0.23034404381E+03  0.29603012380E+02 -0.16055824020E+03  0.28237520315E+03  0.46999998093E+01 0. -1.
       -5    1    3    3    0  502  0.23034404381E+03 -0.29603012380E+02 -0.94210792726E+03  0.97032167525E+03  0.46999998093E+01 0.  1.
</event>
<event>
 5   0  0.8551000E-03  0.6017366E+03  0.7818609E-02  0.9901810E-01
       -3   -1    0    0    0  501  0.00000000000E+00  0.00000000000E+00  0.29314234829E+03  0.29314236569E+03  0.10100000352E+00 0. -1.
        3   -1    0    0  501    0  0.00000000000E+00  0.00000000000E+00 -0.30879784782E+03  0.30879786434E+03  0.10100000352E+00 0.  1.
    10030    2    1    2    0    0  0.00000000000E+00  0.00000000000E+00 -0.15655499530E+02  0.60194023003E+03  0.60173660838E+03 0.  0.
        1    1    3    3  502    0  0.25148593739E+03 -0.91694872627E+02 -0.14523729139E+03  0.30454391671E+03  0.50400001928E-02 0.  1.
       -1    1    3    3    0  502 -0.25148593739E+03  0.91694872627E+02  0.12958179186E+03  0.29739631332E+03  0.50400001928E-02 0. -1.
</event>
<event>
 5   0  0.1250390E-02  0.5994296E+03  0.7818609E-02  0.9906590E-01
        1   -1    0    0  501    0  0.00000000000E+00  0.00000000000E+00  0.87030575501E+02  0.87030575647E+02  0.50400001928E-02 0.  1.
       -1   -1    0    0    0  501  0.00000000000E+00  0.00000000000E+00 -0.10321540075E+04  0.10321540075E+04  0.50400001928E-02 0. -1.
    10030    2    1    2    0    0  0.00000000000E+00  0.00000000000E+00 -0.94512343196E+03  0.11191845831E+04  0.59942958674E+03 0.  0.
        3    1    3    3  502    0  0.15984283913E+03  0.82354869654E+02 -0.92026029797E+03  0.93766256404E+03  0.10100000352E+00 0. -1.
       -3    1    3    3    0  502 -0.15984283913E+03 -0.82354869654E+02 -0.24863133988E+02  0.18152201908E+03  0.10100000352E+00 0.  1.
</event>
<event>
 5   0  0.2141800E-02  0.6084215E+03  0.7818609E-02  0.9888087E-01
       -2   -1    0    0    0  501  0.00000000000E+00  0.00000000000E+00  0.29773952301E+03  0.29773952303E+03  0.25500000920E-02 0.  1.
        2   -1    0    0  501    0  0.00000000000E+00  0.00000000000E+00 -0.31082262206E+03  0.31082262207E+03  0.25500000920E-02 0. -1.
    10030    2    1    2    0    0  0.00000000000E+00  0.00000000000E+00 -0.13083099047E+02  0.60856214510E+03  0.60842149614E+03 0.  0.
        2    1    3    3  502    0 -0.47629771444E+02  0.15239953212E+03 -0.26554149202E+03  0.30984915122E+03  0.25500000920E-02 0. -1.
       -2    1    3    3    0  502  0.47629771444E+02 -0.15239953212E+03  0.25245839298E+03  0.29871299388E+03  0.25500000920E-02 0.  1.
</event>
<event>
 5   0  0.2092587E-02  0.6042264E+03  0.7818609E-02  0.9896676E-01
        2   -1    0    0  501    0  0.00000000000E+00  0.00000000000E+00  0.19384130851E+04  0.19384130851E+04  0.25500000920E-02 0.  1.
       -2   -1    0    0    0  501  0.00000000000E+00  0.00000000000E+00 -0.47086136213E+02  0.47086136282E+02  0.25500000920E-02 0. -1.
    10030    2    1    2    0    0  0.00000000000E+00  0.00000000000E+00  0.18913269489E+04  0.19854992214E+04  0.60422639014E+03 0.  0.
        3    1    3    3  502    0 -0.97922936065E+02 -0.14264899481E+03  0.17594739563E+04  0.17679610432E+04  0.10100000352E+00 0.  1.
       -3    1    3    3    0  502  0.97922936065E+02  0.14264899481E+03  0.13185299264E+03  0.21753817825E+03  0.10100000352E+00 0. -1.
</event>
<event>
 5   0  0.2179625E-02  0.5994834E+03  0.7818609E-02  0.9906478E-01
        2   -1    0    0  501    0  0.00000000000E+00  0.00000000000E+00  0.70801156440E+03  0.70801156440E+03  0.25500000920E-02 0.  1.
       -2   -1    0    0    0  501  0.00000000000E+00  0.00000000000E+00 -0.12689777891E+03  0.12689777894E+03  0.25500000920E-02 0. -1.
    10030    2    1    2    0    0  0.00000000000E+00  0.00000000000E+00  0.58111378549E+03  0.83490934334E+03  0.59948342756E+03 0.  0.
        1    1    3    3  502    0  0.13123504425E+03  0.21809028455E+03  0.70089304180E+02  0.26400477201E+03  0.50400001928E-02 0. -1.
       -1    1    3    3    0  502 -0.13123504425E+03 -0.21809028455E+03  0.51102448131E+03  0.57090457134E+03  0.50400001928E-02 0.  1.
</event>
<event>
 5   0  0.1303808E-02  0.5894429E+03  0.7818609E-02  0.9927554E-01
       -1   -1    0    0    0  501  0.00000000000E+00  0.00000000000E+00  0.25345700897E+03  0.25345700902E+03  0.50400001928E-02 0. -1.
        1   -1    0    0  501    0  0.00000000000E+00  0.00000000000E+00 -0.34270406586E+03  0.34270406590E+03  0.50400001928E-02 0.  1.
    10030    2    1    2    0    0  0.00000000000E+00  0.00000000000E+00 -0.89247056888E+02  0.59616107492E+03  0.58944294897E+03 0.  0.
        4    1    3    3  502    0  0.51385372406E+01  0.27373602040E+03 -0.15496008531E+03  0.31459824280E+03  0.12699999809E+01 0.  1.
       -4    1    3    3    0  502 -0.51385372406E+01 -0.27373602040E+03  0.65713028426E+02  0.28156283213E+03  0.12699999809E+01 0. -1.
</event>
<event>
 5   0  0.2092587E-02  0.5936278E+03  0.7818609E-02  0.9918715E-01
       -2   -1    0    0    0  501  0.00000000000E+00  0.00000000000E+00  0.22266228240E+03  0.22266228242E+03  0.25500000920E-02 0.  1.
        2   -1    0    0  501    0  0.00000000000E+00  0.00000000000E+00 -0.39565970946E+03  0.39565970947E+03  0.25500000920E-02 0. -1.
    10030    2    1    2    0    0  0.00000000000E+00  0.00000000000E+00 -0.17299742706E+03  0.61832199189E+03  0.59362780922E+03 0.  0.
        3    1    3    3  502    0  0.10804821962E+03  0.11903762780E+03 -0.34638566036E+03  0.38187355302E+03  0.10100000352E+00 0. -1.
       -3    1    3    3    0  502 -0.10804821962E+03 -0.11903762780E+03  0.17338823330E+03  0.23644843887E+03  0.10100000352E+00 0.  1.
</event>
<event>
 5   0  0.1303808E-02  0.6105924E+03  0.7818609E-02  0.9883671E-01
        1   -1    0    0  501    0  0.00000000000E+00  0.00000000000E+00  0.73872044218E+02  0.73872044390E+02  0.50400001928E-02 0. -1.
       -1   -1    0    0    0  501  0.00000000000E+00  0.00000000000E+00 -0.12617191776E+04  0.12617191776E+04  0.50400001928E-02 0.  1.
    10030    2    1    2    0    0  0.00000000000E+00  0.00000000000E+00 -0.11878471334E+04  0.13355912220E+04  0.61059241724E+03 0.  0.
        4    1    3    3  502    0  0.21840864428E+03 -0.64461184756E+02 -0.10387001921E+04  0.10633707172E+04  0.12699999809E+01 0.  1.
       -4    1    3    3    0  502 -0.21840864428E+03  0.64461184756E+02 -0.14914694129E+03  0.27222050480E+03  0.12699999809E+01 0. -1.
</event>
<event>
 5   0  0.2126207E-02  0.6010296E+03  0.7818609E-02  0.9903272E-01
       -2   -1    0    0    0  501  0.00000000000E+00  0.00000000000E+00  0.10388387518E+03  0.10388387521E+03  0.25500000920E-02 0.  1.
        2   -1    0    0  501    0  0.00000000000E+00  0.00000000000E+00 -0.86932789787E+03  0.86932789788E+03  0.25500000920E-02 0. -1.
    10030    2    1    2    0    0  0.00000000000E+00  0.00000000000E+00 -0.76544402270E+03  0.97321177308E+03  0.60102961939E+03 0.  0.
        5    1    3    3  502    0  0.25049990075E+03  0.67201263801E+02 -0.62840334631E+03  0.67983752896E+03  0.46999998093E+01 0. -1.
       -5    1    3    3    0  502 -0.25049990075E+03 -0.67201263801E+02 -0.13704067638E+03  0.29337424412E+03  0.46999998093E+01 0.  1.
</event>
<event>
 5   0  0.1303808E-02  0.5998088E+03  0.7818609E-02  0.9905803E-01
       -1   -1    0    0    0  501  0.00000000000E+00  0.00000000000E+00  0.11274050444E+03  0.11274050456E+03  0.50400001928E-02 0.  1.
        1   -1    0    0  501    0  0.00000000000E+00  0.00000000000E+00 -0.79778458591E+03  0.79778458593E+03  0.50400001928E-02 0. -1.
    10030    2    1    2    0    0  0.00000000000E+00  0.00000000000E+00 -0.68504408147E+03  0.91052509048E+03  0.59980875856E+03 0.  0.
        4    1    3    3  502    0  0.56503718352E+02  0.28866224349E+03 -0.43132930329E+03  0.52207771623E+03  0.12699999809E+01 0.  1.
       -4    1    3    3    0  502 -0.56503718352E+02 -0.28866224349E+03 -0.25371477818E+03  0.38844737426E+03  0.12699999809E+01 0. -1.
</event>
<event>
 5   0  0.1250390E-02  0.6000788E+03  0.7818609E-02  0.9905242E-01
       -1   -1    0    0    0  501  0.00000000000E+00  0.00000000000E+00  0.23623738269E+03  0.23623738275E+03  0.50400001928E-02 0.  1.
        1   -1    0    0  501    0  0.00000000000E+00  0.00000000000E+00 -0.38107286437E+03  0.38107286441E+03  0.50400001928E-02 0. -1.
    10030    2    1    2    0    0  0.00000000000E+00  0.00000000000E+00 -0.14483548168E+03  0.61731024715E+03  0.60007884856E+03 0.  0.
        3    1    3    3  502    0 -0.23768361596E+03 -0.30300013176E+02 -0.25819144572E+03  0.35224199769E+03  0.10100000352E+00 0. -1.
       -3    1    3    3    0  502  0.23768361596E+03  0.30300013176E+02  0.11335596403E+03  0.26506824947E+03  0.10100000352E+00 0.  1.
</event>
<event>
 5   0  0.2179625E-02  0.6015940E+03  0.7818609E-02  0.9902104E-01
       -2   -1    0    0    0  501  0.00000000000E+00  0.00000000000E+00  0.62055608172E+03  0.62055608172E+03  0.25500000920E-02 0.  1.
        2   -1    0    0  501    0  0.00000000000E+00  0.00000000000E+00 -0.14580284398E+03  0.14580284400E+03  0.25500000920E-02 0. -1.
    10030    2    1    2    0    0  0.00000000000E+00  0.00000000000E+00  0.47475323774E+03  0.76635892572E+03  0.60159402116E+03 0.  0.
        1    1    3    3  502    0  0.37172584482E+00  0.22519131559E+03 -0.16658208769E+02  0.22580691474E+03  0.50400001928E-02 0. -1.
       -1    1    3    3    0  502 -0.37172584482E+00 -0.22519131559E+03  0.49141144651E+03  0.54055201099E+03  0.50400001928E-02 0.  1.
</event>
<event>
 5   0  0.2142838E-02  0.6012676E+03  0.7818609E-02  0.9902780E-01
        2   -1    0    0  501    0  0.00000000000E+00  0.00000000000E+00  0.41534157288E+03  0.41534157289E+03  0.25500000920E-02 0.  1.
       -2   -1    0    0    0  501  0.00000000000E+00  0.00000000000E+00 -0.21760568439E+03  0.21760568441E+03  0.25500000920E-02 0. -1.
    10030    2    1    2    0    0  0.00000000000E+00  0.00000000000E+00  0.19773588849E+03  0.63294725730E+03  0.60126761839E+03 0.  0.
        4    1    3    3  502    0 -0.22300701221E+03  0.20133550897E+03  0.10995668625E+03  0.31993780710E+03  0.12699999809E+01 0.  1.
       -4    1    3    3    0  502  0.22300701221E+03 -0.20133550897E+03  0.87779202242E+02  0.31300945019E+03  0.12699999809E+01 0. -1.
</event>
<event>
 5   0  0.2092587E-02  0.6003387E+03  0.7818609E-02  0.9904704E-01
        2   -1    0    0  501    0  0.00000000000E+00  0.00000000000E+00  0.11230387433E+03  0.11230387436E+03  0.25500000920E-02 0. -1.
       -2   -1    0    0    0  501  0.00000000000E+00  0.00000000000E+00 -0.80230225919E+03  0.80230225920E+03  0.25500000920E-02 0.  1.
    10030    2    1    2    0    0  0.00000000000E+00  0.00000000000E+00 -0.68999838486E+03  0.91460613356E+03  0.60033874473E+03 0.  0.
        3    1    3    3  502    0 -0.23978392306E+03 -0.12667002815E+03 -0.14894862017E+03  0.30939833135E+03  0.10100000352E+00 0.  1.
       -3    1    3    3    0  502  0.23978392306E+03  0.12667002815E+03 -0.54104976469E+03  0.60520780221E+03  0.10100000352E+00 0. -1.
</event>
<event>
 5   0  0.1332555E-02  0.5992603E+03  0.7818609E-02  0.9906942E-01
        1   -1    0    0  501    0  0.00000000000E+00  0.00000000000E+00  0.95804121119E+03  0.95804121120E+03  0.50400001928E-02 0. -1.
       -1   -1    0    0    0  501  0.00000000000E+00  0.00000000000E+00 -0.93710205529E+02  0.93710205665E+02  0.50400001928E-02 0.  1.
    10030    2    1    2    0    0  0.00000000000E+00  0.00000000000E+00  0.86433100566E+03  0.10517514169E+04  0.59926034037E+03 0.  0.
        2    1    3    3  502    0 -0.67436312055E+02  0.31501394979E+02  0.94155762445E+03  0.94449497312E+03  0.25500000920E-02 0. -1.
       -2    1    3    3    0  502  0.67436312055E+02 -0.31501394979E+02 -0.77226618794E+02  0.10725644375E+03  0.25500000920E-02 0.  1.
</event>
<event>
 5   0  0.1332555E-02  0.6029868E+03  0.7818609E-02  0.9899229E-01
       -1   -1    0    0    0  501  0.00000000000E+00  0.00000000000E+00  0.14495739921E+03  0.14495739930E+03  0.50400001928E-02 0.  1.
        1   -1    0    0  501    0  0.00000000000E+00  0.00000000000E+00 -0.62706892022E+03  0.62706892025E+03  0.50400001928E-02 0. -1.
    10030    2    1    2    0    0  0.00000000000E+00  0.00000000000E+00 -0.48211152102E+03  0.77202631954E+03  0.60298683184E+03 0.  0.
        2    1    3    3  502    0 -0.12774413740E+03  0.48005817040E+00  0.10859458972E+03  0.16766508289E+03  0.25500000920E-02 0.  1.
       -2    1    3    3    0  502  0.12774413740E+03 -0.48005817040E+00 -0.59070611074E+03  0.60436123665E+03  0.25500000920E-02 0. -1.
</event>
<event>
 5   0  0.2126207E-02  0.5996971E+03  0.7818609E-02  0.9906035E-01
        2   -1    0    0  501    0  0.00000000000E+00  0.00000000000E+00  0.55503264884E+03  0.55503264885E+03  0.25500000920E-02 0.  1.
       -2   -1    0    0    0  501  0.00000000000E+00  0.00000000000E+00 -0.16198892557E+03  0.16198892559E+03  0.25500000920E-02 0. -1.
    10030    2    1    2    0    0  0.00000000000E+00  0.00000000000E+00  0.39304372328E+03  0.71702157443E+03  0.59969706502E+03 0.  0.
        5    1    3    3  502    0 -0.28741825506E+03  0.71041102778E+02  0.25299556551E+03  0.38946750544E+03  0.46999998093E+01 0. -1.
       -5    1    3    3    0  502  0.28741825506E+03 -0.71041102778E+02  0.14004815777E+03  0.32755406900E+03  0.46999998093E+01 0.  1.
</event>
<event>
 5   0  0.1276705E-02  0.6004957E+03  0.7818609E-02  0.9904378E-01
        1   -1    0    0  501    0  0.00000000000E+00  0.00000000000E+00  0.72882146930E+03  0.72882146932E+03  0.50400001928E-02 0.  1.
       -1   -1    0    0    0  501  0.00000000000E+00  0.00000000000E+00 -0.12369115943E+03  0.12369115953E+03  0.50400001928E-02 0. -1.
    10030    2    1    2    0    0  0.00000000000E+00  0.00000000000E+00  0.60513030987E+03  0.85251262885E+03  0.60049570391E+03 0.  0.
        1    1    3    3  502    0  0.92915043748E+02 -0.10121675305E+03 -0.76441240789E+02  0.15723008545E+03  0.50400001928E-02 0. -1.
       -1    1    3    3    0  502 -0.92915043748E+02  0.10121675305E+03  0.68157155066E+03  0.69528254339E+03  0.50400001928E-02 0.  1.
</event>
<event>
 5   0  0.2092587E-02  0.5994107E+03  0.7818609E-02  0.9906629E-01
       -2   -1    0    0    0  501  0.00000000000E+00  0.00000000000E+00  0.17754252580E+03  0.17754252582E+03  0.25500000920E-02 0.  1.
        2   -1    0    0  501    0  0.00000000000E+00  0.00000000000E+00 -0.50592558557E+03  0.50592558557E+03  0.25500000920E-02 0. -1.
    10030    2    1    2    0    0  0.00000000000E+00  0.00000000000E+00 -0.32838305977E+03  0.68346811140E+03  0.59941073176E+03 0.  0.
        3    1    3    3  502    0 -0.36851800382E+02  0.40739830437E+02 -0.50013591101E+03  0.50314384490E+03  0.10100000352E+00 0. -1.
       -3    1    3    3    0  502  0.36851800382E+02 -0.40739830437E+02  0.17175285125E+03  0.18032426650E+03  0.10100000352E+00 0.  1.
</event>
<event>
 5   0  0.8551000E-03  0.5987146E+03  0.7818609E-02  0.9908076E-01
       -4   -1    0    0    0  501  0.00000000000E+00  0.00000000000E+00  0.92085783175E+02  0.92094540353E+02  0.12699999809E+01 0.  1.
        4   -1    0    0  501    0  0.00000000000E+00  0.00000000000E+00 -0.97311107994E+03  0.97311190868E+03  0.12699999809E+01 0. -1.
    10030    2    1    2    0    0  0.00000000000E+00  0.00000000000E+00 -0.88102529677E+03  0.10652064490E+04  0.59871462777E+03 0.  0.
        3    1    3    3  502    0 -0.21896347303E+03  0.39823663300E+02 -0.79671658174E+03  0.82721717130E+03  0.10100000352E+00 0. -1.
       -3    1    3    3    0  502  0.21896347303E+03 -0.39823663300E+02 -0.84308715033E+02  0.23798927773E+03  0.10100000352E+00 0.  1.
</event>
<event>
 5   0  0.1303808E-02  0.6238072E+03  0.7818609E-02  0.9857209E-01
        1   -1    0    0  501    0  0.00000000000E+00  0.00000000000E+00  0.77760363284E+03  0.77760363286E+03  0.50400001928E-02 0. -1.
       -1   -1    0    0    0  501  0.00000000000E+00  0.00000000000E+00 -0.12510726899E+03  0.12510726909E+03  0.50400001928E-02 0.  1.
    10030    2    1    2    0    0  0.00000000000E+00  0.00000000000E+00  0.65249636385E+03  0.90271090195E+03  0.62380723598E+03 0.  0.
        4    1    3    3  502    0  0.67243429529E+02  0.30291987158E+03  0.28048399312E+03  0.41827623733E+03  0.12699999809E+01 0.  1.
       -4    1    3    3    0  502 -0.67243429529E+02 -0.30291987158E+03  0.37201237073E+03  0.48443466462E+03  0.12699999809E+01 0. -1.
</event>
<event>
 5   0  0.1337051E-02  0.5957876E+03  0.7818609E-02  0.9914184E-01
        1   -1    0    0  501    0  0.00000000000E+00  0.00000000000E+00  0.12793292753E+03  0.12793292763E+03  0.50400001928E-02 0. -1.
       -1   -1    0    0    0  501  0.00000000000E+00  0.00000000000E+00 -0.69365024527E+03  0.69365024529E+03  0.50400001928E-02 0.  1.
    10030    2    1    2    0    0  0.00000000000E+00  0.00000000000E+00 -0.56571731774E+03  0.82158317291E+03  0.59578756820E+03 0.  0.
        5    1    3    3  502    0  0.15081241837E+03 -0.23143400418E+03 -0.12922360993E+03  0.30500313964E+03  0.46999998093E+01 0. -1.
       -5    1    3    3    0  502 -0.15081241837E+03  0.23143400418E+03 -0.43649370781E+03  0.51658003328E+03  0.46999998093E+01 0.  1.
</event>
<event>
 5   0  0.2142838E-02  0.6032595E+03  0.7818609E-02  0.9898667E-01
       -2   -1    0    0    0  501  0.00000000000E+00  0.00000000000E+00  0.91883107875E+02  0.91883107910E+02  0.25500000920E-02 0.  1.
        2   -1    0    0  501    0  0.00000000000E+00  0.00000000000E+00 -0.99017678359E+03  0.99017678359E+03  0.25500000920E-02 0. -1.
    10030    2    1    2    0    0  0.00000000000E+00  0.00000000000E+00 -0.89829367571E+03  0.10820598915E+04  0.60325954693E+03 0.  0.
        4    1    3    3  502    0  0.19999257841E+03  0.12756688350E+03 -0.78331527867E+03  0.81844656508E+03  0.12699999809E+01 0.  1.
       -4    1    3    3    0  502 -0.19999257841E+03 -0.12756688350E+03 -0.11497839704E+03  0.26361332642E+03  0.12699999809E+01 0. -1.
</event>
<event>
 5   0  0.1337051E-02  0.5983374E+03  0.7818609E-02  0.9908862E-01
       -1   -1    0    0    0  501  0.00000000000E+00  0.00000000000E+00  0.60541535554E+03  0.60541535556E+03  0.50400001928E-02 0. -1.
        1   -1    0    0  501    0  0.00000000000E+00  0.00000000000E+00 -0.14783553016E+03  0.14783553025E+03  0.50400001928E-02 0.  1.
    10030    2    1    2    0    0  0.00000000000E+00  0.00000000000E+00  0.45757982538E+03  0.75325088581E+03  0.59833736335E+03 0.  0.
        5    1    3    3  502    0 -0.23563291295E+03 -0.17989248475E+03  0.17850239279E+03  0.34607711564E+03  0.46999998093E+01 0. -1.
       -5    1    3    3    0  502  0.23563291295E+03  0.17989248475E+03  0.27907743258E+03  0.40717377017E+03  0.46999998093E+01 0.  1.
</event>
<event>
 5   0  0.2141800E-02  0.5994261E+03  0.7818609E-02  0.9906597E-01
       -2   -1    0    0    0  501  0.00000000000E+00  0.00000000000E+00  0.78495622395E+02  0.78495622437E+02  0.25500000920E-02 0.  1.
        2   -1    0    0  501    0  0.00000000000E+00  0.00000000000E+00 -0.11443684280E+04  0.11443684280E+04  0.25500000920E-02 0. -1.
    10030    2    1    2    0    0  0.00000000000E+00  0.00000000000E+00 -0.10658728056E+04  0.12228640505E+04  0.59942609898E+03 0.  0.
        2    1    3    3  502    0  0.22983803166E+02  0.15104309115E+03 -0.10589614951E+04  0.10699260342E+04  0.25500000920E-02 0. -1.
       -2    1    3    3    0  502 -0.22983803166E+02 -0.15104309115E+03 -0.69113105320E+01  0.15293801625E+03  0.25500000920E-02 0.  1.
</event>
<event>
 5   0  0.1332555E-02  0.6055613E+03  0.7818609E-02  0.9893935E-01
        1   -1    0    0  501    0  0.00000000000E+00  0.00000000000E+00  0.49257256927E+03  0.49257256930E+03  0.50400001928E-02 0.  1.
       -1   -1    0    0    0  501  0.00000000000E+00  0.00000000000E+00 -0.18611699287E+03  0.18611699294E+03  0.50400001928E-02 0. -1.
    10030    2    1    2    0    0  0.00000000000E+00  0.00000000000E+00  0.30645557640E+03  0.67868956224E+03  0.60556131117E+03 0.  0.
        2    1    3    3  502    0  0.92837582352E+01 -0.73024360202E+02  0.48239091632E+03  0.48797514435E+03  0.25500000920E-02 0.  1.
       -2    1    3    3    0  502 -0.92837582352E+01  0.73024360202E+02 -0.17593533992E+03  0.19071441789E+03  0.25500000920E-02 0. -1.
</event>
<event>
 5   0  0.1303808E-02  0.5987526E+03  0.7818609E-02  0.9907997E-01
        1   -1    0    0  501    0  0.00000000000E+00  0.00000000000E+00  0.37540622795E+03  0.37540622798E+03  0.50400001928E-02 0.  1.
       -1   -1    0    0    0  501  0.00000000000E+00  0.00000000000E+00 -0.23874448615E+03  0.23874448620E+03  0.50400001928E-02 0. -1.
    10030    2    1    2    0    0  0.00000000000E+00  0.00000000000E+00  0.13666174180E+03  0.61415071418E+03  0.59875259336E+03 0.  0.
        4    1    3    3  502    0  0.27539846899E+03  0.96096353688E+02  0.13748677862E+03  0.32246403382E+03  0.12699999809E+01 0.  1.
       -4    1    3    3    0  502 -0.27539846899E+03 -0.96096353688E+02 -0.82503682005E+00  0.29168668036E+03  0.12699999809E+01 0. -1.
</event>
<event>
 5   0  0.2141800E-02  0.6009949E+03  0.7818609E-02  0.9903344E-01
        2   -1    0    0  501    0  0.00000000000E+00  0.00000000000E+00  0.11572604136E+03  0.11572604139E+03  0.25500000920E-02 0.  1.
       -2   -1    0    0    0  501  0.00000000000E+00  0.00000000000E+00 -0.78027992315E+03  0.78027992316E+03  0.25500000920E-02 0. -1.
    10030    2    1    2    0    0  0.00000000000E+00  0.00000000000E+00 -0.66455388179E+03  0.89600596455E+03  0.60099486412E+03 0.  0.
        2    1    3    3  502    0 -0.16457980391E+03 -0.10823633163E+03  0.60460331888E+01  0.19707402128E+03  0.25500000920E-02 0.  1.
       -2    1    3    3    0  502  0.16457980391E+03  0.10823633163E+03 -0.67059991498E+03  0.69893194326E+03  0.25500000920E-02 0. -1.
</event>
<event>
 5   0  0.2179625E-02  0.5998776E+03  0.7818609E-02  0.9905660E-01
        2   -1    0    0  501    0  0.00000000000E+00  0.00000000000E+00  0.54765391818E+03  0.54765391818E+03  0.25500000920E-02 0.  1.
       -2   -1    0    0    0  501  0.00000000000E+00  0.00000000000E+00 -0.16427030578E+03  0.16427030580E+03  0.25500000920E-02 0. -1.
    10030    2    1    2    0    0  0.00000000000E+00  0.00000000000E+00  0.38338361240E+03  0.71192422398E+03  0.59987757620E+03 0.  0.
        1    1    3    3  502    0  0.86902484719E+02 -0.23333710573E+03 -0.67708437305E+01  0.24908651330E+03  0.50400001928E-02 0. -1.
       -1    1    3    3    0  502 -0.86902484719E+02  0.23333710573E+03  0.39015445613E+03  0.46283771068E+03  0.50400001928E-02 0.  1.
</event>
<event>
 5   0  0.8551000E-03  0.5985573E+03  0.7818609E-02  0.9908404E-01
       -3   -1    0    0    0  501  0.00000000000E+00  0.00000000000E+00  0.12618925589E+03  0.12618929631E+03  0.10100000352E+00 0.  1.
        3   -1    0    0  501    0  0.00000000000E+00  0.00000000000E+00 -0.70978865912E+03  0.70978866630E+03  0.10100000352E+00 0. -1.
    10030    2    1    2    0    0  0.00000000000E+00  0.00000000000E+00 -0.58359940323E+03  0.83597796261E+03  0.59855734106E+03 0.  0.
        5    1    3    3  502    0 -0.26484339858E+03  0.13220467258E+03 -0.23051326494E+03  0.37520468619E+03  0.46999998093E+01 0.  1.
       -5    1    3    3    0  502  0.26484339858E+03 -0.13220467258E+03 -0.35308613828E+03  0.46077327643E+03  0.46999998093E+01 0. -1.
</event>
<event>
 5   0  0.1332555E-02  0.6014143E+03  0.7818609E-02  0.9902476E-01
       -1   -1    0    0    0  501  0.00000000000E+00  0.00000000000E+00  0.11838892466E+03  0.11838892477E+03  0.50400001928E-02 0.  1.
        1   -1    0    0  501    0  0.00000000000E+00  0.00000000000E+00 -0.76379431374E+03  0.76379431375E+03  0.50400001928E-02 0. -1.
    10030    2    1    2    0    0  0.00000000000E+00  0.00000000000E+00 -0.64540538907E+03  0.88218323852E+03  0.60141429156E+03 0.  0.
        2    1    3    3  502    0 -0.19088604006E+03  0.22965748291E+03 -0.37445452749E+03  0.47895326798E+03  0.25500000920E-02 0.  1.
       -2    1    3    3    0  502  0.19088604006E+03 -0.22965748291E+03 -0.27095086159E+03  0.40322997055E+03  0.25500000920E-02 0. -1.
</event>
<event>
 5   0  0.1276705E-02  0.5991040E+03  0.7818609E-02  0.9907267E-01
        1   -1    0    0  501    0  0.00000000000E+00  0.00000000000E+00  0.52470076537E+03  0.52470076539E+03  0.50400001928E-02 0.  1.
       -1   -1    0    0    0  501  0.00000000000E+00  0.00000000000E+00 -0.17101441697E+03  0.17101441704E+03  0.50400001928E-02 0. -1.
    10030    2    1    2    0    0  0.00000000000E+00  0.00000000000E+00  0.35368634840E+03  0.69571518243E+03  0.59910398265E+03 0.  0.
        1    1    3    3  502    0  0.15685494742E+03 -0.24086610774E+03  0.27477143054E+03  0.39764217011E+03  0.50400001928E-02 0.  1.
       -1    1    3    3    0  502 -0.15685494742E+03  0.24086610774E+03  0.78914917863E+02  0.29807301232E+03  0.50400001928E-02 0. -1.
</event>
<event>
 5   0  0.1303808E-02  0.5961743E+03  0.7818609E-02  0.9913375E-01
        1   -1    0    0  501    0  0.00000000000E+00  0.00000000000E+00  0.40201597435E+03  0.40201597438E+03  0.50400001928E-02 0. -1.
       -1   -1    0    0    0  501  0.00000000000E+00  0.00000000000E+00 -0.22102592229E+03  0.22102592234E+03  0.50400001928E-02 0.  1.
    10030    2    1    2    0    0  0.00000000000E+00  0.00000000000E+00  0.18099005206E+03  0.62304189672E+03  0.59617430851E+03 0.  0.
        4    1    3    3  502    0  0.53478274847E+02 -0.28689437616E+03  0.15394382551E+03  0.32995245607E+03  0.12699999809E+01 0.  1.
       -4    1    3    3    0  502 -0.53478274847E+02  0.28689437616E+03  0.27046226551E+02  0.29308944065E+03  0.12699999809E+01 0. -1.
</event>
<event>
 5   0  0.2142838E-02  0.5996399E+03  0.7818609E-02  0.9906153E-01
       -2   -1    0    0    0  501  0.00000000000E+00  0.00000000000E+00  0.70366061136E+02  0.70366061183E+02  0.25500000920E-02 0.  1.
        2   -1    0    0  501    0  0.00000000000E+00  0.00000000000E+00 -0.12774910277E+04  0.12774910277E+04  0.25500000920E-02 0. -1.
    10030    2    1    2    0    0  0.00000000000E+00  0.00000000000E+00 -0.12071249666E+04  0.13478570889E+04  0.59963993126E+03 0.  0.
        4    1    3    3  502    0  0.14363766724E+03 -0.18030135008E+03 -0.10344681693E+04  0.10598426121E+04  0.12699999809E+01 0. -1.
       -4    1    3    3    0  502 -0.14363766724E+03  0.18030135008E+03 -0.17265679731E+03  0.28801447680E+03  0.12699999809E+01 0.  1.
</event>
<event>
 5   0  0.1250390E-02  0.5997708E+03  0.7818609E-02  0.9905882E-01
        1   -1    0    0  501    0  0.00000000000E+00  0.00000000000E+00  0.10404679146E+03  0.10404679158E+03  0.50400001928E-02 0.  1.
       -1   -1    0    0    0  501  0.00000000000E+00  0.00000000000E+00 -0.86433474364E+03  0.86433474366E+03  0.50400001928E-02 0. -1.
    10030    2    1    2    0    0  0.00000000000E+00  0.00000000000E+00 -0.76028795218E+03  0.96838153524E+03  0.59977081253E+03 0.  0.
        3    1    3    3  502    0 -0.10006348027E+03 -0.23609709317E+03 -0.63119371036E+03  0.68129292355E+03  0.10100000352E+00 0. -1.
       -3    1    3    3    0  502  0.10006348027E+03  0.23609709317E+03 -0.12909424182E+03  0.28708861169E+03  0.10100000352E+00 0.  1.
</event>
<event>
 5   0  0.1276705E-02  0.5979021E+03  0.7818609E-02  0.9909768E-01
       -1   -1    0    0    0  501  0.00000000000E+00  0.00000000000E+00  0.25422026373E+03  0.25422026378E+03  0.50400001928E-02 0.  1.
        1   -1    0    0  501    0  0.00000000000E+00  0.00000000000E+00 -0.35155236234E+03  0.35155236238E+03  0.50400001928E-02 0. -1.
    10030    2    1    2    0    0  0.00000000000E+00  0.00000000000E+00 -0.97332098617E+02  0.60577262615E+03  0.59790211337E+03 0.  0.
        1    1    3    3  502    0  0.19797585835E+03 -0.11960731119E+03 -0.24055661706E+03  0.33371819761E+03  0.50400001928E-02 0. -1.
       -1    1    3    3    0  502 -0.19797585835E+03  0.11960731119E+03  0.14322451845E+03  0.27205442854E+03  0.50400001928E-02 0.  1.
</event>
<event>
 5   0  0.1276705E-02  0.5999525E+03  0.7818609E-02  0.9905505E-01
       -1   -1    0    0    0  501  0.00000000000E+00  0.00000000000E+00  0.16787592276E+03  0.16787592284E+03  0.50400001928E-02 0. -1.
        1   -1    0    0  501    0  0.00000000000E+00  0.00000000000E+00 -0.53602533311E+03  0.53602533313E+03  0.50400001928E-02 0.  1.
    10030    2    1    2    0    0  0.00000000000E+00  0.00000000000E+00 -0.36814941034E+03  0.70390125597E+03  0.59995248964E+03 0.  0.
        1    1    3    3  502    0  0.28630815798E+03  0.39895423320E+01 -0.28899782142E+03  0.40682676729E+03  0.50400001928E-02 0.  1.
       -1    1    3    3    0  502 -0.28630815798E+03 -0.39895423320E+01 -0.79151588922E+02  0.29707448868E+03  0.50400001928E-02 0. -1.
</event>
<event>
 5   0  0.2142838E-02  0.6030246E+03  0.7818609E-02  0.9899151E-01
        2   -1    0    0  501    0  0.00000000000E+00  0.00000000000E+00  0.28022469531E+03  0.28022469532E+03  0.25500000920E-02 0. -1.
       -2   -1    0    0    0  501  0.00000000000E+00  0.00000000000E+00 -0.32441699892E+03  0.32441699893E+03  0.25500000920E-02 0.  1.
    10030    2    1    2    0    0  0.00000000000E+00  0.00000000000E+00 -0.44192303608E+02  0.60464169425E+03  0.60302455898E+03 0.  0.
        4    1    3    3  502    0 -0.77114799304E+02 -0.98406636862E+01 -0.31419251379E+03  0.32366970751E+03  0.12699999809E+01 0.  1.
       -4    1    3    3    0  502  0.77114799304E+02  0.98406636862E+01  0.27000021019E+03  0.28097198674E+03  0.12699999809E+01 0. -1.
</event>
<event>
 5   0  0.2092587E-02  0.5944444E+03  0.7818609E-02  0.9917000E-01
        2   -1    0    0  501    0  0.00000000000E+00  0.00000000000E+00  0.44618918982E+03  0.44618918983E+03  0.25500000920E-02 0.  1.
       -2   -1    0    0    0  501  0.00000000000E+00  0.00000000000E+00 -0.19799008803E+03  0.19799008805E+03  0.25500000920E-02 0. -1.
    10030    2    1    2    0    0  0.00000000000E+00  0.00000000000E+00  0.24819910179E+03  0.64417927788E+03  0.59444440272E+03 0.  0.
        3    1    3    3  502    0 -0.13541712339E+03 -0.45807313602E+02  0.40648747931E+03  0.43089231638E+03  0.10100000352E+00 0.  1.
       -3    1    3    3    0  502  0.13541712339E+03  0.45807313602E+02 -0.15828837752E+03  0.21328696150E+03  0.10100000352E+00 0. -1.
</event>
<event>
 5   0  0.8551000E-03  0.5998038E+03  0.7818609E-02  0.9905813E-01
       -3   -1    0    0    0  501  0.00000000000E+00  0.00000000000E+00  0.18984040890E+03  0.18984043577E+03  0.10100000352E+00 0.  1.
        3   -1    0    0  501    0  0.00000000000E+00  0.00000000000E+00 -0.47377241986E+03  0.47377243062E+03  0.10100000352E+00 0. -1.
    10030    2    1    2    0    0  0.00000000000E+00  0.00000000000E+00 -0.28393201096E+03  0.66361286639E+03  0.59980384260E+03 0.  0.
        1    1    3    3  502    0  0.34726556859E+02 -0.22461158252E+03 -0.35844667256E+03  0.42442939796E+03  0.50400001928E-02 0. -1.
       -1    1    3    3    0  502 -0.34726556859E+02  0.22461158252E+03  0.74514661604E+02  0.23918346844E+03  0.50400001928E-02 0.  1.
</event>
<event>
 5   0  0.2126207E-02  0.5941967E+03  0.7818609E-02  0.9917520E-01
       -2   -1    0    0    0  501  0.00000000000E+00  0.00000000000E+00  0.16824076679E+03  0.16824076681E+03  0.25500000920E-02 0. -1.
        2   -1    0    0  501    0  0.00000000000E+00  0.00000000000E+00 -0.52464952610E+03  0.52464952611E+03  0.25500000920E-02 0.  1.
    10030    2    1    2    0    0  0.00000000000E+00  0.00000000000E+00 -0.35640875931E+03  0.69289029292E+03  0.59419673031E+03 0.  0.
        5    1    3    3  502    0 -0.16494243731E+03  0.27418190850E+02  0.10811329523E+03  0.19916912265E+03  0.46999998093E+01 0. -1.
       -5    1    3    3    0  502  0.16494243731E+03 -0.27418190850E+02 -0.46452205454E+03  0.49372117026E+03  0.46999998093E+01 0.  1.
</event>
<event>
 5   0  0.2092587E-02  0.6000043E+03  0.7818609E-02  0.9905397E-01
        2   -1    0    0  501    0  0.00000000000E+00  0.00000000000E+00  0.59566650082E+03  0.59566650083E+03  0.25500000920E-02 0. -1.
       -2   -1    0    0    0  501  0.00000000000E+00  0.00000000000E+00 -0.15109344444E+03  0.15109344446E+03  0.25500000920E-02 0.  1.
    10030    2    1    2    0    0  0.00000000000E+00  0.00000000000E+00  0.44457305638E+03  0.74675994529E+03  0.60000434451E+03 0.  0.
        3    1    3    3  502    0 -0.25330771472E+03 -0.15986671888E+03  0.20149303021E+03  0.36100085536E+03  0.10100000352E+00 0.  1.
       -3    1    3    3    0  502  0.25330771472E+03  0.15986671888E+03  0.24308002617E+03  0.38575908994E+03  0.10100000352E+00 0. -1.
</event>
<event>
 5   0  0.1250390E-02  0.6042329E+03  0.7818609E-02  0.9896663E-01
        1   -1    0    0  501    0  0.00000000000E+00  0.00000000000E+00  0.47190281757E+03  0.47190281760E+03  0.50400001928E-02 0. -1.
       -1   -1    0    0    0  501  0.00000000000E+00  0.00000000000E+00 -0.19341769168E+03  0.19341769174E+03  0.50400001928E-02 0.  1.
    10030    2    1    2    0    0  0.00000000000E+00  0.00000000000E+00  0.27848512589E+03  0.66532050934E+03  0.60423291437E+03 0.  0.
        3    1    3    3  502    0  0.20304234792E+03 -0.12711042879E+03  0.34194981384E+03  0.41750801375E+03  0.10100000352E+00 0. -1.
       -3    1    3    3    0  502 -0.20304234792E+03  0.12711042879E+03 -0.63464687949E+02  0.24781249559E+03  0.10100000352E+00 0.  1.
</event>
<event>
 5   0  0.2126207E-02  0.5999333E+03  0.7818609E-02  0.9905544E-01
        2   -1    0    0  501    0  0.00000000000E+00  0.00000000000E+00  0.42422526824E+03  0.42422526825E+03  0.25500000920E-02 0. -1.
       -2   -1    0    0    0  501  0.00000000000E+00  0.00000000000E+00 -0.21210426576E+03  0.21210426577E+03  0.25500000920E-02 0.  1.
    10030    2    1    2    0    0  0.00000000000E+00  0.00000000000E+00  0.21212100249E+03  0.63632953403E+03  0.59993329311E+03 0.  0.
        5    1    3    3  502    0  0.20339775910E+03  0.13551474349E+03  0.29045499063E+03  0.37963283010E+03  0.46999998093E+01 0. -1.
       -5    1    3    3    0  502 -0.20339775910E+03 -0.13551474349E+03 -0.78333988147E+02  0.25669670393E+03  0.46999998093E+01 0.  1.
</event>
<event>
 5   0  0.2141800E-02  0.6057010E+03  0.7818609E-02  0.9893648E-01
       -2   -1    0    0    0  501  0.00000000000E+00  0.00000000000E+00  0.13711344041E+04  0.13711344041E+04  0.25500000920E-02 0. -1.
        2   -1    0    0  501    0  0.00000000000E+00  0.00000000000E+00 -0.66892369331E+02  0.66892369379E+02  0.25500000920E-02 0.  1.
    10030    2    1    2    0    0  0.00000000000E+00  0.00000000000E+00  0.13042420348E+04  0.14380267735E+04  0.60570101204E+03 0.  0.
        2    1    3    3  502    0 -0.13401230753E+03  0.81532991891E+02  0.37075651182E+02  0.16118787564E+03  0.25500000920E-02 0.  1.
       -2    1    3    3    0  502  0.13401230753E+03 -0.81532991891E+02  0.12671663836E+04  0.12768388978E+04  0.25500000920E-02 0. -1.
</event>
<event>
 5   0  0.2126207E-02  0.5995342E+03  0.7818609E-02  0.9906373E-01
        2   -1    0    0  501    0  0.00000000000E+00  0.00000000000E+00  0.66953291807E+03  0.66953291807E+03  0.25500000920E-02 0.  1.
       -2   -1    0    0    0  501  0.00000000000E+00  0.00000000000E+00 -0.13421342507E+03  0.13421342510E+03  0.25500000920E-02 0. -1.
    10030    2    1    2    0    0  0.00000000000E+00  0.00000000000E+00  0.53531949300E+03  0.80374634317E+03  0.59953417299E+03 0.  0.
        5    1    3    3  502    0 -0.24979497998E+03  0.96582295704E+02  0.44808395034E+03  0.52204117502E+03  0.46999998093E+01 0.  1.
       -5    1    3    3    0  502  0.24979497998E+03 -0.96582295704E+02  0.87235542659E+02  0.28170516816E+03  0.46999998093E+01 0. -1.
</event>
<event>
 5   0  0.1276705E-02  0.5996240E+03  0.7818609E-02  0.9906186E-01
       -1   -1    0    0    0  501  0.00000000000E+00  0.00000000000E+00  0.17857818361E+03  0.17857818368E+03  0.50400001928E-02 0.  1.
        1   -1    0    0  501    0  0.00000000000E+00  0.00000000000E+00 -0.50334952494E+03  0.50334952497E+03  0.50400001928E-02 0. -1.
    10030    2    1    2    0    0  0.00000000000E+00  0.00000000000E+00 -0.32477134134E+03  0.68192770865E+03  0.59962402859E+03 0.  0.
        1    1    3    3  502    0  0.15919980359E+03  0.15942517788E+03  0.62568258759E+02  0.23382846670E+03  0.50400001928E-02 0.  1.
       -1    1    3    3    0  502 -0.15919980359E+03 -0.15942517788E+03 -0.38733960010E+03  0.44809924195E+03  0.50400001928E-02 0. -1.
</event>
<event>
 5   0  0.8551000E-03  0.5977167E+03  0.7818609E-02  0.9910155E-01
       -3   -1    0    0    0  501  0.00000000000E+00  0.00000000000E+00  0.83433958067E+03  0.83433958678E+03  0.10100000352E+00 0. -1.
        3   -1    0    0  501    0  0.00000000000E+00  0.00000000000E+00 -0.10705028470E+03  0.10705033235E+03  0.10100000352E+00 0.  1.
    10030    2    1    2    0    0  0.00000000000E+00  0.00000000000E+00  0.72728929597E+03  0.94138991913E+03  0.59771670531E+03 0.  0.
        3    1    3    3  502    0  0.20480011767E+03 -0.68792332730E+02  0.68887193919E+03  0.72195569951E+03  0.10100000352E+00 0. -1.
       -3    1    3    3    0  502 -0.20480011767E+03  0.68792332730E+02  0.38417356778E+02  0.21943421962E+03  0.10100000352E+00 0.  1.
</event>
<event>
 5   0  0.2141800E-02  0.5959717E+03  0.7818609E-02  0.9913799E-01
       -2   -1    0    0    0  501  0.00000000000E+00  0.00000000000E+00  0.61451424843E+02  0.61451424896E+02  0.25500000920E-02 0. -1.
        2   -1    0    0  501    0  0.00000000000E+00  0.00000000000E+00 -0.14449718219E+04  0.14449718219E+04  0.25500000920E-02 0.  1.
    10030    2    1    2    0    0  0.00000000000E+00  0.00000000000E+00 -0.13835203970E+04  0.15064232468E+04  0.59597173542E+03 0.  0.
        2    1    3    3  502    0  0.23541411807E+03 -0.12794017792E+03 -0.36212298168E+03  0.45046814535E+03  0.25500000920E-02 0. -1.
       -2    1    3    3    0  502 -0.23541411807E+03  0.12794017792E+03 -0.10213974154E+04  0.10559551014E+04  0.25500000920E-02 0.  1.
</event>
<event>
 5   0  0.1337051E-02  0.6005008E+03  0.7818609E-02  0.9904368E-01
       -1   -1    0    0    0  501  0.00000000000E+00  0.00000000000E+00  0.12127217857E+03  0.12127217867E+03  0.50400001928E-02 0.  1.
        1   -1    0    0  501    0  0.00000000000E+00  0.00000000000E+00 -0.74337160319E+03  0.74337160320E+03  0.50400001928E-02 0. -1.
    10030    2    1    2    0    0  0.00000000000E+00  0.00000000000E+00 -0.62209942462E+03  0.86464378188E+03  0.60050077055E+03 0.  0.
        5    1    3    3  502    0  0.73807506842E+02  0.20256028124E+03 -0.61187595483E+03  0.64876227518E+03  0.46999998093E+01 0. -1.
       -5    1    3    3    0  502 -0.73807506842E+02 -0.20256028124E+03 -0.10223469787E+02  0.21588150670E+03  0.46999998093E+01 0.  1.
</event>
<event>
 5   0  0.1250390E-02  0.5948774E+03  0.7818609E-02  0.9916091E-01
        1   -1    0    0  501    0  0.00000000000E+00  0.00000000000E+00  0.10659613179E+04  0.10659613179E+04  0.50400001928E-02 0. -1.
       -1   -1    0    0    0  501  0.00000000000E+00  0.00000000000E+00 -0.82995289185E+02  0.82995289338E+02  0.50400001928E-02 0.  1.
    10030    2    1    2    0    0  0.00000000000E+00  0.00000000000E+00  0.98296602874E+03  0.11489566073E+04  0.59487735857E+03 0.  0.
        3    1    3    3  502    0  0.50600405612E+02  0.10791265732E+03 -0.34856511441E+02  0.12417942361E+03  0.10100000352E+00 0.  1.
       -3    1    3    3    0  502 -0.50600405612E+02 -0.10791265732E+03  0.10178225402E+04  0.10247771837E+04  0.10100000352E+00 0. -1.
</event>
<event>
 5   0  0.2142838E-02  0.5797209E+03  0.7818609E-02  0.9948395E-01
        2   -1    0    0  501    0  0.00000000000E+00  0.00000000000E+00  0.41890842118E+03  0.41890842119E+03  0.25500000920E-02 0. -1.
       -2   -1    0    0    0  501  0.00000000000E+00  0.00000000000E+00 -0.20056670114E+03  0.20056670115E+03  0.25500000920E-02 0.  1.
    10030    2    1    2    0    0  0.00000000000E+00  0.00000000000E+00  0.21834172004E+03  0.61947512234E+03  0.57972089879E+03 0.  0.
        4    1    3    3  502    0  0.57950663358E+02 -0.26438637103E+03  0.22000959653E+03  0.34880405392E+03  0.12699999809E+01 0. -1.
       -4    1    3    3    0  502 -0.57950663358E+02  0.26438637103E+03 -0.16678764856E+01  0.27067106842E+03  0.12699999809E+01 0.  1.
</event>
<event>
 5   0  0.1250390E-02  0.6001951E+03  0.7818609E-02  0.9905001E-01
       -1   -1    0    0    0  501  0.00000000000E+00  0.00000000000E+00  0.22931885996E+03  0.22931886001E+03  0.50400001928E-02 0. -1.
        1   -1    0    0  501    0  0.00000000000E+00  0.00000000000E+00 -0.39272184230E+03  0.39272184233E+03  0.50400001928E-02 0.  1.
    10030    2    1    2    0    0  0.00000000000E+00  0.00000000000E+00 -0.16340298234E+03  0.62204070234E+03  0.60019505224E+03 0.  0.
        3    1    3    3  502    0  0.17849715551E+03 -0.22939123187E+03 -0.43044242582E+01  0.29068902637E+03  0.10100000352E+00 0.  1.
       -3    1    3    3    0  502 -0.17849715551E+03  0.22939123187E+03 -0.15909855808E+03  0.33135167597E+03  0.10100000352E+00 0. -1.
</event>
<event>
 5   0  0.1303808E-02  0.6096514E+03  0.7818609E-02  0.9885582E-01
        1   -1    0    0  501    0  0.00000000000E+00  0.00000000000E+00  0.42797503905E+03  0.42797503908E+03  0.50400001928E-02 0.  1.
       -1   -1    0    0    0  501  0.00000000000E+00  0.00000000000E+00 -0.21711241088E+03  0.21711241094E+03  0.50400001928E-02 0. -1.
    10030    2    1    2    0    0  0.00000000000E+00  0.00000000000E+00  0.21086262817E+03  0.64508745002E+03  0.60965135136E+03 0.  0.
        4    1    3    3  502    0 -0.15064127730E+02  0.86262812070E+02  0.41437647023E+03  0.42353001390E+03  0.12699999809E+01 0.  1.
       -4    1    3    3    0  502  0.15064127730E+02 -0.86262812070E+02 -0.20351384206E+03  0.22155743612E+03  0.12699999809E+01 0. -1.
</event>
<event>
 5   0  0.1250390E-02  0.5981675E+03  0.7818609E-02  0.9909215E-01
       -1   -1    0    0    0  501  0.00000000000E+00  0.00000000000E+00  0.15952030087E+03  0.15952030095E+03  0.50400001928E-02 0. -1.
        1   -1    0    0  501    0  0.00000000000E+00  0.00000000000E+00 -0.56075059285E+03  0.56075059288E+03  0.50400001928E-02 0.  1.
    10030    2    1    2    0    0  0.00000000000E+00  0.00000000000E+00 -0.40123029199E+03  0.72027089383E+03  0.59816754616E+03 0.  0.
        3    1    3    3  502    0 -0.14417894997E+03  0.24435036128E+03 -0.31457197400E+03  0.42361563439E+03  0.10100000352E+00 0.  1.
       -3    1    3    3    0  502  0.14417894997E+03 -0.24435036128E+03 -0.86658317988E+02  0.29665525944E+03  0.10100000352E+00 0. -1.
</event>
<event>
 5   0  0.2126207E-02  0.6011289E+03  0.7818609E-02  0.9903067E-01
        2   -1    0    0  501    0  0.00000000000E+00  0.00000000000E+00  0.85325443900E+03  0.85325443900E+03  0.25500000920E-02 0. -1.
       -2   -1    0    0    0  501  0.00000000000E+00  0.00000000000E+00 -0.10587580648E+03  0.10587580651E+03  0.25500000920E-02 0.  1.
    10030    2    1    2    0    0  0.00000000000E+00  0.00000000000E+00  0.74737863252E+03  0.95913024551E+03  0.60112894417E+03 0.  0.
        5    1    3    3  502    0 -0.89620013343E+02 -0.12866148609E+03  0.78275810542E+03  0.79832190650E+03  0.46999998093E+01 0. -1.
       -5    1    3    3    0  502  0.89620013343E+02  0.12866148609E+03 -0.35379472909E+02  0.16080833901E+03  0.46999998093E+01 0.  1.
</event>
<event>
 5   0  0.1303808E-02  0.6216382E+03  0.7818609E-02  0.9861504E-01
       -1   -1    0    0    0  501  0.00000000000E+00  0.00000000000E+00  0.25875158794E+03  0.25875158799E+03  0.50400001928E-02 0.  1.
        1   -1    0    0  501    0  0.00000000000E+00  0.00000000000E+00 -0.37336389223E+03  0.37336389227E+03  0.50400001928E-02 0. -1.
    10030    2    1    2    0    0  0.00000000000E+00  0.00000000000E+00 -0.11461230429E+03  0.63211548026E+03  0.62163815849E+03 0.  0.
        4    1    3    3  502    0 -0.67612041772E+02  0.13077274790E+03 -0.33566061082E+03  0.36652770474E+03  0.12699999809E+01 0. -1.
       -4    1    3    3    0  502  0.67612041772E+02 -0.13077274790E+03  0.22104830653E+03  0.26558777552E+03  0.12699999809E+01 0.  1.
</event>
<event>
 5   0  0.1337051E-02  0.5982586E+03  0.7818609E-02  0.9909026E-01
        1   -1    0    0  501    0  0.00000000000E+00  0.00000000000E+00  0.10749131294E+04  0.10749131294E+04  0.50400001928E-02 0.  1.
       -1   -1    0    0    0  501  0.00000000000E+00  0.00000000000E+00 -0.83242389172E+02  0.83242389325E+02  0.50400001928E-02 0. -1.
    10030    2    1    2    0    0  0.00000000000E+00  0.00000000000E+00  0.99167074018E+03  0.11581555187E+04  0.59825859671E+03 0.  0.
        5    1    3    3  502    0 -0.74022397050E+01 -0.10139405717E+03 -0.48696108977E+02  0.11282264405E+03  0.46999998093E+01 0. -1.
       -5    1    3    3    0  502  0.74022397050E+01  0.10139405717E+03  0.10403668492E+04  0.10453328746E+04  0.46999998093E+01 0.  1.
</event>
<event>
 5   0  0.2126207E-02  0.6107235E+03  0.7818609E-02  0.9883405E-01
        2   -1    0    0  501    0  0.00000000000E+00  0.00000000000E+00  0.85121319552E+03  0.85121319553E+03  0.25500000920E-02 0. -1.
       -2   -1    0    0    0  501  0.00000000000E+00  0.00000000000E+00 -0.10954459408E+03  0.10954459411E+03  0.25500000920E-02 0.  1.
    10030    2    1    2    0    0  0.00000000000E+00  0.00000000000E+00  0.74166860144E+03  0.96075778964E+03  0.61072351845E+03 0.  0.
        5    1    3    3  502    0 -0.12048247302E+02 -0.82659207738E+02 -0.91162293150E+02  0.12373503375E+03  0.46999998093E+01 0.  1.
       -5    1    3    3    0  502  0.12048247302E+02  0.82659207738E+02  0.83283089459E+03  0.83702275589E+03  0.46999998093E+01 0. -1.
</event>
<event>
 5   0  0.1337051E-02  0.6004643E+03  0.7818609E-02  0.9904443E-01
        1   -1    0    0  501    0  0.00000000000E+00  0.00000000000E+00  0.12848043251E+04  0.12848043251E+04  0.50400001928E-02 0. -1.
       -1   -1    0    0    0  501  0.00000000000E+00  0.00000000000E+00 -0.70158040775E+02  0.70158040956E+02  0.50400001928E-02 0.  1.
    10030    2    1    2    0    0  0.00000000000E+00  0.00000000000E+00  0.12146462843E+04  0.13549623661E+04  0.60046433485E+03 0.  0.
        5    1    3    3  502    0  0.17732978266E+02 -0.46851285841E+02  0.12752229383E+04  0.12762151597E+04  0.46999998093E+01 0. -1.
       -5    1    3    3    0  502 -0.17732978266E+02  0.46851285841E+02 -0.60576653979E+02  0.78747206355E+02  0.46999998093E+01 0.  1.
</event>
<event>
 5   0  0.2142838E-02  0.6010683E+03  0.7818609E-02  0.9903192E-01
       -2   -1    0    0    0  501  0.00000000000E+00  0.00000000000E+00  0.77963540063E+03  0.77963540063E+03  0.25500000920E-02 0.  1.
        2   -1    0    0  501    0  0.00000000000E+00  0.00000000000E+00 -0.11585003590E+03  0.11585003593E+03  0.25500000920E-02 0. -1.
    10030    2    1    2    0    0  0.00000000000E+00  0.00000000000E+00  0.66378536473E+03  0.89548543656E+03  0.60106834609E+03 0.  0.
        4    1    3    3  502    0  0.22222416808E+03 -0.18648966660E+03  0.21498951247E+03  0.36108735785E+03  0.12699999809E+01 0. -1.
       -4    1    3    3    0  502 -0.22222416808E+03  0.18648966660E+03  0.44879585226E+03  0.53439807871E+03  0.12699999809E+01 0.  1.
</event>
<event>
 5   0  0.1332555E-02  0.6005094E+03  0.7818609E-02  0.9904350E-01
        1   -1    0    0  501    0  0.00000000000E+00  0.00000000000E+00  0.17553079040E+04  0.17553079040E+04  0.50400001928E-02 0.  1.
       -1   -1    0    0    0  501  0.00000000000E+00  0.00000000000E+00 -0.51360159843E+02  0.51360160090E+02  0.50400001928E-02 0. -1.
    10030    2    1    2    0    0  0.00000000000E+00  0.00000000000E+00  0.17039477441E+04  0.18066680641E+04  0.60050943291E+03 0.  0.
        2    1    3    3  502    0 -0.26134602528E+03  0.79731349182E+01  0.12960557192E+04  0.13221670632E+04  0.25500000920E-02 0.  1.
       -2    1    3    3    0  502  0.26134602528E+03 -0.79731349182E+01  0.40789202494E+03  0.48450100085E+03  0.25500000920E-02 0. -1.
</event>
<event>
 5   0  0.1332555E-02  0.5993702E+03  0.7818609E-02  0.9906713E-01
       -1   -1    0    0    0  501  0.00000000000E+00  0.00000000000E+00  0.65700002551E+03  0.65700002553E+03  0.50400001928E-02 0.  1.
        1   -1    0    0  501    0  0.00000000000E+00  0.00000000000E+00 -0.13669888335E+03  0.13669888344E+03  0.50400001928E-02 0. -1.
    10030    2    1    2    0    0  0.00000000000E+00  0.00000000000E+00  0.52030114216E+03  0.79369890897E+03  0.59937023580E+03 0.  0.
        2    1    3    3  502    0 -0.29534854106E+03  0.39014011906E+02  0.30322983789E+03  0.42508962399E+03  0.25500000920E-02 0.  1.
       -2    1    3    3    0  502  0.29534854106E+03 -0.39014011906E+02  0.21707130428E+03  0.36860928499E+03  0.25500000920E-02 0. -1.
</event>
<event>
 5   0  0.1276705E-02  0.5995669E+03  0.7818609E-02  0.9906305E-01
        1   -1    0    0  501    0  0.00000000000E+00  0.00000000000E+00  0.10406546156E+04  0.10406546156E+04  0.50400001928E-02 0.  1.
       -1   -1    0    0    0  501  0.00000000000E+00  0.00000000000E+00 -0.86359203511E+02  0.86359203658E+02  0.50400001928E-02 0. -1.
    10030    2    1    2    0    0  0.00000000000E+00  0.00000000000E+00  0.95429541208E+03  0.11270138193E+04  0.59956685639E+03 0.  0.
        1    1    3    3  502    0 -0.20266458179E+03  0.85335415812E+02  0.86014379868E+03  0.88780764828E+03  0.50400001928E-02 0.  1.
       -1    1    3    3    0  502  0.20266458179E+03 -0.85335415812E+02  0.94151613396E+02  0.23920617098E+03  0.50400001928E-02 0. -1.
</event>
<event>
 5   0  0.2092587E-02  0.6007356E+03  0.7818609E-02  0.9903881E-01
       -2   -1    0    0    0  501  0.00000000000E+00  0.00000000000E+00  0.15997534840E+03  0.15997534842E+03  0.25500000920E-02 0. -1.
        2   -1    0    0  501    0  0.00000000000E+00  0.00000000000E+00 -0.56396692682E+03  0.56396692683E+03  0.25500000920E-02 0.  1.
    10030    2    1    2    0    0  0.00000000000E+00  0.00000000000E+00 -0.40399157842E+03  0.72394227525E+03  0.60073556783E+03 0.  0.
        3    1    3    3  502    0 -0.36418176317E+01  0.21735929960E+03  0.47788546894E+02  0.22258050987E+03  0.10100000352E+00 0. -1.
       -3    1    3    3    0  502  0.36418176317E+01 -0.21735929960E+03 -0.45178012531E+03  0.50136176538E+03  0.10100000352E+00 0.  1.
</event>
<event>
 5   0  0.1332555E-02  0.5980121E+03  0.7818609E-02  0.9909539E-01
       -1   -1    0    0    0  501  0.00000000000E+00  0.00000000000E+00  0.50855523418E+03  0.50855523420E+03  0.50400001928E-02 0.  1.
        1   -1    0    0  501    0  0.00000000000E+00  0.00000000000E+00 -0.17580116875E+03  0.17580116882E+03  0.50400001928E-02 0. -1.
    10030    2    1    2    0    0  0.00000000000E+00  0.00000000000E+00  0.33275406543E+03  0.68435640302E+03  0.59801205531E+03 0.  0.
        2    1    3    3  502    0  0.20975822765E+03 -0.21291029048E+03  0.17630741941E+03  0.34700664548E+03  0.25500000920E-02 0. -1.
       -2    1    3    3    0  502 -0.20975822765E+03  0.21291029048E+03  0.15644664602E+03  0.33734975755E+03  0.25500000920E-02 0.  1.
</event>
<event>
 5   0  0.8551000E-03  0.5989828E+03  0.7818609E-02  0.9907519E-01
       -3   -1    0    0    0  501  0.00000000000E+00  0.00000000000E+00  0.12399193656E+03  0.12399197769E+03  0.10100000352E+00 0.  1.
        3   -1    0    0  501    0  0.00000000000E+00  0.00000000000E+00 -0.72339433553E+03  0.72339434258E+03  0.10100000352E+00 0. -1.
    10030    2    1    2    0    0  0.00000000000E+00  0.00000000000E+00 -0.59940239897E+03  0.84738632027E+03  0.59898275426E+03 0.  0.
        4    1    3    3  502    0  0.13141511067E+03 -0.71343416487E+02 -0.66680022666E+03  0.68336225354E+03  0.12699999809E+01 0. -1.
       -4    1    3    3    0  502 -0.13141511067E+03  0.71343416487E+02  0.67397827693E+02  0.16402406673E+03  0.12699999809E+01 0.  1.
</event>
<event>
 5   0  0.1332555E-02  0.5979095E+03  0.7818609E-02  0.9909753E-01
       -1   -1    0    0    0  501  0.00000000000E+00  0.00000000000E+00  0.50515953380E+03  0.50515953382E+03  0.50400001928E-02 0. -1.
        1   -1    0    0  501    0  0.00000000000E+00  0.00000000000E+00 -0.17692220535E+03  0.17692220542E+03  0.50400001928E-02 0.  1.
    10030    2    1    2    0    0  0.00000000000E+00  0.00000000000E+00  0.32823732845E+03  0.68208173924E+03  0.59790948748E+03 0.  0.
        2    1    3    3  502    0 -0.13102384675E+03  0.16277990473E+03 -0.79776789476E+02  0.22367137042E+03  0.25500000920E-02 0.  1.
       -2    1    3    3    0  502  0.13102384675E+03 -0.16277990473E+03  0.40801411793E+03  0.45841036881E+03  0.25500000920E-02 0. -1.
</event>
<event>
 5   0  0.2126207E-02  0.6043225E+03  0.7818609E-02  0.9896479E-01
        2   -1    0    0  501    0  0.00000000000E+00  0.00000000000E+00  0.42588547204E+03  0.42588547205E+03  0.25500000920E-02 0. -1.
       -2   -1    0    0    0  501  0.00000000000E+00  0.00000000000E+00 -0.21438022807E+03  0.21438022809E+03  0.25500000920E-02 0.  1.
    10030    2    1    2    0    0  0.00000000000E+00  0.00000000000E+00  0.21150524396E+03  0.64026570013E+03  0.60432251203E+03 0.  0.
        5    1    3    3  502    0 -0.25447572079E+03 -0.12180288505E+03  0.22028152526E+03  0.35796630518E+03  0.46999998093E+01 0.  1.
       -5    1    3    3    0  502  0.25447572079E+03  0.12180288505E+03 -0.87762812977E+01  0.28229939495E+03  0.46999998093E+01 0. -1.
</event>
<event>
 5   0  0.2142838E-02  0.6014942E+03  0.7818609E-02  0.9902311E-01
        2   -1    0    0  501    0  0.00000000000E+00  0.00000000000E+00  0.86292761496E+03  0.86292761496E+03  0.25500000920E-02 0. -1.
       -2   -1    0    0    0  501  0.00000000000E+00  0.00000000000E+00 -0.10481621608E+03  0.10481621611E+03  0.25500000920E-02 0.  1.
    10030    2    1    2    0    0  0.00000000000E+00  0.00000000000E+00  0.75811139888E+03  0.96774383107E+03  0.60149416411E+03 0.  0.
        4    1    3    3  502    0 -0.26245165398E+03 -0.63598213222E+02  0.16608700744E+03  0.31703644955E+03  0.12699999809E+01 0.  1.
       -4    1    3    3    0  502  0.26245165398E+03  0.63598213222E+02  0.59202439144E+03  0.65070738152E+03  0.12699999809E+01 0. -1.
</event>
<event>
 5   0  0.1332555E-02  0.6048587E+03  0.7818609E-02  0.9895377E-01
        1   -1    0    0  501    0  0.00000000000E+00  0.00000000000E+00  0.19785284632E+03  0.19785284638E+03  0.50400001928E-02 0.  1.
       -1   -1    0    0    0  501  0.00000000000E+00  0.00000000000E+00 -0.46228053786E+03  0.46228053788E+03  0.50400001928E-02 0. -1.
    10030    2    1    2    0    0  0.00000000000E+00  0.00000000000E+00 -0.26442769154E+03  0.66013338426E+03  0.60485872810E+03 0.  0.
        2    1    3    3  502    0 -0.57539200161E+02  0.22442984113E+03 -0.34435833343E+03  0.41504478668E+03  0.25500000920E-02 0. -1.
       -2    1    3    3    0  502  0.57539200161E+02 -0.22442984113E+03  0.79930641891E+02  0.24508859758E+03  0.25500000920E-02 0.  1.
</event>
<event>
 5   0  0.1276705E-02  0.6011703E+03  0.7818609E-02  0.9902981E-01
        1   -1    0    0  501    0  0.00000000000E+00  0.00000000000E+00  0.20999303654E+03  0.20999303660E+03  0.50400001928E-02 0. -1.
       -1   -1    0    0    0  501  0.00000000000E+00  0.00000000000E+00 -0.43025921953E+03  0.43025921956E+03  0.50400001928E-02 0.  1.
    10030    2    1    2    0    0  0.00000000000E+00  0.00000000000E+00 -0.22026618299E+03  0.64025225616E+03  0.60117032541E+03 0.  0.
        1    1    3    3  502    0  0.22622787196E+02 -0.28626139708E+03 -0.15508536430E+02  0.28757241295E+03  0.50400001928E-02 0. -1.
       -1    1    3    3    0  502 -0.22622787196E+02  0.28626139708E+03 -0.20475764656E+03  0.35267984322E+03  0.50400001928E-02 0.  1.
</event>
<event>
 5   0  0.1250390E-02  0.5920290E+03  0.7818609E-02  0.9922083E-01
        1   -1    0    0  501    0  0.00000000000E+00  0.00000000000E+00  0.35665688063E+03  0.35665688066E+03  0.50400001928E-02 0.  1.
       -1   -1    0    0    0  501  0.00000000000E+00  0.00000000000E+00 -0.24568317174E+03  0.24568317179E+03  0.50400001928E-02 0. -1.
    10030    2    1    2    0    0  0.00000000000E+00  0.00000000000E+00  0.11097370888E+03  0.60234005246E+03  0.59202903200E+03 0.  0.
        3    1    3    3  502    0 -0.12607592203E+03  0.17319689917E+03  0.26332956224E+03  0.33946247591E+03  0.10100000352E+00 0.  1.
       -3    1    3    3    0  502  0.12607592203E+03 -0.17319689917E+03 -0.15235585336E+03  0.26287757655E+03  0.10100000352E+00 0. -1.
</event>
<event>
 5   0  0.2141800E-02  0.6033948E+03  0.7818609E-02  0.9898388E-01
        2   -1    0    0  501    0  0.00000000000E+00  0.00000000000E+00  0.47701521452E+03  0.47701521452E+03  0.25500000920E-02 0. -1.
       -2   -1    0    0    0  501  0.00000000000E+00  0.00000000000E+00 -0.19081429448E+03  0.19081429450E+03  0.25500000920E-02 0.  1.
    10030    2    1    2    0    0  0.00000000000E+00  0.00000000000E+00  0.28620092004E+03  0.66782950902E+03  0.60339480151E+03 0.  0.
        2    1    3    3  502    0  0.23883291393E+03 -0.51458907934E+01 -0.60841914072E+02  0.24651446100E+03  0.25500000920E-02 0.  1.
       -2    1    3    3    0  502 -0.23883291393E+03  0.51458907934E+01  0.34704283411E+03  0.42131504802E+03  0.25500000920E-02 0. -1.
</event>
<event>
 5   0  0.1276705E-02  0.5953075E+03  0.7818609E-02  0.9915190E-01
       -1   -1    0    0    0  501  0.00000000000E+00  0.00000000000E+00  0.16943712266E+03  0.16943712274E+03  0.50400001928E-02 0.  1.
        1   -1    0    0  501    0  0.00000000000E+00  0.00000000000E+00 -0.52289458702E+03  0.52289458705E+03  0.50400001928E-02 0. -1.
    10030    2    1    2    0    0  0.00000000000E+00  0.00000000000E+00 -0.35345746436E+03  0.69233170978E+03  0.59530749807E+03 0.  0.
        1    1    3    3  502    0 -0.15839979264E+03 -0.81496885164E+02 -0.45405906276E+03  0.48775185197E+03  0.50400001928E-02 0. -1.
       -1    1    3    3    0  502  0.15839979264E+03  0.81496885164E+02  0.10060159840E+03  0.20457985782E+03  0.50400001928E-02 0.  1.
</event>
<event>
 5   0  0.2126207E-02  0.5994709E+03  0.7818609E-02  0.9906504E-01
       -2   -1    0    0    0  501  0.00000000000E+00  0.00000000000E+00  0.29739398350E+03  0.29739398351E+03  0.25500000920E-02 0.  1.
        2   -1    0    0  501    0  0.00000000000E+00  0.00000000000E+00 -0.30209540033E+03  0.30209540034E+03  0.25500000920E-02 0. -1.
    10030    2    1    2    0    0  0.00000000000E+00  0.00000000000E+00 -0.47014168270E+01  0.59948938385E+03  0.59947094844E+03 0.  0.
        5    1    3    3  502    0  0.39790595910E+01 -0.53156666783E+01  0.29728356372E+03  0.29739484946E+03  0.46999998093E+01 0.  1.
       -5    1    3    3    0  502 -0.39790595910E+01  0.53156666783E+01 -0.30198498055E+03  0.30209453438E+03  0.46999998093E+01 0. -1.
</event>
<event>
 5   0  0.1276705E-02  0.5996187E+03  0.7818609E-02  0.9906198E-01
        1   -1    0    0  501    0  0.00000000000E+00  0.00000000000E+00  0.29562263754E+03  0.29562263758E+03  0.50400001928E-02 0.  1.
       -1   -1    0    0    0  501  0.00000000000E+00  0.00000000000E+00 -0.30405531623E+03  0.30405531628E+03  0.50400001928E-02 0. -1.
    10030    2    1    2    0    0  0.00000000000E+00  0.00000000000E+00 -0.84326786954E+01  0.59967795386E+03  0.59961866071E+03 0.  0.
        1    1    3    3  502    0 -0.15282659669E+03 -0.17144716804E+03  0.18850853995E+03  0.29712887733E+03  0.50400001928E-02 0.  1.
       -1    1    3    3    0  502  0.15282659669E+03  0.17144716804E+03 -0.19694121864E+03  0.30254907653E+03  0.50400001928E-02 0. -1.
</event>
<event>
 5   0  0.2141800E-02  0.5997701E+03  0.7818609E-02  0.9905883E-01
        2   -1    0    0  501    0  0.00000000000E+00  0.00000000000E+00  0.84032436153E+03  0.84032436154E+03  0.25500000920E-02 0.  1.
       -2   -1    0    0    0  501  0.00000000000E+00  0.00000000000E+00 -0.10701942385E+03  0.10701942388E+03  0.25500000920E-02 0. -1.
    10030    2    1    2    0    0  0.00000000000E+00  0.00000000000E+00  0.73330493768E+03  0.94734378542E+03  0.59977005273E+03 0.  0.
        2    1    3    3  502    0 -0.23053019672E+03 -0.15015576872E+03  0.55513859635E+03  0.61957226184E+03  0.25500000920E-02 0.  1.
       -2    1    3    3    0  502  0.23053019672E+03  0.15015576872E+03  0.17816634133E+03  0.32777152358E+03  0.25500000920E-02 0. -1.
</event>
<event>
 5   0  0.1337051E-02  0.5971132E+03  0.7818609E-02  0.9911413E-01
        1   -1    0    0  501    0  0.00000000000E+00  0.00000000000E+00  0.27302212967E+03  0.27302212971E+03  0.50400001928E-02 0. -1.
       -1   -1    0    0    0  501  0.00000000000E+00  0.00000000000E+00 -0.32647915556E+03  0.32647915560E+03  0.50400001928E-02 0.  1.
    10030    2    1    2    0    0  0.00000000000E+00  0.00000000000E+00 -0.53457025893E+02  0.59950128531E+03  0.59711316974E+03 0.  0.
        5    1    3    3  502    0  0.24034858657E+03  0.16437417600E+03 -0.92776351369E+02  0.30564007291E+03  0.46999998093E+01 0. -1.
       -5    1    3    3    0  502 -0.24034858657E+03 -0.16437417600E+03  0.39319325477E+02  0.29386121240E+03  0.46999998093E+01 0.  1.
</event>
<event>
 5   0  0.2126207E-02  0.6001583E+03  0.7818609E-02  0.9905078E-01
       -2   -1    0    0    0  501  0.00000000000E+00  0.00000000000E+00  0.57095945929E+02  0.57095945986E+02  0.25500000920E-02 0. -1.
        2   -1    0    0  501    0  0.00000000000E+00  0.00000000000E+00 -0.15771260814E+04  0.15771260814E+04  0.25500000920E-02 0.  1.
    10030    2    1    2    0    0  0.00000000000E+00  0.00000000000E+00 -0.15200301355E+04  0.16342220274E+04  0.60015833083E+03 0.  0.
        5    1    3    3  502    0  0.57460610468E+02 -0.81426810530E+02  0.10610652948E+02  0.10033306126E+03  0.46999998093E+01 0. -1.
       -5    1    3    3    0  502 -0.57460610468E+02  0.81426810530E+02 -0.15306407884E+04  0.15338889661E+04  0.46999998093E+01 0.  1.
</event>
<event>
 5   0  0.1276705E-02  0.6025451E+03  0.7818609E-02  0.9900140E-01
        1   -1    0    0  501    0  0.00000000000E+00  0.00000000000E+00  0.13341106649E+04  0.13341106649E+04  0.50400001928E-02 0. -1.
       -1   -1    0    0    0  501  0.00000000000E+00  0.00000000000E+00 -0.68034196803E+02  0.68034196990E+02  0.50400001928E-02 0.  1.
    10030    2    1    2    0    0  0.00000000000E+00  0.00000000000E+00  0.12660764681E+04  0.14021448619E+04  0.60254509431E+03 0.  0.
        1    1    3    3  502    0  0.64997488819E+02  0.19600958605E+03  0.11435072320E+04  0.11620039678E+04  0.50400001928E-02 0. -1.
       -1    1    3    3    0  502 -0.64997488819E+02 -0.19600958605E+03  0.12256923606E+03  0.24014089413E+03  0.50400001928E-02 0.  1.
</event>
<event>
 5   0  0.1332555E-02  0.5670291E+03  0.7818609E-02  0.9976274E-01
        1   -1    0    0  501    0  0.00000000000E+00  0.00000000000E+00  0.11265992183E+03  0.11265992194E+03  0.50400001928E-02 0. -1.
       -1   -1    0    0    0  501  0.00000000000E+00  0.00000000000E+00 -0.71347907177E+03  0.71347907179E+03  0.50400001928E-02 0.  1.
    10030    2    1    2    0    0  0.00000000000E+00  0.00000000000E+00 -0.60081914995E+03  0.82613899373E+03  0.56702908745E+03 0.  0.
        2    1    3    3  502    0  0.25017193588E+03 -0.13279221585E+03 -0.28193853297E+03  0.39963621767E+03  0.25500000920E-02 0. -1.
       -2    1    3    3    0  502 -0.25017193588E+03  0.13279221585E+03 -0.31888061698E+03  0.42650277606E+03  0.25500000920E-02 0.  1.
</event>
<event>
 5   0  0.2092587E-02  0.6001132E+03  0.7818609E-02  0.9905171E-01
        2   -1    0    0  501    0  0.00000000000E+00  0.00000000000E+00  0.12824709637E+04  0.12824709637E+04  0.25500000920E-02 0. -1.
       -2   -1    0    0    0  501  0.00000000000E+00  0.00000000000E+00 -0.70203501269E+02  0.70203501316E+02  0.25500000920E-02 0.  1.
    10030    2    1    2    0    0  0.00000000000E+00  0.00000000000E+00  0.12122674624E+04  0.13526744650E+04  0.60011316252E+03 0.  0.
        3    1    3    3  502    0  0.94863908373E+02  0.62419217194E+02  0.12321650745E+04  0.12373868032E+04  0.10100000352E+00 0. -1.
       -3    1    3    3    0  502 -0.94863908373E+02 -0.62419217194E+02 -0.19897612095E+02  0.11528766176E+03  0.10100000352E+00 0.  1.
</event>
<event>
 5   0  0.1250390E-02  0.6013178E+03  0.7818609E-02  0.9902676E-01
       -1   -1    0    0    0  501  0.00000000000E+00  0.00000000000E+00  0.21094303502E+03  0.21094303508E+03  0.50400001928E-02 0. -1.
        1   -1    0    0  501    0  0.00000000000E+00  0.00000000000E+00 -0.42853161844E+03  0.42853161847E+03  0.50400001928E-02 0.  1.
    10030    2    1    2    0    0  0.00000000000E+00  0.00000000000E+00 -0.21758858342E+03  0.63947465355E+03  0.60131775369E+03 0.  0.
        3    1    3    3  502    0 -0.80736247082E+02  0.28476325334E+03 -0.16493928169E+03  0.33884130340E+03  0.10100000352E+00 0.  1.
       -3    1    3    3    0  502  0.80736247082E+02 -0.28476325334E+03 -0.52649301726E+02  0.30063335015E+03  0.10100000352E+00 0. -1.
</event>
<event>
 5   0  0.2179625E-02  0.6023266E+03  0.7818609E-02  0.9900591E-01
       -2   -1    0    0    0  501  0.00000000000E+00  0.00000000000E+00  0.14680272074E+03  0.14680272076E+03  0.25500000920E-02 0. -1.
        2   -1    0    0  501    0  0.00000000000E+00  0.00000000000E+00 -0.61783148516E+03  0.61783148517E+03  0.25500000920E-02 0.  1.
    10030    2    1    2    0    0  0.00000000000E+00  0.00000000000E+00 -0.47102876442E+03  0.76463420593E+03  0.60232663228E+03 0.  0.
        1    1    3    3  502    0 -0.68555135319E+02 -0.68531552099E+02  0.12645750498E+03  0.15933574866E+03  0.50400001928E-02 0. -1.
       -1    1    3    3    0  502  0.68555135319E+02  0.68531552099E+02 -0.59748626940E+03  0.60529845726E+03  0.50400001928E-02 0.  1.
</event>
<event>
 5   0  0.1276705E-02  0.5993001E+03  0.7818609E-02  0.9906859E-01
        1   -1    0    0  501    0  0.00000000000E+00  0.00000000000E+00  0.97673724074E+03  0.97673724075E+03  0.50400001928E-02 0.  1.
       -1   -1    0    0    0  501  0.00000000000E+00  0.00000000000E+00 -0.91928677943E+02  0.91928678081E+02  0.50400001928E-02 0. -1.
    10030    2    1    2    0    0  0.00000000000E+00  0.00000000000E+00  0.88480856280E+03  0.10686659188E+04  0.59930013622E+03 0.  0.
        1    1    3    3  502    0 -0.40987127246E+02  0.17118904274E+03  0.87482149686E+03  0.89235546973E+03  0.50400001928E-02 0.  1.
       -1    1    3    3    0  502  0.40987127246E+02 -0.17118904274E+03  0.99870659360E+01  0.17631044911E+03  0.50400001928E-02 0. -1.
</event>
<event>
 5   0  0.2141800E-02  0.5995822E+03  0.7818609E-02  0.9906273E-01
        2   -1    0    0  501    0  0.00000000000E+00  0.00000000000E+00  0.96093201527E+03  0.96093201528E+03  0.25500000920E-02 0. -1.
       -2   -1    0    0    0  501  0.00000000000E+00  0.00000000000E+00 -0.93528671424E+02  0.93528671459E+02  0.25500000920E-02 0.  1.
    10030    2    1    2    0    0  0.00000000000E+00  0.00000000000E+00  0.86740334385E+03  0.10544606867E+04  0.59958217031E+03 0.  0.
        2    1    3    3  502    0  0.29220143225E+03 -0.21028474459E+02  0.32176994397E+03  0.43515488116E+03  0.25500000920E-02 0.  1.
       -2    1    3    3    0  502 -0.29220143225E+03  0.21028474459E+02  0.54563339988E+03  0.61930580557E+03  0.25500000920E-02 0. -1.
</event>
<event>
 5   0  0.1250390E-02  0.5979662E+03  0.7818609E-02  0.9909635E-01
        1   -1    0    0  501    0  0.00000000000E+00  0.00000000000E+00  0.27225599998E+03  0.27225600002E+03  0.50400001928E-02 0. -1.
       -1   -1    0    0    0  501  0.00000000000E+00  0.00000000000E+00 -0.32833399630E+03  0.32833399634E+03  0.50400001928E-02 0.  1.
    10030    2    1    2    0    0  0.00000000000E+00  0.00000000000E+00 -0.56077996322E+02  0.60058999636E+03  0.59796622150E+03 0.  0.
        3    1    3    3  502    0 -0.28766784534E+03 -0.68991723517E+02  0.15489867529E+02  0.29623064215E+03  0.10100000352E+00 0.  1.
       -3    1    3    3    0  502  0.28766784534E+03  0.68991723517E+02 -0.71567863850E+02  0.30435935420E+03  0.10100000352E+00 0. -1.
</event>
<event>
 5   0  0.2142838E-02  0.5997797E+03  0.7818609E-02  0.9905863E-01
       -2   -1    0    0    0  501  0.00000000000E+00  0.00000000000E+00  0.17876306156E+03  0.17876306158E+03  0.25500000920E-02 0. -1.
        2   -1    0    0  501    0  0.00000000000E+00  0.00000000000E+00 -0.50309004480E+03  0.50309004481E+03  0.25500000920E-02 0.  1.
    10030    2    1    2    0    0  0.00000000000E+00  0.00000000000E+00 -0.32432698324E+03  0.68185310639E+03  0.59977968175E+03 0.  0.
        4    1    3    3  502    0  0.29938997940E+03  0.71137883559E+01 -0.14428443881E+03  0.33242228856E+03  0.12699999809E+01 0. -1.
       -4    1    3    3    0  502 -0.29938997940E+03 -0.71137883559E+01 -0.18004254443E+03  0.34943081783E+03  0.12699999809E+01 0.  1.
</event>
<event>
 5   0  0.2179625E-02  0.5992360E+03  0.7818609E-02  0.9906992E-01
       -2   -1    0    0    0  501  0.00000000000E+00  0.00000000000E+00  0.12376511386E+03  0.12376511389E+03  0.25500000920E-02 0.  1.
        2   -1    0    0  501    0  0.00000000000E+00  0.00000000000E+00 -0.72533320082E+03  0.72533320082E+03  0.25500000920E-02 0. -1.
    10030    2    1    2    0    0  0.00000000000E+00  0.00000000000E+00 -0.60156808696E+03  0.84909831471E+03  0.59923600091E+03 0.  0.
        1    1    3    3  502    0 -0.38605958453E+02 -0.17304454356E+03 -0.64302251104E+03  0.66701782870E+03  0.50400001928E-02 0. -1.
       -1    1    3    3    0  502  0.38605958453E+02  0.17304454356E+03  0.41454424078E+02  0.18208048600E+03  0.50400001928E-02 0.  1.
</event>
<event>
 5   0  0.1250390E-02  0.5989711E+03  0.7818609E-02  0.9907543E-01
       -1   -1    0    0    0  501  0.00000000000E+00  0.00000000000E+00  0.23891840753E+03  0.23891840758E+03  0.50400001928E-02 0. -1.
        1   -1    0    0  501    0  0.00000000000E+00  0.00000000000E+00 -0.37540679676E+03  0.37540679679E+03  0.50400001928E-02 0.  1.
    10030    2    1    2    0    0  0.00000000000E+00  0.00000000000E+00 -0.13648838923E+03  0.61432520437E+03  0.59897109808E+03 0.  0.
        3    1    3    3  502    0 -0.12858387502E+03 -0.18025461046E+03  0.13858338161E+03  0.26121045416E+03  0.10100000352E+00 0. -1.
       -3    1    3    3    0  502  0.12858387502E+03  0.18025461046E+03 -0.27507177083E+03  0.35311475021E+03  0.10100000352E+00 0.  1.
</event>
<event>
 5   0  0.1337051E-02  0.5997707E+03  0.7818609E-02  0.9905882E-01
        1   -1    0    0  501    0  0.00000000000E+00  0.00000000000E+00  0.19090691426E+03  0.19090691433E+03  0.50400001928E-02 0.  1.
       -1   -1    0    0    0  501  0.00000000000E+00  0.00000000000E+00 -0.47107372421E+03  0.47107372423E+03  0.50400001928E-02 0. -1.
    10030    2    1    2    0    0  0.00000000000E+00  0.00000000000E+00 -0.28016680994E+03  0.66198063856E+03  0.59977072656E+03 0.  0.
        5    1    3    3  502    0  0.26201443302E+03  0.14231338705E+03 -0.10510256704E+03  0.31618555128E+03  0.46999998093E+01 0.  1.
       -5    1    3    3    0  502 -0.26201443302E+03 -0.14231338705E+03 -0.17506424291E+03  0.34579508728E+03  0.46999998093E+01 0. -1.
</event>
<event>
 5   0  0.1250390E-02  0.6000667E+03  0.7818609E-02  0.9905268E-01
       -1   -1    0    0    0  501  0.00000000000E+00  0.00000000000E+00  0.20526031716E+03  0.20526031722E+03  0.50400001928E-02 0.  1.
        1   -1    0    0  501    0  0.00000000000E+00  0.00000000000E+00 -0.43856506633E+03  0.43856506636E+03  0.50400001928E-02 0. -1.
    10030    2    1    2    0    0  0.00000000000E+00  0.00000000000E+00 -0.23330474917E+03  0.64382538359E+03  0.60006667843E+03 0.  0.
        3    1    3    3  502    0  0.27189058168E+03 -0.91166105565E+02 -0.21990108973E+02  0.28760967004E+03  0.10100000352E+00 0.  1.
       -3    1    3    3    0  502 -0.27189058168E+03  0.91166105565E+02 -0.21131464020E+03  0.35621571354E+03  0.10100000352E+00 0. -1.
</event>
<event>
 5   0  0.1337051E-02  0.6008423E+03  0.7818609E-02  0.9903660E-01
       -1   -1    0    0    0  501  0.00000000000E+00  0.00000000000E+00  0.45493539021E+03  0.45493539023E+03  0.50400001928E-02 0.  1.
        1   -1    0    0  501    0  0.00000000000E+00  0.00000000000E+00 -0.19838609906E+03  0.19838609912E+03  0.50400001928E-02 0. -1.
    10030    2    1    2    0    0  0.00000000000E+00  0.00000000000E+00  0.25654929115E+03  0.65332148936E+03  0.60084226688E+03 0.  0.
        5    1    3    3  502    0  0.16445610109E+03  0.45838443974E+02  0.39701288891E+03  0.43219011568E+03  0.46999998093E+01 0.  1.
       -5    1    3    3    0  502 -0.16445610109E+03 -0.45838443974E+02 -0.14046359776E+03  0.22113137368E+03  0.46999998093E+01 0. -1.
</event>
<event>
 5   0  0.2141800E-02  0.6005990E+03  0.7818609E-02  0.9904164E-01
       -2   -1    0    0    0  501  0.00000000000E+00  0.00000000000E+00  0.28067235334E+03  0.28067235335E+03  0.25500000920E-02 0. -1.
        2   -1    0    0  501    0  0.00000000000E+00  0.00000000000E+00 -0.32129914367E+03  0.32129914368E+03  0.25500000920E-02 0.  1.
    10030    2    1    2    0    0  0.00000000000E+00  0.00000000000E+00 -0.40626790334E+02  0.60197149703E+03  0.60059899030E+03 0.  0.
        2    1    3    3  502    0 -0.22732798951E+03 -0.11860871290E+03 -0.17698357815E+03  0.31155934994E+03  0.25500000920E-02 0.  1.
       -2    1    3    3    0  502  0.22732798951E+03  0.11860871290E+03  0.13635678782E+03  0.29041214710E+03  0.25500000920E-02 0. -1.
</event>
<event>
 5   0  0.1276705E-02  0.5977126E+03  0.7818609E-02  0.9910163E-01
       -1   -1    0    0    0  501  0.00000000000E+00  0.00000000000E+00  0.28884831247E+03  0.28884831252E+03  0.50400001928E-02 0.  1.
        1   -1    0    0  501    0  0.00000000000E+00  0.00000000000E+00 -0.30921105026E+03  0.30921105030E+03  0.50400001928E-02 0. -1.
    10030    2    1    2    0    0  0.00000000000E+00  0.00000000000E+00 -0.20362737786E+02  0.59805936282E+03  0.59771260683E+03 0.  0.
        1    1    3    3  502    0  0.12293001892E+03  0.71919838238E+02 -0.27307099494E+03  0.30798055293E+03  0.50400001928E-02 0. -1.
       -1    1    3    3    0  502 -0.12293001892E+03 -0.71919838238E+02  0.25270825715E+03  0.29007880988E+03  0.50400001928E-02 0.  1.
</event>
<event>
 5   0  0.2179625E-02  0.5992936E+03  0.7818609E-02  0.9906873E-01
       -2   -1    0    0    0  501  0.00000000000E+00  0.00000000000E+00  0.14568444724E+03  0.14568444727E+03  0.25500000920E-02 0.  1.
        2   -1    0    0  501    0  0.00000000000E+00  0.00000000000E+00 -0.61631981191E+03  0.61631981191E+03  0.25500000920E-02 0. -1.
    10030    2    1    2    0    0  0.00000000000E+00  0.00000000000E+00 -0.47063536466E+03  0.76200425918E+03  0.59929362130E+03 0.  0.
        1    1    3    3  502    0  0.97844682773E+02 -0.22907561563E+03 -0.44708701947E+03  0.51179685679E+03  0.50400001928E-02 0. -1.
       -1    1    3    3    0  502 -0.97844682773E+02  0.22907561563E+03 -0.23548345193E+02  0.25020740238E+03  0.50400001928E-02 0.  1.
</event>
<event>
 5   0  0.2142838E-02  0.5994569E+03  0.7818609E-02  0.9906533E-01
       -2   -1    0    0    0  501  0.00000000000E+00  0.00000000000E+00  0.15416758183E+03  0.15416758185E+03  0.25500000920E-02 0. -1.
        2   -1    0    0  501    0  0.00000000000E+00  0.00000000000E+00 -0.58272395063E+03  0.58272395064E+03  0.25500000920E-02 0.  1.
    10030    2    1    2    0    0  0.00000000000E+00  0.00000000000E+00 -0.42855636880E+03  0.73689153249E+03  0.59945689538E+03 0.  0.
        4    1    3    3  502    0 -0.20546588983E+03  0.29467199965E+01  0.53945731747E+02  0.21245392421E+03  0.12699999809E+01 0. -1.
       -4    1    3    3    0  502  0.20546588983E+03 -0.29467199965E+01 -0.48250210055E+03  0.52443760828E+03  0.12699999809E+01 0.  1.
</event>
<event>
 5   0  0.1250390E-02  0.5986838E+03  0.7818609E-02  0.9908141E-01
       -1   -1    0    0    0  501  0.00000000000E+00  0.00000000000E+00  0.69343098504E+02  0.69343098687E+02  0.50400001928E-02 0. -1.
        1   -1    0    0  501    0  0.00000000000E+00  0.00000000000E+00 -0.12922059505E+04  0.12922059505E+04  0.50400001928E-02 0.  1.
    10030    2    1    2    0    0  0.00000000000E+00  0.00000000000E+00 -0.12228628520E+04  0.13615490492E+04  0.59868377178E+03 0.  0.
        3    1    3    3  502    0  0.10002890955E+03  0.26971202847E+03 -0.79972940598E+03  0.84989263677E+03  0.10100000352E+00 0.  1.
       -3    1    3    3    0  502 -0.10002890955E+03 -0.26971202847E+03 -0.42313344605E+03  0.51165641246E+03  0.10100000352E+00 0. -1.
</event>
<event>
 5   0  0.2092587E-02  0.5662806E+03  0.7818609E-02  0.9977943E-01
        2   -1    0    0  501    0  0.00000000000E+00  0.00000000000E+00  0.92598941359E+02  0.92598941394E+02  0.25500000920E-02 0.  1.
       -2   -1    0    0    0  501  0.00000000000E+00  0.00000000000E+00 -0.86575952420E+03  0.86575952420E+03  0.25500000920E-02 0. -1.
    10030    2    1    2    0    0  0.00000000000E+00  0.00000000000E+00 -0.77316058284E+03  0.95835846560E+03  0.56628055037E+03 0.  0.
        3    1    3    3  502    0  0.28208729994E+03 -0.66558743820E+01 -0.42630098926E+03  0.51122410849E+03  0.10100000352E+00 0. -1.
       -3    1    3    3    0  502 -0.28208729994E+03  0.66558743820E+01 -0.34685959358E+03  0.44713435711E+03  0.10100000352E+00 0.  1.
</event>
<event>
 5   0  0.2092587E-02  0.6067820E+03  0.7818609E-02  0.9891435E-01
       -2   -1    0    0    0  501  0.00000000000E+00  0.00000000000E+00  0.61050863722E+02  0.61050863775E+02  0.25500000920E-02 0.  1.
        2   -1    0    0  501    0  0.00000000000E+00  0.00000000000E+00 -0.15076952777E+04  0.15076952777E+04  0.25500000920E-02 0. -1.
    10030    2    1    2    0    0  0.00000000000E+00  0.00000000000E+00 -0.14466444140E+04  0.15687461415E+04  0.60678200031E+03 0.  0.
        3    1    3    3  502    0  0.25151996177E+02 -0.33846130190E+02 -0.15000818683E+04  0.15006744501E+04  0.10100000352E+00 0. -1.
       -3    1    3    3    0  502 -0.25151996177E+02  0.33846130190E+02  0.53437454315E+02  0.68071691364E+02  0.10100000352E+00 0.  1.
</event>
<event>
 5   0  0.1332555E-02  0.5960507E+03  0.7818609E-02  0.9913634E-01
       -1   -1    0    0    0  501  0.00000000000E+00  0.00000000000E+00  0.89223147230E+02  0.89223147373E+02  0.50400001928E-02 0.  1.
        1   -1    0    0  501    0  0.00000000000E+00  0.00000000000E+00 -0.99547158815E+03  0.99547158816E+03  0.50400001928E-02 0. -1.
    10030    2    1    2    0    0  0.00000000000E+00  0.00000000000E+00 -0.90624844092E+03  0.10846947355E+04  0.59605069636E+03 0.  0.
        2    1    3    3  502    0  0.28822082652E+03  0.64633576423E+02 -0.38100940227E+03  0.48209636866E+03  0.25500000920E-02 0. -1.
       -2    1    3    3    0  502 -0.28822082652E+03 -0.64633576423E+02 -0.52523903865E+03  0.60259836688E+03  0.25500000920E-02 0.  1.
</event>
<event>
 5   0  0.1250390E-02  0.5990306E+03  0.7818609E-02  0.9907419E-01
        1   -1    0    0  501    0  0.00000000000E+00  0.00000000000E+00  0.15106593903E+04  0.15106593903E+04  0.50400001928E-02 0. -1.
       -1   -1    0    0    0  501  0.00000000000E+00  0.00000000000E+00 -0.59384277947E+02  0.59384278161E+02  0.50400001928E-02 0.  1.
    10030    2    1    2    0    0  0.00000000000E+00  0.00000000000E+00  0.14512751123E+04  0.15700436685E+04  0.59903060787E+03 0.  0.
        3    1    3    3  502    0 -0.68404793155E+02 -0.10670221650E+03  0.14369064983E+04  0.14424856581E+04  0.10100000352E+00 0. -1.
       -3    1    3    3    0  502  0.68404793155E+02  0.10670221650E+03  0.14368614010E+02  0.12755801034E+03  0.10100000352E+00 0.  1.
</event>
<event>
 5   0  0.1276705E-02  0.6030044E+03  0.7818609E-02  0.9899192E-01
        1   -1    0    0  501    0  0.00000000000E+00  0.00000000000E+00  0.14886860032E+04  0.14886860032E+04  0.50400001928E-02 0. -1.
       -1   -1    0    0    0  501  0.00000000000E+00  0.00000000000E+00 -0.61062967862E+02  0.61062968070E+02  0.50400001928E-02 0.  1.
    10030    2    1    2    0    0  0.00000000000E+00  0.00000000000E+00  0.14276230354E+04  0.15497489713E+04  0.60300443030E+03 0.  0.
        1    1    3    3  502    0  0.22734095231E+02 -0.82218529269E+02 -0.29402255138E+02  0.90228699834E+02  0.50400001928E-02 0.  1.
       -1    1    3    3    0  502 -0.22734095231E+02  0.82218529269E+02  0.14570252905E+04  0.14595202715E+04  0.50400001928E-02 0. -1.
</event>
<event>
 5   0  0.2126207E-02  0.5983861E+03  0.7818609E-02  0.9908760E-01
       -2   -1    0    0    0  501  0.00000000000E+00  0.00000000000E+00  0.22822789636E+03  0.22822789637E+03  0.25500000920E-02 0. -1.
        2   -1    0    0  501    0  0.00000000000E+00  0.00000000000E+00 -0.39222414802E+03  0.39222414803E+03  0.25500000920E-02 0.  1.
    10030    2    1    2    0    0  0.00000000000E+00  0.00000000000E+00 -0.16399625166E+03  0.62045204440E+03  0.59838613691E+03 0.  0.
        5    1    3    3  502    0 -0.23402761764E+03 -0.14390187756E+03 -0.20476055690E+03  0.34267426493E+03  0.46999998093E+01 0.  1.
       -5    1    3    3    0  502  0.23402761764E+03  0.14390187756E+03  0.40764305244E+02  0.27777777947E+03  0.46999998093E+01 0. -1.
</event>
<event>
 5   0  0.2092587E-02  0.5939613E+03  0.7818609E-02  0.9918014E-01
        2   -1    0    0  501    0  0.00000000000E+00  0.00000000000E+00  0.25290449775E+03  0.25290449777E+03  0.25500000920E-02 0.  1.
       -2   -1    0    0    0  501  0.00000000000E+00  0.00000000000E+00 -0.34873843089E+03  0.34873843090E+03  0.25500000920E-02 0. -1.
    10030    2    1    2    0    0  0.00000000000E+00  0.00000000000E+00 -0.95833933136E+02  0.60164292867E+03  0.59396133786E+03 0.  0.
        3    1    3    3  502    0 -0.27441841846E+02  0.29544864766E+03 -0.35324397560E+02  0.29881563104E+03  0.10100000352E+00 0. -1.
       -3    1    3    3    0  502  0.27441841846E+02 -0.29544864766E+03 -0.60509535576E+02  0.30282729763E+03  0.10100000352E+00 0.  1.
</event>
<event>
 5   0  0.2142838E-02  0.5965264E+03  0.7818609E-02  0.9912639E-01
       -2   -1    0    0    0  501  0.00000000000E+00  0.00000000000E+00  0.92916889133E+02  0.92916889168E+02  0.25500000920E-02 0. -1.
        2   -1    0    0  501    0  0.00000000000E+00  0.00000000000E+00 -0.95742487613E+03  0.95742487614E+03  0.25500000920E-02 0.  1.
    10030    2    1    2    0    0  0.00000000000E+00  0.00000000000E+00 -0.86450798700E+03  0.10503417653E+04  0.59652641547E+03 0.  0.
        4    1    3    3  502    0 -0.27454955038E+03  0.10939188252E+03 -0.50302021718E+03  0.58341665332E+03  0.12699999809E+01 0.  1.
       -4    1    3    3    0  502  0.27454955038E+03 -0.10939188252E+03 -0.36148776981E+03  0.46692511198E+03  0.12699999809E+01 0. -1.
</event>
<event>
 5   0  0.2092587E-02  0.6001729E+03  0.7818609E-02  0.9905047E-01
        2   -1    0    0  501    0  0.00000000000E+00  0.00000000000E+00  0.84693436660E+03  0.84693436661E+03  0.25500000920E-02 0. -1.
       -2   -1    0    0    0  501  0.00000000000E+00  0.00000000000E+00 -0.10632687549E+03  0.10632687552E+03  0.25500000920E-02 0.  1.
    10030    2    1    2    0    0  0.00000000000E+00  0.00000000000E+00  0.74060749111E+03  0.95326124213E+03  0.60017292496E+03 0.  0.
        3    1    3    3  502    0 -0.11231860818E+02 -0.19271168087E+03  0.73522809669E+03  0.76014755870E+03  0.10100000352E+00 0. -1.
       -3    1    3    3    0  502  0.11231860818E+02  0.19271168087E+03  0.53793944240E+01  0.19311368343E+03  0.10100000352E+00 0.  1.
</event>
<event>
 5   0  0.1337051E-02  0.6012159E+03  0.7818609E-02  0.9902887E-01
        1   -1    0    0  501    0  0.00000000000E+00  0.00000000000E+00  0.18206902957E+04  0.18206902957E+04  0.50400001928E-02 0.  1.
       -1   -1    0    0    0  501  0.00000000000E+00  0.00000000000E+00 -0.49632355108E+02  0.49632355364E+02  0.50400001928E-02 0. -1.
    10030    2    1    2    0    0  0.00000000000E+00  0.00000000000E+00  0.17710579406E+04  0.18703226510E+04  0.60121592641E+03 0.  0.
        5    1    3    3  502    0 -0.27765165288E+03  0.86858180574E+02  0.65049077180E+03  0.71259744462E+03  0.46999998093E+01 0. -1.
       -5    1    3    3    0  502  0.27765165288E+03 -0.86858180574E+02  0.11205671688E+04  0.11577252064E+04  0.46999998093E+01 0.  1.
</event>
<event>
 5   0  0.1303808E-02  0.6016596E+03  0.7818609E-02  0.9901969E-01
        1   -1    0    0  501    0  0.00000000000E+00  0.00000000000E+00  0.20977903378E+03  0.20977903384E+03  0.50400001928E-02 0. -1.
       -1   -1    0    0    0  501  0.00000000000E+00  0.00000000000E+00 -0.43139948522E+03  0.43139948524E+03  0.50400001928E-02 0.  1.
    10030    2    1    2    0    0  0.00000000000E+00  0.00000000000E+00 -0.22162045144E+03  0.64117851908E+03  0.60165959548E+03 0.  0.
        4    1    3    3  502    0  0.14835264773E+03 -0.24908409120E+03 -0.19636780785E+03  0.35016185034E+03  0.12699999809E+01 0. -1.
       -4    1    3    3    0  502 -0.14835264773E+03  0.24908409120E+03 -0.25252643588E+02  0.29101666874E+03  0.12699999809E+01 0.  1.
</event>
<event>
 5   0  0.1337051E-02  0.5986725E+03  0.7818609E-02  0.9908164E-01
       -1   -1    0    0    0  501  0.00000000000E+00  0.00000000000E+00  0.84788602164E+03  0.84788602166E+03  0.50400001928E-02 0.  1.
        1   -1    0    0  501    0  0.00000000000E+00  0.00000000000E+00 -0.10567717602E+03  0.10567717614E+03  0.50400001928E-02 0. -1.
    10030    2    1    2    0    0  0.00000000000E+00  0.00000000000E+00  0.74220884563E+03  0.95356319779E+03  0.59867253291E+03 0.  0.
        5    1    3    3  502    0  0.16559495760E+03 -0.74549838967E+02 -0.78362398649E+01  0.18183196949E+03  0.46999998093E+01 0. -1.
       -5    1    3    3    0  502 -0.16559495760E+03  0.74549838967E+02  0.75004508549E+03  0.77173122831E+03  0.46999998093E+01 0.  1.
</event>
<event>
 5   0  0.1303808E-02  0.6004037E+03  0.7818609E-02  0.9904569E-01
        1   -1    0    0  501    0  0.00000000000E+00  0.00000000000E+00  0.55472715349E+03  0.55472715351E+03  0.50400001928E-02 0. -1.
       -1   -1    0    0    0  501  0.00000000000E+00  0.00000000000E+00 -0.16246033048E+03  0.16246033056E+03  0.50400001928E-02 0.  1.
    10030    2    1    2    0    0  0.00000000000E+00  0.00000000000E+00  0.39226682300E+03  0.71718748407E+03  0.60040371990E+03 0.  0.
        4    1    3    3  502    0 -0.69214578334E+02  0.22582453539E+03  0.41746322816E+03  0.47965043355E+03  0.12699999809E+01 0. -1.
       -4    1    3    3    0  502  0.69214578334E+02 -0.22582453539E+03 -0.25196405157E+02  0.23753705052E+03  0.12699999809E+01 0.  1.
</event>
<event>
 5   0  0.2092587E-02  0.5985761E+03  0.7818609E-02  0.9908365E-01
        2   -1    0    0  501    0  0.00000000000E+00  0.00000000000E+00  0.34168766419E+03  0.34168766420E+03  0.25500000920E-02 0.  1.
       -2   -1    0    0    0  501  0.00000000000E+00  0.00000000000E+00 -0.26214978288E+03  0.26214978289E+03  0.25500000920E-02 0. -1.
    10030    2    1    2    0    0  0.00000000000E+00  0.00000000000E+00  0.79537881311E+02  0.60383744708E+03  0.59857613379E+03 0.  0.
        3    1    3    3  502    0  0.67756540913E+02 -0.30203055786E+02  0.33226605861E+03  0.34044664387E+03  0.10100000352E+00 0.  1.
       -3    1    3    3    0  502 -0.67756540913E+02  0.30203055786E+02 -0.25272817730E+03  0.26339080321E+03  0.10100000352E+00 0. -1.
</event>
<event>
 5   0  0.1250390E-02  0.6003354E+03  0.7818609E-02  0.9904710E-01
        1   -1    0    0  501    0  0.00000000000E+00  0.00000000000E+00  0.19741078516E+03  0.19741078522E+03  0.50400001928E-02 0.  1.
       -1   -1    0    0    0  501  0.00000000000E+00  0.00000000000E+00 -0.45641205408E+03  0.45641205411E+03  0.50400001928E-02 0. -1.
    10030    2    1    2    0    0  0.00000000000E+00  0.00000000000E+00 -0.25900126893E+03  0.65382283933E+03  0.60033544617E+03 0.  0.
        3    1    3    3  502    0  0.18962366242E+03 -0.86661677624E+01 -0.38274391097E+03  0.42722961906E+03  0.10100000352E+00 0. -1.
       -3    1    3    3    0  502 -0.18962366242E+03  0.86661677624E+01  0.12374264204E+03  0.22659322027E+03  0.10100000352E+00 0.  1.
</event>
<event>
 5   0  0.2126207E-02  0.5990096E+03  0.7818609E-02  0.9907463E-01
        2   -1    0    0  501    0  0.00000000000E+00  0.00000000000E+00  0.46489145873E+03  0.46489145874E+03  0.25500000920E-02 0.  1.
       -2   -1    0    0    0  501  0.00000000000E+00  0.00000000000E+00 -0.19295498127E+03  0.19295498129E+03  0.25500000920E-02 0. -1.
    10030    2    1    2    0    0  0.00000000000E+00  0.00000000000E+00  0.27193647745E+03  0.65784644003E+03  0.59900959165E+03 0.  0.
        5    1    3    3  502    0 -0.39519947631E+02 -0.25074509467E+02  0.46080946443E+03  0.46320406927E+03  0.46999998093E+01 0.  1.
       -5    1    3    3    0  502  0.39519947631E+02  0.25074509467E+02 -0.18887298697E+03  0.19464237075E+03  0.46999998093E+01 0. -1.
</event>
<event>
 5   0  0.2092587E-02  0.5992653E+03  0.7818609E-02  0.9906931E-01
       -2   -1    0    0    0  501  0.00000000000E+00  0.00000000000E+00  0.54970059041E+02  0.54970059100E+02  0.25500000920E-02 0.  1.
        2   -1    0    0  501    0  0.00000000000E+00  0.00000000000E+00 -0.16332479892E+04  0.16332479892E+04  0.25500000920E-02 0. -1.
    10030    2    1    2    0    0  0.00000000000E+00  0.00000000000E+00 -0.15782779301E+04  0.16882180483E+04  0.59926534505E+03 0.  0.
        3    1    3    3  502    0 -0.19036264393E+03 -0.14231298855E+03 -0.27514445540E+03  0.36358685957E+03  0.10100000352E+00 0.  1.
       -3    1    3    3    0  502  0.19036264393E+03  0.14231298855E+03 -0.13031334747E+04  0.13246311887E+04  0.10100000352E+00 0. -1.
</event>
<event>
 5   0  0.1250390E-02  0.5963898E+03  0.7818609E-02  0.9912925E-01
        1   -1    0    0  501    0  0.00000000000E+00  0.00000000000E+00  0.13112684962E+03  0.13112684972E+03  0.50400001928E-02 0. -1.
       -1   -1    0    0    0  501  0.00000000000E+00  0.00000000000E+00 -0.67812339478E+03  0.67812339480E+03  0.50400001928E-02 0.  1.
    10030    2    1    2    0    0  0.00000000000E+00  0.00000000000E+00 -0.54699654516E+03  0.80925024451E+03  0.59638975329E+03 0.  0.
        3    1    3    3  502    0 -0.15145265592E+03  0.72096071252E+02  0.61042317192E+02  0.17849909009E+03  0.10100000352E+00 0. -1.
       -3    1    3    3    0  502  0.15145265592E+03 -0.72096071252E+02 -0.60803886235E+03  0.63075115442E+03  0.10100000352E+00 0.  1.
</event>
<event>
 5   0  0.2142838E-02  0.6018901E+03  0.7818609E-02  0.9901493E-01
        2   -1    0    0  501    0  0.00000000000E+00  0.00000000000E+00  0.23059185185E+03  0.23059185186E+03  0.25500000920E-02 0.  1.
       -2   -1    0    0    0  501  0.00000000000E+00  0.00000000000E+00 -0.39276284619E+03  0.39276284620E+03  0.25500000920E-02 0. -1.
    10030    2    1    2    0    0  0.00000000000E+00  0.00000000000E+00 -0.16217099434E+03  0.62335469806E+03  0.60189006321E+03 0.  0.
        4    1    3    3  502    0  0.70761086103E+02  0.15381900983E+03  0.17658189331E+03  0.24464299916E+03  0.12699999809E+01 0.  1.
       -4    1    3    3    0  502 -0.70761086103E+02 -0.15381900983E+03 -0.33875288766E+03  0.37871169890E+03  0.12699999809E+01 0. -1.
</event>
<event>
 5   0  0.8551000E-03  0.5991221E+03  0.7818609E-02  0.9907229E-01
       -4   -1    0    0    0  501  0.00000000000E+00  0.00000000000E+00  0.26800243048E+03  0.26800543957E+03  0.12699999809E+01 0.  1.
        4   -1    0    0  501    0  0.00000000000E+00  0.00000000000E+00 -0.33482978165E+03  0.33483219018E+03  0.12699999809E+01 0. -1.
    10030    2    1    2    0    0  0.00000000000E+00  0.00000000000E+00 -0.66827351178E+02  0.60283762975E+03  0.59912211859E+03 0.  0.
        2    1    3    3  502    0  0.23176350178E+03  0.11062780856E+03 -0.18859069537E+03  0.31862090825E+03  0.25500000920E-02 0. -1.
       -2    1    3    3    0  502 -0.23176350178E+03 -0.11062780856E+03  0.12176334419E+03  0.28421672150E+03  0.25500000920E-02 0.  1.
</event>
<event>
 5   0  0.1332555E-02  0.5988047E+03  0.7818609E-02  0.9907889E-01
        1   -1    0    0  501    0  0.00000000000E+00  0.00000000000E+00  0.30271300063E+03  0.30271300067E+03  0.50400001928E-02 0.  1.
       -1   -1    0    0    0  501  0.00000000000E+00  0.00000000000E+00 -0.29612792774E+03  0.29612792779E+03  0.50400001928E-02 0. -1.
    10030    2    1    2    0    0  0.00000000000E+00  0.00000000000E+00  0.65850728848E+01  0.59884092846E+03  0.59880472143E+03 0.  0.
        2    1    3    3  502    0  0.18097795119E+03 -0.48983760996E+02  0.23673618186E+03  0.30198749555E+03  0.25500000920E-02 0.  1.
       -2    1    3    3    0  502 -0.18097795119E+03  0.48983760996E+02 -0.23015110898E+03  0.29685343291E+03  0.25500000920E-02 0. -1.
</event>
<event>
 5   0  0.1303808E-02  0.5943478E+03  0.7818609E-02  0.9917203E-01
       -1   -1    0    0    0  501  0.00000000000E+00  0.00000000000E+00  0.63212307000E+03  0.63212307002E+03  0.50400001928E-02 0. -1.
        1   -1    0    0  501    0  0.00000000000E+00  0.00000000000E+00 -0.13970747571E+03  0.13970747580E+03  0.50400001928E-02 0.  1.
    10030    2    1    2    0    0  0.00000000000E+00  0.00000000000E+00  0.49241559430E+03  0.77183054582E+03  0.59434777190E+03 0.  0.
        4    1    3    3  502    0 -0.13825410129E+03 -0.47230589118E+02  0.58226080795E+03  0.60031174106E+03  0.12699999809E+01 0. -1.
       -4    1    3    3    0  502  0.13825410129E+03  0.47230589118E+02 -0.89845213658E+02  0.17151880477E+03  0.12699999809E+01 0.  1.
</event>
<event>
 5   0  0.1250390E-02  0.5999960E+03  0.7818609E-02  0.9905414E-01
        1   -1    0    0  501    0  0.00000000000E+00  0.00000000000E+00  0.65808024468E+03  0.65808024469E+03  0.50400001928E-02 0.  1.
       -1   -1    0    0    0  501  0.00000000000E+00  0.00000000000E+00 -0.13675961791E+03  0.13675961801E+03  0.50400001928E-02 0. -1.
    10030    2    1    2    0    0  0.00000000000E+00  0.00000000000E+00  0.52132062676E+03  0.79483986270E+03  0.59999600953E+03 0.  0.
        3    1    3    3  502    0  0.81907226597E+02  0.28760938630E+03  0.22900924298E+03  0.37666058518E+03  0.10100000352E+00 0. -1.
       -3    1    3    3    0  502 -0.81907226597E+02 -0.28760938630E+03  0.29231138378E+03  0.41817927752E+03  0.10100000352E+00 0.  1.
</event>
<event>
 5   0  0.1337051E-02  0.5991790E+03  0.7818609E-02  0.9907111E-01
        1   -1    0    0  501    0  0.00000000000E+00  0.00000000000E+00  0.20372719782E+03  0.20372719788E+03  0.50400001928E-02 0. -1.
       -1   -1    0    0    0  501  0.00000000000E+00  0.00000000000E+00 -0.44055915423E+03  0.44055915425E+03  0.50400001928E-02 0.  1.
    10030    2    1    2    0    0  0.00000000000E+00  0.00000000000E+00 -0.23683195640E+03  0.64428635214E+03  0.59917904501E+03 0.  0.
        5    1    3    3  502    0 -0.17649820020E+03 -0.10023215157E+03 -0.35530448217E+03  0.40922055658E+03  0.46999998093E+01 0.  1.
       -5    1    3    3    0  502  0.17649820020E+03  0.10023215157E+03  0.11847252576E+03  0.23506579556E+03  0.46999998093E+01 0. -1.
</event>
<event>
 5   0  0.2092587E-02  0.5955425E+03  0.7818609E-02  0.9914697E-01
        2   -1    0    0  501    0  0.00000000000E+00  0.00000000000E+00  0.61506718788E+03  0.61506718789E+03  0.25500000920E-02 0. -1.
       -2   -1    0    0    0  501  0.00000000000E+00  0.00000000000E+00 -0.14415941695E+03  0.14415941697E+03  0.25500000920E-02 0.  1.
    10030    2    1    2    0    0  0.00000000000E+00  0.00000000000E+00  0.47090777093E+03  0.75922660486E+03  0.59554253316E+03 0.  0.
        3    1    3    3  502    0  0.23842449567E+03  0.15182572601E+03  0.11606360475E+03  0.30556187878E+03  0.10100000352E+00 0.  1.
       -3    1    3    3    0  502 -0.23842449567E+03 -0.15182572601E+03  0.35484416618E+03  0.45366472608E+03  0.10100000352E+00 0. -1.
</event>
<event>
 5   0  0.1276705E-02  0.6040420E+03  0.7818609E-02  0.9897055E-01
       -1   -1    0    0    0  501  0.00000000000E+00  0.00000000000E+00  0.11499137174E+03  0.11499137185E+03  0.50400001928E-02 0.  1.
        1   -1    0    0  501    0  0.00000000000E+00  0.00000000000E+00 -0.79324809227E+03  0.79324809228E+03  0.50400001928E-02 0. -1.
    10030    2    1    2    0    0  0.00000000000E+00  0.00000000000E+00 -0.67825672053E+03  0.90823946413E+03  0.60404200620E+03 0.  0.
        1    1    3    3  502    0  0.16042760403E+03  0.18031488289E+03 -0.66125147131E+02  0.25024589554E+03  0.50400001928E-02 0.  1.
       -1    1    3    3    0  502 -0.16042760403E+03 -0.18031488289E+03 -0.61213157340E+03  0.65799356859E+03  0.50400001928E-02 0. -1.
</event>
<event>
 5   0  0.2179625E-02  0.6004936E+03  0.7818609E-02  0.9904382E-01
        2   -1    0    0  501    0  0.00000000000E+00  0.00000000000E+00  0.93624832845E+03  0.93624832845E+03  0.25500000920E-02 0. -1.
       -2   -1    0    0    0  501  0.00000000000E+00  0.00000000000E+00 -0.96286575899E+02  0.96286575933E+02  0.25500000920E-02 0.  1.
    10030    2    1    2    0    0  0.00000000000E+00  0.00000000000E+00  0.83996175255E+03  0.10325349044E+04  0.60049361614E+03 0.  0.
        1    1    3    3  502    0 -0.74520020599E+02  0.13257467645E+03  0.86511910062E+03  0.87838507307E+03  0.50400001928E-02 0. -1.
       -1    1    3    3    0  502  0.74520020599E+02 -0.13257467645E+03 -0.25157348074E+02  0.15414983131E+03  0.50400001928E-02 0.  1.
</event>
<event>
 5   0  0.1250390E-02  0.5987911E+03  0.7818609E-02  0.9907917E-01
        1   -1    0    0  501    0  0.00000000000E+00  0.00000000000E+00  0.61024506671E+03  0.61024506673E+03  0.50400001928E-02 0. -1.
       -1   -1    0    0    0  501  0.00000000000E+00  0.00000000000E+00 -0.14688801050E+03  0.14688801059E+03  0.50400001928E-02 0.  1.
    10030    2    1    2    0    0  0.00000000000E+00  0.00000000000E+00  0.46335705620E+03  0.75713307732E+03  0.59879106142E+03 0.  0.
        3    1    3    3  502    0  0.22772787492E+03 -0.16010699509E+03  0.92341111588E+02  0.29329358326E+03  0.10100000352E+00 0.  1.
       -3    1    3    3    0  502 -0.22772787492E+03  0.16010699509E+03  0.37101594462E+03  0.46383949406E+03  0.10100000352E+00 0. -1.
</event>
<event>
 5   0  0.1332555E-02  0.5972553E+03  0.7818609E-02  0.9911117E-01
        1   -1    0    0  501    0  0.00000000000E+00  0.00000000000E+00  0.53862481086E+02  0.53862481322E+02  0.50400001928E-02 0.  1.
       -1   -1    0    0    0  501  0.00000000000E+00  0.00000000000E+00 -0.16556693950E+04  0.16556693950E+04  0.50400001928E-02 0. -1.
    10030    2    1    2    0    0  0.00000000000E+00  0.00000000000E+00 -0.16018069139E+04  0.17095318763E+04  0.59725526093E+03 0.  0.
        2    1    3    3  502    0 -0.14278809321E+03  0.17586429569E+03 -0.13578553506E+04  0.13766218955E+04  0.25500000920E-02 0. -1.
       -2    1    3    3    0  502  0.14278809321E+03 -0.17586429569E+03 -0.24395156324E+03  0.33290998074E+03  0.25500000920E-02 0.  1.
</event>
<event>
 5   0  0.1337051E-02  0.5998983E+03  0.7818609E-02  0.9905617E-01
        1   -1    0    0  501    0  0.00000000000E+00  0.00000000000E+00  0.36797737867E+03  0.36797737871E+03  0.50400001928E-02 0. -1.
       -1   -1    0    0    0  501  0.00000000000E+00  0.00000000000E+00 -0.24449733897E+03  0.24449733902E+03  0.50400001928E-02 0.  1.
    10030    2    1    2    0    0  0.00000000000E+00  0.00000000000E+00  0.12348003970E+03  0.61247471773E+03  0.59989829109E+03 0.  0.
        5    1    3    3  502    0  0.13253136391E+03  0.40833878592E+02 -0.20975860887E+03  0.25150095835E+03  0.46999998093E+01 0.  1.
       -5    1    3    3    0  502 -0.13253136391E+03 -0.40833878592E+02  0.33323864857E+03  0.36097375938E+03  0.46999998093E+01 0. -1.
</event>
<event>
 5   0  0.2126207E-02  0.5976409E+03  0.7818609E-02  0.9910313E-01
       -2   -1    0    0    0  501  0.00000000000E+00  0.00000000000E+00  0.45474120797E+03  0.45474120798E+03  0.25500000920E-02 0.  1.
        2   -1    0    0  501    0  0.00000000000E+00  0.00000000000E+00 -0.19636147382E+03  0.19636147384E+03  0.25500000920E-02 0. -1.
    10030    2    1    2    0    0  0.00000000000E+00  0.00000000000E+00  0.25837973415E+03  0.65110268182E+03  0.59764087482E+03 0.  0.
        5    1    3    3  502    0  0.27313797544E+03 -0.18500315433E+02  0.25958330208E+03  0.37729589981E+03  0.46999998093E+01 0. -1.
       -5    1    3    3    0  502 -0.27313797544E+03  0.18500315433E+02 -0.12035679287E+01  0.27380678201E+03  0.46999998093E+01 0.  1.
</event>
<event>
 5   0  0.2126207E-02  0.6225787E+03  0.7818609E-02  0.9859639E-01
        2   -1    0    0  501    0  0.00000000000E+00  0.00000000000E+00  0.21672179471E+04  0.21672179471E+04  0.25500000920E-02 0. -1.
       -2   -1    0    0    0  501  0.00000000000E+00  0.00000000000E+00 -0.44712189728E+02  0.44712189801E+02  0.25500000920E-02 0.  1.
    10030    2    1    2    0    0  0.00000000000E+00  0.00000000000E+00  0.21225057573E+04  0.22119301369E+04  0.62257870222E+03 0.  0.
        5    1    3    3  502    0  0.44605489788E+02  0.14957596829E+03  0.10451027280E+03  0.18790185504E+03  0.46999998093E+01 0.  1.
       -5    1    3    3    0  502 -0.44605489788E+02 -0.14957596829E+03  0.20179954845E+04  0.20240282818E+04  0.46999998093E+01 0. -1.
</event>
<event>
 5   0  0.2126207E-02  0.5963201E+03  0.7818609E-02  0.9913070E-01
       -2   -1    0    0    0  501  0.00000000000E+00  0.00000000000E+00  0.49066413230E+03  0.49066413230E+03  0.25500000920E-02 0. -1.
        2   -1    0    0  501    0  0.00000000000E+00  0.00000000000E+00 -0.18118181387E+03  0.18118181389E+03  0.25500000920E-02 0.  1.
    10030    2    1    2    0    0  0.00000000000E+00  0.00000000000E+00  0.30948231843E+03  0.67184594619E+03  0.59632010698E+03 0.  0.
        5    1    3    3  502    0  0.40410571087E+02 -0.15202024154E+03 -0.13058063816E+03  0.20449098061E+03  0.46999998093E+01 0.  1.
       -5    1    3    3    0  502 -0.40410571087E+02  0.15202024154E+03  0.44006295658E+03  0.46735496557E+03  0.46999998093E+01 0. -1.
</event>
<event>
 5   0  0.1303808E-02  0.5989741E+03  0.7818609E-02  0.9907537E-01
        1   -1    0    0  501    0  0.00000000000E+00  0.00000000000E+00  0.10534377853E+04  0.10534377854E+04  0.50400001928E-02 0. -1.
       -1   -1    0    0    0  501  0.00000000000E+00  0.00000000000E+00 -0.85142665767E+02  0.85142665916E+02  0.50400001928E-02 0.  1.
    10030    2    1    2    0    0  0.00000000000E+00  0.00000000000E+00  0.96829511958E+03  0.11385804513E+04  0.59897412750E+03 0.  0.
        4    1    3    3  502    0 -0.31570682722E+02 -0.23808330197E+03  0.14405115890E+03  0.28005841527E+03  0.12699999809E+01 0.  1.
       -4    1    3    3    0  502  0.31570682722E+02  0.23808330197E+03  0.82424396067E+03  0.85852203600E+03  0.12699999809E+01 0. -1.
</event>
<event>
 5   0  0.2141800E-02  0.5920025E+03  0.7818609E-02  0.9922139E-01
        2   -1    0    0  501    0  0.00000000000E+00  0.00000000000E+00  0.64792619402E+03  0.64792619402E+03  0.25500000920E-02 0. -1.
       -2   -1    0    0    0  501  0.00000000000E+00  0.00000000000E+00 -0.13522642653E+03  0.13522642656E+03  0.25500000920E-02 0.  1.
    10030    2    1    2    0    0  0.00000000000E+00  0.00000000000E+00  0.51269976749E+03  0.78315262058E+03  0.59200251312E+03 0.  0.
        2    1    3    3  502    0 -0.29021906402E+03  0.58220454776E+02  0.25617535638E+03  0.39146205397E+03  0.25500000920E-02 0. -1.
       -2    1    3    3    0  502  0.29021906402E+03 -0.58220454776E+02  0.25652441111E+03  0.39169056662E+03  0.25500000920E-02 0.  1.
</event>
<event>
 5   0  0.2092587E-02  0.6008232E+03  0.7818609E-02  0.9903700E-01
        2   -1    0    0  501    0  0.00000000000E+00  0.00000000000E+00  0.52696763502E+03  0.52696763503E+03  0.25500000920E-02 0. -1.
       -2   -1    0    0    0  501  0.00000000000E+00  0.00000000000E+00 -0.17125746123E+03  0.17125746125E+03  0.25500000920E-02 0.  1.
    10030    2    1    2    0    0  0.00000000000E+00  0.00000000000E+00  0.35571017379E+03  0.69822509628E+03  0.60082323302E+03 0.  0.
        3    1    3    3  502    0  0.27136355667E+03  0.12781385185E+03  0.19704118160E+03  0.35888688756E+03  0.10100000352E+00 0.  1.
       -3    1    3    3    0  502 -0.27136355667E+03 -0.12781385185E+03  0.15866899219E+03  0.33933820872E+03  0.10100000352E+00 0. -1.
</event>
<event>
 5   0  0.1276705E-02  0.6018890E+03  0.7818609E-02  0.9901495E-01
        1   -1    0    0  501    0  0.00000000000E+00  0.00000000000E+00  0.83111522137E+03  0.83111522138E+03  0.50400001928E-02 0. -1.
       -1   -1    0    0    0  501  0.00000000000E+00  0.00000000000E+00 -0.10897117358E+03  0.10897117370E+03  0.50400001928E-02 0.  1.
    10030    2    1    2    0    0  0.00000000000E+00  0.00000000000E+00  0.72214404778E+03  0.94008639508E+03  0.60188903003E+03 0.  0.
        1    1    3    3  502    0  0.48590868260E+02  0.13764451330E+02  0.82444936108E+03  0.82599472250E+03  0.50400001928E-02 0. -1.
       -1    1    3    3    0  502 -0.48590868260E+02 -0.13764451330E+02 -0.10230531329E+03  0.11409167258E+03  0.50400001928E-02 0.  1.
</event>
<event>
 5   0  0.2092587E-02  0.6003335E+03  0.7818609E-02  0.9904714E-01
       -2   -1    0    0    0  501  0.00000000000E+00  0.00000000000E+00  0.95143882185E+03  0.95143882186E+03  0.25500000920E-02 0. -1.
        2   -1    0    0  501    0  0.00000000000E+00  0.00000000000E+00 -0.94698776363E+02  0.94698776397E+02  0.25500000920E-02 0.  1.
    10030    2    1    2    0    0  0.00000000000E+00  0.00000000000E+00  0.85674004549E+03  0.10461375983E+04  0.60033354807E+03 0.  0.
        3    1    3    3  502    0  0.14006404908E+03  0.70696820841E+02 -0.17557359745E+02  0.15787415686E+03  0.10100000352E+00 0.  1.
       -3    1    3    3    0  502 -0.14006404908E+03 -0.70696820841E+02  0.87429740524E+03  0.88826344140E+03  0.10100000352E+00 0. -1.
</event>
<event>
 5   0  0.1303808E-02  0.6028615E+03  0.7818609E-02  0.9899487E-01
       -1   -1    0    0    0  501  0.00000000000E+00  0.00000000000E+00  0.65866414993E+02  0.65866415186E+02  0.50400001928E-02 0.  1.
        1   -1    0    0  501    0  0.00000000000E+00  0.00000000000E+00 -0.13794664312E+04  0.13794664312E+04  0.50400001928E-02 0. -1.
    10030    2    1    2    0    0  0.00000000000E+00  0.00000000000E+00 -0.13136000162E+04  0.14453328464E+04  0.60286153825E+03 0.  0.
        4    1    3    3  502    0 -0.21770166092E+03  0.97366797650E+02 -0.21483151807E+03  0.32098052980E+03  0.12699999809E+01 0.  1.
       -4    1    3    3    0  502  0.21770166092E+03 -0.97366797650E+02 -0.10987684982E+04  0.11243523166E+04  0.12699999809E+01 0. -1.
</event>
<event>
 5   0  0.2126207E-02  0.5991173E+03  0.7818609E-02  0.9907239E-01
        2   -1    0    0  501    0  0.00000000000E+00  0.00000000000E+00  0.36661187002E+03  0.36661187003E+03  0.25500000920E-02 0.  1.
       -2   -1    0    0    0  501  0.00000000000E+00  0.00000000000E+00 -0.24476947149E+03  0.24476947150E+03  0.25500000920E-02 0. -1.
    10030    2    1    2    0    0  0.00000000000E+00  0.00000000000E+00  0.12184239853E+03  0.61138134153E+03  0.59911732965E+03 0.  0.
        5    1    3    3  502    0 -0.96487617013E+02 -0.18566657436E+03  0.27962432108E+03  0.34927609138E+03  0.46999998093E+01 0.  1.
       -5    1    3    3    0  502  0.96487617013E+02  0.18566657436E+03 -0.15778192255E+03  0.26210525015E+03  0.46999998093E+01 0. -1.
</event>
<event>
 5   0  0.1250390E-02  0.6019404E+03  0.7818609E-02  0.9901388E-01
       -1   -1    0    0    0  501  0.00000000000E+00  0.00000000000E+00  0.51409930581E+03  0.51409930584E+03  0.50400001928E-02 0. -1.
        1   -1    0    0  501    0  0.00000000000E+00  0.00000000000E+00 -0.17619759648E+03  0.17619759655E+03  0.50400001928E-02 0.  1.
    10030    2    1    2    0    0  0.00000000000E+00  0.00000000000E+00  0.33790170934E+03  0.69029690239E+03  0.60194040259E+03 0.  0.
        3    1    3    3  502    0  0.23948626281E+03  0.51831335446E+01  0.37791315163E+03  0.44743591198E+03  0.10100000352E+00 0. -1.
       -3    1    3    3    0  502 -0.23948626281E+03 -0.51831335446E+01 -0.40011442294E+02  0.24286099041E+03  0.10100000352E+00 0.  1.
</event>
<event>
 5   0  0.2141800E-02  0.6003665E+03  0.7818609E-02  0.9904646E-01
        2   -1    0    0  501    0  0.00000000000E+00  0.00000000000E+00  0.51864304638E+03  0.51864304639E+03  0.25500000920E-02 0.  1.
       -2   -1    0    0    0  501  0.00000000000E+00  0.00000000000E+00 -0.17374183922E+03  0.17374183924E+03  0.25500000920E-02 0. -1.
    10030    2    1    2    0    0  0.00000000000E+00  0.00000000000E+00  0.34490120716E+03  0.69238488563E+03  0.60036654399E+03 0.  0.
        2    1    3    3  502    0 -0.19781630506E+03  0.17834846744E+03  0.33212973460E+03  0.42573422108E+03  0.25500000920E-02 0.  1.
       -2    1    3    3    0  502  0.19781630506E+03 -0.17834846744E+03  0.12771472563E+02  0.26665066455E+03  0.25500000920E-02 0. -1.
</event>
<event>
 5   0  0.1337051E-02  0.5993422E+03  0.7818609E-02  0.9906772E-01
       -1   -1    0    0    0  501  0.00000000000E+00  0.00000000000E+00  0.39424405480E+03  0.39424405483E+03  0.50400001928E-02 0.  1.
        1   -1    0    0  501    0  0.00000000000E+00  0.00000000000E+00 -0.22778467623E+03  0.22778467628E+03  0.50400001928E-02 0. -1.
    10030    2    1    2    0    0  0.00000000000E+00  0.00000000000E+00  0.16645937857E+03  0.62202873111E+03  0.59934215405E+03 0.  0.
        5    1    3    3  502    0 -0.15746489069E+02  0.11907643134E+03 -0.20166698606E+03  0.23477395870E+03  0.46999998093E+01 0. -1.
       -5    1    3    3    0  502  0.15746489069E+02 -0.11907643134E+03  0.36812636463E+03  0.38725477241E+03  0.46999998093E+01 0.  1.
</event>
<event>
 5   0  0.1332555E-02  0.5996049E+03  0.7818609E-02  0.9906226E-01
        1   -1    0    0  501    0  0.00000000000E+00  0.00000000000E+00  0.41758784415E+03  0.41758784418E+03  0.50400001928E-02 0.  1.
       -1   -1    0    0    0  501  0.00000000000E+00  0.00000000000E+00 -0.21523972885E+03  0.21523972890E+03  0.50400001928E-02 0. -1.
    10030    2    1    2    0    0  0.00000000000E+00  0.00000000000E+00  0.20234811530E+03  0.63282757308E+03  0.59960485112E+03 0.  0.
        2    1    3    3  502    0  0.52293826307E+02 -0.16946311257E+03  0.35628839556E+03  0.39798720031E+03  0.25500000920E-02 0.  1.
       -2    1    3    3    0  502 -0.52293826307E+02  0.16946311257E+03 -0.15394028026E+03  0.23484037277E+03  0.25500000920E-02 0. -1.
</event>
<event>
 5   0  0.1337051E-02  0.6040037E+03  0.7818609E-02  0.9897134E-01
       -1   -1    0    0    0  501  0.00000000000E+00  0.00000000000E+00  0.24249794865E+03  0.24249794870E+03  0.50400001928E-02 0. -1.
        1   -1    0    0  501    0  0.00000000000E+00  0.00000000000E+00 -0.37610679157E+03  0.37610679160E+03  0.50400001928E-02 0.  1.
    10030    2    1    2    0    0  0.00000000000E+00  0.00000000000E+00 -0.13360884292E+03  0.61860474030E+03  0.60400372666E+03 0.  0.
        5    1    3    3  502    0 -0.10670547032E+03 -0.20958766281E+03 -0.26077651410E+03  0.35119727520E+03  0.46999998093E+01 0.  1.
       -5    1    3    3    0  502  0.10670547032E+03  0.20958766281E+03  0.12716767119E+03  0.26740746510E+03  0.46999998093E+01 0. -1.
</event>
<event>
 5   0  0.2126207E-02  0.5998818E+03  0.7818609E-02  0.9905651E-01
        2   -1    0    0  501    0  0.00000000000E+00  0.00000000000E+00  0.70330895483E+03  0.70330895483E+03  0.25500000920E-02 0.  1.
       -2   -1    0    0    0  501  0.00000000000E+00  0.00000000000E+00 -0.12791609386E+03  0.12791609389E+03  0.25500000920E-02 0. -1.
    10030    2    1    2    0    0  0.00000000000E+00  0.00000000000E+00  0.57539286096E+03  0.83122504872E+03  0.59988176932E+03 0.  0.
        5    1    3    3  502    0  0.19053649265E+03 -0.22924723726E+03  0.24207527393E+03  0.38403252346E+03  0.46999998093E+01 0. -1.
       -5    1    3    3    0  502 -0.19053649265E+03  0.22924723726E+03  0.33331758704E+03  0.44719252526E+03  0.46999998093E+01 0.  1.
</event>
<event>
 5   0  0.1337051E-02  0.6010704E+03  0.7818609E-02  0.9903188E-01
       -1   -1    0    0    0  501  0.00000000000E+00  0.00000000000E+00  0.77314686254E+03  0.77314686255E+03  0.50400001928E-02 0.  1.
        1   -1    0    0  501    0  0.00000000000E+00  0.00000000000E+00 -0.11682310509E+03  0.11682310520E+03  0.50400001928E-02 0. -1.
    10030    2    1    2    0    0  0.00000000000E+00  0.00000000000E+00  0.65632375744E+03  0.88996996775E+03  0.60107043591E+03 0.  0.
        5    1    3    3  502    0 -0.12522792785E+03  0.29764047803E+02 -0.73884550135E+02  0.14848888579E+03  0.46999998093E+01 0. -1.
       -5    1    3    3    0  502  0.12522792785E+03 -0.29764047803E+02  0.73020830758E+03  0.74148108196E+03  0.46999998093E+01 0.  1.
</event>
<event>
 5   0  0.2179625E-02  0.5981878E+03  0.7818609E-02  0.9909173E-01
        2   -1    0    0  501    0  0.00000000000E+00  0.00000000000E+00  0.39569238041E+03  0.39569238042E+03  0.25500000920E-02 0.  1.
       -2   -1    0    0    0  501  0.00000000000E+00  0.00000000000E+00 -0.22607757970E+03  0.22607757972E+03  0.25500000920E-02 0. -1.
    10030    2    1    2    0    0  0.00000000000E+00  0.00000000000E+00  0.16961480071E+03  0.62176996014E+03  0.59818784902E+03 0.  0.
        1    1    3    3  502    0 -0.18901837553E+03  0.20765243101E+03  0.19187144471E+03  0.34009135495E+03  0.50400001928E-02 0.  1.
       -1    1    3    3    0  502  0.18901837553E+03 -0.20765243101E+03 -0.22256644003E+02  0.28167860519E+03  0.50400001928E-02 0. -1.
</event>
<event>
 5   0  0.2126207E-02  0.5988813E+03  0.7818609E-02  0.9907730E-01
       -2   -1    0    0    0  501  0.00000000000E+00  0.00000000000E+00  0.22388778352E+03  0.22388778354E+03  0.25500000920E-02 0.  1.
        2   -1    0    0  501    0  0.00000000000E+00  0.00000000000E+00 -0.40048952163E+03  0.40048952164E+03  0.25500000920E-02 0. -1.
    10030    2    1    2    0    0  0.00000000000E+00  0.00000000000E+00 -0.17660173811E+03  0.62437730518E+03  0.59888132824E+03 0.  0.
        5    1    3    3  502    0  0.20590800632E+03  0.17331356576E+03  0.48458766051E+02  0.27350693071E+03  0.46999998093E+01 0.  1.
       -5    1    3    3    0  502 -0.20590800632E+03 -0.17331356576E+03 -0.22506050416E+03  0.35087037446E+03  0.46999998093E+01 0. -1.
</event>
<event>
 5   0  0.2126207E-02  0.5992873E+03  0.7818609E-02  0.9906886E-01
       -2   -1    0    0    0  501  0.00000000000E+00  0.00000000000E+00  0.68964210119E+03  0.68964210120E+03  0.25500000920E-02 0.  1.
        2   -1    0    0  501    0  0.00000000000E+00  0.00000000000E+00 -0.13019261849E+03  0.13019261852E+03  0.25500000920E-02 0. -1.
    10030    2    1    2    0    0  0.00000000000E+00  0.00000000000E+00  0.55944948270E+03  0.81983471971E+03  0.59928727998E+03 0.  0.
        5    1    3    3  502    0 -0.24187038126E+03  0.12967605053E+03  0.44415472315E+03  0.52212323019E+03  0.46999998093E+01 0.  1.
       -5    1    3    3    0  502  0.24187038126E+03 -0.12967605053E+03  0.11529475955E+03  0.29771148952E+03  0.46999998093E+01 0. -1.
</event>
<event>
 5   0  0.1250390E-02  0.6014538E+03  0.7818609E-02  0.9902394E-01
        1   -1    0    0  501    0  0.00000000000E+00  0.00000000000E+00  0.59572165542E+03  0.59572165545E+03  0.50400001928E-02 0.  1.
       -1   -1    0    0    0  501  0.00000000000E+00  0.00000000000E+00 -0.15181029895E+03  0.15181029904E+03  0.50400001928E-02 0. -1.
    10030    2    1    2    0    0  0.00000000000E+00  0.00000000000E+00  0.44391135647E+03  0.74753195448E+03  0.60145384742E+03 0.  0.
        3    1    3    3  502    0 -0.18394331171E+02 -0.29764859475E+03  0.27015031120E+03  0.40238568342E+03  0.10100000352E+00 0.  1.
       -3    1    3    3    0  502  0.18394331171E+02  0.29764859475E+03  0.17376104527E+03  0.34514627106E+03  0.10100000352E+00 0. -1.
</event>
<event>
 5   0  0.1337051E-02  0.5893794E+03  0.7818609E-02  0.9927689E-01
        1   -1    0    0  501    0  0.00000000000E+00  0.00000000000E+00  0.18558049491E+03  0.18558049498E+03  0.50400001928E-02 0. -1.
       -1   -1    0    0    0  501  0.00000000000E+00  0.00000000000E+00 -0.46794799795E+03  0.46794799798E+03  0.50400001928E-02 0.  1.
    10030    2    1    2    0    0  0.00000000000E+00  0.00000000000E+00 -0.28236750304E+03  0.65352849296E+03  0.58937940610E+03 0.  0.
        5    1    3    3  502    0 -0.13603673457E+03  0.77493859779E+02 -0.41796948733E+03  0.44635397813E+03  0.46999998093E+01 0.  1.
       -5    1    3    3    0  502  0.13603673457E+03 -0.77493859779E+02  0.13560198428E+03  0.20717451483E+03  0.46999998093E+01 0. -1.
</event>
<event>
 5   0  0.2126207E-02  0.5993377E+03  0.7818609E-02  0.9906781E-01
       -2   -1    0    0    0  501  0.00000000000E+00  0.00000000000E+00  0.16270711592E+03  0.16270711594E+03  0.25500000920E-02 0.  1.
        2   -1    0    0  501    0  0.00000000000E+00  0.00000000000E+00 -0.55192059593E+03  0.55192059593E+03  0.25500000920E-02 0. -1.
    10030    2    1    2    0    0  0.00000000000E+00  0.00000000000E+00 -0.38921348001E+03  0.71462771187E+03  0.59933766238E+03 0.  0.
        5    1    3    3  502    0 -0.74953343678E+02  0.23816910204E+03 -0.39211031489E+03  0.46488182793E+03  0.46999998093E+01 0. -1.
       -5    1    3    3    0  502  0.74953343678E+02 -0.23816910204E+03  0.28968348824E+01  0.24974588394E+03  0.46999998093E+01 0.  1.
</event>
<event>
 5   0  0.1332555E-02  0.6000952E+03  0.7818609E-02  0.9905208E-01
       -1   -1    0    0    0  501  0.00000000000E+00  0.00000000000E+00  0.34135686509E+03  0.34135686513E+03  0.50400001928E-02 0.  1.
        1   -1    0    0  501    0  0.00000000000E+00  0.00000000000E+00 -0.26373740449E+03  0.26373740454E+03  0.50400001928E-02 0. -1.
    10030    2    1    2    0    0  0.00000000000E+00  0.00000000000E+00  0.77619460598E+02  0.60509426967E+03  0.60009523788E+03 0.  0.
        2    1    3    3  502    0 -0.12602261484E+03  0.20597576543E+03 -0.14077744692E+03  0.27951029492E+03  0.25500000920E-02 0. -1.
       -2    1    3    3    0  502  0.12602261484E+03 -0.20597576543E+03  0.21839690752E+03  0.32558397475E+03  0.25500000920E-02 0.  1.
</event>
<event>
 5   0  0.2179625E-02  0.6000301E+03  0.7818609E-02  0.9905344E-01
       -2   -1    0    0    0  501  0.00000000000E+00  0.00000000000E+00  0.18039654831E+03  0.18039654833E+03  0.25500000920E-02 0.  1.
        2   -1    0    0  501    0  0.00000000000E+00  0.00000000000E+00 -0.49895091067E+03  0.49895091068E+03  0.25500000920E-02 0. -1.
    10030    2    1    2    0    0  0.00000000000E+00  0.00000000000E+00 -0.31855436236E+03  0.67934745901E+03  0.60003007282E+03 0.  0.
        1    1    3    3  502    0 -0.27880838321E+03  0.88709503908E+02 -0.23442529581E+03  0.37491160288E+03  0.50400001928E-02 0.  1.
       -1    1    3    3    0  502  0.27880838321E+03 -0.88709503908E+02 -0.84129066546E+02  0.30443585613E+03  0.50400001928E-02 0. -1.
</event>
<event>
 5   0  0.1337051E-02  0.5947087E+03  0.7818609E-02  0.9916445E-01
       -1   -1    0    0    0  501  0.00000000000E+00  0.00000000000E+00  0.34929061480E+03  0.34929061483E+03  0.50400001928E-02 0.  1.
        1   -1    0    0  501    0  0.00000000000E+00  0.00000000000E+00 -0.25314052207E+03  0.25314052212E+03  0.50400001928E-02 0. -1.
    10030    2    1    2    0    0  0.00000000000E+00  0.00000000000E+00  0.96150092727E+02  0.60243113695E+03  0.59470869712E+03 0.  0.
        5    1    3    3  502    0  0.13302984625E+03  0.15580048705E+03 -0.17019162963E+03  0.26637945220E+03  0.46999998093E+01 0. -1.
       -5    1    3    3    0  502 -0.13302984625E+03 -0.15580048705E+03  0.26634172235E+03  0.33605168475E+03  0.46999998093E+01 0.  1.
</event>
<event>
 5   0  0.1276705E-02  0.6032774E+03  0.7818609E-02  0.9898630E-01
        1   -1    0    0  501    0  0.00000000000E+00  0.00000000000E+00  0.78442595806E+03  0.78442595808E+03  0.50400001928E-02 0.  1.
       -1   -1    0    0    0  501  0.00000000000E+00  0.00000000000E+00 -0.11599044012E+03  0.11599044023E+03  0.50400001928E-02 0. -1.
    10030    2    1    2    0    0  0.00000000000E+00  0.00000000000E+00  0.66843551794E+03  0.90041639831E+03  0.60327742266E+03 0.  0.
        1    1    3    3  502    0  0.11235799153E+03  0.75567402046E+02 -0.68079992041E+02  0.15155736819E+03  0.50400001928E-02 0. -1.
       -1    1    3    3    0  502 -0.11235799153E+03 -0.75567402046E+02  0.73651550998E+03  0.74885903011E+03  0.50400001928E-02 0.  1.
</event>
<event>
 5   0  0.1276705E-02  0.6006462E+03  0.7818609E-02  0.9904066E-01
        1   -1    0    0  501    0  0.00000000000E+00  0.00000000000E+00  0.91559002665E+03  0.91559002666E+03  0.50400001928E-02 0. -1.
       -1   -1    0    0    0  501  0.00000000000E+00  0.00000000000E+00 -0.98509121815E+02  0.98509121944E+02  0.50400001928E-02 0.  1.
    10030    2    1    2    0    0  0.00000000000E+00  0.00000000000E+00  0.81708090483E+03  0.10140991486E+04  0.60064621714E+03 0.  0.
        1    1    3    3  502    0  0.18279624548E+03  0.56238602292E+02  0.79948197519E+03  0.82203933995E+03  0.50400001928E-02 0. -1.
       -1    1    3    3    0  502 -0.18279624548E+03 -0.56238602292E+02  0.17598929642E+02  0.19205980865E+03  0.50400001928E-02 0.  1.
</event>
<event>
 5   0  0.1303808E-02  0.5985440E+03  0.7818609E-02  0.9908431E-01
        1   -1    0    0  501    0  0.00000000000E+00  0.00000000000E+00  0.87170991558E+02  0.87170991703E+02  0.50400001928E-02 0. -1.
       -1   -1    0    0    0  501  0.00000000000E+00  0.00000000000E+00 -0.10274487438E+04  0.10274487438E+04  0.50400001928E-02 0.  1.
    10030    2    1    2    0    0  0.00000000000E+00  0.00000000000E+00 -0.94027775223E+03  0.11146197355E+04  0.59854398621E+03 0.  0.
        4    1    3    3  502    0  0.29758780606E+03 -0.21811457291E+02 -0.51292417287E+03  0.59340295078E+03  0.12699999809E+01 0.  1.
       -4    1    3    3    0  502 -0.29758780606E+03  0.21811457291E+02 -0.42735357936E+03  0.52121678472E+03  0.12699999809E+01 0. -1.
</event>
<event>
 5   0  0.2142838E-02  0.5997163E+03  0.7818609E-02  0.9905995E-01
        2   -1    0    0  501    0  0.00000000000E+00  0.00000000000E+00  0.16833440634E+03  0.16833440636E+03  0.25500000920E-02 0.  1.
       -2   -1    0    0    0  501  0.00000000000E+00  0.00000000000E+00 -0.53414451890E+03  0.53414451891E+03  0.25500000920E-02 0. -1.
    10030    2    1    2    0    0  0.00000000000E+00  0.00000000000E+00 -0.36581011256E+03  0.70247892527E+03  0.59971626791E+03 0.  0.
        4    1    3    3  502    0 -0.12993050601E+03 -0.35667762089E+02 -0.49668569962E+03  0.51463814739E+03  0.12699999809E+01 0. -1.
       -4    1    3    3    0  502  0.12993050601E+03  0.35667762089E+02  0.13087558706E+03  0.18784077787E+03  0.12699999809E+01 0.  1.
</event>
<event>
 5   0  0.2092587E-02  0.5914515E+03  0.7818609E-02  0.9923302E-01
        2   -1    0    0  501    0  0.00000000000E+00  0.00000000000E+00  0.36675162876E+03  0.36675162876E+03  0.25500000920E-02 0.  1.
       -2   -1    0    0    0  501  0.00000000000E+00  0.00000000000E+00 -0.23845490314E+03  0.23845490316E+03  0.25500000920E-02 0. -1.
    10030    2    1    2    0    0  0.00000000000E+00  0.00000000000E+00  0.12829672561E+03  0.60520653192E+03  0.59145151659E+03 0.  0.
        3    1    3    3  502    0 -0.11852196589E+03 -0.16372188617E+03  0.28504237622E+03  0.34943022029E+03  0.10100000352E+00 0.  1.
       -3    1    3    3    0  502  0.11852196589E+03  0.16372188617E+03 -0.15674565060E+03  0.25577631163E+03  0.10100000352E+00 0. -1.
</event>
<event>
 5   0  0.1303808E-02  0.6008951E+03  0.7818609E-02  0.9903551E-01
       -1   -1    0    0    0  501  0.00000000000E+00  0.00000000000E+00  0.10463692496E+03  0.10463692508E+03  0.50400001928E-02 0.  1.
        1   -1    0    0  501    0  0.00000000000E+00  0.00000000000E+00 -0.86268531380E+03  0.86268531382E+03  0.50400001928E-02 0. -1.
    10030    2    1    2    0    0  0.00000000000E+00  0.00000000000E+00 -0.75804838884E+03  0.96732223890E+03  0.60089512733E+03 0.  0.
        4    1    3    3  502    0  0.19426727744E+03 -0.16688212893E+02 -0.74699289152E+03  0.77202219166E+03  0.12699999809E+01 0. -1.
       -4    1    3    3    0  502 -0.19426727744E+03  0.16688212893E+02 -0.11055497318E+02  0.19530004724E+03  0.12699999809E+01 0.  1.
</event>
<event>
 5   0  0.2126207E-02  0.5978528E+03  0.7818609E-02  0.9909871E-01
        2   -1    0    0  501    0  0.00000000000E+00  0.00000000000E+00  0.60539617439E+03  0.60539617439E+03  0.25500000920E-02 0. -1.
       -2   -1    0    0    0  501  0.00000000000E+00  0.00000000000E+00 -0.14760083620E+03  0.14760083622E+03  0.25500000920E-02 0.  1.
    10030    2    1    2    0    0  0.00000000000E+00  0.00000000000E+00  0.45779533819E+03  0.75299701061E+03  0.59785276308E+03 0.  0.
        5    1    3    3  502    0  0.18220352213E+03 -0.11381009083E+03 -0.32836608168E+02  0.21737339553E+03  0.46999998093E+01 0.  1.
       -5    1    3    3    0  502 -0.18220352213E+03  0.11381009083E+03  0.49063194636E+03  0.53562361508E+03  0.46999998093E+01 0. -1.
</event>
<event>
 5   0  0.2092587E-02  0.5993636E+03  0.7818609E-02  0.9906727E-01
       -2   -1    0    0    0  501  0.00000000000E+00  0.00000000000E+00  0.17897031957E+03  0.17897031959E+03  0.25500000920E-02 0.  1.
        2   -1    0    0  501    0  0.00000000000E+00  0.00000000000E+00 -0.50181052077E+03  0.50181052078E+03  0.25500000920E-02 0. -1.
    10030    2    1    2    0    0  0.00000000000E+00  0.00000000000E+00 -0.32284020120E+03  0.68078084037E+03  0.59936362677E+03 0.  0.
        3    1    3    3  502    0  0.80465130373E+02 -0.28803914690E+03 -0.13963116751E+03  0.33005766238E+03  0.10100000352E+00 0.  1.
       -3    1    3    3    0  502 -0.80465130373E+02  0.28803914690E+03 -0.18320903369E+03  0.35072317799E+03  0.10100000352E+00 0. -1.
</event>
<event>
 5   0  0.2142838E-02  0.6006911E+03  0.7818609E-02  0.9903973E-01
        2   -1    0    0  501    0  0.00000000000E+00  0.00000000000E+00  0.16523474939E+04  0.16523474939E+04  0.25500000920E-02 0.  1.
       -2   -1    0    0    0  501  0.00000000000E+00  0.00000000000E+00 -0.54593501121E+02  0.54593501181E+02  0.25500000920E-02 0. -1.
    10030    2    1    2    0    0  0.00000000000E+00  0.00000000000E+00  0.15977539928E+04  0.17069409951E+04  0.60069105141E+03 0.  0.
        4    1    3    3  502    0 -0.40991390181E+02  0.29665347605E+03  0.86381570640E+03  0.91425530704E+03  0.12699999809E+01 0.  1.
       -4    1    3    3    0  502  0.40991390181E+02 -0.29665347605E+03  0.73393828636E+03  0.79268568803E+03  0.12699999809E+01 0. -1.
</event>
<event>
 5   0  0.2141800E-02  0.5990683E+03  0.7818609E-02  0.9907341E-01
       -2   -1    0    0    0  501  0.00000000000E+00  0.00000000000E+00  0.25283333544E+03  0.25283333545E+03  0.25500000920E-02 0.  1.
        2   -1    0    0  501    0  0.00000000000E+00  0.00000000000E+00 -0.35486105571E+03  0.35486105572E+03  0.25500000920E-02 0. -1.
    10030    2    1    2    0    0  0.00000000000E+00  0.00000000000E+00 -0.10202772027E+03  0.60769439117E+03  0.59906829106E+03 0.  0.
        2    1    3    3  502    0  0.13052263650E+03 -0.21745597818E+03  0.11064663120E+03  0.27670550787E+03  0.25500000920E-02 0.  1.
       -2    1    3    3    0  502 -0.13052263650E+03  0.21745597818E+03 -0.21267435147E+03  0.33098888329E+03  0.25500000920E-02 0. -1.
</event>
<event>
 5   0  0.2141800E-02  0.5999310E+03  0.7818609E-02  0.9905549E-01
       -2   -1    0    0    0  501  0.00000000000E+00  0.00000000000E+00  0.58368533047E+02  0.58368533103E+02  0.25500000920E-02 0.  1.
        2   -1    0    0  501    0  0.00000000000E+00  0.00000000000E+00 -0.15415720856E+04  0.15415720856E+04  0.25500000920E-02 0. -1.
    10030    2    1    2    0    0  0.00000000000E+00  0.00000000000E+00 -0.14832035526E+04  0.15999406187E+04  0.59993100026E+03 0.  0.
        2    1    3    3  502    0 -0.20368571670E+03  0.15866091703E+03 -0.11488409481E+04  0.11774959370E+04  0.25500000920E-02 0. -1.
       -2    1    3    3    0  502  0.20368571670E+03 -0.15866091703E+03 -0.33436260448E+03  0.42244468166E+03  0.25500000920E-02 0.  1.
</event>
<event>
 5   0  0.2141800E-02  0.6023526E+03  0.7818609E-02  0.9900537E-01
        2   -1    0    0  501    0  0.00000000000E+00  0.00000000000E+00  0.18547086046E+04  0.18547086046E+04  0.25500000920E-02 0. -1.
       -2   -1    0    0    0  501  0.00000000000E+00  0.00000000000E+00 -0.48906421915E+02  0.48906421981E+02  0.25500000920E-02 0.  1.
    10030    2    1    2    0    0  0.00000000000E+00  0.00000000000E+00  0.18058021826E+04  0.19036150265E+04  0.60235259312E+03 0.  0.
        2    1    3    3  502    0  0.87045448714E+02  0.15384788435E+03  0.16735290057E+04  0.16828384992E+04  0.25500000920E-02 0. -1.
       -2    1    3    3    0  502 -0.87045448714E+02 -0.15384788435E+03  0.13227317698E+03  0.22077652732E+03  0.25500000920E-02 0.  1.
</event>
<event>
 5   0  0.2092587E-02  0.6020728E+03  0.7818609E-02  0.9901115E-01
        2   -1    0    0  501    0  0.00000000000E+00  0.00000000000E+00  0.23644416088E+04  0.23644416088E+04  0.25500000920E-02 0.  1.
       -2   -1    0    0    0  501  0.00000000000E+00  0.00000000000E+00 -0.38327408153E+02  0.38327408238E+02  0.25500000920E-02 0. -1.
    10030    2    1    2    0    0  0.00000000000E+00  0.00000000000E+00  0.23261142007E+04  0.24027690171E+04  0.60207281520E+03 0.  0.
        3    1    3    3  502    0 -0.10901880921E+03 -0.26908220283E+03  0.84547705586E+03  0.89393612458E+03  0.10100000352E+00 0. -1.
       -3    1    3    3    0  502  0.10901880921E+03  0.26908220283E+03  0.14806371448E+04  0.15088328925E+04  0.10100000352E+00 0.  1.
</event>
<event>
 5   0  0.2142838E-02  0.5972863E+03  0.7818609E-02  0.9911052E-01
       -2   -1    0    0    0  501  0.00000000000E+00  0.00000000000E+00  0.18983769583E+03  0.18983769585E+03  0.25500000920E-02 0. -1.
        2   -1    0    0  501    0  0.00000000000E+00  0.00000000000E+00 -0.46981037046E+03  0.46981037047E+03  0.25500000920E-02 0.  1.
    10030    2    1    2    0    0  0.00000000000E+00  0.00000000000E+00 -0.27997267463E+03  0.65964806632E+03  0.59728625705E+03 0.  0.
        4    1    3    3  502    0  0.72169391497E+02 -0.28947984132E+03 -0.12520599489E+03  0.32355085173E+03  0.12699999809E+01 0. -1.
       -4    1    3    3    0  502 -0.72169391497E+02  0.28947984132E+03 -0.15476667974E+03  0.33609721459E+03  0.12699999809E+01 0.  1.
</event>
<event>
 5   0  0.2179625E-02  0.6192584E+03  0.7818609E-02  0.9866237E-01
        2   -1    0    0  501    0  0.00000000000E+00  0.00000000000E+00  0.31457314540E+03  0.31457314541E+03  0.25500000920E-02 0. -1.
       -2   -1    0    0    0  501  0.00000000000E+00  0.00000000000E+00 -0.30476299706E+03  0.30476299708E+03  0.25500000920E-02 0.  1.
    10030    2    1    2    0    0  0.00000000000E+00  0.00000000000E+00  0.98101483352E+01  0.61933614249E+03  0.61925844232E+03 0.  0.
        1    1    3    3  502    0 -0.20047891352E+03  0.11130293573E+03  0.21299395052E+03  0.31296415330E+03  0.50400001928E-02 0. -1.
       -1    1    3    3    0  502  0.20047891352E+03 -0.11130293573E+03 -0.20318380218E+03  0.30637198919E+03  0.50400001928E-02 0.  1.
</event>
<event>
 5   0  0.1276705E-02  0.5945233E+03  0.7818609E-02  0.9916834E-01
       -1   -1    0    0    0  501  0.00000000000E+00  0.00000000000E+00  0.10726223885E+04  0.10726223885E+04  0.50400001928E-02 0.  1.
        1   -1    0    0  501    0  0.00000000000E+00  0.00000000000E+00 -0.82381732715E+02  0.82381732869E+02  0.50400001928E-02 0. -1.
    10030    2    1    2    0    0  0.00000000000E+00  0.00000000000E+00  0.99024065579E+03  0.11550041214E+04  0.59452330824E+03 0.  0.
        1    1    3    3  502    0  0.20523906208E+03 -0.85591757659E+02  0.11187595686E+03  0.24892820518E+03  0.50400001928E-02 0. -1.
       -1    1    3    3    0  502 -0.20523906208E+03  0.85591757659E+02  0.87836469893E+03  0.90607591621E+03  0.50400001928E-02 0.  1.
</event>
<event>
 5   0  0.1250390E-02  0.6009684E+03  0.7818609E-02  0.9903399E-01
       -1   -1    0    0    0  501  0.00000000000E+00  0.00000000000E+00  0.35216016432E+03  0.35216016436E+03  0.50400001928E-02 0.  1.
        1   -1    0    0  501    0  0.00000000000E+00  0.00000000000E+00 -0.25639112319E+03  0.25639112324E+03  0.50400001928E-02 0. -1.
    10030    2    1    2    0    0  0.00000000000E+00  0.00000000000E+00  0.95769041135E+02  0.60855128760E+03  0.60096835224E+03 0.  0.
        3    1    3    3  502    0  0.87325144316E+02  0.58010048089E+02  0.33304008973E+03  0.34915119659E+03  0.10100000352E+00 0.  1.
       -3    1    3    3    0  502 -0.87325144316E+02 -0.58010048089E+02 -0.23727104860E+03  0.25940009101E+03  0.10100000352E+00 0. -1.
</event>
<event>
 5   0  0.1303808E-02  0.6163637E+03  0.7818609E-02  0.9872026E-01
       -1   -1    0    0    0  501  0.00000000000E+00  0.00000000000E+00  0.53089468903E+03  0.53089468906E+03  0.50400001928E-02 0. -1.
        1   -1    0    0  501    0  0.00000000000E+00  0.00000000000E+00 -0.17889810266E+03  0.17889810273E+03  0.50400001928E-02 0.  1.
    10030    2    1    2    0    0  0.00000000000E+00  0.00000000000E+00  0.35199658637E+03  0.70979279179E+03  0.61636369982E+03 0.  0.
        4    1    3    3  502    0 -0.23020250201E+03  0.19278076223E+03  0.96074702352E+02  0.31526112280E+03  0.12699999809E+01 0.  1.
       -4    1    3    3    0  502  0.23020250201E+03 -0.19278076223E+03  0.25592188402E+03  0.39453166899E+03  0.12699999809E+01 0. -1.
</event>
<event>
 5   0  0.2142838E-02  0.5990072E+03  0.7818609E-02  0.9907468E-01
        2   -1    0    0  501    0  0.00000000000E+00  0.00000000000E+00  0.26573626017E+03  0.26573626018E+03  0.25500000920E-02 0. -1.
       -2   -1    0    0    0  501  0.00000000000E+00  0.00000000000E+00 -0.33756180642E+03  0.33756180642E+03  0.25500000920E-02 0.  1.
    10030    2    1    2    0    0  0.00000000000E+00  0.00000000000E+00 -0.71825546247E+02  0.60329806661E+03  0.59900721872E+03 0.  0.
        4    1    3    3  502    0 -0.19490800660E+03 -0.18048243363E+02 -0.26422122207E+03  0.32883025593E+03  0.12699999809E+01 0.  1.
       -4    1    3    3    0  502  0.19490800660E+03  0.18048243363E+02  0.19239567582E+03  0.27446781068E+03  0.12699999809E+01 0. -1.
</event>
<event>
 5   0  0.2141800E-02  0.5990636E+03  0.7818609E-02  0.9907351E-01
        2   -1    0    0  501    0  0.00000000000E+00  0.00000000000E+00  0.21166715425E+03  0.21166715426E+03  0.25500000920E-02 0.  1.
       -2   -1    0    0    0  501  0.00000000000E+00  0.00000000000E+00 -0.42386970216E+03  0.42386970217E+03  0.25500000920E-02 0. -1.
    10030    2    1    2    0    0  0.00000000000E+00  0.00000000000E+00 -0.21220254791E+03  0.63553685643E+03  0.59906358139E+03 0.  0.
        2    1    3    3  502    0 -0.12311278013E+03  0.51362824799E+02  0.17841423083E+03  0.22277013752E+03  0.25500000920E-02 0.  1.
       -2    1    3    3    0  502  0.12311278013E+03 -0.51362824799E+02 -0.39061677874E+03  0.41276671891E+03  0.25500000920E-02 0. -1.
</event>
<event>
 5   0  0.2141800E-02  0.5988795E+03  0.7818609E-02  0.9907733E-01
        2   -1    0    0  501    0  0.00000000000E+00  0.00000000000E+00  0.71602931381E+03  0.71602931381E+03  0.25500000920E-02 0.  1.
       -2   -1    0    0    0  501  0.00000000000E+00  0.00000000000E+00 -0.12522417115E+03  0.12522417118E+03  0.25500000920E-02 0. -1.
    10030    2    1    2    0    0  0.00000000000E+00  0.00000000000E+00  0.59080514266E+03  0.84125348499E+03  0.59887954500E+03 0.  0.
        2    1    3    3  502    0  0.25138289491E+03 -0.11612113501E+03  0.13532267577E+03  0.30820399808E+03  0.25500000920E-02 0. -1.
       -2    1    3    3    0  502 -0.25138289491E+03  0.11612113501E+03  0.45548246689E+03  0.53304948691E+03  0.25500000920E-02 0.  1.
</event>
<event>
 5   0  0.2179625E-02  0.5970725E+03  0.7818609E-02  0.9911498E-01
       -2   -1    0    0    0  501  0.00000000000E+00  0.00000000000E+00  0.25228731012E+03  0.25228731013E+03  0.25500000920E-02 0.  1.
        2   -1    0    0  501    0  0.00000000000E+00  0.00000000000E+00 -0.35326347600E+03  0.35326347601E+03  0.25500000920E-02 0. -1.
    10030    2    1    2    0    0  0.00000000000E+00  0.00000000000E+00 -0.10097616588E+03  0.60555078614E+03  0.59707249854E+03 0.  0.
        1    1    3    3  502    0  0.43186585204E+02  0.12688746063E+03  0.22005506604E+03  0.25766206729E+03  0.50400001928E-02 0.  1.
       -1    1    3    3    0  502 -0.43186585204E+02 -0.12688746063E+03 -0.32103123192E+03  0.34788871884E+03  0.50400001928E-02 0. -1.
</event>
<event>
 5   0  0.2126207E-02  0.5973472E+03  0.7818609E-02  0.9910925E-01
       -2   -1    0    0    0  501  0.00000000000E+00  0.00000000000E+00  0.24439205678E+03  0.24439205680E+03  0.25500000920E-02 0.  1.
        2   -1    0    0  501    0  0.00000000000E+00  0.00000000000E+00 -0.36501158535E+03  0.36501158536E+03  0.25500000920E-02 0. -1.
    10030    2    1    2    0    0  0.00000000000E+00  0.00000000000E+00 -0.12061952857E+03  0.60940364216E+03  0.59734724273E+03 0.  0.
        5    1    3    3  502    0 -0.54344047587E+02 -0.80549766900E+02 -0.34839603754E+03  0.36172286274E+03  0.46999998093E+01 0. -1.
       -5    1    3    3    0  502  0.54344047587E+02  0.80549766900E+02  0.22777650897E+03  0.24768077942E+03  0.46999998093E+01 0.  1.
</event>
<event>
 5   0  0.1332555E-02  0.5997973E+03  0.7818609E-02  0.9905827E-01
        1   -1    0    0  501    0  0.00000000000E+00  0.00000000000E+00  0.14000439989E+03  0.14000439998E+03  0.50400001928E-02 0. -1.
       -1   -1    0    0    0  501  0.00000000000E+00  0.00000000000E+00 -0.64240267391E+03  0.64240267393E+03  0.50400001928E-02 0.  1.
    10030    2    1    2    0    0  0.00000000000E+00  0.00000000000E+00 -0.50239827402E+03  0.78240707392E+03  0.59979730208E+03 0.  0.
        2    1    3    3  502    0  0.20796775111E+02  0.34441234755E+02  0.13646802151E+03  0.14227517495E+03  0.25500000920E-02 0. -1.
       -2    1    3    3    0  502 -0.20796775111E+02 -0.34441234755E+02 -0.63886629553E+03  0.64013189897E+03  0.25500000920E-02 0.  1.
</event>
<event>
 5   0  0.1250390E-02  0.5885219E+03  0.7818609E-02  0.9929510E-01
       -1   -1    0    0    0  501  0.00000000000E+00  0.00000000000E+00  0.12793113119E+03  0.12793113129E+03  0.50400001928E-02 0. -1.
        1   -1    0    0  501    0  0.00000000000E+00  0.00000000000E+00 -0.67684460314E+03  0.67684460316E+03  0.50400001928E-02 0.  1.
    10030    2    1    2    0    0  0.00000000000E+00  0.00000000000E+00 -0.54891347195E+03  0.80477573445E+03  0.58852186286E+03 0.  0.
        3    1    3    3  502    0  0.46695177030E+01 -0.24874148474E+03 -0.48934856798E+03  0.54895916224E+03  0.10100000352E+00 0.  1.
       -3    1    3    3    0  502 -0.46695177030E+01  0.24874148474E+03 -0.59564903976E+02  0.25581657220E+03  0.10100000352E+00 0. -1.
</event>
<event>
 5   0  0.1276705E-02  0.6008535E+03  0.7818609E-02  0.9903637E-01
       -1   -1    0    0    0  501  0.00000000000E+00  0.00000000000E+00  0.46620586174E+02  0.46620586446E+02  0.50400001928E-02 0. -1.
        1   -1    0    0  501    0  0.00000000000E+00  0.00000000000E+00 -0.19359735232E+04  0.19359735232E+04  0.50400001928E-02 0.  1.
    10030    2    1    2    0    0  0.00000000000E+00  0.00000000000E+00 -0.18893529371E+04  0.19825941097E+04  0.60085346216E+03 0.  0.
        1    1    3    3  502    0  0.20843200220E+02  0.16423931592E+03 -0.17718722482E+04  0.17795899123E+04  0.50400001928E-02 0.  1.
       -1    1    3    3    0  502 -0.20843200220E+02 -0.16423931592E+03 -0.11748068887E+03  0.20300419742E+03  0.50400001928E-02 0. -1.
</event>
<event>
 5   0  0.1332555E-02  0.5933474E+03  0.7818609E-02  0.9919305E-01
        1   -1    0    0  501    0  0.00000000000E+00  0.00000000000E+00  0.17156449025E+03  0.17156449032E+03  0.50400001928E-02 0.  1.
       -1   -1    0    0    0  501  0.00000000000E+00  0.00000000000E+00 -0.51301572811E+03  0.51301572814E+03  0.50400001928E-02 0. -1.
    10030    2    1    2    0    0  0.00000000000E+00  0.00000000000E+00 -0.34145123787E+03  0.68458021846E+03  0.59334739206E+03 0.  0.
        2    1    3    3  502    0  0.27966562429E+03  0.36959428133E+02 -0.27669842501E+03  0.39514665524E+03  0.25500000920E-02 0. -1.
       -2    1    3    3    0  502 -0.27966562429E+03 -0.36959428133E+02 -0.64752812852E+02  0.28943356322E+03  0.25500000920E-02 0.  1.
</event>
<event>
 5   0  0.2092587E-02  0.6009461E+03  0.7818609E-02  0.9903445E-01
       -2   -1    0    0    0  501  0.00000000000E+00  0.00000000000E+00  0.11570661934E+03  0.11570661936E+03  0.25500000920E-02 0. -1.
        2   -1    0    0  501    0  0.00000000000E+00  0.00000000000E+00 -0.78028424844E+03  0.78028424844E+03  0.25500000920E-02 0.  1.
    10030    2    1    2    0    0  0.00000000000E+00  0.00000000000E+00 -0.66457762910E+03  0.89599086780E+03  0.60094609583E+03 0.  0.
        3    1    3    3  502    0 -0.11142701036E+03 -0.21981519852E+03 -0.75992728648E+02  0.25789456208E+03  0.10100000352E+00 0. -1.
       -3    1    3    3    0  502  0.11142701036E+03  0.21981519852E+03 -0.58858490045E+03  0.63809630573E+03  0.10100000352E+00 0.  1.
</event>
<event>
 5   0  0.1332555E-02  0.5990677E+03  0.7818609E-02  0.9907342E-01
        1   -1    0    0  501    0  0.00000000000E+00  0.00000000000E+00  0.70578551409E+03  0.70578551411E+03  0.50400001928E-02 0.  1.
       -1   -1    0    0    0  501  0.00000000000E+00  0.00000000000E+00 -0.12712152502E+03  0.12712152512E+03  0.50400001928E-02 0. -1.
    10030    2    1    2    0    0  0.00000000000E+00  0.00000000000E+00  0.57866398907E+03  0.83290703922E+03  0.59906771215E+03 0.  0.
        2    1    3    3  502    0 -0.61576288900E+01  0.44185399509E+02 -0.12247653721E+03  0.13034864056E+03  0.25500000920E-02 0. -1.
       -2    1    3    3    0  502  0.61576288900E+01 -0.44185399509E+02  0.70114052628E+03  0.70255839866E+03  0.25500000920E-02 0.  1.
</event>
<event>
 5   0  0.2126207E-02  0.5993516E+03  0.7818609E-02  0.9906752E-01
       -2   -1    0    0    0  501  0.00000000000E+00  0.00000000000E+00  0.24813365502E+03  0.24813365503E+03  0.25500000920E-02 0. -1.
        2   -1    0    0  501    0  0.00000000000E+00  0.00000000000E+00 -0.36192422297E+03  0.36192422298E+03  0.25500000920E-02 0.  1.
    10030    2    1    2    0    0  0.00000000000E+00  0.00000000000E+00 -0.11379056795E+03  0.61005787801E+03  0.59935158394E+03 0.  0.
        5    1    3    3  502    0 -0.10333882573E+03 -0.53752048395E+02 -0.33789795559E+03  0.35744274227E+03  0.46999998093E+01 0.  1.
       -5    1    3    3    0  502  0.10333882573E+03  0.53752048395E+02  0.22410738764E+03  0.25261513574E+03  0.46999998093E+01 0. -1.
</event>
<event>
 5   0  0.2179625E-02  0.6019922E+03  0.7818609E-02  0.9901281E-01
       -2   -1    0    0    0  501  0.00000000000E+00  0.00000000000E+00  0.30865101966E+03  0.30865101967E+03  0.25500000920E-02 0. -1.
        2   -1    0    0  501    0  0.00000000000E+00  0.00000000000E+00 -0.29353105849E+03  0.29353105850E+03  0.25500000920E-02 0.  1.
    10030    2    1    2    0    0  0.00000000000E+00  0.00000000000E+00  0.15119961174E+02  0.60218207817E+03  0.60199222756E+03 0.  0.
        1    1    3    3  502    0  0.25316234061E+03  0.16209666611E+03 -0.76816425438E+01  0.30070834296E+03  0.50400001928E-02 0. -1.
       -1    1    3    3    0  502 -0.25316234061E+03 -0.16209666611E+03  0.22801603718E+02  0.30147373521E+03  0.50400001928E-02 0.  1.
</event>
<event>
 5   0  0.1337051E-02  0.5999530E+03  0.7818609E-02  0.9905504E-01
       -1   -1    0    0    0  501  0.00000000000E+00  0.00000000000E+00  0.36773506321E+03  0.36773506325E+03  0.50400001928E-02 0. -1.
        1   -1    0    0  501    0  0.00000000000E+00  0.00000000000E+00 -0.24470307572E+03  0.24470307577E+03  0.50400001928E-02 0.  1.
    10030    2    1    2    0    0  0.00000000000E+00  0.00000000000E+00  0.12303198750E+03  0.61243813901E+03  0.59995300164E+03 0.  0.
        5    1    3    3  502    0  0.53050600904E+02 -0.17206072820E+03  0.30639248796E+03  0.35541202444E+03  0.46999998093E+01 0. -1.
       -5    1    3    3    0  502 -0.53050600904E+02  0.17206072820E+03 -0.18336050046E+03  0.25702611457E+03  0.46999998093E+01 0.  1.
</event>
<event>
 5   0  0.1250390E-02  0.5965978E+03  0.7818609E-02  0.9912490E-01
       -1   -1    0    0    0  501  0.00000000000E+00  0.00000000000E+00  0.18402317147E+03  0.18402317154E+03  0.50400001928E-02 0. -1.
        1   -1    0    0  501    0  0.00000000000E+00  0.00000000000E+00 -0.48353818610E+03  0.48353818612E+03  0.50400001928E-02 0.  1.
    10030    2    1    2    0    0  0.00000000000E+00  0.00000000000E+00 -0.29951501463E+03  0.66756135767E+03  0.59659778935E+03 0.  0.
        3    1    3    3  502    0 -0.71285853506E+02  0.77949733452E+02  0.16239541306E+03  0.19372690634E+03  0.10100000352E+00 0. -1.
       -3    1    3    3    0  502  0.71285853506E+02 -0.77949733452E+02 -0.46191042769E+03  0.47383445133E+03  0.10100000352E+00 0.  1.
</event>
<event>
 5   0  0.1303808E-02  0.5983953E+03  0.7818609E-02  0.9908741E-01
        1   -1    0    0  501    0  0.00000000000E+00  0.00000000000E+00  0.10988957976E+04  0.10988957976E+04  0.50400001928E-02 0.  1.
       -1   -1    0    0    0  501  0.00000000000E+00  0.00000000000E+00 -0.81462895041E+02  0.81462895197E+02  0.50400001928E-02 0. -1.
    10030    2    1    2    0    0  0.00000000000E+00  0.00000000000E+00  0.10174329026E+04  0.11803586928E+04  0.59839529784E+03 0.  0.
        4    1    3    3  502    0 -0.15929868781E+03  0.12043770517E+02  0.10077203376E+04  0.10203053543E+04  0.12699999809E+01 0.  1.
       -4    1    3    3    0  502  0.15929868781E+03 -0.12043770517E+02  0.97125649697E+01  0.16005333850E+03  0.12699999809E+01 0. -1.
</event>
<event>
 5   0  0.1337051E-02  0.5969990E+03  0.7818609E-02  0.9911652E-01
       -1   -1    0    0    0  501  0.00000000000E+00  0.00000000000E+00  0.68222575781E+03  0.68222575783E+03  0.50400001928E-02 0. -1.
        1   -1    0    0  501    0  0.00000000000E+00  0.00000000000E+00 -0.13060480406E+03  0.13060480416E+03  0.50400001928E-02 0.  1.
    10030    2    1    2    0    0  0.00000000000E+00  0.00000000000E+00  0.55162095375E+03  0.81283056198E+03  0.59699903340E+03 0.  0.
        5    1    3    3  502    0  0.22551757245E+03  0.48457147120E+01  0.54191234971E+03  0.58700318670E+03  0.46999998093E+01 0. -1.
       -5    1    3    3    0  502 -0.22551757245E+03 -0.48457147120E+01  0.97086040412E+01  0.22582737528E+03  0.46999998093E+01 0.  1.
</event>
<event>
 5   0  0.2141800E-02  0.5994861E+03  0.7818609E-02  0.9906473E-01
        2   -1    0    0  501    0  0.00000000000E+00  0.00000000000E+00  0.19651967553E+04  0.19651967553E+04  0.25500000920E-02 0. -1.
       -2   -1    0    0    0  501  0.00000000000E+00  0.00000000000E+00 -0.45718523346E+02  0.45718523417E+02  0.25500000920E-02 0.  1.
    10030    2    1    2    0    0  0.00000000000E+00  0.00000000000E+00  0.19194782319E+04  0.20109152787E+04  0.59948609261E+03 0.  0.
        2    1    3    3  502    0 -0.23508402659E+03  0.19892606885E+02  0.15799462579E+04  0.15974637377E+04  0.25500000920E-02 0. -1.
       -2    1    3    3    0  502  0.23508402659E+03 -0.19892606885E+02  0.33953197403E+03  0.41345154101E+03  0.25500000920E-02 0.  1.
</event>
<event>
 5   0  0.1332555E-02  0.6000206E+03  0.7818609E-02  0.9905363E-01
        1   -1    0    0  501    0  0.00000000000E+00  0.00000000000E+00  0.85070599336E+02  0.85070599486E+02  0.50400001928E-02 0.  1.
       -1   -1    0    0    0  501  0.00000000000E+00  0.00000000000E+00 -0.10580173355E+04  0.10580173355E+04  0.50400001928E-02 0. -1.
    10030    2    1    2    0    0  0.00000000000E+00  0.00000000000E+00 -0.97294673612E+03  0.11430879350E+04  0.60002056274E+03 0.  0.
        2    1    3    3  502    0 -0.21959071523E+03  0.16636413587E+03 -0.26018482695E+03  0.37893700281E+03  0.25500000920E-02 0. -1.
       -2    1    3    3    0  502  0.21959071523E+03 -0.16636413587E+03 -0.71276190918E+03  0.76415093215E+03  0.25500000920E-02 0.  1.
</event>
<event>
 5   0  0.2126207E-02  0.5935014E+03  0.7818609E-02  0.9918981E-01
        2   -1    0    0  501    0  0.00000000000E+00  0.00000000000E+00  0.20945578878E+03  0.20945578879E+03  0.25500000920E-02 0. -1.
       -2   -1    0    0    0  501  0.00000000000E+00  0.00000000000E+00 -0.42042750817E+03  0.42042750818E+03  0.25500000920E-02 0.  1.
    10030    2    1    2    0    0  0.00000000000E+00  0.00000000000E+00 -0.21097171939E+03  0.62988329697E+03  0.59350139125E+03 0.  0.
        5    1    3    3  502    0  0.18001154740E+03 -0.23583018303E+03 -0.10087769751E+03  0.31339820082E+03  0.46999998093E+01 0. -1.
       -5    1    3    3    0  502 -0.18001154740E+03  0.23583018303E+03 -0.11009402188E+03  0.31648509614E+03  0.46999998093E+01 0.  1.
</event>
<event>
 5   0  0.1276705E-02  0.6004559E+03  0.7818609E-02  0.9904461E-01
       -1   -1    0    0    0  501  0.00000000000E+00  0.00000000000E+00  0.70212084972E+03  0.70212084974E+03  0.50400001928E-02 0. -1.
        1   -1    0    0  501    0  0.00000000000E+00  0.00000000000E+00 -0.12837792617E+03  0.12837792627E+03  0.50400001928E-02 0.  1.
    10030    2    1    2    0    0  0.00000000000E+00  0.00000000000E+00  0.57374292355E+03  0.83049877600E+03  0.60045588898E+03 0.  0.
        1    1    3    3  502    0  0.28912120422E+03  0.80084714370E+02  0.27096947768E+03  0.40426363931E+03  0.50400001928E-02 0.  1.
       -1    1    3    3    0  502 -0.28912120422E+03 -0.80084714370E+02  0.30277344587E+03  0.42623513669E+03  0.50400001928E-02 0. -1.
</event>
<event>
 5   0  0.2092587E-02  0.6008587E+03  0.7818609E-02  0.9903626E-01
       -2   -1    0    0    0  501  0.00000000000E+00  0.00000000000E+00  0.38788992125E+03  0.38788992126E+03  0.25500000920E-02 0.  1.
        2   -1    0    0  501    0  0.00000000000E+00  0.00000000000E+00 -0.23268923194E+03  0.23268923196E+03  0.25500000920E-02 0. -1.
    10030    2    1    2    0    0  0.00000000000E+00  0.00000000000E+00  0.15520068931E+03  0.62057915321E+03  0.60085874500E+03 0.  0.
        3    1    3    3  502    0 -0.23243335854E+03 -0.17724847055E+03  0.59289271223E+01  0.29236526615E+03  0.10100000352E+00 0. -1.
       -3    1    3    3    0  502  0.23243335854E+03  0.17724847055E+03  0.14927176219E+03  0.32821388706E+03  0.10100000352E+00 0.  1.
</event>
<event>
 5   0  0.2126207E-02  0.6007058E+03  0.7818609E-02  0.9903943E-01
        2   -1    0    0  501    0  0.00000000000E+00  0.00000000000E+00  0.14798828209E+04  0.14798828209E+04  0.25500000920E-02 0.  1.
       -2   -1    0    0    0  501  0.00000000000E+00  0.00000000000E+00 -0.60958779780E+02  0.60958779833E+02  0.25500000920E-02 0. -1.
    10030    2    1    2    0    0  0.00000000000E+00  0.00000000000E+00  0.14189240412E+04  0.15408416008E+04  0.60070575501E+03 0.  0.
        5    1    3    3  502    0  0.26205726413E+03  0.88760021747E+02  0.10090070721E+04  0.10462646476E+04  0.46999998093E+01 0.  1.
       -5    1    3    3    0  502 -0.26205726413E+03 -0.88760021747E+02  0.40991696902E+03  0.49457695320E+03  0.46999998093E+01 0. -1.
</event>
<event>
 5   0  0.2126207E-02  0.5969370E+03  0.7818609E-02  0.9911781E-01
        2   -1    0    0  501    0  0.00000000000E+00  0.00000000000E+00  0.49852582508E+03  0.49852582509E+03  0.25500000920E-02 0. -1.
       -2   -1    0    0    0  501  0.00000000000E+00  0.00000000000E+00 -0.17869374096E+03  0.17869374098E+03  0.25500000920E-02 0.  1.
    10030    2    1    2    0    0  0.00000000000E+00  0.00000000000E+00  0.31983208413E+03  0.67721956607E+03  0.59693699720E+03 0.  0.
        5    1    3    3  502    0 -0.12100395165E+03  0.16821760964E+03 -0.83728209160E+02  0.22354333700E+03  0.46999998093E+01 0.  1.
       -5    1    3    3    0  502  0.12100395165E+03 -0.16821760964E+03  0.40356029329E+03  0.45367622907E+03  0.46999998093E+01 0. -1.
</event>
<event>
 5   0  0.2092587E-02  0.6007329E+03  0.7818609E-02  0.9903887E-01
        2   -1    0    0  501    0  0.00000000000E+00  0.00000000000E+00  0.90161167793E+03  0.90161167793E+03  0.25500000920E-02 0. -1.
       -2   -1    0    0    0  501  0.00000000000E+00  0.00000000000E+00 -0.10006526227E+03  0.10006526230E+03  0.25500000920E-02 0.  1.
    10030    2    1    2    0    0  0.00000000000E+00  0.00000000000E+00  0.80154641566E+03  0.10016769402E+04  0.60073291581E+03 0.  0.
        3    1    3    3  502    0  0.24475448758E+03  0.83698013408E+02  0.14619789480E+03  0.29712615382E+03  0.10100000352E+00 0.  1.
       -3    1    3    3    0  502 -0.24475448758E+03 -0.83698013408E+02  0.65534852086E+03  0.70455078641E+03  0.10100000352E+00 0. -1.
</event>
<event>
 5   0  0.1276705E-02  0.6020621E+03  0.7818609E-02  0.9901137E-01
       -1   -1    0    0    0  501  0.00000000000E+00  0.00000000000E+00  0.16575761652E+03  0.16575761660E+03  0.50400001928E-02 0. -1.
        1   -1    0    0  501    0  0.00000000000E+00  0.00000000000E+00 -0.54670006845E+03  0.54670006847E+03  0.50400001928E-02 0.  1.
    10030    2    1    2    0    0  0.00000000000E+00  0.00000000000E+00 -0.38094245192E+03  0.71245768507E+03  0.60206212415E+03 0.  0.
        1    1    3    3  502    0  0.18095968910E+03 -0.17713313713E+03  0.21558327838E+01  0.25323349895E+03  0.50400001928E-02 0. -1.
       -1    1    3    3    0  502 -0.18095968910E+03  0.17713313713E+03 -0.38309828471E+03  0.45922418612E+03  0.50400001928E-02 0.  1.
</event>
<event>
 5   0  0.1332555E-02  0.5995614E+03  0.7818609E-02  0.9906316E-01
        1   -1    0    0  501    0  0.00000000000E+00  0.00000000000E+00  0.45387616484E+03  0.45387616487E+03  0.50400001928E-02 0.  1.
       -1   -1    0    0    0  501  0.00000000000E+00  0.00000000000E+00 -0.19800217201E+03  0.19800217207E+03  0.50400001928E-02 0. -1.
    10030    2    1    2    0    0  0.00000000000E+00  0.00000000000E+00  0.25587399283E+03  0.65187833694E+03  0.59956139466E+03 0.  0.
        2    1    3    3  502    0 -0.41435979469E+02 -0.31376949641E+01  0.45072958314E+03  0.45264107486E+03  0.25500000920E-02 0.  1.
       -2    1    3    3    0  502  0.41435979469E+02  0.31376949641E+01 -0.19485559030E+03  0.19923726209E+03  0.25500000920E-02 0. -1.
</event>
<event>
 5   0  0.1337051E-02  0.5997214E+03  0.7818609E-02  0.9905984E-01
       -1   -1    0    0    0  501  0.00000000000E+00  0.00000000000E+00  0.12418789698E+03  0.12418789708E+03  0.50400001928E-02 0. -1.
        1   -1    0    0  501    0  0.00000000000E+00  0.00000000000E+00 -0.72403549002E+03  0.72403549003E+03  0.50400001928E-02 0.  1.
    10030    2    1    2    0    0  0.00000000000E+00  0.00000000000E+00 -0.59984759304E+03  0.84822338711E+03  0.59972141830E+03 0.  0.
        5    1    3    3  502    0 -0.86137422307E+02  0.19815304186E+03 -0.59198399143E+01  0.21619763649E+03  0.46999998093E+01 0. -1.
       -5    1    3    3    0  502  0.86137422307E+02 -0.19815304186E+03 -0.59392775313E+03  0.63202575062E+03  0.46999998093E+01 0.  1.
</event>
<event>
 5   0  0.2141800E-02  0.6086755E+03  0.7818609E-02  0.9887569E-01
       -2   -1    0    0    0  501  0.00000000000E+00  0.00000000000E+00  0.16094826836E+03  0.16094826838E+03  0.25500000920E-02 0. -1.
        2   -1    0    0  501    0  0.00000000000E+00  0.00000000000E+00 -0.57547348706E+03  0.57547348707E+03  0.25500000920E-02 0.  1.
    10030    2    1    2    0    0  0.00000000000E+00  0.00000000000E+00 -0.41452521870E+03  0.73642175544E+03  0.60867548410E+03 0.  0.
        2    1    3    3  502    0  0.19918386483E+03 -0.19363503005E+03 -0.56864170211E+02  0.28355294167E+03  0.25500000920E-02 0. -1.
       -2    1    3    3    0  502 -0.19918386483E+03  0.19363503005E+03 -0.35766104849E+03  0.45286881377E+03  0.25500000920E-02 0.  1.
</event>
<event>
 5   0  0.1250390E-02  0.6005907E+03  0.7818609E-02  0.9904181E-01
       -1   -1    0    0    0  501  0.00000000000E+00  0.00000000000E+00  0.51742508954E+03  0.51742508957E+03  0.50400001928E-02 0.  1.
        1   -1    0    0  501    0  0.00000000000E+00  0.00000000000E+00 -0.17428088270E+03  0.17428088278E+03  0.50400001928E-02 0. -1.
    10030    2    1    2    0    0  0.00000000000E+00  0.00000000000E+00  0.34314420684E+03  0.69170597234E+03  0.60059071379E+03 0.  0.
        3    1    3    3  502    0  0.16321693654E+03  0.22520269051E+03  0.30198136993E+03  0.41054692566E+03  0.10100000352E+00 0.  1.
       -3    1    3    3    0  502 -0.16321693654E+03 -0.22520269051E+03  0.41162836907E+02  0.28115904668E+03  0.10100000352E+00 0. -1.
</event>
<event>
 5   0  0.1303808E-02  0.6033416E+03  0.7818609E-02  0.9898497E-01
       -1   -1    0    0    0  501  0.00000000000E+00  0.00000000000E+00  0.16104246302E+03  0.16104246310E+03  0.50400001928E-02 0.  1.
        1   -1    0    0  501    0  0.00000000000E+00  0.00000000000E+00 -0.56510111733E+03  0.56510111735E+03  0.50400001928E-02 0. -1.
    10030    2    1    2    0    0  0.00000000000E+00  0.00000000000E+00 -0.40405865431E+03  0.72614358045E+03  0.60334161411E+03 0.  0.
        4    1    3    3  502    0 -0.15138949521E+03  0.18537691932E+03 -0.42303571013E+03  0.48604959256E+03  0.12699999809E+01 0. -1.
       -4    1    3    3    0  502  0.15138949521E+03 -0.18537691932E+03  0.18977055825E+02  0.24009398790E+03  0.12699999809E+01 0.  1.
</event>
<event>
 5   0  0.2142838E-02  0.6013895E+03  0.7818609E-02  0.9902527E-01
        2   -1    0    0  501    0  0.00000000000E+00  0.00000000000E+00  0.39891994742E+03  0.39891994742E+03  0.25500000920E-02 0. -1.
       -2   -1    0    0    0  501  0.00000000000E+00  0.00000000000E+00 -0.22665532835E+03  0.22665532837E+03  0.25500000920E-02 0.  1.
    10030    2    1    2    0    0  0.00000000000E+00  0.00000000000E+00  0.17226461906E+03  0.62557527579E+03  0.60138949667E+03 0.  0.
        4    1    3    3  502    0  0.15166243526E+03 -0.55908216670E+02 -0.17761641584E+03  0.24015917021E+03  0.12699999809E+01 0.  1.
       -4    1    3    3    0  502 -0.15166243526E+03  0.55908216670E+02  0.34988103490E+03  0.38541610558E+03  0.12699999809E+01 0. -1.
</event>
<event>
 5   0  0.8551000E-03  0.5995773E+03  0.7818609E-02  0.9906283E-01
        3   -1    0    0  501    0  0.00000000000E+00  0.00000000000E+00  0.78341657328E+03  0.78341657979E+03  0.10100000352E+00 0.  1.
       -3   -1    0    0    0  501  0.00000000000E+00  0.00000000000E+00 -0.11471956075E+03  0.11471960521E+03  0.10100000352E+00 0. -1.
    10030    2    1    2    0    0  0.00000000000E+00  0.00000000000E+00  0.66869701253E+03  0.89813618500E+03  0.59957727797E+03 0.  0.
        4    1    3    3  502    0 -0.26656351285E+03 -0.13652573833E+03  0.35423411364E+03  0.46387369377E+03  0.12699999809E+01 0.  1.
       -4    1    3    3    0  502  0.26656351285E+03  0.13652573833E+03  0.31446289889E+03  0.43426249123E+03  0.12699999809E+01 0. -1.
</event>
<event>
 5   0  0.1303808E-02  0.5980887E+03  0.7818609E-02  0.9909379E-01
        1   -1    0    0  501    0  0.00000000000E+00  0.00000000000E+00  0.21931759235E+03  0.21931759241E+03  0.50400001928E-02 0.  1.
       -1   -1    0    0    0  501  0.00000000000E+00  0.00000000000E+00 -0.40775355899E+03  0.40775355902E+03  0.50400001928E-02 0. -1.
    10030    2    1    2    0    0  0.00000000000E+00  0.00000000000E+00 -0.18843596664E+03  0.62707115143E+03  0.59808871869E+03 0.  0.
        4    1    3    3  502    0 -0.63828734986E+01  0.13213921674E+03 -0.37540116539E+03  0.39803160873E+03  0.12699999809E+01 0. -1.
       -4    1    3    3    0  502  0.63828734986E+01 -0.13213921674E+03  0.18696519875E+03  0.22903954270E+03  0.12699999809E+01 0.  1.
</event>
<event>
 5   0  0.8551000E-03  0.5990409E+03  0.7818609E-02  0.9907398E-01
        3   -1    0    0  501    0  0.00000000000E+00  0.00000000000E+00  0.11346077786E+03  0.11346082281E+03  0.10100000352E+00 0.  1.
       -3   -1    0    0    0  501  0.00000000000E+00  0.00000000000E+00 -0.79069160647E+03  0.79069161292E+03  0.10100000352E+00 0. -1.
    10030    2    1    2    0    0  0.00000000000E+00  0.00000000000E+00 -0.67723082861E+03  0.90415243573E+03  0.59904092667E+03 0.  0.
        5    1    3    3  502    0 -0.16786669882E+03 -0.16112796048E+03 -0.54039151674E+02  0.23892209636E+03  0.46999998093E+01 0.  1.
       -5    1    3    3    0  502  0.16786669882E+03  0.16112796048E+03 -0.62319167693E+03  0.66523033937E+03  0.46999998093E+01 0. -1.
</event>
<event>
 5   0  0.1303808E-02  0.5991038E+03  0.7818609E-02  0.9907267E-01
        1   -1    0    0  501    0  0.00000000000E+00  0.00000000000E+00  0.13649319208E+04  0.13649319208E+04  0.50400001928E-02 0. -1.
       -1   -1    0    0    0  501  0.00000000000E+00  0.00000000000E+00 -0.65740513804E+02  0.65740513997E+02  0.50400001928E-02 0.  1.
    10030    2    1    2    0    0  0.00000000000E+00  0.00000000000E+00  0.12991914070E+04  0.14306724348E+04  0.59910375036E+03 0.  0.
        4    1    3    3  502    0  0.27167052814E+03  0.71840126427E+02  0.89735026254E+03  0.94032174610E+03  0.12699999809E+01 0. -1.
       -4    1    3    3    0  502 -0.27167052814E+03 -0.71840126427E+02  0.40184114443E+03  0.49035068867E+03  0.12699999809E+01 0.  1.
</event>
<event>
 5   0  0.1276705E-02  0.5980778E+03  0.7818609E-02  0.9909402E-01
       -1   -1    0    0    0  501  0.00000000000E+00  0.00000000000E+00  0.96338804446E+02  0.96338804578E+02  0.50400001928E-02 0.  1.
        1   -1    0    0  501    0  0.00000000000E+00  0.00000000000E+00 -0.92822689428E+03  0.92822689430E+03  0.50400001928E-02 0. -1.
    10030    2    1    2    0    0  0.00000000000E+00  0.00000000000E+00 -0.83188808984E+03  0.10245656989E+04  0.59807781876E+03 0.  0.
        1    1    3    3  502    0  0.29419904680E+02  0.42853739066E+02  0.88540073664E+02  0.10267092292E+03  0.50400001928E-02 0.  1.
       -1    1    3    3    0  502 -0.29419904680E+02 -0.42853739066E+02 -0.92042816350E+03  0.92189477595E+03  0.50400001928E-02 0. -1.
</event>
<event>
 5   0  0.2179625E-02  0.6042214E+03  0.7818609E-02  0.9896687E-01
        2   -1    0    0  501    0  0.00000000000E+00  0.00000000000E+00  0.20212136936E+03  0.20212136937E+03  0.25500000920E-02 0. -1.
       -2   -1    0    0    0  501  0.00000000000E+00  0.00000000000E+00 -0.45156464647E+03  0.45156464648E+03  0.25500000920E-02 0.  1.
    10030    2    1    2    0    0  0.00000000000E+00  0.00000000000E+00 -0.24944327711E+03  0.65368601585E+03  0.60422136575E+03 0.  0.
        1    1    3    3  502    0 -0.24154790555E+03  0.15821010839E+03 -0.22084969523E+03  0.36352498811E+03  0.50400001928E-02 0.  1.
       -1    1    3    3    0  502  0.24154790555E+03 -0.15821010839E+03 -0.28593581882E+02  0.29016102774E+03  0.50400001928E-02 0. -1.
</event>
<event>
 5   0  0.1250390E-02  0.6003651E+03  0.7818609E-02  0.9904649E-01
       -1   -1    0    0    0  501  0.00000000000E+00  0.00000000000E+00  0.26494809976E+03  0.26494809981E+03  0.50400001928E-02 0.  1.
        1   -1    0    0  501    0  0.00000000000E+00  0.00000000000E+00 -0.34010271012E+03  0.34010271016E+03  0.50400001928E-02 0. -1.
    10030    2    1    2    0    0  0.00000000000E+00  0.00000000000E+00 -0.75154610355E+02  0.60505080997E+03  0.60036511157E+03 0.  0.
        3    1    3    3  502    0 -0.11046505657E+03 -0.91658623645E+02  0.22811971737E+03  0.26952262923E+03  0.10100000352E+00 0.  1.
       -3    1    3    3    0  502  0.11046505657E+03  0.91658623645E+02 -0.30327432773E+03  0.33552818074E+03  0.10100000352E+00 0. -1.
</event>
<event>
 5   0  0.2141800E-02  0.6003711E+03  0.7818609E-02  0.9904637E-01
       -2   -1    0    0    0  501  0.00000000000E+00  0.00000000000E+00  0.22897002625E+03  0.22897002626E+03  0.25500000920E-02 0.  1.
        2   -1    0    0  501    0  0.00000000000E+00  0.00000000000E+00 -0.39355085595E+03  0.39355085596E+03  0.25500000920E-02 0. -1.
    10030    2    1    2    0    0  0.00000000000E+00  0.00000000000E+00 -0.16458082971E+03  0.62252088222E+03  0.60037105135E+03 0.  0.
        2    1    3    3  502    0 -0.99755620460E+02 -0.27687433368E+03 -0.14364060744E+03  0.32748008271E+03  0.25500000920E-02 0.  1.
       -2    1    3    3    0  502  0.99755620460E+02  0.27687433368E+03 -0.20940222269E+02  0.29504079951E+03  0.25500000920E-02 0. -1.
</event>
<event>
 5   0  0.2092587E-02  0.5978818E+03  0.7818609E-02  0.9909810E-01
        2   -1    0    0  501    0  0.00000000000E+00  0.00000000000E+00  0.52396780762E+03  0.52396780763E+03  0.25500000920E-02 0.  1.
       -2   -1    0    0    0  501  0.00000000000E+00  0.00000000000E+00 -0.17055564246E+03  0.17055564247E+03  0.25500000920E-02 0. -1.
    10030    2    1    2    0    0  0.00000000000E+00  0.00000000000E+00  0.35341216517E+03  0.69452345011E+03  0.59788181462E+03 0.  0.
        3    1    3    3  502    0  0.15540733003E+03 -0.62994532098E+00 -0.11994189571E+03  0.19631073227E+03  0.10100000352E+00 0. -1.
       -3    1    3    3    0  502 -0.15540733003E+03  0.62994532098E+00  0.47335406088E+03  0.49821271783E+03  0.10100000352E+00 0.  1.
</event>
<event>
 5   0  0.8551000E-03  0.5990818E+03  0.7818609E-02  0.9907313E-01
        3   -1    0    0  501    0  0.00000000000E+00  0.00000000000E+00  0.13541053109E+03  0.13541056875E+03  0.10100000352E+00 0.  1.
       -3   -1    0    0    0  501  0.00000000000E+00  0.00000000000E+00 -0.66261266260E+03  0.66261267030E+03  0.10100000352E+00 0. -1.
    10030    2    1    2    0    0  0.00000000000E+00  0.00000000000E+00 -0.52720213152E+03  0.79802323905E+03  0.59908179958E+03 0.  0.
        2    1    3    3  502    0  0.38297742006E+02 -0.82738904946E+02 -0.64368056410E+03  0.65010546224E+03  0.25500000920E-02 0. -1.
       -2    1    3    3    0  502 -0.38297742006E+02  0.82738904946E+02  0.11647843258E+03  0.14791777681E+03  0.25500000920E-02 0.  1.
</event>
<event>
 5   0  0.1337051E-02  0.5971528E+03  0.7818609E-02  0.9911331E-01
       -1   -1    0    0    0  501  0.00000000000E+00  0.00000000000E+00  0.41051073930E+03  0.41051073933E+03  0.50400001928E-02 0. -1.
        1   -1    0    0  501    0  0.00000000000E+00  0.00000000000E+00 -0.21716326496E+03  0.21716326502E+03  0.50400001928E-02 0.  1.
    10030    2    1    2    0    0  0.00000000000E+00  0.00000000000E+00  0.19334747434E+03  0.62767400435E+03  0.59715275258E+03 0.  0.
        5    1    3    3  502    0  0.22311662453E+03 -0.11165382288E+03 -0.75651330021E+02  0.26075432506E+03  0.46999998093E+01 0. -1.
       -5    1    3    3    0  502 -0.22311662453E+03  0.11165382288E+03  0.26899880436E+03  0.36691967929E+03  0.46999998093E+01 0.  1.
</event>
<event>
 5   0  0.2142838E-02  0.6020875E+03  0.7818609E-02  0.9901085E-01
       -2   -1    0    0    0  501  0.00000000000E+00  0.00000000000E+00  0.27558196989E+03  0.27558196990E+03  0.25500000920E-02 0. -1.
        2   -1    0    0  501    0  0.00000000000E+00  0.00000000000E+00 -0.32885803866E+03  0.32885803867E+03  0.25500000920E-02 0.  1.
    10030    2    1    2    0    0  0.00000000000E+00  0.00000000000E+00 -0.53276068768E+02  0.60444000857E+03  0.60208752226E+03 0.  0.
        4    1    3    3  502    0 -0.11813577920E+03 -0.19345379833E+02 -0.30393353999E+03  0.32666116340E+03  0.12699999809E+01 0.  1.
       -4    1    3    3    0  502  0.11813577920E+03  0.19345379833E+02  0.25065747122E+03  0.27777884517E+03  0.12699999809E+01 0. -1.
</event>
<event>
 5   0  0.2142838E-02  0.6003318E+03  0.7818609E-02  0.9904718E-01
        2   -1    0    0  501    0  0.00000000000E+00  0.00000000000E+00  0.70858836125E+03  0.70858836126E+03  0.25500000920E-02 0.  1.
       -2   -1    0    0    0  501  0.00000000000E+00  0.00000000000E+00 -0.12715359789E+03  0.12715359792E+03  0.25500000920E-02 0. -1.
    10030    2    1    2    0    0  0.00000000000E+00  0.00000000000E+00  0.58143476336E+03  0.83574195917E+03  0.60033177351E+03 0.  0.
        4    1    3    3  502    0 -0.18364902186E+03  0.98237486332E+02  0.59162560684E+03  0.62721610193E+03  0.12699999809E+01 0.  1.
       -4    1    3    3    0  502  0.18364902186E+03 -0.98237486332E+02 -0.10190843481E+02  0.20852585725E+03  0.12699999809E+01 0. -1.
</event>
<event>
 5   0  0.2141800E-02  0.6012090E+03  0.7818609E-02  0.9902901E-01
        2   -1    0    0  501    0  0.00000000000E+00  0.00000000000E+00  0.14589546621E+04  0.14589546621E+04  0.25500000920E-02 0. -1.
       -2   -1    0    0    0  501  0.00000000000E+00  0.00000000000E+00 -0.61936857600E+02  0.61936857652E+02  0.25500000920E-02 0.  1.
    10030    2    1    2    0    0  0.00000000000E+00  0.00000000000E+00  0.13970178045E+04  0.15208915197E+04  0.60120900589E+03 0.  0.
        2    1    3    3  502    0  0.92465208524E+02  0.20154875043E+03  0.18508534354E+03  0.28883957137E+03  0.25500000920E-02 0.  1.
       -2    1    3    3    0  502 -0.92465208524E+02 -0.20154875043E+03  0.12119324609E+04  0.12320519484E+04  0.25500000920E-02 0. -1.
</event>
<event>
 5   0  0.1250390E-02  0.6017739E+03  0.7818609E-02  0.9901733E-01
       -1   -1    0    0    0  501  0.00000000000E+00  0.00000000000E+00  0.34226375152E+03  0.34226375156E+03  0.50400001928E-02 0. -1.
        1   -1    0    0  501    0  0.00000000000E+00  0.00000000000E+00 -0.26451227346E+03  0.26451227351E+03  0.50400001928E-02 0.  1.
    10030    2    1    2    0    0  0.00000000000E+00  0.00000000000E+00  0.77751478055E+02  0.60677602507E+03  0.60177392122E+03 0.  0.
        3    1    3    3  502    0  0.71110064431E+01  0.28996599478E+03 -0.41802527572E+02  0.29305000606E+03  0.10100000352E+00 0.  1.
       -3    1    3    3    0  502 -0.71110064431E+01 -0.28996599478E+03  0.11955400563E+03  0.31372601901E+03  0.10100000352E+00 0. -1.
</event>
<event>
 5   0  0.2092587E-02  0.6011520E+03  0.7818609E-02  0.9903019E-01
        2   -1    0    0  501    0  0.00000000000E+00  0.00000000000E+00  0.17943564773E+04  0.17943564773E+04  0.25500000920E-02 0.  1.
       -2   -1    0    0    0  501  0.00000000000E+00  0.00000000000E+00 -0.50350050538E+02  0.50350050602E+02  0.25500000920E-02 0. -1.
    10030    2    1    2    0    0  0.00000000000E+00  0.00000000000E+00  0.17440064267E+04  0.18447065279E+04  0.60115202528E+03 0.  0.
        3    1    3    3  502    0 -0.37711105584E+02 -0.93843953933E+02  0.17405748001E+04  0.17435106711E+04  0.10100000352E+00 0.  1.
       -3    1    3    3    0  502  0.37711105584E+02  0.93843953933E+02  0.34316266391E+01  0.10119585682E+03  0.10100000352E+00 0. -1.
</event>
<event>
 5   0  0.1337051E-02  0.6068784E+03  0.7818609E-02  0.9891238E-01
        1   -1    0    0  501    0  0.00000000000E+00  0.00000000000E+00  0.19341739385E+03  0.19341739391E+03  0.50400001928E-02 0. -1.
       -1   -1    0    0    0  501  0.00000000000E+00  0.00000000000E+00 -0.47604475089E+03  0.47604475092E+03  0.50400001928E-02 0.  1.
    10030    2    1    2    0    0  0.00000000000E+00  0.00000000000E+00 -0.28262735705E+03  0.66946214483E+03  0.60687835718E+03 0.  0.
        5    1    3    3  502    0  0.17467282107E+03 -0.21366689604E+03 -0.28036468490E+03  0.39343434448E+03  0.46999998093E+01 0.  1.
       -5    1    3    3    0  502 -0.17467282107E+03  0.21366689604E+03 -0.22626721524E+01  0.27602780035E+03  0.46999998093E+01 0. -1.
</event>
<event>
 5   0  0.1250390E-02  0.6004970E+03  0.7818609E-02  0.9904375E-01
        1   -1    0    0  501    0  0.00000000000E+00  0.00000000000E+00  0.54722123592E+03  0.54722123594E+03  0.50400001928E-02 0.  1.
       -1   -1    0    0    0  501  0.00000000000E+00  0.00000000000E+00 -0.16473988089E+03  0.16473988097E+03  0.50400001928E-02 0. -1.
    10030    2    1    2    0    0  0.00000000000E+00  0.00000000000E+00  0.38248135502E+03  0.71196111691E+03  0.60049699836E+03 0.  0.
        3    1    3    3  502    0 -0.15953800424E+03  0.17849101409E+03  0.40608902918E+03  0.47140187392E+03  0.10100000352E+00 0.  1.
       -3    1    3    3    0  502  0.15953800424E+03 -0.17849101409E+03 -0.23607674156E+02  0.24055924299E+03  0.10100000352E+00 0. -1.
</event>
<event>
 5   0  0.1337051E-02  0.5984226E+03  0.7818609E-02  0.9908684E-01
       -1   -1    0    0    0  501  0.00000000000E+00  0.00000000000E+00  0.27426969889E+03  0.27426969894E+03  0.50400001928E-02 0. -1.
        1   -1    0    0  501    0  0.00000000000E+00  0.00000000000E+00 -0.32642107098E+03  0.32642107102E+03  0.50400001928E-02 0.  1.
    10030    2    1    2    0    0  0.00000000000E+00  0.00000000000E+00 -0.52151372085E+02  0.60069076996E+03  0.59842262282E+03 0.  0.
        5    1    3    3  502    0 -0.93167876724E+02  0.23254995490E+03 -0.19023631182E+03  0.31459764638E+03  0.46999998093E+01 0.  1.
       -5    1    3    3    0  502  0.93167876724E+02 -0.23254995490E+03  0.13808493973E+03  0.28609312357E+03  0.46999998093E+01 0. -1.
</event>
<event>
 5   0  0.2142838E-02  0.5929759E+03  0.7818609E-02  0.9920087E-01
       -2   -1    0    0    0  501  0.00000000000E+00  0.00000000000E+00  0.23215265732E+03  0.23215265733E+03  0.25500000920E-02 0.  1.
        2   -1    0    0  501    0  0.00000000000E+00  0.00000000000E+00 -0.37865218590E+03  0.37865218591E+03  0.25500000920E-02 0. -1.
    10030    2    1    2    0    0  0.00000000000E+00  0.00000000000E+00 -0.14649952858E+03  0.61080484325E+03  0.59297592249E+03 0.  0.
        4    1    3    3  502    0  0.63689640697E+02  0.15001967371E+03  0.18186854994E+03  0.24421313476E+03  0.12699999809E+01 0.  1.
       -4    1    3    3    0  502 -0.63689640697E+02 -0.15001967371E+03 -0.32836807853E+03  0.36659170848E+03  0.12699999809E+01 0. -1.
</event>
<event>
 5   0  0.1303808E-02  0.6009285E+03  0.7818609E-02  0.9903482E-01
        1   -1    0    0  501    0  0.00000000000E+00  0.00000000000E+00  0.12549556379E+04  0.12549556380E+04  0.50400001928E-02 0. -1.
       -1   -1    0    0    0  501  0.00000000000E+00  0.00000000000E+00 -0.71937819694E+02  0.71937819870E+02  0.50400001928E-02 0.  1.
    10030    2    1    2    0    0  0.00000000000E+00  0.00000000000E+00  0.11830178182E+04  0.13268934578E+04  0.60092852330E+03 0.  0.
        4    1    3    3  502    0 -0.74333788008E+02 -0.26110491179E+03  0.30722555240E+03  0.40998834123E+03  0.12699999809E+01 0.  1.
       -4    1    3    3    0  502  0.74333788008E+02  0.26110491179E+03  0.87579226585E+03  0.91690511659E+03  0.12699999809E+01 0. -1.
</event>
<event>
 5   0  0.1250390E-02  0.5969489E+03  0.7818609E-02  0.9911756E-01
        1   -1    0    0  501    0  0.00000000000E+00  0.00000000000E+00  0.16458059074E+04  0.16458059075E+04  0.50400001928E-02 0. -1.
       -1   -1    0    0    0  501  0.00000000000E+00  0.00000000000E+00 -0.54129707507E+02  0.54129707742E+02  0.50400001928E-02 0.  1.
    10030    2    1    2    0    0  0.00000000000E+00  0.00000000000E+00  0.15916761999E+04  0.16999356152E+04  0.59694888421E+03 0.  0.
        3    1    3    3  502    0  0.94089158440E+02  0.44496615912E+02  0.15924546653E+04  0.15958523083E+04  0.10100000352E+00 0. -1.
       -3    1    3    3    0  502 -0.94089158440E+02 -0.44496615912E+02 -0.77846540165E+00  0.10408330689E+03  0.10100000352E+00 0.  1.
</event>
<event>
 5   0  0.2141800E-02  0.5972784E+03  0.7818609E-02  0.9911069E-01
        2   -1    0    0  501    0  0.00000000000E+00  0.00000000000E+00  0.10166930338E+04  0.10166930338E+04  0.25500000920E-02 0. -1.
       -2   -1    0    0    0  501  0.00000000000E+00  0.00000000000E+00 -0.87721051536E+02  0.87721051573E+02  0.25500000920E-02 0.  1.
    10030    2    1    2    0    0  0.00000000000E+00  0.00000000000E+00  0.92897198227E+03  0.11044140854E+04  0.59727843436E+03 0.  0.
        2    1    3    3  502    0  0.28670312444E+02 -0.13526998766E+03  0.95393447218E+03  0.96390400642E+03  0.25500000920E-02 0. -1.
       -2    1    3    3    0  502 -0.28670312444E+02  0.13526998766E+03 -0.24962489915E+02  0.14051007895E+03  0.25500000920E-02 0.  1.
</event>
<event>
 5   0  0.1250390E-02  0.6010827E+03  0.7818609E-02  0.9903162E-01
        1   -1    0    0  501    0  0.00000000000E+00  0.00000000000E+00  0.17129579740E+03  0.17129579748E+03  0.50400001928E-02 0. -1.
       -1   -1    0    0    0  501  0.00000000000E+00  0.00000000000E+00 -0.52730489194E+03  0.52730489196E+03  0.50400001928E-02 0.  1.
    10030    2    1    2    0    0  0.00000000000E+00  0.00000000000E+00 -0.35600909454E+03  0.69860068944E+03  0.60108272966E+03 0.  0.
        3    1    3    3  502    0 -0.18086692828E+03  0.17438339719E+03  0.13685983831E+02  0.25161425102E+03  0.10100000352E+00 0.  1.
       -3    1    3    3    0  502  0.18086692828E+03 -0.17438339719E+03 -0.36969507837E+03  0.44698643842E+03  0.10100000352E+00 0. -1.
</event>
<event>
 5   0  0.2142838E-02  0.5987671E+03  0.7818609E-02  0.9907967E-01
       -2   -1    0    0    0  501  0.00000000000E+00  0.00000000000E+00  0.13695501830E+03  0.13695501833E+03  0.25500000920E-02 0.  1.
        2   -1    0    0  501    0  0.00000000000E+00  0.00000000000E+00 -0.65445221545E+03  0.65445221545E+03  0.25500000920E-02 0. -1.
    10030    2    1    2    0    0  0.00000000000E+00  0.00000000000E+00 -0.51749719714E+03  0.79140723378E+03  0.59876711719E+03 0.  0.
        4    1    3    3  502    0 -0.14159424259E+03 -0.76766493734E+02 -0.59230329056E+03  0.61381334704E+03  0.12699999809E+01 0. -1.
       -4    1    3    3    0  502  0.14159424259E+03  0.76766493734E+02  0.74806093420E+02  0.17759388674E+03  0.12699999809E+01 0.  1.
</event>
<event>
 5   0  0.2179625E-02  0.6000704E+03  0.7818609E-02  0.9905260E-01
        2   -1    0    0  501    0  0.00000000000E+00  0.00000000000E+00  0.14775203228E+04  0.14775203228E+04  0.25500000920E-02 0.  1.
       -2   -1    0    0    0  501  0.00000000000E+00  0.00000000000E+00 -0.60927159651E+02  0.60927159704E+02  0.25500000920E-02 0. -1.
    10030    2    1    2    0    0  0.00000000000E+00  0.00000000000E+00  0.14165931631E+04  0.15384474825E+04  0.60007038466E+03 0.  0.
        1    1    3    3  502    0  0.19496942661E+03 -0.28005841253E+01  0.12929291058E+04  0.13075498435E+04  0.50400001928E-02 0.  1.
       -1    1    3    3    0  502 -0.19496942661E+03  0.28005841253E+01  0.12366405730E+03  0.23089763896E+03  0.50400001928E-02 0. -1.
</event>
<event>
 5   0  0.2092587E-02  0.6000363E+03  0.7818609E-02  0.9905331E-01
        2   -1    0    0  501    0  0.00000000000E+00  0.00000000000E+00  0.11662622214E+04  0.11662622214E+04  0.25500000920E-02 0. -1.
       -2   -1    0    0    0  501  0.00000000000E+00  0.00000000000E+00 -0.77178959640E+02  0.77178959683E+02  0.25500000920E-02 0.  1.
    10030    2    1    2    0    0  0.00000000000E+00  0.00000000000E+00  0.10890832618E+04  0.12434411811E+04  0.60003634872E+03 0.  0.
        3    1    3    3  502    0 -0.95060784635E+02 -0.35866211892E+02  0.11295256914E+04  0.11340860795E+04  0.10100000352E+00 0. -1.
       -3    1    3    3    0  502  0.95060784635E+02  0.35866211892E+02 -0.40442429643E+02  0.10935510161E+03  0.10100000352E+00 0.  1.
</event>
<event>
 5   0  0.2092587E-02  0.5980980E+03  0.7818609E-02  0.9909360E-01
        2   -1    0    0  501    0  0.00000000000E+00  0.00000000000E+00  0.43276249021E+03  0.43276249022E+03  0.25500000920E-02 0.  1.
       -2   -1    0    0    0  501  0.00000000000E+00  0.00000000000E+00 -0.20664988071E+03  0.20664988073E+03  0.25500000920E-02 0. -1.
    10030    2    1    2    0    0  0.00000000000E+00  0.00000000000E+00  0.22611260950E+03  0.63941237094E+03  0.59809804208E+03 0.  0.
        3    1    3    3  502    0  0.14790874241E+03 -0.74115024340E+02  0.37938348907E+03  0.41388630673E+03  0.10100000352E+00 0.  1.
       -3    1    3    3    0  502 -0.14790874241E+03  0.74115024340E+02 -0.15327087958E+03  0.22552606422E+03  0.10100000352E+00 0. -1.
</event>
<event>
 5   0  0.2126207E-02  0.5996273E+03  0.7818609E-02  0.9906180E-01
       -2   -1    0    0    0  501  0.00000000000E+00  0.00000000000E+00  0.10180558433E+03  0.10180558436E+03  0.25500000920E-02 0.  1.
        2   -1    0    0  501    0  0.00000000000E+00  0.00000000000E+00 -0.88294013797E+03  0.88294013798E+03  0.25500000920E-02 0. -1.
    10030    2    1    2    0    0  0.00000000000E+00  0.00000000000E+00 -0.78113455364E+03  0.98474572234E+03  0.59962733991E+03 0.  0.
        5    1    3    3  502    0  0.64996994523E+02 -0.87562065088E+02  0.68016576525E+02  0.12860820044E+03  0.46999998093E+01 0.  1.
       -5    1    3    3    0  502 -0.64996994523E+02  0.87562065088E+02 -0.84915113017E+03  0.85613752190E+03  0.46999998093E+01 0. -1.
</event>
<event>
 5   0  0.1250390E-02  0.6005753E+03  0.7818609E-02  0.9904213E-01
        1   -1    0    0  501    0  0.00000000000E+00  0.00000000000E+00  0.20917976929E+04  0.20917976930E+04  0.50400001928E-02 0. -1.
       -1   -1    0    0    0  501  0.00000000000E+00  0.00000000000E+00 -0.43107736867E+02  0.43107737161E+02  0.50400001928E-02 0.  1.
    10030    2    1    2    0    0  0.00000000000E+00  0.00000000000E+00  0.20486899561E+04  0.21349054301E+04  0.60057527371E+03 0.  0.
        3    1    3    3  502    0 -0.21028532711E+03  0.98497788443E+02  0.34752881818E+03  0.41796892563E+03  0.10100000352E+00 0.  1.
       -3    1    3    3    0  502  0.21028532711E+03 -0.98497788443E+02  0.17011611379E+04  0.17169365045E+04  0.10100000352E+00 0. -1.
</event>
<event>
 5   0  0.1303808E-02  0.6006042E+03  0.7818609E-02  0.9904153E-01
        1   -1    0    0  501    0  0.00000000000E+00  0.00000000000E+00  0.44924407195E+03  0.44924407198E+03  0.50400001928E-02 0. -1.
       -1   -1    0    0    0  501  0.00000000000E+00  0.00000000000E+00 -0.20074023740E+03  0.20074023746E+03  0.50400001928E-02 0.  1.
    10030    2    1    2    0    0  0.00000000000E+00  0.00000000000E+00  0.24850383455E+03  0.64998430944E+03  0.60060423470E+03 0.  0.
        4    1    3    3  502    0 -0.21894568846E+03 -0.29850192912E+02 -0.95817715309E+02  0.24085451206E+03  0.12699999809E+01 0.  1.
       -4    1    3    3    0  502  0.21894568846E+03  0.29850192912E+02  0.34432154986E+03  0.40912979739E+03  0.12699999809E+01 0. -1.
</event>
<event>
 5   0  0.2142838E-02  0.5992514E+03  0.7818609E-02  0.9906960E-01
        2   -1    0    0  501    0  0.00000000000E+00  0.00000000000E+00  0.60918281988E+03  0.60918281989E+03  0.25500000920E-02 0. -1.
       -2   -1    0    0    0  501  0.00000000000E+00  0.00000000000E+00 -0.14737048211E+03  0.14737048213E+03  0.25500000920E-02 0.  1.
    10030    2    1    2    0    0  0.00000000000E+00  0.00000000000E+00  0.46181233777E+03  0.75655330202E+03  0.59925141926E+03 0.  0.
        4    1    3    3  502    0  0.25457691670E+02  0.15325382937E+03 -0.92547322803E+02  0.18083542280E+03  0.12699999809E+01 0.  1.
       -4    1    3    3    0  502 -0.25457691670E+02 -0.15325382937E+03  0.55435966058E+03  0.57571787922E+03  0.12699999809E+01 0. -1.
</event>
<event>
 5   0  0.1250390E-02  0.5996550E+03  0.7818609E-02  0.9906122E-01
       -1   -1    0    0    0  501  0.00000000000E+00  0.00000000000E+00  0.20551766227E+03  0.20551766233E+03  0.50400001928E-02 0. -1.
        1   -1    0    0  501    0  0.00000000000E+00  0.00000000000E+00 -0.43741507707E+03  0.43741507710E+03  0.50400001928E-02 0.  1.
    10030    2    1    2    0    0  0.00000000000E+00  0.00000000000E+00 -0.23189741480E+03  0.64293273943E+03  0.59965498117E+03 0.  0.
        3    1    3    3  502    0  0.98722467547E+02 -0.74585401097E+02 -0.40876608601E+03  0.42708176141E+03  0.10100000352E+00 0.  1.
       -3    1    3    3    0  502 -0.98722467547E+02  0.74585401097E+02  0.17686867121E+03  0.21585097802E+03  0.10100000352E+00 0. -1.
</event>
<event>
 5   0  0.1332555E-02  0.6023660E+03  0.7818609E-02  0.9900509E-01
        1   -1    0    0  501    0  0.00000000000E+00  0.00000000000E+00  0.23185570541E+04  0.23185570541E+04  0.50400001928E-02 0.  1.
       -1   -1    0    0    0  501  0.00000000000E+00  0.00000000000E+00 -0.39123988493E+02  0.39123988818E+02  0.50400001928E-02 0. -1.
    10030    2    1    2    0    0  0.00000000000E+00  0.00000000000E+00  0.22794330656E+04  0.23576810429E+04  0.60236600135E+03 0.  0.
        2    1    3    3  502    0 -0.78922493852E+02  0.28630539113E+03  0.13358741928E+04  0.13684879963E+04  0.25500000920E-02 0. -1.
       -2    1    3    3    0  502  0.78922493852E+02 -0.28630539113E+03  0.94355887282E+03  0.98919304663E+03  0.25500000920E-02 0.  1.
</event>
<event>
 5   0  0.1250390E-02  0.5996701E+03  0.7818609E-02  0.9906091E-01
        1   -1    0    0  501    0  0.00000000000E+00  0.00000000000E+00  0.28592155427E+03  0.28592155432E+03  0.50400001928E-02 0.  1.
       -1   -1    0    0    0  501  0.00000000000E+00  0.00000000000E+00 -0.31442559003E+03  0.31442559007E+03  0.50400001928E-02 0. -1.
    10030    2    1    2    0    0  0.00000000000E+00  0.00000000000E+00 -0.28504035763E+02  0.60034714439E+03  0.59967008740E+03 0.  0.
        3    1    3    3  502    0 -0.68394957911E+02  0.28959436728E+03  0.22644381027E+02  0.29842175863E+03  0.10100000352E+00 0.  1.
       -3    1    3    3    0  502  0.68394957911E+02 -0.28959436728E+03 -0.51148416790E+02  0.30192538576E+03  0.10100000352E+00 0. -1.
</event>
<event>
 5   0  0.1250390E-02  0.6121571E+03  0.7818609E-02  0.9880500E-01
       -1   -1    0    0    0  501  0.00000000000E+00  0.00000000000E+00  0.57399424488E+02  0.57399424709E+02  0.50400001928E-02 0. -1.
        1   -1    0    0  501    0  0.00000000000E+00  0.00000000000E+00 -0.16321430550E+04  0.16321430550E+04  0.50400001928E-02 0.  1.
    10030    2    1    2    0    0  0.00000000000E+00  0.00000000000E+00 -0.15747436305E+04  0.16895424798E+04  0.61215707865E+03 0.  0.
        3    1    3    3  502    0  0.21396104820E+03  0.20782283685E+03 -0.97687629068E+03  0.10213995101E+04  0.10100000352E+00 0. -1.
       -3    1    3    3    0  502 -0.21396104820E+03 -0.20782283685E+03 -0.59786733987E+03  0.66814296969E+03  0.10100000352E+00 0.  1.
</event>
<event>
 5   0  0.1337051E-02  0.6028989E+03  0.7818609E-02  0.9899410E-01
        1   -1    0    0  501    0  0.00000000000E+00  0.00000000000E+00  0.43806227416E+03  0.43806227419E+03  0.50400001928E-02 0.  1.
       -1   -1    0    0    0  501  0.00000000000E+00  0.00000000000E+00 -0.20744033235E+03  0.20744033242E+03  0.50400001928E-02 0. -1.
    10030    2    1    2    0    0  0.00000000000E+00  0.00000000000E+00  0.23062194181E+03  0.64550260660E+03  0.60289894268E+03 0.  0.
        5    1    3    3  502    0 -0.42356912172E+02  0.16008259660E+03 -0.15433747222E+03  0.22641265661E+03  0.46999998093E+01 0. -1.
       -5    1    3    3    0  502  0.42356912172E+02 -0.16008259660E+03  0.38495941402E+03  0.41908995000E+03  0.46999998093E+01 0.  1.
</event>
<event>
 5   0  0.8551000E-03  0.5996907E+03  0.7818609E-02  0.9906048E-01
       -4   -1    0    0    0  501  0.00000000000E+00  0.00000000000E+00  0.37040919505E+03  0.37041137223E+03  0.12699999809E+01 0.  1.
        4   -1    0    0  501    0  0.00000000000E+00  0.00000000000E+00 -0.24271955230E+03  0.24272287484E+03  0.12699999809E+01 0. -1.
    10030    2    1    2    0    0  0.00000000000E+00  0.00000000000E+00  0.12768964275E+03  0.61313424706E+03  0.59969072034E+03 0.  0.
        5    1    3    3  502    0  0.22730675038E+03  0.17829464079E+03  0.14581574711E+03  0.32363816184E+03  0.46999998093E+01 0.  1.
       -5    1    3    3    0  502 -0.22730675038E+03 -0.17829464079E+03 -0.18126104357E+02  0.28949608522E+03  0.46999998093E+01 0. -1.
</event>
<event>
 5   0  0.8551000E-03  0.5997762E+03  0.7818609E-02  0.9905870E-01
        3   -1    0    0  501    0  0.00000000000E+00  0.00000000000E+00  0.25593382596E+03  0.25593384589E+03  0.10100000352E+00 0. -1.
       -3   -1    0    0    0  501  0.00000000000E+00  0.00000000000E+00 -0.35139110913E+03  0.35139112365E+03  0.10100000352E+00 0.  1.
    10030    2    1    2    0    0  0.00000000000E+00  0.00000000000E+00 -0.95457283172E+02  0.60732496954E+03  0.59977622970E+03 0.  0.
        2    1    3    3  502    0 -0.42282424623E+02  0.90375578814E+02  0.23863333099E+03  0.25865307913E+03  0.25500000920E-02 0. -1.
       -2    1    3    3    0  502  0.42282424623E+02 -0.90375578814E+02 -0.33409061416E+03  0.34867189040E+03  0.25500000920E-02 0.  1.
</event>
<event>
 5   0  0.8551000E-03  0.6041298E+03  0.7818609E-02  0.9896875E-01
       -4   -1    0    0    0  501  0.00000000000E+00  0.00000000000E+00  0.54797073769E+03  0.54797220939E+03  0.12699999809E+01 0. -1.
        4   -1    0    0  501    0  0.00000000000E+00  0.00000000000E+00 -0.16650695278E+03  0.16651179605E+03  0.12699999809E+01 0.  1.
    10030    2    1    2    0    0  0.00000000000E+00  0.00000000000E+00  0.38146378492E+03  0.71448400544E+03  0.60412976655E+03 0.  0.
        1    1    3    3  502    0 -0.61895408682E+02  0.24089982073E+03  0.39344598780E+03  0.46547127794E+03  0.50400001928E-02 0. -1.
       -1    1    3    3    0  502  0.61895408682E+02 -0.24089982073E+03 -0.11982202888E+02  0.24901272750E+03  0.50400001928E-02 0.  1.
</event>
<event>
 5   0  0.2126207E-02  0.5991945E+03  0.7818609E-02  0.9907079E-01
       -2   -1    0    0    0  501  0.00000000000E+00  0.00000000000E+00  0.20408692476E+03  0.20408692478E+03  0.25500000920E-02 0.  1.
        2   -1    0    0  501    0  0.00000000000E+00  0.00000000000E+00 -0.43980535326E+03  0.43980535327E+03  0.25500000920E-02 0. -1.
    10030    2    1    2    0    0  0.00000000000E+00  0.00000000000E+00 -0.23571842850E+03  0.64389227805E+03  0.59919453285E+03 0.  0.
        5    1    3    3  502    0  0.21849869426E+03 -0.12364658931E+03  0.57751909393E+02  0.25765777977E+03  0.46999998093E+01 0.  1.
       -5    1    3    3    0  502 -0.21849869426E+03  0.12364658931E+03 -0.29347033789E+03  0.38623449828E+03  0.46999998093E+01 0. -1.
</event>
<event>
 5   0  0.1276705E-02  0.5975384E+03  0.7818609E-02  0.9910526E-01
       -1   -1    0    0    0  501  0.00000000000E+00  0.00000000000E+00  0.11447397082E+03  0.11447397093E+03  0.50400001928E-02 0. -1.
        1   -1    0    0  501    0  0.00000000000E+00  0.00000000000E+00 -0.77976717676E+03  0.77976717678E+03  0.50400001928E-02 0.  1.
    10030    2    1    2    0    0  0.00000000000E+00  0.00000000000E+00 -0.66529320595E+03  0.89424114771E+03  0.59753843423E+03 0.  0.
        1    1    3    3  502    0 -0.22805620698E+03 -0.17198689228E+03 -0.20154818517E+03  0.34958660676E+03  0.50400001928E-02 0. -1.
       -1    1    3    3    0  502  0.22805620698E+03  0.17198689228E+03 -0.46374502078E+03  0.54465454095E+03  0.50400001928E-02 0.  1.
</event>
<event>
 5   0  0.2126207E-02  0.5994857E+03  0.7818609E-02  0.9906474E-01
        2   -1    0    0  501    0  0.00000000000E+00  0.00000000000E+00  0.31558877085E+03  0.31558877086E+03  0.25500000920E-02 0. -1.
       -2   -1    0    0    0  501  0.00000000000E+00  0.00000000000E+00 -0.28469256026E+03  0.28469256027E+03  0.25500000920E-02 0.  1.
    10030    2    1    2    0    0  0.00000000000E+00  0.00000000000E+00  0.30896210594E+02  0.60028133114E+03  0.59948569681E+03 0.  0.
        5    1    3    3  502    0  0.17261998504E+03  0.71641800815E+02 -0.21915642084E+03  0.28806567594E+03  0.46999998093E+01 0.  1.
       -5    1    3    3    0  502 -0.17261998504E+03 -0.71641800815E+02  0.25005263144E+03  0.31221565519E+03  0.46999998093E+01 0. -1.
</event>
<event>
 5   0  0.1250390E-02  0.6068939E+03  0.7818609E-02  0.9891206E-01
        1   -1    0    0  501    0  0.00000000000E+00  0.00000000000E+00  0.10778687945E+04  0.10778687945E+04  0.50400001928E-02 0.  1.
       -1   -1    0    0    0  501  0.00000000000E+00  0.00000000000E+00 -0.85427896368E+02  0.85427896517E+02  0.50400001928E-02 0. -1.
    10030    2    1    2    0    0  0.00000000000E+00  0.00000000000E+00  0.99244089809E+03  0.11632966910E+04  0.60689394053E+03 0.  0.
        3    1    3    3  502    0  0.49309316350E+01 -0.30339989311E+03  0.50016940828E+03  0.58501731291E+03  0.10100000352E+00 0.  1.
       -3    1    3    3    0  502 -0.49309316350E+01  0.30339989311E+03  0.49227148981E+03  0.57827937808E+03  0.10100000352E+00 0. -1.
</event>
<event>
 5   0  0.2142838E-02  0.5792532E+03  0.7818609E-02  0.9949409E-01
       -2   -1    0    0    0  501  0.00000000000E+00  0.00000000000E+00  0.46611624827E+02  0.46611624896E+02  0.25500000920E-02 0.  1.
        2   -1    0    0  501    0  0.00000000000E+00  0.00000000000E+00 -0.17996274283E+04  0.17996274283E+04  0.25500000920E-02 0. -1.
    10030    2    1    2    0    0  0.00000000000E+00  0.00000000000E+00 -0.17530158035E+04  0.18462390532E+04  0.57925316946E+03 0.  0.
        4    1    3    3  502    0 -0.26328507394E+03  0.10470200947E+03 -0.68526066156E+03  0.74152904739E+03  0.12699999809E+01 0. -1.
       -4    1    3    3    0  502  0.26328507394E+03 -0.10470200947E+03 -0.10677551419E+04  0.11047100058E+04  0.12699999809E+01 0.  1.
</event>
<event>
 5   0  0.1303808E-02  0.5984704E+03  0.7818609E-02  0.9908585E-01
        1   -1    0    0  501    0  0.00000000000E+00  0.00000000000E+00  0.16976461831E+04  0.16976461831E+04  0.50400001928E-02 0. -1.
       -1   -1    0    0    0  501  0.00000000000E+00  0.00000000000E+00 -0.52744614693E+02  0.52744614933E+02  0.50400001928E-02 0.  1.
    10030    2    1    2    0    0  0.00000000000E+00  0.00000000000E+00  0.16449015684E+04  0.17503907981E+04  0.59847036361E+03 0.  0.
        4    1    3    3  502    0  0.27036753528E+03  0.11993932038E+03  0.95507040288E+03  0.99982255028E+03  0.12699999809E+01 0. -1.
       -4    1    3    3    0  502 -0.27036753528E+03 -0.11993932038E+03  0.68983116555E+03  0.75056824778E+03  0.12699999809E+01 0.  1.
</event>
<event>
 5   0  0.2142838E-02  0.6008454E+03  0.7818609E-02  0.9903654E-01
        2   -1    0    0  501    0  0.00000000000E+00  0.00000000000E+00  0.12502146335E+04  0.12502146335E+04  0.25500000920E-02 0. -1.
       -2   -1    0    0    0  501  0.00000000000E+00  0.00000000000E+00 -0.72190647726E+02  0.72190647771E+02  0.25500000920E-02 0.  1.
    10030    2    1    2    0    0  0.00000000000E+00  0.00000000000E+00  0.11780239858E+04  0.13224052813E+04  0.60084541847E+03 0.  0.
        4    1    3    3  502    0  0.10538757934E+03 -0.71804061947E+02 -0.96584602295E+01  0.12789551964E+03  0.12699999809E+01 0.  1.
       -4    1    3    3    0  502 -0.10538757934E+03  0.71804061947E+02  0.11876824461E+04  0.11945097617E+04  0.12699999809E+01 0. -1.
</event>
<event>
 5   0  0.2141800E-02  0.5987155E+03  0.7818609E-02  0.9908075E-01
       -2   -1    0    0    0  501  0.00000000000E+00  0.00000000000E+00  0.49744412050E+02  0.49744412115E+02  0.25500000920E-02 0. -1.
        2   -1    0    0  501    0  0.00000000000E+00  0.00000000000E+00 -0.18015101371E+04  0.18015101371E+04  0.25500000920E-02 0.  1.
    10030    2    1    2    0    0  0.00000000000E+00  0.00000000000E+00 -0.17517657250E+04  0.18512545492E+04  0.59871550050E+03 0.  0.
        2    1    3    3  502    0 -0.37900760745E+02  0.15423548298E+03 -0.16604947533E+04  0.16680731032E+04  0.25500000920E-02 0.  1.
       -2    1    3    3    0  502  0.37900760745E+02 -0.15423548298E+03 -0.91270971746E+02  0.18318144601E+03  0.25500000920E-02 0. -1.
</event>
<event>
 5   0  0.1276705E-02  0.6042627E+03  0.7818609E-02  0.9896601E-01
        1   -1    0    0  501    0  0.00000000000E+00  0.00000000000E+00  0.21570297946E+03  0.21570297952E+03  0.50400001928E-02 0.  1.
       -1   -1    0    0    0  501  0.00000000000E+00  0.00000000000E+00 -0.42319009720E+03  0.42319009723E+03  0.50400001928E-02 0. -1.
    10030    2    1    2    0    0  0.00000000000E+00  0.00000000000E+00 -0.20748711774E+03  0.63889307675E+03  0.60426274045E+03 0.  0.
        1    1    3    3  502    0  0.22309433096E+03  0.18871658491E+03 -0.22541492564E+02  0.29307532963E+03  0.50400001928E-02 0.  1.
       -1    1    3    3    0  502 -0.22309433096E+03 -0.18871658491E+03 -0.18494562517E+03  0.34581774712E+03  0.50400001928E-02 0. -1.
</event>
<event>
 5   0  0.1337051E-02  0.6000081E+03  0.7818609E-02  0.9905389E-01
        1   -1    0    0  501    0  0.00000000000E+00  0.00000000000E+00  0.73733219994E+03  0.73733219995E+03  0.50400001928E-02 0.  1.
       -1   -1    0    0    0  501  0.00000000000E+00  0.00000000000E+00 -0.12206496615E+03  0.12206496625E+03  0.50400001928E-02 0. -1.
    10030    2    1    2    0    0  0.00000000000E+00  0.00000000000E+00  0.61526723379E+03  0.85939716621E+03  0.60000810021E+03 0.  0.
        5    1    3    3  502    0 -0.66814319267E+02  0.11210600838E+03  0.69448555560E+03  0.70665705071E+03  0.46999998093E+01 0.  1.
       -5    1    3    3    0  502  0.66814319267E+02 -0.11210600838E+03 -0.79218321815E+02  0.15274011550E+03  0.46999998093E+01 0. -1.
</event>
<event>
 5   0  0.1276705E-02  0.6008720E+03  0.7818609E-02  0.9903599E-01
        1   -1    0    0  501    0  0.00000000000E+00  0.00000000000E+00  0.10870791020E+04  0.10870791020E+04  0.50400001928E-02 0. -1.
       -1   -1    0    0    0  501  0.00000000000E+00  0.00000000000E+00 -0.83031478894E+02  0.83031479047E+02  0.50400001928E-02 0.  1.
    10030    2    1    2    0    0  0.00000000000E+00  0.00000000000E+00  0.10040476231E+04  0.11701105810E+04  0.60087198506E+03 0.  0.
        1    1    3    3  502    0 -0.10545724826E+03  0.45789758386E+02 -0.38498898868E+02  0.12124396242E+03  0.50400001928E-02 0.  1.
       -1    1    3    3    0  502  0.10545724826E+03 -0.45789758386E+02  0.10425465220E+04  0.10488666186E+04  0.50400001928E-02 0. -1.
</event>
<event>
 5   0  0.2126207E-02  0.5957220E+03  0.7818609E-02  0.9914321E-01
       -2   -1    0    0    0  501  0.00000000000E+00  0.00000000000E+00  0.98424953030E+02  0.98424953063E+02  0.25500000920E-02 0. -1.
        2   -1    0    0  501    0  0.00000000000E+00  0.00000000000E+00 -0.90140940865E+03  0.90140940865E+03  0.25500000920E-02 0.  1.
    10030    2    1    2    0    0  0.00000000000E+00  0.00000000000E+00 -0.80298445562E+03  0.99983436171E+03  0.59572201143E+03 0.  0.
        5    1    3    3  502    0  0.11536860074E+02 -0.14015581036E+03 -0.84211243763E+03  0.85378697456E+03  0.46999998093E+01 0.  1.
       -5    1    3    3    0  502 -0.11536860074E+02  0.14015581036E+03  0.39127982016E+02  0.14604738715E+03  0.46999998093E+01 0. -1.
</event>
<event>
 5   0  0.2092587E-02  0.6005152E+03  0.7818609E-02  0.9904338E-01
       -2   -1    0    0    0  501  0.00000000000E+00  0.00000000000E+00  0.88794802426E+03  0.88794802426E+03  0.25500000920E-02 0. -1.
        2   -1    0    0  501    0  0.00000000000E+00  0.00000000000E+00 -0.10153142321E+03  0.10153142324E+03  0.25500000920E-02 0.  1.
    10030    2    1    2    0    0  0.00000000000E+00  0.00000000000E+00  0.78641660105E+03  0.98947944750E+03  0.60051520099E+03 0.  0.
        3    1    3    3  502    0 -0.28307805171E+03 -0.17555693095E+02  0.55560029857E+03  0.62380532836E+03  0.10100000352E+00 0. -1.
       -3    1    3    3    0  502  0.28307805171E+03  0.17555693095E+02  0.23081630248E+03  0.36567411914E+03  0.10100000352E+00 0.  1.
</event>
<event>
 5   0  0.2126207E-02  0.5986850E+03  0.7818609E-02  0.9908138E-01
       -2   -1    0    0    0  501  0.00000000000E+00  0.00000000000E+00  0.19212228299E+03  0.19212228300E+03  0.25500000920E-02 0. -1.
        2   -1    0    0  501    0  0.00000000000E+00  0.00000000000E+00 -0.46640051915E+03  0.46640051916E+03  0.25500000920E-02 0.  1.
    10030    2    1    2    0    0  0.00000000000E+00  0.00000000000E+00 -0.27427823616E+03  0.65852280216E+03  0.59868500076E+03 0.  0.
        5    1    3    3  502    0 -0.71224469817E+01  0.12289053211E+03  0.16294945299E+03  0.20427292126E+03  0.46999998093E+01 0. -1.
       -5    1    3    3    0  502  0.71224469817E+01 -0.12289053211E+03 -0.43722768915E+03  0.45424988090E+03  0.46999998093E+01 0.  1.
</event>
<event>
 5   0  0.1332555E-02  0.6000888E+03  0.7818609E-02  0.9905222E-01
        1   -1    0    0  501    0  0.00000000000E+00  0.00000000000E+00  0.25483467799E+03  0.25483467804E+03  0.50400001928E-02 0. -1.
       -1   -1    0    0    0  501  0.00000000000E+00  0.00000000000E+00 -0.35327466815E+03  0.35327466819E+03  0.50400001928E-02 0.  1.
    10030    2    1    2    0    0  0.00000000000E+00  0.00000000000E+00 -0.98439990165E+02  0.60810934623E+03  0.60008878119E+03 0.  0.
        2    1    3    3  502    0 -0.27497744686E+03 -0.22004318454E+02  0.70382266189E+02  0.28469360673E+03  0.25500000920E-02 0. -1.
       -2    1    3    3    0  502  0.27497744686E+03  0.22004318454E+02 -0.16882225635E+03  0.32341573950E+03  0.25500000920E-02 0.  1.
</event>
<event>
 5   0  0.2142838E-02  0.5989182E+03  0.7818609E-02  0.9907653E-01
       -2   -1    0    0    0  501  0.00000000000E+00  0.00000000000E+00  0.85202477210E+02  0.85202477248E+02  0.25500000920E-02 0. -1.
        2   -1    0    0  501    0  0.00000000000E+00  0.00000000000E+00 -0.10525016927E+04  0.10525016927E+04  0.25500000920E-02 0.  1.
    10030    2    1    2    0    0  0.00000000000E+00  0.00000000000E+00 -0.96729921551E+03  0.11377041700E+04  0.59891819645E+03 0.  0.
        4    1    3    3  502    0  0.36780790337E+02 -0.35421085663E+02 -0.10441653069E+04  0.10454139280E+04  0.12699999809E+01 0.  1.
       -4    1    3    3    0  502 -0.36780790337E+02  0.35421085663E+02  0.76866091413E+02  0.92290241935E+02  0.12699999809E+01 0. -1.
</event>
<event>
 5   0  0.1276705E-02  0.5993994E+03  0.7818609E-02  0.9906653E-01
        1   -1    0    0  501    0  0.00000000000E+00  0.00000000000E+00  0.60464602438E+03  0.60464602440E+03  0.50400001928E-02 0. -1.
       -1   -1    0    0    0  501  0.00000000000E+00  0.00000000000E+00 -0.14854956461E+03  0.14854956470E+03  0.50400001928E-02 0.  1.
    10030    2    1    2    0    0  0.00000000000E+00  0.00000000000E+00  0.45609645976E+03  0.75319558910E+03  0.59939937840E+03 0.  0.
        1    1    3    3  502    0 -0.24967957893E+03  0.16259906451E+03  0.26860214091E+03  0.40115515457E+03  0.50400001928E-02 0. -1.
       -1    1    3    3    0  502  0.24967957893E+03 -0.16259906451E+03  0.18749431886E+03  0.35204043453E+03  0.50400001928E-02 0.  1.
</event>
<event>
 5   0  0.2092587E-02  0.6000959E+03  0.7818609E-02  0.9905207E-01
        2   -1    0    0  501    0  0.00000000000E+00  0.00000000000E+00  0.12362240925E+04  0.12362240925E+04  0.25500000920E-02 0. -1.
       -2   -1    0    0    0  501  0.00000000000E+00  0.00000000000E+00 -0.72825600837E+02  0.72825600882E+02  0.25500000920E-02 0.  1.
    10030    2    1    2    0    0  0.00000000000E+00  0.00000000000E+00  0.11633984917E+04  0.13090496934E+04  0.60009586679E+03 0.  0.
        3    1    3    3  502    0  0.26580142264E+03  0.79403284398E+02  0.33227940014E+03  0.43285665966E+03  0.10100000352E+00 0.  1.
       -3    1    3    3    0  502 -0.26580142264E+03 -0.79403284398E+02  0.83111909151E+03  0.87619303371E+03  0.10100000352E+00 0. -1.
</event>
<event>
 5   0  0.1276705E-02  0.5996545E+03  0.7818609E-02  0.9906123E-01
       -1   -1    0    0    0  501  0.00000000000E+00  0.00000000000E+00  0.49561429476E+02  0.49561429732E+02  0.50400001928E-02 0.  1.
        1   -1    0    0  501    0  0.00000000000E+00  0.00000000000E+00 -0.18138375822E+04  0.18138375822E+04  0.50400001928E-02 0. -1.
    10030    2    1    2    0    0  0.00000000000E+00  0.00000000000E+00 -0.17642761528E+04  0.18633990120E+04  0.59965451272E+03 0.  0.
        1    1    3    3  502    0 -0.14152148083E+03  0.24200551531E+03 -0.12124852405E+04  0.12444739682E+04  0.50400001928E-02 0. -1.
       -1    1    3    3    0  502  0.14152148083E+03 -0.24200551531E+03 -0.55179091222E+03  0.61892504378E+03  0.50400001928E-02 0.  1.
</event>
<event>
 5   0  0.8551000E-03  0.6006021E+03  0.7818609E-02  0.9904158E-01
       -3   -1    0    0    0  501  0.00000000000E+00  0.00000000000E+00  0.59654042347E+03  0.59654043202E+03  0.10100000352E+00 0. -1.
        3   -1    0    0  501    0  0.00000000000E+00  0.00000000000E+00 -0.15117284254E+03  0.15117287628E+03  0.10100000352E+00 0.  1.
    10030    2    1    2    0    0  0.00000000000E+00  0.00000000000E+00  0.44536758092E+03  0.74771330830E+03  0.60060212227E+03 0.  0.
        5    1    3    3  502    0  0.83348309684E+02  0.23498320605E+02  0.58061098971E+03  0.58705223206E+03  0.46999998093E+01 0. -1.
       -5    1    3    3    0  502 -0.83348309684E+02 -0.23498320605E+02 -0.13524340879E+03  0.16066107624E+03  0.46999998093E+01 0.  1.
</event>
<event>
 5   0  0.2126207E-02  0.6000220E+03  0.7818609E-02  0.9905360E-01
       -2   -1    0    0    0  501  0.00000000000E+00  0.00000000000E+00  0.11576583184E+03  0.11576583186E+03  0.25500000920E-02 0. -1.
        2   -1    0    0  501    0  0.00000000000E+00  0.00000000000E+00 -0.77748842529E+03  0.77748842529E+03  0.25500000920E-02 0.  1.
    10030    2    1    2    0    0  0.00000000000E+00  0.00000000000E+00 -0.66172259345E+03  0.89325425716E+03  0.60002198063E+03 0.  0.
        5    1    3    3  502    0 -0.59309248808E+02  0.13141189871E+03  0.60749063579E+02  0.15652224392E+03  0.46999998093E+01 0. -1.
       -5    1    3    3    0  502  0.59309248808E+02 -0.13141189871E+03 -0.72247165703E+03  0.73673201324E+03  0.46999998093E+01 0.  1.
</event>
<event>
 5   0  0.8551000E-03  0.6005564E+03  0.7818609E-02  0.9904252E-01
        3   -1    0    0  501    0  0.00000000000E+00  0.00000000000E+00  0.85584742237E+02  0.85584801833E+02  0.10100000352E+00 0. -1.
       -3   -1    0    0    0  501  0.00000000000E+00  0.00000000000E+00 -0.10535401310E+04  0.10535401359E+04  0.10100000352E+00 0.  1.
    10030    2    1    2    0    0  0.00000000000E+00  0.00000000000E+00 -0.96795538879E+03  0.11391249377E+04  0.60055639952E+03 0.  0.
        2    1    3    3  502    0  0.12059802018E+03 -0.25531516058E+03 -0.29019664587E+03  0.40489974929E+03  0.25500000920E-02 0. -1.
       -2    1    3    3    0  502 -0.12059802018E+03  0.25531516058E+03 -0.67775874291E+03  0.73422518841E+03  0.25500000920E-02 0.  1.
</event>
<event>
 5   0  0.1303808E-02  0.5968378E+03  0.7818609E-02  0.9911988E-01
        1   -1    0    0  501    0  0.00000000000E+00  0.00000000000E+00  0.46967541504E+03  0.46967541507E+03  0.50400001928E-02 0. -1.
       -1   -1    0    0    0  501  0.00000000000E+00  0.00000000000E+00 -0.18960719873E+03  0.18960719879E+03  0.50400001928E-02 0.  1.
    10030    2    1    2    0    0  0.00000000000E+00  0.00000000000E+00  0.28006821631E+03  0.65928261386E+03  0.59683779970E+03 0.  0.
        4    1    3    3  502    0 -0.25127652779E+03  0.13840196965E+03  0.49231233566E+02  0.29106756240E+03  0.12699999809E+01 0.  1.
       -4    1    3    3    0  502  0.25127652779E+03 -0.13840196965E+03  0.23083698275E+03  0.36821505146E+03  0.12699999809E+01 0. -1.
</event>
<event>
 5   0  0.2141800E-02  0.5999761E+03  0.7818609E-02  0.9905456E-01
        2   -1    0    0  501    0  0.00000000000E+00  0.00000000000E+00  0.78741505897E+02  0.78741505938E+02  0.25500000920E-02 0.  1.
       -2   -1    0    0    0  501  0.00000000000E+00  0.00000000000E+00 -0.11428893772E+04  0.11428893772E+04  0.25500000920E-02 0. -1.
    10030    2    1    2    0    0  0.00000000000E+00  0.00000000000E+00 -0.10641478713E+04  0.12216308831E+04  0.59997610172E+03 0.  0.
        2    1    3    3  502    0  0.28098027937E+03 -0.10488799304E+03 -0.51896937412E+03  0.59940021668E+03  0.25500000920E-02 0. -1.
       -2    1    3    3    0  502 -0.28098027937E+03  0.10488799304E+03 -0.54517849717E+03  0.62223066644E+03  0.25500000920E-02 0.  1.
</event>
<event>
 5   0  0.2092587E-02  0.6018602E+03  0.7818609E-02  0.9901554E-01
        2   -1    0    0  501    0  0.00000000000E+00  0.00000000000E+00  0.13708981991E+04  0.13708981991E+04  0.25500000920E-02 0.  1.
       -2   -1    0    0    0  501  0.00000000000E+00  0.00000000000E+00 -0.66058105264E+02  0.66058105313E+02  0.25500000920E-02 0. -1.
    10030    2    1    2    0    0  0.00000000000E+00  0.00000000000E+00  0.13048400939E+04  0.14369563044E+04  0.60186024152E+03 0.  0.
        3    1    3    3  502    0  0.11618263822E+03 -0.12123178102E+03  0.56191562922E+02  0.17706793075E+03  0.10100000352E+00 0. -1.
       -3    1    3    3    0  502 -0.11618263822E+03  0.12123178102E+03  0.12486485309E+04  0.12598883737E+04  0.10100000352E+00 0.  1.
</event>
<event>
 5   0  0.1250390E-02  0.5997386E+03  0.7818609E-02  0.9905949E-01
        1   -1    0    0  501    0  0.00000000000E+00  0.00000000000E+00  0.43442955178E+03  0.43442955181E+03  0.50400001928E-02 0. -1.
       -1   -1    0    0    0  501  0.00000000000E+00  0.00000000000E+00 -0.20698775499E+03  0.20698775505E+03  0.50400001928E-02 0.  1.
    10030    2    1    2    0    0  0.00000000000E+00  0.00000000000E+00  0.22744179679E+03  0.64141730687E+03  0.59973860191E+03 0.  0.
        3    1    3    3  502    0  0.26407280431E+03 -0.55473412060E+02 -0.26173933595E+02  0.27110298859E+03  0.10100000352E+00 0.  1.
       -3    1    3    3    0  502 -0.26407280431E+03  0.55473412060E+02  0.25361573039E+03  0.37031431828E+03  0.10100000352E+00 0. -1.
</event>
<event>
 5   0  0.8551000E-03  0.6059529E+03  0.7818609E-02  0.9893132E-01
       -4   -1    0    0    0  501  0.00000000000E+00  0.00000000000E+00  0.27260943695E+03  0.27261239520E+03  0.12699999809E+01 0. -1.
        4   -1    0    0  501    0  0.00000000000E+00  0.00000000000E+00 -0.33672021606E+03  0.33672261106E+03  0.12699999809E+01 0.  1.
    10030    2    1    2    0    0  0.00000000000E+00  0.00000000000E+00 -0.64110779106E+02  0.60933500626E+03  0.60595293370E+03 0.  0.
        2    1    3    3  502    0 -0.27359661448E+03  0.60358408304E+02 -0.14800941137E+03  0.31686752874E+03  0.25500000920E-02 0.  1.
       -2    1    3    3    0  502  0.27359661448E+03 -0.60358408304E+02  0.83898632267E+02  0.29246747752E+03  0.25500000920E-02 0. -1.
</event>
<event>
 5   0  0.2142838E-02  0.5998288E+03  0.7818609E-02  0.9905761E-01
       -2   -1    0    0    0  501  0.00000000000E+00  0.00000000000E+00  0.80339033394E+02  0.80339033435E+02  0.25500000920E-02 0.  1.
        2   -1    0    0  501    0  0.00000000000E+00  0.00000000000E+00 -0.11196132672E+04  0.11196132672E+04  0.25500000920E-02 0. -1.
    10030    2    1    2    0    0  0.00000000000E+00  0.00000000000E+00 -0.10392742338E+04  0.11999523006E+04  0.59982880119E+03 0.  0.
        4    1    3    3  502    0 -0.25607399046E+03 -0.15183694037E+02 -0.83047124911E+03  0.86918843852E+03  0.12699999809E+01 0. -1.
       -4    1    3    3    0  502  0.25607399046E+03  0.15183694037E+02 -0.20880298465E+03  0.33076386208E+03  0.12699999809E+01 0.  1.
</event>
<event>
 5   0  0.2141800E-02  0.6006207E+03  0.7818609E-02  0.9904119E-01
       -2   -1    0    0    0  501  0.00000000000E+00  0.00000000000E+00  0.26699197760E+03  0.26699197761E+03  0.25500000920E-02 0.  1.
        2   -1    0    0  501    0  0.00000000000E+00  0.00000000000E+00 -0.33778655553E+03  0.33778655554E+03  0.25500000920E-02 0. -1.
    10030    2    1    2    0    0  0.00000000000E+00  0.00000000000E+00 -0.70794577924E+02  0.60477853315E+03  0.60062068054E+03 0.  0.
        2    1    3    3  502    0 -0.26583974970E+02 -0.20005041846E+03 -0.25933158278E+03  0.32860271984E+03  0.25500000920E-02 0. -1.
       -2    1    3    3    0  502  0.26583974970E+02  0.20005041846E+03  0.18853700486E+03  0.27617581331E+03  0.25500000920E-02 0.  1.
</event>
<event>
 5   0  0.8551000E-03  0.5988582E+03  0.7818609E-02  0.9907778E-01
       -4   -1    0    0    0  501  0.00000000000E+00  0.00000000000E+00  0.87956965044E+02  0.87966133254E+02  0.12699999809E+01 0.  1.
        4   -1    0    0  501    0  0.00000000000E+00  0.00000000000E+00 -0.10192742783E+04  0.10192750695E+04  0.12699999809E+01 0. -1.
    10030    2    1    2    0    0  0.00000000000E+00  0.00000000000E+00 -0.93131731329E+03  0.11072412028E+04  0.59885819951E+03 0.  0.
        3    1    3    3  502    0 -0.27856300674E+03 -0.27704667091E+02 -0.66213965749E+03  0.71888374131E+03  0.10100000352E+00 0. -1.
       -3    1    3    3    0  502  0.27856300674E+03  0.27704667091E+02 -0.26917765581E+03  0.38835746148E+03  0.10100000352E+00 0.  1.
</event>
<event>
 5   0  0.2141800E-02  0.5970131E+03  0.7818609E-02  0.9911622E-01
       -2   -1    0    0    0  501  0.00000000000E+00  0.00000000000E+00  0.48351623618E+03  0.48351623619E+03  0.25500000920E-02 0.  1.
        2   -1    0    0  501    0  0.00000000000E+00  0.00000000000E+00 -0.18428786455E+03  0.18428786457E+03  0.25500000920E-02 0. -1.
    10030    2    1    2    0    0  0.00000000000E+00  0.00000000000E+00  0.29922837163E+03  0.66780410076E+03  0.59701314776E+03 0.  0.
        2    1    3    3  502    0  0.21171033768E+03  0.57481142173E+02  0.37605543349E+03  0.43536540728E+03  0.25500000920E-02 0.  1.
       -2    1    3    3    0  502 -0.21171033768E+03 -0.57481142173E+02 -0.76827061861E+02  0.23243869348E+03  0.25500000920E-02 0. -1.
</event>
<event>
 5   0  0.2126207E-02  0.6011028E+03  0.7818609E-02  0.9903121E-01
       -2   -1    0    0    0  501  0.00000000000E+00  0.00000000000E+00  0.26464295863E+03  0.26464295864E+03  0.25500000920E-02 0. -1.
        2   -1    0    0  501    0  0.00000000000E+00  0.00000000000E+00 -0.34133215189E+03  0.34133215190E+03  0.25500000920E-02 0.  1.
    10030    2    1    2    0    0  0.00000000000E+00  0.00000000000E+00 -0.76689193268E+02  0.60597511054E+03  0.60110282168E+03 0.  0.
        5    1    3    3  502    0 -0.32534502913E+02 -0.64159429285E+02  0.25579797299E+03  0.26576233599E+03  0.46999998093E+01 0. -1.
       -5    1    3    3    0  502  0.32534502913E+02  0.64159429285E+02 -0.33248716626E+03  0.34021277456E+03  0.46999998093E+01 0.  1.
</event>
<event>
 5   0  0.2142838E-02  0.6011595E+03  0.7818609E-02  0.9903003E-01
        2   -1    0    0  501    0  0.00000000000E+00  0.00000000000E+00  0.16570816781E+03  0.16570816783E+03  0.25500000920E-02 0.  1.
       -2   -1    0    0    0  501  0.00000000000E+00  0.00000000000E+00 -0.54522464096E+03  0.54522464097E+03  0.25500000920E-02 0. -1.
    10030    2    1    2    0    0  0.00000000000E+00  0.00000000000E+00 -0.37951647315E+03  0.71093280879E+03  0.60115946738E+03 0.  0.
        4    1    3    3  502    0  0.29468133517E+03 -0.46029747124E+02 -0.23386054181E+03  0.37900948911E+03  0.12699999809E+01 0. -1.
       -4    1    3    3    0  502 -0.29468133517E+03  0.46029747124E+02 -0.14565593134E+03  0.33192331969E+03  0.12699999809E+01 0.  1.
</event>
<event>
 5   0  0.2141800E-02  0.5981362E+03  0.7818609E-02  0.9909280E-01
        2   -1    0    0  501    0  0.00000000000E+00  0.00000000000E+00  0.20416354571E+03  0.20416354573E+03  0.25500000920E-02 0.  1.
       -2   -1    0    0    0  501  0.00000000000E+00  0.00000000000E+00 -0.43808859630E+03  0.43808859631E+03  0.25500000920E-02 0. -1.
    10030    2    1    2    0    0  0.00000000000E+00  0.00000000000E+00 -0.23392505059E+03  0.64225214204E+03  0.59813617568E+03 0.  0.
        2    1    3    3  502    0 -0.20305539211E+03  0.10007826950E+03 -0.32681123240E+03  0.39755846604E+03  0.25500000920E-02 0. -1.
       -2    1    3    3    0  502  0.20305539211E+03 -0.10007826950E+03  0.92886181816E+02  0.24469367599E+03  0.25500000920E-02 0.  1.
</event>
<event>
 5   0  0.2126207E-02  0.6042718E+03  0.7818609E-02  0.9896583E-01
        2   -1    0    0  501    0  0.00000000000E+00  0.00000000000E+00  0.85524181622E+03  0.85524181623E+03  0.25500000920E-02 0.  1.
       -2   -1    0    0    0  501  0.00000000000E+00  0.00000000000E+00 -0.10673719304E+03  0.10673719307E+03  0.25500000920E-02 0. -1.
    10030    2    1    2    0    0  0.00000000000E+00  0.00000000000E+00  0.74850462318E+03  0.96197900930E+03  0.60427182907E+03 0.  0.
        5    1    3    3  502    0 -0.76341655590E+01  0.18309092601E+03  0.75660035600E+03  0.77849004898E+03  0.46999998093E+01 0.  1.
       -5    1    3    3    0  502  0.76341655590E+01 -0.18309092601E+03 -0.80957328147E+01  0.18348896032E+03  0.46999998093E+01 0. -1.
</event>
<event>
 5   0  0.1276705E-02  0.5979548E+03  0.7818609E-02  0.9909658E-01
       -1   -1    0    0    0  501  0.00000000000E+00  0.00000000000E+00  0.14543012173E+03  0.14543012182E+03  0.50400001928E-02 0. -1.
        1   -1    0    0  501    0  0.00000000000E+00  0.00000000000E+00 -0.61464222517E+03  0.61464222519E+03  0.50400001928E-02 0.  1.
    10030    2    1    2    0    0  0.00000000000E+00  0.00000000000E+00 -0.46921210344E+03  0.76007234701E+03  0.59795482662E+03 0.  0.
        1    1    3    3  502    0 -0.52367520781E+02  0.29306653559E+03 -0.19962963923E+03  0.35844433933E+03  0.50400001928E-02 0. -1.
       -1    1    3    3    0  502  0.52367520781E+02 -0.29306653559E+03 -0.26958246421E+03  0.40162800768E+03  0.50400001928E-02 0.  1.
</event>
<event>
 5   0  0.2092587E-02  0.5947153E+03  0.7818609E-02  0.9916431E-01
       -2   -1    0    0    0  501  0.00000000000E+00  0.00000000000E+00  0.53341311589E+03  0.53341311589E+03  0.25500000920E-02 0. -1.
        2   -1    0    0  501    0  0.00000000000E+00  0.00000000000E+00 -0.16576565039E+03  0.16576565041E+03  0.25500000920E-02 0.  1.
    10030    2    1    2    0    0  0.00000000000E+00  0.00000000000E+00  0.36764746550E+03  0.69917876630E+03  0.59471530025E+03 0.  0.
        3    1    3    3  502    0  0.31651186466E+02  0.29530205069E+03  0.16652672044E+03  0.34049413735E+03  0.10100000352E+00 0. -1.
       -3    1    3    3    0  502 -0.31651186466E+02 -0.29530205069E+03  0.20112074506E+03  0.35868462895E+03  0.10100000352E+00 0.  1.
</event>
<event>
 5   0  0.1276705E-02  0.5969475E+03  0.7818609E-02  0.9911759E-01
        1   -1    0    0  501    0  0.00000000000E+00  0.00000000000E+00  0.31699433581E+03  0.31699433585E+03  0.50400001928E-02 0. -1.
       -1   -1    0    0    0  501  0.00000000000E+00  0.00000000000E+00 -0.28103522381E+03  0.28103522386E+03  0.50400001928E-02 0.  1.
    10030    2    1    2    0    0  0.00000000000E+00  0.00000000000E+00  0.35959111995E+02  0.59802955970E+03  0.59694748223E+03 0.  0.
        1    1    3    3  502    0 -0.60467379565E+02 -0.26591305423E+03  0.13952762627E+03  0.30632338291E+03  0.50400001928E-02 0. -1.
       -1    1    3    3    0  502  0.60467379565E+02  0.26591305423E+03 -0.10356851427E+03  0.29170617679E+03  0.50400001928E-02 0.  1.
</event>
<event>
 5   0  0.2141800E-02  0.5992032E+03  0.7818609E-02  0.9907060E-01
        2   -1    0    0  501    0  0.00000000000E+00  0.00000000000E+00  0.30079306952E+03  0.30079306953E+03  0.25500000920E-02 0. -1.
       -2   -1    0    0    0  501  0.00000000000E+00  0.00000000000E+00 -0.29841488376E+03  0.29841488377E+03  0.25500000920E-02 0.  1.
    10030    2    1    2    0    0  0.00000000000E+00  0.00000000000E+00  0.23781857673E+01  0.59920795330E+03  0.59920323391E+03 0.  0.
        2    1    3    3  502    0 -0.16645048689E+02 -0.30791044733E+02  0.29874140331E+03  0.30078492671E+03  0.25500000920E-02 0. -1.
       -2    1    3    3    0  502  0.16645048689E+02  0.30791044733E+02 -0.29636321754E+03  0.29842302659E+03  0.25500000920E-02 0.  1.
</event>
<event>
 5   0  0.2126207E-02  0.6006923E+03  0.7818609E-02  0.9903971E-01
        2   -1    0    0  501    0  0.00000000000E+00  0.00000000000E+00  0.78160210087E+03  0.78160210087E+03  0.25500000920E-02 0.  1.
       -2   -1    0    0    0  501  0.00000000000E+00  0.00000000000E+00 -0.11541397810E+03  0.11541397813E+03  0.25500000920E-02 0. -1.
    10030    2    1    2    0    0  0.00000000000E+00  0.00000000000E+00  0.66618812276E+03  0.89701607900E+03  0.60069229317E+03 0.  0.
        5    1    3    3  502    0 -0.15333080764E+03 -0.11705917372E+03 -0.10601188492E+02  0.19325543180E+03  0.46999998093E+01 0. -1.
       -5    1    3    3    0  502  0.15333080764E+03  0.11705917372E+03  0.67678931126E+03  0.70376064720E+03  0.46999998093E+01 0.  1.
</event>
<event>
 5   0  0.1276705E-02  0.6002005E+03  0.7818609E-02  0.9904990E-01
       -1   -1    0    0    0  501  0.00000000000E+00  0.00000000000E+00  0.21282380497E+03  0.21282380503E+03  0.50400001928E-02 0. -1.
        1   -1    0    0  501    0  0.00000000000E+00  0.00000000000E+00 -0.42316764698E+03  0.42316764701E+03  0.50400001928E-02 0.  1.
    10030    2    1    2    0    0  0.00000000000E+00  0.00000000000E+00 -0.21034384201E+03  0.63599145205E+03  0.60020046252E+03 0.  0.
        1    1    3    3  502    0  0.13369631508E+03  0.44456838761E+02 -0.38594240487E+03  0.41085600286E+03  0.50400001928E-02 0.  1.
       -1    1    3    3    0  502 -0.13369631508E+03 -0.44456838761E+02  0.17559856286E+03  0.22513544919E+03  0.50400001928E-02 0. -1.
</event>
<event>
 5   0  0.1303808E-02  0.6030677E+03  0.7818609E-02  0.9899062E-01
        1   -1    0    0  501    0  0.00000000000E+00  0.00000000000E+00  0.98995609323E+03  0.98995609324E+03  0.50400001928E-02 0. -1.
       -1   -1    0    0    0  501  0.00000000000E+00  0.00000000000E+00 -0.91845161489E+02  0.91845161627E+02  0.50400001928E-02 0.  1.
    10030    2    1    2    0    0  0.00000000000E+00  0.00000000000E+00  0.89811093174E+03  0.10818012549E+04  0.60306774854E+03 0.  0.
        4    1    3    3  502    0  0.27550341398E+02  0.10404331652E+03 -0.56209691296E+02  0.12142971350E+03  0.12699999809E+01 0.  1.
       -4    1    3    3    0  502 -0.27550341398E+02 -0.10404331652E+03  0.95432062304E+03  0.96037154137E+03  0.12699999809E+01 0. -1.
</event>
<event>
 5   0  0.1250390E-02  0.5990689E+03  0.7818609E-02  0.9907340E-01
       -1   -1    0    0    0  501  0.00000000000E+00  0.00000000000E+00  0.15172882798E+03  0.15172882806E+03  0.50400001928E-02 0.  1.
        1   -1    0    0  501    0  0.00000000000E+00  0.00000000000E+00 -0.59132391944E+03  0.59132391947E+03  0.50400001928E-02 0. -1.
    10030    2    1    2    0    0  0.00000000000E+00  0.00000000000E+00 -0.43959509147E+03  0.74305274753E+03  0.59906889518E+03 0.  0.
        3    1    3    3  502    0  0.27861576776E+03  0.10699274339E+02 -0.84039673840E+02  0.29121108752E+03  0.10100000352E+00 0.  1.
       -3    1    3    3    0  502 -0.27861576776E+03 -0.10699274339E+02 -0.35555541763E+03  0.45184166001E+03  0.10100000352E+00 0. -1.
</event>
<event>
 5   0  0.8551000E-03  0.5948467E+03  0.7818609E-02  0.9916156E-01
        3   -1    0    0  501    0  0.00000000000E+00  0.00000000000E+00  0.90189458136E+02  0.90189514689E+02  0.10100000352E+00 0.  1.
       -3   -1    0    0    0  501  0.00000000000E+00  0.00000000000E+00 -0.98083099279E+03  0.98083099799E+03  0.10100000352E+00 0. -1.
    10030    2    1    2    0    0  0.00000000000E+00  0.00000000000E+00 -0.89064153465E+03  0.10710205127E+04  0.59484669901E+03 0.  0.
        2    1    3    3  502    0  0.18109526183E+03  0.22877101684E+03 -0.34143689773E+03  0.44912228529E+03  0.25500000920E-02 0. -1.
       -2    1    3    3    0  502 -0.18109526183E+03 -0.22877101684E+03 -0.54920463693E+03  0.62189822739E+03  0.25500000920E-02 0.  1.
</event>
<event>
 5   0  0.1337051E-02  0.5982367E+03  0.7818609E-02  0.9909071E-01
        1   -1    0    0  501    0  0.00000000000E+00  0.00000000000E+00  0.15092732394E+04  0.15092732394E+04  0.50400001928E-02 0.  1.
       -1   -1    0    0    0  501  0.00000000000E+00  0.00000000000E+00 -0.59281373524E+02  0.59281373738E+02  0.50400001928E-02 0. -1.
    10030    2    1    2    0    0  0.00000000000E+00  0.00000000000E+00  0.14499918659E+04  0.15685546131E+04  0.59823671178E+03 0.  0.
        5    1    3    3  502    0 -0.72460756971E+02  0.40920846457E+02 -0.28218026711E+02  0.87996727241E+02  0.46999998093E+01 0. -1.
       -5    1    3    3    0  502  0.72460756971E+02 -0.40920846457E+02  0.14782098926E+04  0.14805578859E+04  0.46999998093E+01 0.  1.
</event>
<event>
 5   0  0.1250390E-02  0.5994862E+03  0.7818609E-02  0.9906473E-01
        1   -1    0    0  501    0  0.00000000000E+00  0.00000000000E+00  0.18481813064E+04  0.18481813064E+04  0.50400001928E-02 0.  1.
       -1   -1    0    0    0  501  0.00000000000E+00  0.00000000000E+00 -0.48613158808E+02  0.48613159070E+02  0.50400001928E-02 0. -1.
    10030    2    1    2    0    0  0.00000000000E+00  0.00000000000E+00  0.17995681476E+04  0.18967944654E+04  0.59948621871E+03 0.  0.
        3    1    3    3  502    0  0.16942080841E+03 -0.24383926082E+03  0.10296608443E+04  0.10716167505E+04  0.10100000352E+00 0. -1.
       -3    1    3    3    0  502 -0.16942080841E+03  0.24383926082E+03  0.76990730321E+03  0.82517771491E+03  0.10100000352E+00 0.  1.
</event>
<event>
 5   0  0.2126207E-02  0.5983140E+03  0.7818609E-02  0.9908910E-01
        2   -1    0    0  501    0  0.00000000000E+00  0.00000000000E+00  0.55147171667E+03  0.55147171667E+03  0.25500000920E-02 0. -1.
       -2   -1    0    0    0  501  0.00000000000E+00  0.00000000000E+00 -0.16228376464E+03  0.16228376466E+03  0.25500000920E-02 0.  1.
    10030    2    1    2    0    0  0.00000000000E+00  0.00000000000E+00  0.38918795203E+03  0.71375548133E+03  0.59831398540E+03 0.  0.
        5    1    3    3  502    0  0.14899454430E+02  0.65829532004E+02 -0.15303692847E+03  0.16732576759E+03  0.46999998093E+01 0.  1.
       -5    1    3    3    0  502 -0.14899454430E+02 -0.65829532004E+02  0.54222488050E+03  0.54642971374E+03  0.46999998093E+01 0. -1.
</event>
<event>
 5   0  0.8551000E-03  0.6023754E+03  0.7818609E-02  0.9900490E-01
        3   -1    0    0  501    0  0.00000000000E+00  0.00000000000E+00  0.77858656039E+02  0.77858721549E+02  0.10100000352E+00 0. -1.
       -3   -1    0    0    0  501  0.00000000000E+00  0.00000000000E+00 -0.11651112660E+04  0.11651112704E+04  0.10100000352E+00 0.  1.
    10030    2    1    2    0    0  0.00000000000E+00  0.00000000000E+00 -0.10872526100E+04  0.12429699919E+04  0.60237543357E+03 0.  0.
        3    1    3    3  502    0 -0.21870564077E+02  0.30023979855E+03 -0.52385891716E+03  0.60419403630E+03  0.10100000352E+00 0. -1.
       -3    1    3    3    0  502  0.21870564077E+02 -0.30023979855E+03 -0.56339369282E+03  0.63877595565E+03  0.10100000352E+00 0.  1.
</event>
<event>
 5   0  0.1337051E-02  0.6004504E+03  0.7818609E-02  0.9904472E-01
        1   -1    0    0  501    0  0.00000000000E+00  0.00000000000E+00  0.95035289607E+03  0.95035289608E+03  0.50400001928E-02 0. -1.
       -1   -1    0    0    0  501  0.00000000000E+00  0.00000000000E+00 -0.94843883276E+02  0.94843883410E+02  0.50400001928E-02 0.  1.
    10030    2    1    2    0    0  0.00000000000E+00  0.00000000000E+00  0.85550901279E+03  0.10451967795E+04  0.60045036172E+03 0.  0.
        5    1    3    3  502    0 -0.31850531091E+02  0.47274153237E+02 -0.85272565073E+02  0.10267814883E+03  0.46999998093E+01 0.  1.
       -5    1    3    3    0  502  0.31850531091E+02 -0.47274153237E+02  0.94078157786E+03  0.94251863066E+03  0.46999998093E+01 0. -1.
</event>
<event>
 5   0  0.2126207E-02  0.6028847E+03  0.7818609E-02  0.9899439E-01
       -2   -1    0    0    0  501  0.00000000000E+00  0.00000000000E+00  0.20207813594E+03  0.20207813595E+03  0.25500000920E-02 0. -1.
        2   -1    0    0  501    0  0.00000000000E+00  0.00000000000E+00 -0.44966516198E+03  0.44966516198E+03  0.25500000920E-02 0.  1.
    10030    2    1    2    0    0  0.00000000000E+00  0.00000000000E+00 -0.24758702604E+03  0.65174329794E+03  0.60288472442E+03 0.  0.
        5    1    3    3  502    0  0.32247114961E+02 -0.18410413239E+03  0.13182464416E+03  0.22876633229E+03  0.46999998093E+01 0. -1.
       -5    1    3    3    0  502 -0.32247114961E+02  0.18410413239E+03 -0.37941167020E+03  0.42297696564E+03  0.46999998093E+01 0.  1.
</event>
<event>
 5   0  0.1303808E-02  0.6005738E+03  0.7818609E-02  0.9904216E-01
        1   -1    0    0  501    0  0.00000000000E+00  0.00000000000E+00  0.51419904034E+03  0.51419904036E+03  0.50400001928E-02 0. -1.
       -1   -1    0    0    0  501  0.00000000000E+00  0.00000000000E+00 -0.17536442058E+03  0.17536442065E+03  0.50400001928E-02 0.  1.
    10030    2    1    2    0    0  0.00000000000E+00  0.00000000000E+00  0.33883461976E+03  0.68956346102E+03  0.60057378166E+03 0.  0.
        4    1    3    3  502    0 -0.86915108430E+01 -0.29669586283E+02 -0.17352910681E+03  0.17626624895E+03  0.12699999809E+01 0.  1.
       -4    1    3    3    0  502  0.86915108430E+01  0.29669586283E+02  0.51236372657E+03  0.51329721206E+03  0.12699999809E+01 0. -1.
</event>
<event>
 5   0  0.1337051E-02  0.6017462E+03  0.7818609E-02  0.9901790E-01
        1   -1    0    0  501    0  0.00000000000E+00  0.00000000000E+00  0.36995564098E+03  0.36995564102E+03  0.50400001928E-02 0. -1.
       -1   -1    0    0    0  501  0.00000000000E+00  0.00000000000E+00 -0.24469044598E+03  0.24469044603E+03  0.50400001928E-02 0.  1.
    10030    2    1    2    0    0  0.00000000000E+00  0.00000000000E+00  0.12526519500E+03  0.61464608705E+03  0.60174616181E+03 0.  0.
        5    1    3    3  502    0  0.12391397451E+03  0.13758848258E+03 -0.17955205543E+03  0.25796568420E+03  0.46999998093E+01 0.  1.
       -5    1    3    3    0  502 -0.12391397451E+03 -0.13758848258E+03  0.30481725044E+03  0.35668040285E+03  0.46999998093E+01 0. -1.
</event>
<event>
 5   0  0.2092587E-02  0.5973900E+03  0.7818609E-02  0.9910836E-01
       -2   -1    0    0    0  501  0.00000000000E+00  0.00000000000E+00  0.14929861225E+03  0.14929861227E+03  0.25500000920E-02 0.  1.
        2   -1    0    0  501    0  0.00000000000E+00  0.00000000000E+00 -0.59758566183E+03  0.59758566183E+03  0.25500000920E-02 0. -1.
    10030    2    1    2    0    0  0.00000000000E+00  0.00000000000E+00 -0.44828704957E+03  0.74688427411E+03  0.59739002343E+03 0.  0.
        3    1    3    3  502    0 -0.98139304300E+02  0.25033884108E+03 -0.61525820878E+02  0.27583744350E+03  0.10100000352E+00 0.  1.
       -3    1    3    3    0  502  0.98139304300E+02 -0.25033884108E+03 -0.38676122869E+03  0.47104683061E+03  0.10100000352E+00 0. -1.
</event>
<event>
 5   0  0.2126207E-02  0.6015120E+03  0.7818609E-02  0.9902274E-01
       -2   -1    0    0    0  501  0.00000000000E+00  0.00000000000E+00  0.41058388544E+03  0.41058388545E+03  0.25500000920E-02 0. -1.
        2   -1    0    0  501    0  0.00000000000E+00  0.00000000000E+00 -0.22030616696E+03  0.22030616698E+03  0.25500000920E-02 0.  1.
    10030    2    1    2    0    0  0.00000000000E+00  0.00000000000E+00  0.19027771848E+03  0.63089005243E+03  0.60151196838E+03 0.  0.
        5    1    3    3  502    0 -0.23946337242E+03 -0.14770587210E+03  0.20649558657E+03  0.34903044087E+03  0.46999998093E+01 0.  1.
       -5    1    3    3    0  502  0.23946337242E+03  0.14770587210E+03 -0.16217868097E+02  0.28185961155E+03  0.46999998093E+01 0. -1.
</event>
<event>
 5   0  0.1337051E-02  0.6004972E+03  0.7818609E-02  0.9904375E-01
        1   -1    0    0  501    0  0.00000000000E+00  0.00000000000E+00  0.11927582929E+04  0.11927582929E+04  0.50400001928E-02 0. -1.
       -1   -1    0    0    0  501  0.00000000000E+00  0.00000000000E+00 -0.75580453199E+02  0.75580453367E+02  0.50400001928E-02 0.  1.
    10030    2    1    2    0    0  0.00000000000E+00  0.00000000000E+00  0.11171778397E+04  0.12683387463E+04  0.60049716884E+03 0.  0.
        5    1    3    3  502    0 -0.17567471446E+03 -0.22890800982E+03  0.73361245080E+03  0.78833355899E+03  0.46999998093E+01 0.  1.
       -5    1    3    3    0  502  0.17567471446E+03  0.22890800982E+03  0.38356538888E+03  0.48000518727E+03  0.46999998093E+01 0. -1.
</event>
<event>
 5   0  0.2142838E-02  0.6037213E+03  0.7818609E-02  0.9897716E-01
       -2   -1    0    0    0  501  0.00000000000E+00  0.00000000000E+00  0.29590346750E+03  0.29590346751E+03  0.25500000920E-02 0. -1.
        2   -1    0    0  501    0  0.00000000000E+00  0.00000000000E+00 -0.30793772082E+03  0.30793772083E+03  0.25500000920E-02 0.  1.
    10030    2    1    2    0    0  0.00000000000E+00  0.00000000000E+00 -0.12034253323E+02  0.60384118834E+03  0.60372125810E+03 0.  0.
        4    1    3    3  502    0 -0.14654332517E+03  0.69880076940E+02  0.24851339628E+03  0.29684792796E+03  0.12699999809E+01 0. -1.
       -4    1    3    3    0  502  0.14654332517E+03 -0.69880076940E+02 -0.26054764960E+03  0.30699326038E+03  0.12699999809E+01 0.  1.
</event>
<event>
 5   0  0.1276705E-02  0.6057145E+03  0.7818609E-02  0.9893621E-01
        1   -1    0    0  501    0  0.00000000000E+00  0.00000000000E+00  0.10655502127E+03  0.10655502138E+03  0.50400001928E-02 0.  1.
       -1   -1    0    0    0  501  0.00000000000E+00  0.00000000000E+00 -0.86079955118E+03  0.86079955119E+03  0.50400001928E-02 0. -1.
    10030    2    1    2    0    0  0.00000000000E+00  0.00000000000E+00 -0.75424452991E+03  0.96735457258E+03  0.60571450221E+03 0.  0.
        1    1    3    3  502    0 -0.21236688858E+03 -0.20725507445E+03 -0.47384786978E+03  0.55909405736E+03  0.50400001928E-02 0.  1.
       -1    1    3    3    0  502  0.21236688858E+03  0.20725507445E+03 -0.28039666013E+03  0.40826051522E+03  0.50400001928E-02 0. -1.
</event>
<event>
 5   0  0.1332555E-02  0.5919607E+03  0.7818609E-02  0.9922227E-01
       -1   -1    0    0    0  501  0.00000000000E+00  0.00000000000E+00  0.18121935960E+03  0.18121935967E+03  0.50400001928E-02 0.  1.
        1   -1    0    0  501    0  0.00000000000E+00  0.00000000000E+00 -0.48341616202E+03  0.48341616205E+03  0.50400001928E-02 0. -1.
    10030    2    1    2    0    0  0.00000000000E+00  0.00000000000E+00 -0.30219680242E+03  0.66463552172E+03  0.59196069914E+03 0.  0.
        2    1    3    3  502    0 -0.10850489659E+03 -0.26460849266E+03 -0.23670471379E+03  0.37124128072E+03  0.25500000920E-02 0. -1.
       -2    1    3    3    0  502  0.10850489659E+03  0.26460849266E+03 -0.65492088635E+02  0.29339424100E+03  0.25500000920E-02 0.  1.
</event>
<event>
 5   0  0.1303808E-02  0.6007751E+03  0.7818609E-02  0.9903799E-01
       -1   -1    0    0    0  501  0.00000000000E+00  0.00000000000E+00  0.24194586973E+03  0.24194586979E+03  0.50400001928E-02 0. -1.
        1   -1    0    0  501    0  0.00000000000E+00  0.00000000000E+00 -0.37294575187E+03  0.37294575191E+03  0.50400001928E-02 0.  1.
    10030    2    1    2    0    0  0.00000000000E+00  0.00000000000E+00 -0.13099988214E+03  0.61489162169E+03  0.60077511376E+03 0.  0.
        4    1    3    3  502    0 -0.15543788270E+03  0.12083402813E+03 -0.29769911003E+03  0.35691479480E+03  0.12699999809E+01 0.  1.
       -4    1    3    3    0  502  0.15543788270E+03 -0.12083402813E+03  0.16669922790E+03  0.25797682689E+03  0.12699999809E+01 0. -1.
</event>
<event>
 5   0  0.1303808E-02  0.5991887E+03  0.7818609E-02  0.9907091E-01
        1   -1    0    0  501    0  0.00000000000E+00  0.00000000000E+00  0.46410795947E+03  0.46410795950E+03  0.50400001928E-02 0.  1.
       -1   -1    0    0    0  501  0.00000000000E+00  0.00000000000E+00 -0.19339635262E+03  0.19339635268E+03  0.50400001928E-02 0. -1.
    10030    2    1    2    0    0  0.00000000000E+00  0.00000000000E+00  0.27071160685E+03  0.65750431218E+03  0.59918874026E+03 0.  0.
        4    1    3    3  502    0  0.28404371177E+03  0.70600310519E+02  0.20553257948E+03  0.35764575794E+03  0.12699999809E+01 0. -1.
       -4    1    3    3    0  502 -0.28404371177E+03 -0.70600310519E+02  0.65179027372E+02  0.29985855424E+03  0.12699999809E+01 0.  1.
</event>
<event>
 5   0  0.1276705E-02  0.5985150E+03  0.7818609E-02  0.9908492E-01
        1   -1    0    0  501    0  0.00000000000E+00  0.00000000000E+00  0.53820489877E+03  0.53820489879E+03  0.50400001928E-02 0.  1.
       -1   -1    0    0    0  501  0.00000000000E+00  0.00000000000E+00 -0.16639584952E+03  0.16639584960E+03  0.50400001928E-02 0. -1.
    10030    2    1    2    0    0  0.00000000000E+00  0.00000000000E+00  0.37180904925E+03  0.70460074839E+03  0.59851503367E+03 0.  0.
        1    1    3    3  502    0  0.22765648594E+03 -0.75505343951E+02 -0.24775311369E+02  0.24112724573E+03  0.50400001928E-02 0. -1.
       -1    1    3    3    0  502 -0.22765648594E+03  0.75505343951E+02  0.39658436062E+03  0.46347350266E+03  0.50400001928E-02 0.  1.
</event>
<event>
 5   0  0.1337051E-02  0.6043606E+03  0.7818609E-02  0.9896400E-01
        1   -1    0    0  501    0  0.00000000000E+00  0.00000000000E+00  0.56488002983E+03  0.56488002986E+03  0.50400001928E-02 0. -1.
       -1   -1    0    0    0  501  0.00000000000E+00  0.00000000000E+00 -0.16165014707E+03  0.16165014715E+03  0.50400001928E-02 0.  1.
    10030    2    1    2    0    0  0.00000000000E+00  0.00000000000E+00  0.40322988276E+03  0.72653017701E+03  0.60436062061E+03 0.  0.
        5    1    3    3  502    0  0.25978971201E+03 -0.80362781594E+02  0.43305496932E+02  0.27540211908E+03  0.46999998093E+01 0.  1.
       -5    1    3    3    0  502 -0.25978971201E+03  0.80362781594E+02  0.35992438583E+03  0.45112805792E+03  0.46999998093E+01 0. -1.
</event>
<event>
 5   0  0.2142838E-02  0.5998961E+03  0.7818609E-02  0.9905622E-01
       -2   -1    0    0    0  501  0.00000000000E+00  0.00000000000E+00  0.10433320533E+03  0.10433320536E+03  0.25500000920E-02 0.  1.
        2   -1    0    0  501    0  0.00000000000E+00  0.00000000000E+00 -0.86232218906E+03  0.86232218906E+03  0.25500000920E-02 0. -1.
    10030    2    1    2    0    0  0.00000000000E+00  0.00000000000E+00 -0.75798898373E+03  0.96665539442E+03  0.59989611777E+03 0.  0.
        4    1    3    3  502    0  0.15720649553E+03 -0.10502624972E+03 -0.75421512918E+03  0.77755158630E+03  0.12699999809E+01 0. -1.
       -4    1    3    3    0  502 -0.15720649553E+03  0.10502624972E+03 -0.37738545430E+01  0.18910380812E+03  0.12699999809E+01 0.  1.
</event>
<event>
 5   0  0.1337051E-02  0.6000830E+03  0.7818609E-02  0.9905234E-01
        1   -1    0    0  501    0  0.00000000000E+00  0.00000000000E+00  0.14298237722E+03  0.14298237731E+03  0.50400001928E-02 0. -1.
       -1   -1    0    0    0  501  0.00000000000E+00  0.00000000000E+00 -0.62962232098E+03  0.62962232100E+03  0.50400001928E-02 0.  1.
    10030    2    1    2    0    0  0.00000000000E+00  0.00000000000E+00 -0.48663994376E+03  0.77260469831E+03  0.60008298175E+03 0.  0.
        5    1    3    3  502    0 -0.13164122011E+03 -0.22194496968E+03 -0.46312713944E+02  0.26221353487E+03  0.46999998093E+01 0. -1.
       -5    1    3    3    0  502  0.13164122011E+03  0.22194496968E+03 -0.44032722982E+03  0.51039116344E+03  0.46999998093E+01 0.  1.
</event>
<event>
 5   0  0.2142838E-02  0.5996282E+03  0.7818609E-02  0.9906178E-01
        2   -1    0    0  501    0  0.00000000000E+00  0.00000000000E+00  0.11545441896E+04  0.11545441896E+04  0.25500000920E-02 0.  1.
       -2   -1    0    0    0  501  0.00000000000E+00  0.00000000000E+00 -0.77856248807E+02  0.77856248848E+02  0.25500000920E-02 0. -1.
    10030    2    1    2    0    0  0.00000000000E+00  0.00000000000E+00  0.10766879408E+04  0.12324004385E+04  0.59962815048E+03 0.  0.
        4    1    3    3  502    0 -0.19077177516E+03 -0.95213237620E+02  0.97155096066E+03  0.99467196244E+03  0.12699999809E+01 0.  1.
       -4    1    3    3    0  502  0.19077177516E+03  0.95213237620E+02  0.10513698015E+03  0.23772847602E+03  0.12699999809E+01 0. -1.
</event>
<event>
 5   0  0.1276705E-02  0.5961112E+03  0.7818609E-02  0.9913507E-01
       -1   -1    0    0    0  501  0.00000000000E+00  0.00000000000E+00  0.17565877027E+03  0.17565877034E+03  0.50400001928E-02 0. -1.
        1   -1    0    0  501    0  0.00000000000E+00  0.00000000000E+00 -0.50573707621E+03  0.50573707624E+03  0.50400001928E-02 0.  1.
    10030    2    1    2    0    0  0.00000000000E+00  0.00000000000E+00 -0.33007830595E+03  0.68139584658E+03  0.59611124103E+03 0.  0.
        1    1    3    3  502    0 -0.18877285661E+03  0.22084550276E+03 -0.88965186289E+02  0.30384655976E+03  0.50400001928E-02 0. -1.
       -1    1    3    3    0  502  0.18877285661E+03 -0.22084550276E+03 -0.24111311966E+03  0.37754928682E+03  0.50400001928E-02 0.  1.
</event>
<event>
 5   0  0.8551000E-03  0.5973615E+03  0.7818609E-02  0.9910895E-01
        3   -1    0    0  501    0  0.00000000000E+00  0.00000000000E+00  0.45467772245E+03  0.45467773367E+03  0.10100000352E+00 0.  1.
       -3   -1    0    0    0  501  0.00000000000E+00  0.00000000000E+00 -0.19620528402E+03  0.19620531002E+03  0.10100000352E+00 0. -1.
    10030    2    1    2    0    0  0.00000000000E+00  0.00000000000E+00  0.25847243843E+03  0.65088304368E+03  0.59736147777E+03 0.  0.
        1    1    3    3  502    0 -0.20972768705E+03 -0.29946219973E+02 -0.10016903907E+03  0.23434230352E+03  0.50400001928E-02 0. -1.
       -1    1    3    3    0  502  0.20972768705E+03  0.29946219973E+02  0.35864147749E+03  0.41654074016E+03  0.50400001928E-02 0.  1.
</event>
<event>
 5   0  0.2179625E-02  0.5995373E+03  0.7818609E-02  0.9906367E-01
       -2   -1    0    0    0  501  0.00000000000E+00  0.00000000000E+00  0.70702162378E+02  0.70702162424E+02  0.25500000920E-02 0. -1.
        2   -1    0    0  501    0  0.00000000000E+00  0.00000000000E+00 -0.12709828396E+04  0.12709828396E+04  0.25500000920E-02 0.  1.
    10030    2    1    2    0    0  0.00000000000E+00  0.00000000000E+00 -0.12002806772E+04  0.13416850020E+04  0.59953727202E+03 0.  0.
        1    1    3    3  502    0 -0.14895756601E+03  0.21808450096E+03 -0.28277293293E+03  0.38692342608E+03  0.50400001928E-02 0. -1.
       -1    1    3    3    0  502  0.14895756601E+03 -0.21808450096E+03 -0.91750774425E+03  0.95476157590E+03  0.50400001928E-02 0.  1.
</event>
<event>
 5   0  0.1276705E-02  0.6006678E+03  0.7818609E-02  0.9904022E-01
       -1   -1    0    0    0  501  0.00000000000E+00  0.00000000000E+00  0.10098304994E+03  0.10098305007E+03  0.50400001928E-02 0.  1.
        1   -1    0    0  501    0  0.00000000000E+00  0.00000000000E+00 -0.89322355892E+03  0.89322355894E+03  0.50400001928E-02 0. -1.
    10030    2    1    2    0    0  0.00000000000E+00  0.00000000000E+00 -0.79224050898E+03  0.99420660900E+03  0.60066775951E+03 0.  0.
        1    1    3    3  502    0 -0.11939215078E+03  0.61997272618E+02  0.48323551865E+02  0.14294514042E+03  0.50400001928E-02 0.  1.
       -1    1    3    3    0  502  0.11939215078E+03 -0.61997272618E+02 -0.84056406084E+03  0.85126146858E+03  0.50400001928E-02 0. -1.
</event>
<event>
 5   0  0.2141800E-02  0.6000092E+03  0.7818609E-02  0.9905387E-01
        2   -1    0    0  501    0  0.00000000000E+00  0.00000000000E+00  0.24551003960E+04  0.24551003960E+04  0.25500000920E-02 0. -1.
       -2   -1    0    0    0  501  0.00000000000E+00  0.00000000000E+00 -0.36659500343E+02  0.36659500432E+02  0.25500000920E-02 0.  1.
    10030    2    1    2    0    0  0.00000000000E+00  0.00000000000E+00  0.24184408957E+04  0.24917598965E+04  0.60000917967E+03 0.  0.
        2    1    3    3  502    0 -0.12738660146E+03 -0.12067530464E+03  0.19867375747E+03  0.26506817481E+03  0.25500000920E-02 0.  1.
       -2    1    3    3    0  502  0.12738660146E+03  0.12067530464E+03  0.22197671382E+04  0.22266917217E+04  0.25500000920E-02 0. -1.
</event>
<event>
 5   0  0.1276705E-02  0.5986503E+03  0.7818609E-02  0.9908210E-01
        1   -1    0    0  501    0  0.00000000000E+00  0.00000000000E+00  0.61921923429E+03  0.61921923431E+03  0.50400001928E-02 0.  1.
       -1   -1    0    0    0  501  0.00000000000E+00  0.00000000000E+00 -0.14469114650E+03  0.14469114658E+03  0.50400001928E-02 0. -1.
    10030    2    1    2    0    0  0.00000000000E+00  0.00000000000E+00  0.47452808779E+03  0.76391038089E+03  0.59865028517E+03 0.  0.
        1    1    3    3  502    0 -0.28596757046E+03 -0.62637267493E+02  0.31689906927E+03  0.43142310875E+03  0.50400001928E-02 0. -1.
       -1    1    3    3    0  502  0.28596757046E+03  0.62637267493E+02  0.15762901853E+03  0.33248727215E+03  0.50400001928E-02 0.  1.
</event>
<event>
 5   0  0.1250390E-02  0.5989394E+03  0.7818609E-02  0.9907609E-01
       -1   -1    0    0    0  501  0.00000000000E+00  0.00000000000E+00  0.96976948938E+03  0.96976948939E+03  0.50400001928E-02 0.  1.
        1   -1    0    0  501    0  0.00000000000E+00  0.00000000000E+00 -0.92477757293E+02  0.92477757430E+02  0.50400001928E-02 0. -1.
    10030    2    1    2    0    0  0.00000000000E+00  0.00000000000E+00  0.87729173209E+03  0.10622472468E+04  0.59893942114E+03 0.  0.
        3    1    3    3  502    0  0.10174794684E+02 -0.10575894693E+03 -0.57927090813E+02  0.12101255866E+03  0.10100000352E+00 0. -1.
       -3    1    3    3    0  502 -0.10174794684E+02  0.10575894693E+03  0.93521882290E+03  0.94123468817E+03  0.10100000352E+00 0.  1.
</event>
<event>
 5   0  0.1276705E-02  0.5999429E+03  0.7818609E-02  0.9905525E-01
        1   -1    0    0  501    0  0.00000000000E+00  0.00000000000E+00  0.23644933718E+03  0.23644933724E+03  0.50400001928E-02 0. -1.
       -1   -1    0    0    0  501  0.00000000000E+00  0.00000000000E+00 -0.38055875898E+03  0.38055875902E+03  0.50400001928E-02 0.  1.
    10030    2    1    2    0    0  0.00000000000E+00  0.00000000000E+00 -0.14410942180E+03  0.61700809626E+03  0.59994288511E+03 0.  0.
        1    1    3    3  502    0  0.18861295587E+03 -0.19253652212E+03 -0.20747283184E+03  0.34013252631E+03  0.50400001928E-02 0.  1.
       -1    1    3    3    0  502 -0.18861295587E+03  0.19253652212E+03  0.63363410042E+02  0.27687556995E+03  0.50400001928E-02 0. -1.
</event>
<event>
 5   0  0.2126207E-02  0.6072438E+03  0.7818609E-02  0.9890490E-01
        2   -1    0    0  501    0  0.00000000000E+00  0.00000000000E+00  0.17511301387E+04  0.17511301387E+04  0.25500000920E-02 0.  1.
       -2   -1    0    0    0  501  0.00000000000E+00  0.00000000000E+00 -0.52643858216E+02  0.52643858278E+02  0.25500000920E-02 0. -1.
    10030    2    1    2    0    0  0.00000000000E+00  0.00000000000E+00  0.16984862804E+04  0.18037739969E+04  0.60724376257E+03 0.  0.
        5    1    3    3  502    0 -0.30321402401E+03  0.22067536561E+01  0.89335601692E+03  0.94342497162E+03  0.46999998093E+01 0. -1.
       -5    1    3    3    0  502  0.30321402401E+03 -0.22067536561E+01  0.80513026352E+03  0.86034902532E+03  0.46999998093E+01 0.  1.
</event>
<event>
 5   0  0.2092587E-02  0.6020901E+03  0.7818609E-02  0.9901079E-01
        2   -1    0    0  501    0  0.00000000000E+00  0.00000000000E+00  0.20801771978E+04  0.20801771978E+04  0.25500000920E-02 0. -1.
       -2   -1    0    0    0  501  0.00000000000E+00  0.00000000000E+00 -0.43567495453E+02  0.43567495527E+02  0.25500000920E-02 0.  1.
    10030    2    1    2    0    0  0.00000000000E+00  0.00000000000E+00  0.20366097023E+04  0.21237446933E+04  0.60209006199E+03 0.  0.
        3    1    3    3  502    0 -0.16656363417E+03  0.24032226493E+03  0.12709400306E+04  0.13041421728E+04  0.10100000352E+00 0. -1.
       -3    1    3    3    0  502  0.16656363417E+03 -0.24032226493E+03  0.76566967169E+03  0.81960252049E+03  0.10100000352E+00 0.  1.
</event>
<event>
 5   0  0.2179625E-02  0.6042529E+03  0.7818609E-02  0.9896622E-01
       -2   -1    0    0    0  501  0.00000000000E+00  0.00000000000E+00  0.48894617989E+03  0.48894617989E+03  0.25500000920E-02 0.  1.
        2   -1    0    0  501    0  0.00000000000E+00  0.00000000000E+00 -0.18668801940E+03  0.18668801942E+03  0.25500000920E-02 0. -1.
    10030    2    1    2    0    0  0.00000000000E+00  0.00000000000E+00  0.30225816048E+03  0.67563419931E+03  0.60425290707E+03 0.  0.
        1    1    3    3  502    0  0.22801539723E+03  0.17667045982E+03  0.50640711136E+02  0.29286166426E+03  0.50400001928E-02 0. -1.
       -1    1    3    3    0  502 -0.22801539723E+03 -0.17667045982E+03  0.25161744935E+03  0.38277253505E+03  0.50400001928E-02 0.  1.
</event>
<event>
 5   0  0.1332555E-02  0.5997192E+03  0.7818609E-02  0.9905989E-01
        1   -1    0    0  501    0  0.00000000000E+00  0.00000000000E+00  0.13630981108E+04  0.13630981108E+04  0.50400001928E-02 0. -1.
       -1   -1    0    0    0  501  0.00000000000E+00  0.00000000000E+00 -0.65964268514E+02  0.65964268707E+02  0.50400001928E-02 0.  1.
    10030    2    1    2    0    0  0.00000000000E+00  0.00000000000E+00  0.12971338423E+04  0.14290623795E+04  0.59971916741E+03 0.  0.
        2    1    3    3  502    0  0.10224356357E+03 -0.39724672377E+02  0.13135755932E+04  0.13181474253E+04  0.25500000920E-02 0. -1.
       -2    1    3    3    0  502 -0.10224356357E+03  0.39724672377E+02 -0.16441750885E+02  0.11091495420E+03  0.25500000920E-02 0.  1.
</event>
<event>
 5   0  0.1276705E-02  0.6062622E+03  0.7818609E-02  0.9892498E-01
        1   -1    0    0  501    0  0.00000000000E+00  0.00000000000E+00  0.27990807271E+03  0.27990807276E+03  0.50400001928E-02 0. -1.
       -1   -1    0    0    0  501  0.00000000000E+00  0.00000000000E+00 -0.32828090819E+03  0.32828090823E+03  0.50400001928E-02 0.  1.
    10030    2    1    2    0    0  0.00000000000E+00  0.00000000000E+00 -0.48372835477E+02  0.60818898099E+03  0.60626224143E+03 0.  0.
        1    1    3    3  502    0  0.84065807910E+02 -0.12067411904E+03 -0.29009327930E+03  0.32524362221E+03  0.50400001928E-02 0.  1.
       -1    1    3    3    0  502 -0.84065807910E+02  0.12067411904E+03  0.24172044383E+03  0.28294535878E+03  0.50400001928E-02 0. -1.
</event>
<event>
 5   0  0.2126207E-02  0.5993320E+03  0.7818609E-02  0.9906793E-01
       -2   -1    0    0    0  501  0.00000000000E+00  0.00000000000E+00  0.60889910235E+02  0.60889910289E+02  0.25500000920E-02 0.  1.
        2   -1    0    0  501    0  0.00000000000E+00  0.00000000000E+00 -0.14747881641E+04  0.14747881641E+04  0.25500000920E-02 0. -1.
    10030    2    1    2    0    0  0.00000000000E+00  0.00000000000E+00 -0.14138982539E+04  0.15356780744E+04  0.59933202475E+03 0.  0.
        5    1    3    3  502    0  0.10405062278E+03  0.24855186945E+03 -0.10427305049E+04  0.10769928318E+04  0.46999998093E+01 0. -1.
       -5    1    3    3    0  502 -0.10405062278E+03 -0.24855186945E+03 -0.37116774901E+03  0.45868524263E+03  0.46999998093E+01 0.  1.
</event>
<event>
 5   0  0.1250390E-02  0.5969599E+03  0.7818609E-02  0.9911733E-01
       -1   -1    0    0    0  501  0.00000000000E+00  0.00000000000E+00  0.15823774033E+03  0.15823774041E+03  0.50400001928E-02 0.  1.
        1   -1    0    0  501    0  0.00000000000E+00  0.00000000000E+00 -0.56301536888E+03  0.56301536890E+03  0.50400001928E-02 0. -1.
    10030    2    1    2    0    0  0.00000000000E+00  0.00000000000E+00 -0.40477762855E+03  0.72125310931E+03  0.59695989741E+03 0.  0.
        3    1    3    3  502    0 -0.17571100801E+03 -0.10258603403E+03 -0.46624384913E+03  0.50870579884E+03  0.10100000352E+00 0. -1.
       -3    1    3    3    0  502  0.17571100801E+03  0.10258603403E+03  0.61466220583E+02  0.21254731047E+03  0.10100000352E+00 0.  1.
</event>
<event>
 5   0  0.1303808E-02  0.5990469E+03  0.7818609E-02  0.9907385E-01
       -1   -1    0    0    0  501  0.00000000000E+00  0.00000000000E+00  0.67791605480E+03  0.67791605482E+03  0.50400001928E-02 0. -1.
        1   -1    0    0  501    0  0.00000000000E+00  0.00000000000E+00 -0.13233837389E+03  0.13233837399E+03  0.50400001928E-02 0.  1.
    10030    2    1    2    0    0  0.00000000000E+00  0.00000000000E+00  0.54557768091E+03  0.81025442881E+03  0.59904693765E+03 0.  0.
        4    1    3    3  502    0 -0.24417572980E+02 -0.24602854411E+03  0.44102331016E+02  0.25114316811E+03  0.12699999809E+01 0.  1.
       -4    1    3    3    0  502  0.24417572980E+02  0.24602854411E+03  0.50147534990E+03  0.55911126070E+03  0.12699999809E+01 0. -1.
</event>
<event>
 5   0  0.2126207E-02  0.6326052E+03  0.7818609E-02  0.9839978E-01
        2   -1    0    0  501    0  0.00000000000E+00  0.00000000000E+00  0.70018707174E+03  0.70018707174E+03  0.25500000920E-02 0.  1.
       -2   -1    0    0    0  501  0.00000000000E+00  0.00000000000E+00 -0.14288658278E+03  0.14288658280E+03  0.25500000920E-02 0. -1.
    10030    2    1    2    0    0  0.00000000000E+00  0.00000000000E+00  0.55730048896E+03  0.84307365455E+03  0.63260521022E+03 0.  0.
        5    1    3    3  502    0  0.17755433928E+03  0.77279540734E+02  0.61189901370E+03  0.64182564905E+03  0.46999998093E+01 0.  1.
       -5    1    3    3    0  502 -0.17755433928E+03 -0.77279540734E+02 -0.54598524744E+02  0.20124800550E+03  0.46999998093E+01 0. -1.
</event>
<event>
 5   0  0.1337051E-02  0.5927126E+03  0.7818609E-02  0.9920641E-01
       -1   -1    0    0    0  501  0.00000000000E+00  0.00000000000E+00  0.14357830698E+03  0.14357830707E+03  0.50400001928E-02 0. -1.
        1   -1    0    0  501    0  0.00000000000E+00  0.00000000000E+00 -0.61170142688E+03  0.61170142690E+03  0.50400001928E-02 0.  1.
    10030    2    1    2    0    0  0.00000000000E+00  0.00000000000E+00 -0.46812311990E+03  0.75527973397E+03  0.59271259576E+03 0.  0.
        5    1    3    3  502    0 -0.29144401290E+03  0.41526762235E+02 -0.19102041816E+03  0.35096292509E+03  0.46999998093E+01 0. -1.
       -5    1    3    3    0  502  0.29144401290E+03 -0.41526762235E+02 -0.27710270174E+03  0.40431680888E+03  0.46999998093E+01 0.  1.
</event>
<event>
 5   0  0.2126207E-02  0.6032245E+03  0.7818609E-02  0.9898739E-01
       -2   -1    0    0    0  501  0.00000000000E+00  0.00000000000E+00  0.33676016005E+03  0.33676016006E+03  0.25500000920E-02 0. -1.
        2   -1    0    0  501    0  0.00000000000E+00  0.00000000000E+00 -0.27013274127E+03  0.27013274128E+03  0.25500000920E-02 0.  1.
    10030    2    1    2    0    0  0.00000000000E+00  0.00000000000E+00  0.66627418784E+02  0.60689290134E+03  0.60322448621E+03 0.  0.
        5    1    3    3  502    0 -0.92094510139E+02  0.29652846578E+02 -0.25405800373E+03  0.27189749791E+03  0.46999998093E+01 0.  1.
       -5    1    3    3    0  502  0.92094510139E+02 -0.29652846578E+02  0.32068542252E+03  0.33499540343E+03  0.46999998093E+01 0. -1.
</event>
<event>
 5   0  0.2142838E-02  0.5999253E+03  0.7818609E-02  0.9905561E-01
        2   -1    0    0  501    0  0.00000000000E+00  0.00000000000E+00  0.59929126281E+03  0.59929126281E+03  0.25500000920E-02 0.  1.
       -2   -1    0    0    0  501  0.00000000000E+00  0.00000000000E+00 -0.15014001492E+03  0.15014001494E+03  0.25500000920E-02 0. -1.
    10030    2    1    2    0    0  0.00000000000E+00  0.00000000000E+00  0.44915124789E+03  0.74943127775E+03  0.59992532585E+03 0.  0.
        4    1    3    3  502    0 -0.17905350967E+03  0.15688201805E+03  0.45254782916E+03  0.51134457804E+03  0.12699999809E+01 0.  1.
       -4    1    3    3    0  502  0.17905350967E+03 -0.15688201805E+03 -0.33965812680E+01  0.23808669971E+03  0.12699999809E+01 0. -1.
</event>
<event>
 5   0  0.2179625E-02  0.5971102E+03  0.7818609E-02  0.9911420E-01
        2   -1    0    0  501    0  0.00000000000E+00  0.00000000000E+00  0.20295261721E+04  0.20295261721E+04  0.25500000920E-02 0.  1.
       -2   -1    0    0    0  501  0.00000000000E+00  0.00000000000E+00 -0.43919190870E+02  0.43919190944E+02  0.25500000920E-02 0. -1.
    10030    2    1    2    0    0  0.00000000000E+00  0.00000000000E+00  0.19856069812E+04  0.20734453631E+04  0.59711019889E+03 0.  0.
        1    1    3    3  502    0  0.20079113704E+03  0.18728456792E+02  0.17572772309E+04  0.17688106462E+04  0.50400001928E-02 0.  1.
       -1    1    3    3    0  502 -0.20079113704E+03 -0.18728456792E+02  0.22832975035E+03  0.30463471688E+03  0.50400001928E-02 0. -1.
</event>
<event>
 5   0  0.2179625E-02  0.5958483E+03  0.7818609E-02  0.9914057E-01
        2   -1    0    0  501    0  0.00000000000E+00  0.00000000000E+00  0.11202937503E+04  0.11202937503E+04  0.25500000920E-02 0.  1.
       -2   -1    0    0    0  501  0.00000000000E+00  0.00000000000E+00 -0.79228153436E+02  0.79228153477E+02  0.25500000920E-02 0. -1.
    10030    2    1    2    0    0  0.00000000000E+00  0.00000000000E+00  0.10410655969E+04  0.11995219038E+04  0.59584832019E+03 0.  0.
        1    1    3    3  502    0 -0.12254673355E+03 -0.26818147789E+03  0.43465437289E+03  0.52522702794E+03  0.50400001928E-02 0.  1.
       -1    1    3    3    0  502  0.12254673355E+03  0.26818147789E+03  0.60641122399E+03  0.67429487585E+03  0.50400001928E-02 0. -1.
</event>
<event>
 5   0  0.1332555E-02  0.5927569E+03  0.7818609E-02  0.9920548E-01
        1   -1    0    0  501    0  0.00000000000E+00  0.00000000000E+00  0.16190404941E+03  0.16190404949E+03  0.50400001928E-02 0. -1.
       -1   -1    0    0    0  501  0.00000000000E+00  0.00000000000E+00 -0.54254479204E+03  0.54254479206E+03  0.50400001928E-02 0.  1.
    10030    2    1    2    0    0  0.00000000000E+00  0.00000000000E+00 -0.38064074263E+03  0.70444884155E+03  0.59275694464E+03 0.  0.
        2    1    3    3  502    0 -0.12216344981E+03 -0.19959555185E+03  0.25822946302E+02  0.23543389167E+03  0.25500000920E-02 0. -1.
       -2    1    3    3    0  502  0.12216344981E+03  0.19959555185E+03 -0.40646368893E+03  0.46901494988E+03  0.25500000920E-02 0.  1.
</event>
<event>
 5   0  0.2179625E-02  0.6002736E+03  0.7818609E-02  0.9904839E-01
        2   -1    0    0  501    0  0.00000000000E+00  0.00000000000E+00  0.41516634616E+03  0.41516634617E+03  0.25500000920E-02 0.  1.
       -2   -1    0    0    0  501  0.00000000000E+00  0.00000000000E+00 -0.21697833502E+03  0.21697833503E+03  0.25500000920E-02 0. -1.
    10030    2    1    2    0    0  0.00000000000E+00  0.00000000000E+00  0.19818801115E+03  0.63214468120E+03  0.60027361279E+03 0.  0.
        1    1    3    3  502    0  0.15443922225E+03  0.17918100481E+02  0.36945340765E+03  0.40083456954E+03  0.50400001928E-02 0.  1.
       -1    1    3    3    0  502 -0.15443922225E+03 -0.17918100481E+02 -0.17126539650E+03  0.23131011166E+03  0.50400001928E-02 0. -1.
</event>
<event>
 5   0  0.1337051E-02  0.5993183E+03  0.7818609E-02  0.9906821E-01
        1   -1    0    0  501    0  0.00000000000E+00  0.00000000000E+00  0.40041120180E+03  0.40041120183E+03  0.50400001928E-02 0.  1.
       -1   -1    0    0    0  501  0.00000000000E+00  0.00000000000E+00 -0.22425844868E+03  0.22425844874E+03  0.50400001928E-02 0. -1.
    10030    2    1    2    0    0  0.00000000000E+00  0.00000000000E+00  0.17615275312E+03  0.62466965057E+03  0.59931826262E+03 0.  0.
        5    1    3    3  502    0  0.20159556957E+03 -0.22104561865E+03  0.70900044794E+02  0.30749121214E+03  0.46999998093E+01 0.  1.
       -5    1    3    3    0  502 -0.20159556957E+03  0.22104561865E+03  0.10525270832E+03  0.31717843843E+03  0.46999998093E+01 0. -1.
</event>
<event>
 5   0  0.1250390E-02  0.5989263E+03  0.7818609E-02  0.9907636E-01
        1   -1    0    0  501    0  0.00000000000E+00  0.00000000000E+00  0.80510242380E+03  0.80510242382E+03  0.50400001928E-02 0. -1.
       -1   -1    0    0    0  501  0.00000000000E+00  0.00000000000E+00 -0.11138728945E+03  0.11138728956E+03  0.50400001928E-02 0.  1.
    10030    2    1    2    0    0  0.00000000000E+00  0.00000000000E+00  0.69371513435E+03  0.91648971338E+03  0.59892629521E+03 0.  0.
        3    1    3    3  502    0 -0.22547061939E+03  0.88056094440E+02  0.61665986899E+03  0.66246530490E+03  0.10100000352E+00 0. -1.
       -3    1    3    3    0  502  0.22547061939E+03 -0.88056094440E+02  0.77055265363E+02  0.25402440847E+03  0.10100000352E+00 0.  1.
</event>
<event>
 5   0  0.2142838E-02  0.6009255E+03  0.7818609E-02  0.9903488E-01
        2   -1    0    0  501    0  0.00000000000E+00  0.00000000000E+00  0.56399994619E+03  0.56399994620E+03  0.25500000920E-02 0. -1.
       -2   -1    0    0    0  501  0.00000000000E+00  0.00000000000E+00 -0.16006712863E+03  0.16006712865E+03  0.25500000920E-02 0.  1.
    10030    2    1    2    0    0  0.00000000000E+00  0.00000000000E+00  0.40393281756E+03  0.72406707485E+03  0.60092545941E+03 0.  0.
        4    1    3    3  502    0  0.18863324395E+02  0.19815724444E+03 -0.69218541957E+02  0.21074851834E+03  0.12699999809E+01 0.  1.
       -4    1    3    3    0  502 -0.18863324395E+02 -0.19815724444E+03  0.47315135952E+03  0.51331855650E+03  0.12699999809E+01 0. -1.
</event>
<event>
 5   0  0.1303808E-02  0.6101164E+03  0.7818609E-02  0.9884637E-01
       -1   -1    0    0    0  501  0.00000000000E+00  0.00000000000E+00  0.32292971257E+03  0.32292971261E+03  0.50400001928E-02 0. -1.
        1   -1    0    0  501    0  0.00000000000E+00  0.00000000000E+00 -0.28817570194E+03  0.28817570198E+03  0.50400001928E-02 0.  1.
    10030    2    1    2    0    0  0.00000000000E+00  0.00000000000E+00  0.34754010637E+02  0.61110541459E+03  0.61011637127E+03 0.  0.
        4    1    3    3  502    0  0.80769730485E+02  0.29944950136E+02  0.31049184922E+03  0.32222236225E+03  0.12699999809E+01 0. -1.
       -4    1    3    3    0  502 -0.80769730485E+02 -0.29944950136E+02 -0.27573783859E+03  0.28888305234E+03  0.12699999809E+01 0.  1.
</event>
<event>
 5   0  0.2092587E-02  0.5994969E+03  0.7818609E-02  0.9906450E-01
        2   -1    0    0  501    0  0.00000000000E+00  0.00000000000E+00  0.84529639551E+03  0.84529639551E+03  0.25500000920E-02 0. -1.
       -2   -1    0    0    0  501  0.00000000000E+00  0.00000000000E+00 -0.10629304768E+03  0.10629304771E+03  0.25500000920E-02 0.  1.
    10030    2    1    2    0    0  0.00000000000E+00  0.00000000000E+00  0.73900334783E+03  0.95158944322E+03  0.59949688936E+03 0.  0.
        3    1    3    3  502    0 -0.25054004229E+03  0.56937367863E+02  0.61457043911E+03  0.66611486358E+03  0.10100000352E+00 0. -1.
       -3    1    3    3    0  502  0.25054004229E+03 -0.56937367863E+02  0.12443290871E+03  0.28547457964E+03  0.10100000352E+00 0.  1.
</event>
<event>
 5   0  0.2092587E-02  0.5988989E+03  0.7818609E-02  0.9907693E-01
        2   -1    0    0  501    0  0.00000000000E+00  0.00000000000E+00  0.27103941410E+03  0.27103941411E+03  0.25500000920E-02 0.  1.
       -2   -1    0    0    0  501  0.00000000000E+00  0.00000000000E+00 -0.33083744768E+03  0.33083744769E+03  0.25500000920E-02 0. -1.
    10030    2    1    2    0    0  0.00000000000E+00  0.00000000000E+00 -0.59798033576E+02  0.60187686180E+03  0.59889894970E+03 0.  0.
        3    1    3    3  502    0  0.18587422302E+03 -0.22665066232E+03 -0.91442624109E+02  0.30705294856E+03  0.10100000352E+00 0.  1.
       -3    1    3    3    0  502 -0.18587422302E+03  0.22665066232E+03  0.31644590532E+02  0.29482391325E+03  0.10100000352E+00 0. -1.
</event>
<event>
 5   0  0.2092587E-02  0.6006080E+03  0.7818609E-02  0.9904146E-01
       -2   -1    0    0    0  501  0.00000000000E+00  0.00000000000E+00  0.16151011669E+03  0.16151011671E+03  0.25500000920E-02 0.  1.
        2   -1    0    0  501    0  0.00000000000E+00  0.00000000000E+00 -0.55837048909E+03  0.55837048909E+03  0.25500000920E-02 0. -1.
    10030    2    1    2    0    0  0.00000000000E+00  0.00000000000E+00 -0.39686037240E+03  0.71988060581E+03  0.60060796818E+03 0.  0.
        3    1    3    3  502    0  0.11400068938E+03  0.18355431210E+03  0.51537982139E+02  0.22213625655E+03  0.10100000352E+00 0.  1.
       -3    1    3    3    0  502 -0.11400068938E+03 -0.18355431210E+03 -0.44839835454E+03  0.49774434926E+03  0.10100000352E+00 0. -1.
</event>
<event>
 5   0  0.1332555E-02  0.5976803E+03  0.7818609E-02  0.9910230E-01
       -1   -1    0    0    0  501  0.00000000000E+00  0.00000000000E+00  0.26228297824E+03  0.26228297829E+03  0.50400001928E-02 0. -1.
        1   -1    0    0  501    0  0.00000000000E+00  0.00000000000E+00 -0.34049264427E+03  0.34049264431E+03  0.50400001928E-02 0.  1.
    10030    2    1    2    0    0  0.00000000000E+00  0.00000000000E+00 -0.78209666030E+02  0.60277562260E+03  0.59768026514E+03 0.  0.
        2    1    3    3  502    0  0.18822165428E+03 -0.15928260863E+03 -0.20938464582E+03  0.32348148396E+03  0.25500000920E-02 0.  1.
       -2    1    3    3    0  502 -0.18822165428E+03  0.15928260863E+03  0.13117497979E+03  0.27929413864E+03  0.25500000920E-02 0. -1.
</event>
<event>
 5   0  0.2126207E-02  0.6023323E+03  0.7818609E-02  0.9900579E-01
        2   -1    0    0  501    0  0.00000000000E+00  0.00000000000E+00  0.21989744551E+03  0.21989744553E+03  0.25500000920E-02 0.  1.
       -2   -1    0    0    0  501  0.00000000000E+00  0.00000000000E+00 -0.41246972974E+03  0.41246972975E+03  0.25500000920E-02 0. -1.
    10030    2    1    2    0    0  0.00000000000E+00  0.00000000000E+00 -0.19257228423E+03  0.63236717528E+03  0.60233226687E+03 0.  0.
        5    1    3    3  502    0  0.10498432890E+03  0.96268318869E+02  0.18225387434E+03  0.23136089393E+03  0.46999998093E+01 0.  1.
       -5    1    3    3    0  502 -0.10498432890E+03 -0.96268318869E+02 -0.37482615857E+03  0.40100628134E+03  0.46999998093E+01 0. -1.
</event>
<event>
 5   0  0.2126207E-02  0.5904595E+03  0.7818609E-02  0.9925400E-01
        2   -1    0    0  501    0  0.00000000000E+00  0.00000000000E+00  0.11878737925E+04  0.11878737925E+04  0.25500000920E-02 0. -1.
       -2   -1    0    0    0  501  0.00000000000E+00  0.00000000000E+00 -0.73375304882E+02  0.73375304926E+02  0.25500000920E-02 0.  1.
    10030    2    1    2    0    0  0.00000000000E+00  0.00000000000E+00  0.11144984876E+04  0.12612490975E+04  0.59045948792E+03 0.  0.
        5    1    3    3  502    0 -0.28872125939E+02 -0.10807848143E+03 -0.26262889501E+02  0.11500603100E+03  0.46999998093E+01 0.  1.
       -5    1    3    3    0  502  0.28872125939E+02  0.10807848143E+03  0.11407613771E+04  0.11462430665E+04  0.46999998093E+01 0. -1.
</event>
<event>
 5   0  0.2142838E-02  0.6355217E+03  0.7818609E-02  0.9834332E-01
       -2   -1    0    0    0  501  0.00000000000E+00  0.00000000000E+00  0.30291945728E+03  0.30291945729E+03  0.25500000920E-02 0. -1.
        2   -1    0    0  501    0  0.00000000000E+00  0.00000000000E+00 -0.33332938326E+03  0.33332938327E+03  0.25500000920E-02 0.  1.
    10030    2    1    2    0    0  0.00000000000E+00  0.00000000000E+00 -0.30409925975E+02  0.63624884056E+03  0.63552169398E+03 0.  0.
        4    1    3    3  502    0 -0.30518676466E+03 -0.78613648037E+02 -0.55887352901E+02  0.32006886149E+03  0.12699999809E+01 0. -1.
       -4    1    3    3    0  502  0.30518676466E+03  0.78613648037E+02  0.25477426926E+02  0.31617997907E+03  0.12699999809E+01 0.  1.
</event>
<event>
 5   0  0.2142838E-02  0.5942171E+03  0.7818609E-02  0.9917477E-01
       -2   -1    0    0    0  501  0.00000000000E+00  0.00000000000E+00  0.63392816029E+02  0.63392816080E+02  0.25500000920E-02 0.  1.
        2   -1    0    0  501    0  0.00000000000E+00  0.00000000000E+00 -0.13924843614E+04  0.13924843614E+04  0.25500000920E-02 0. -1.
    10030    2    1    2    0    0  0.00000000000E+00  0.00000000000E+00 -0.13290915454E+04  0.14558771775E+04  0.59421714881E+03 0.  0.
        4    1    3    3  502    0  0.76359231996E+02 -0.15814914966E+03 -0.12516956691E+04  0.12639563073E+04  0.12699999809E+01 0. -1.
       -4    1    3    3    0  502 -0.76359231996E+02  0.15814914966E+03 -0.77395876295E+02  0.19192087020E+03  0.12699999809E+01 0.  1.
</event>
<event>
 5   0  0.1332555E-02  0.5997410E+03  0.7818609E-02  0.9905944E-01
        1   -1    0    0  501    0  0.00000000000E+00  0.00000000000E+00  0.42797795740E+03  0.42797795743E+03  0.50400001928E-02 0. -1.
       -1   -1    0    0    0  501  0.00000000000E+00  0.00000000000E+00 -0.21010969339E+03  0.21010969345E+03  0.50400001928E-02 0.  1.
    10030    2    1    2    0    0  0.00000000000E+00  0.00000000000E+00  0.21786826402E+03  0.63808765088E+03  0.59974100222E+03 0.  0.
        2    1    3    3  502    0  0.46136112441E+02 -0.19045455956E+03 -0.13256081873E+03  0.23658793460E+03  0.25500000920E-02 0.  1.
       -2    1    3    3    0  502 -0.46136112441E+02  0.19045455956E+03  0.35042908275E+03  0.40149971628E+03  0.25500000920E-02 0. -1.
</event>
<event>
 5   0  0.2092587E-02  0.6012461E+03  0.7818609E-02  0.9902824E-01
       -2   -1    0    0    0  501  0.00000000000E+00  0.00000000000E+00  0.10273108982E+03  0.10273108985E+03  0.25500000920E-02 0. -1.
        2   -1    0    0  501    0  0.00000000000E+00  0.00000000000E+00 -0.87971638582E+03  0.87971638582E+03  0.25500000920E-02 0.  1.
    10030    2    1    2    0    0  0.00000000000E+00  0.00000000000E+00 -0.77698529600E+03  0.98244747567E+03  0.60124611620E+03 0.  0.
        3    1    3    3  502    0  0.26199652597E+03 -0.60983437215E+02 -0.16918653976E+03  0.31778177209E+03  0.10100000352E+00 0. -1.
       -3    1    3    3    0  502 -0.26199652597E+03  0.60983437215E+02 -0.60779875624E+03  0.66466570358E+03  0.10100000352E+00 0.  1.
</event>
<event>
 5   0  0.1303808E-02  0.6003564E+03  0.7818609E-02  0.9904667E-01
       -1   -1    0    0    0  501  0.00000000000E+00  0.00000000000E+00  0.10082622740E+04  0.10082622740E+04  0.50400001928E-02 0.  1.
        1   -1    0    0  501    0  0.00000000000E+00  0.00000000000E+00 -0.89368556471E+02  0.89368556613E+02  0.50400001928E-02 0. -1.
    10030    2    1    2    0    0  0.00000000000E+00  0.00000000000E+00  0.91889371753E+03  0.10976308306E+04  0.60035637435E+03 0.  0.
        4    1    3    3  502    0 -0.28625093533E+03  0.29020052822E+02  0.30298496553E+03  0.41783162121E+03  0.12699999809E+01 0. -1.
       -4    1    3    3    0  502  0.28625093533E+03 -0.29020052822E+02  0.61590875199E+03  0.67979920942E+03  0.12699999809E+01 0.  1.
</event>
<event>
 5   0  0.2179625E-02  0.6017363E+03  0.7818609E-02  0.9901810E-01
        2   -1    0    0  501    0  0.00000000000E+00  0.00000000000E+00  0.19775556181E+03  0.19775556182E+03  0.25500000920E-02 0. -1.
       -2   -1    0    0    0  501  0.00000000000E+00  0.00000000000E+00 -0.45774506104E+03  0.45774506105E+03  0.25500000920E-02 0.  1.
    10030    2    1    2    0    0  0.00000000000E+00  0.00000000000E+00 -0.25998949924E+03  0.65550062288E+03  0.60173626023E+03 0.  0.
        1    1    3    3  502    0 -0.19187366288E+03 -0.18999542180E+03 -0.27454549116E+03  0.38508309435E+03  0.50400001928E-02 0.  1.
       -1    1    3    3    0  502  0.19187366288E+03  0.18999542180E+03  0.14555991921E+02  0.27041752853E+03  0.50400001928E-02 0. -1.
</event>
<event>
 5   0  0.2141800E-02  0.5915657E+03  0.7818609E-02  0.9923061E-01
        2   -1    0    0  501    0  0.00000000000E+00  0.00000000000E+00  0.71291218930E+03  0.71291218930E+03  0.25500000920E-02 0.  1.
       -2   -1    0    0    0  501  0.00000000000E+00  0.00000000000E+00 -0.12271848284E+03  0.12271848287E+03  0.25500000920E-02 0. -1.
    10030    2    1    2    0    0  0.00000000000E+00  0.00000000000E+00  0.59019370645E+03  0.83563067217E+03  0.59156572681E+03 0.  0.
        2    1    3    3  502    0  0.26734538239E+03 -0.11857002212E+03  0.35755595090E+03  0.46192928210E+03  0.25500000920E-02 0. -1.
       -2    1    3    3    0  502 -0.26734538239E+03  0.11857002212E+03  0.23263775555E+03  0.37370139008E+03  0.25500000920E-02 0.  1.
</event>
<event>
 5   0  0.1303808E-02  0.5991250E+03  0.7818609E-02  0.9907223E-01
       -1   -1    0    0    0  501  0.00000000000E+00  0.00000000000E+00  0.16845361556E+03  0.16845361563E+03  0.50400001928E-02 0. -1.
        1   -1    0    0  501    0  0.00000000000E+00  0.00000000000E+00 -0.53271456592E+03  0.53271456594E+03  0.50400001928E-02 0.  1.
    10030    2    1    2    0    0  0.00000000000E+00  0.00000000000E+00 -0.36426095037E+03  0.70116818158E+03  0.59912501107E+03 0.  0.
        4    1    3    3  502    0 -0.25832093093E+03 -0.12965489635E+03 -0.90009192806E+02  0.30272654855E+03  0.12699999809E+01 0. -1.
       -4    1    3    3    0  502  0.25832093093E+03  0.12965489635E+03 -0.27425175756E+03  0.39844163303E+03  0.12699999809E+01 0.  1.
</event>
<event>
 5   0  0.1332555E-02  0.5975437E+03  0.7818609E-02  0.9910515E-01
        1   -1    0    0  501    0  0.00000000000E+00  0.00000000000E+00  0.48863987984E+03  0.48863987987E+03  0.50400001928E-02 0. -1.
       -1   -1    0    0    0  501  0.00000000000E+00  0.00000000000E+00 -0.18267979354E+03  0.18267979361E+03  0.50400001928E-02 0.  1.
    10030    2    1    2    0    0  0.00000000000E+00  0.00000000000E+00  0.30596008630E+03  0.67131967348E+03  0.59754374701E+03 0.  0.
        2    1    3    3  502    0  0.23855765624E+03 -0.46531703115E+02  0.34818413024E+03  0.42462588628E+03  0.25500000920E-02 0. -1.
       -2    1    3    3    0  502 -0.23855765624E+03  0.46531703115E+02 -0.42224043935E+02  0.24669378719E+03  0.25500000920E-02 0.  1.
</event>
<event>
 5   0  0.2142838E-02  0.5983587E+03  0.7818609E-02  0.9908817E-01
       -2   -1    0    0    0  501  0.00000000000E+00  0.00000000000E+00  0.28132511057E+03  0.28132511058E+03  0.25500000920E-02 0.  1.
        2   -1    0    0  501    0  0.00000000000E+00  0.00000000000E+00 -0.31816675058E+03  0.31816675059E+03  0.25500000920E-02 0. -1.
    10030    2    1    2    0    0  0.00000000000E+00  0.00000000000E+00 -0.36841640013E+02  0.59949186117E+03  0.59835874287E+03 0.  0.
        4    1    3    3  502    0  0.22105933287E+02  0.11032550767E+03  0.25931577882E+03  0.28267768921E+03  0.12699999809E+01 0.  1.
       -4    1    3    3    0  502 -0.22105933287E+02 -0.11032550767E+03 -0.29615741884E+03  0.31681417197E+03  0.12699999809E+01 0. -1.
</event>
<event>
 5   0  0.2142838E-02  0.5988975E+03  0.7818609E-02  0.9907696E-01
        2   -1    0    0  501    0  0.00000000000E+00  0.00000000000E+00  0.50884207375E+03  0.50884207376E+03  0.25500000920E-02 0. -1.
       -2   -1    0    0    0  501  0.00000000000E+00  0.00000000000E+00 -0.17622276829E+03  0.17622276831E+03  0.25500000920E-02 0.  1.
    10030    2    1    2    0    0  0.00000000000E+00  0.00000000000E+00  0.33261930546E+03  0.68506484207E+03  0.59889751667E+03 0.  0.
        4    1    3    3  502    0 -0.14096757474E+03 -0.21959934767E+03  0.33431632936E+03  0.42410464699E+03  0.12699999809E+01 0.  1.
       -4    1    3    3    0  502  0.14096757474E+03  0.21959934767E+03 -0.16970238996E+01  0.26096019508E+03  0.12699999809E+01 0. -1.
</event>
<event>
 5   0  0.1303808E-02  0.6003079E+03  0.7818609E-02  0.9904767E-01
       -1   -1    0    0    0  501  0.00000000000E+00  0.00000000000E+00  0.12427201996E+03  0.12427202007E+03  0.50400001928E-02 0. -1.
        1   -1    0    0  501    0  0.00000000000E+00  0.00000000000E+00 -0.72496118640E+03  0.72496118642E+03  0.50400001928E-02 0.  1.
    10030    2    1    2    0    0  0.00000000000E+00  0.00000000000E+00 -0.60068916644E+03  0.84923320649E+03  0.60030789127E+03 0.  0.
        4    1    3    3  502    0  0.28670422386E+03 -0.63993152961E+02 -0.21318089210E+03  0.36296300260E+03  0.12699999809E+01 0.  1.
       -4    1    3    3    0  502 -0.28670422386E+03  0.63993152961E+02 -0.38750827434E+03  0.48627020388E+03  0.12699999809E+01 0. -1.
</event>
<event>
 5   0  0.1332555E-02  0.6016583E+03  0.7818609E-02  0.9901972E-01
        1   -1    0    0  501    0  0.00000000000E+00  0.00000000000E+00  0.10466735451E+04  0.10466735451E+04  0.50400001928E-02 0. -1.
       -1   -1    0    0    0  501  0.00000000000E+00  0.00000000000E+00 -0.86462647140E+02  0.86462647287E+02  0.50400001928E-02 0.  1.
    10030    2    1    2    0    0  0.00000000000E+00  0.00000000000E+00  0.96021089798E+03  0.11331361924E+04  0.60165826012E+03 0.  0.
        2    1    3    3  502    0  0.13154723402E+02  0.29981170414E+03  0.44068700978E+03  0.53316521387E+03  0.25500000920E-02 0. -1.
       -2    1    3    3    0  502 -0.13154723402E+02 -0.29981170414E+03  0.51952388820E+03  0.59997097855E+03  0.25500000920E-02 0.  1.
</event>
<event>
 5   0  0.2126207E-02  0.5995999E+03  0.7818609E-02  0.9906236E-01
       -2   -1    0    0    0  501  0.00000000000E+00  0.00000000000E+00  0.10626325653E+03  0.10626325657E+03  0.25500000920E-02 0.  1.
        2   -1    0    0  501    0  0.00000000000E+00  0.00000000000E+00 -0.84582398811E+03  0.84582398811E+03  0.25500000920E-02 0. -1.
    10030    2    1    2    0    0  0.00000000000E+00  0.00000000000E+00 -0.73956073157E+03  0.95208724468E+03  0.59959990476E+03 0.  0.
        5    1    3    3  502    0 -0.20083628393E+03 -0.19958275593E+02 -0.17844349366E+02  0.20266735433E+03  0.46999998093E+01 0.  1.
       -5    1    3    3    0  502  0.20083628393E+03  0.19958275593E+02 -0.72171638221E+03  0.74941989035E+03  0.46999998093E+01 0. -1.
</event>
<event>
 5   0  0.2126207E-02  0.6002182E+03  0.7818609E-02  0.9904954E-01
       -2   -1    0    0    0  501  0.00000000000E+00  0.00000000000E+00  0.43917677148E+03  0.43917677149E+03  0.25500000920E-02 0.  1.
        2   -1    0    0  501    0  0.00000000000E+00  0.00000000000E+00 -0.20507791595E+03  0.20507791596E+03  0.25500000920E-02 0. -1.
    10030    2    1    2    0    0  0.00000000000E+00  0.00000000000E+00  0.23409885553E+03  0.64425468745E+03  0.60021815046E+03 0.  0.
        5    1    3    3  502    0  0.10468278486E+03  0.23470639115E+03  0.28332716317E+03  0.38254665975E+03  0.46999998093E+01 0.  1.
       -5    1    3    3    0  502 -0.10468278486E+03 -0.23470639115E+03 -0.49228307639E+02  0.26170802770E+03  0.46999998093E+01 0. -1.
</event>
<event>
 5   0  0.1250390E-02  0.5998991E+03  0.7818609E-02  0.9905615E-01
        1   -1    0    0  501    0  0.00000000000E+00  0.00000000000E+00  0.47276725087E+03  0.47276725089E+03  0.50400001928E-02 0. -1.
       -1   -1    0    0    0  501  0.00000000000E+00  0.00000000000E+00 -0.19030447818E+03  0.19030447825E+03  0.50400001928E-02 0.  1.
    10030    2    1    2    0    0  0.00000000000E+00  0.00000000000E+00  0.28246277268E+03  0.66307172914E+03  0.59989907488E+03 0.  0.
        3    1    3    3  502    0 -0.43496869640E+02 -0.27551422966E+03  0.26316439756E+03  0.38347826374E+03  0.10100000352E+00 0. -1.
       -3    1    3    3    0  502  0.43496869640E+02  0.27551422966E+03  0.19298375123E+02  0.27959346541E+03  0.10100000352E+00 0.  1.
</event>
<event>
 5   0  0.2141800E-02  0.6001558E+03  0.7818609E-02  0.9905083E-01
       -2   -1    0    0    0  501  0.00000000000E+00  0.00000000000E+00  0.34117340887E+03  0.34117340888E+03  0.25500000920E-02 0.  1.
        2   -1    0    0  501    0  0.00000000000E+00  0.00000000000E+00 -0.26393247314E+03  0.26393247315E+03  0.25500000920E-02 0. -1.
    10030    2    1    2    0    0  0.00000000000E+00  0.00000000000E+00  0.77240935726E+02  0.60510588203E+03  0.60015578504E+03 0.  0.
        2    1    3    3  502    0  0.48958574161E+02 -0.15870657098E+03 -0.21336494691E+03  0.27038734850E+03  0.25500000920E-02 0. -1.
       -2    1    3    3    0  502 -0.48958574161E+02  0.15870657098E+03  0.29060588264E+03  0.33471853352E+03  0.25500000920E-02 0.  1.
</event>
<event>
 5   0  0.1303808E-02  0.5716317E+03  0.7818609E-02  0.9966074E-01
        1   -1    0    0  501    0  0.00000000000E+00  0.00000000000E+00  0.50677008870E+03  0.50677008873E+03  0.50400001928E-02 0. -1.
       -1   -1    0    0    0  501  0.00000000000E+00  0.00000000000E+00 -0.16119871834E+03  0.16119871842E+03  0.50400001928E-02 0.  1.
    10030    2    1    2    0    0  0.00000000000E+00  0.00000000000E+00  0.34557137036E+03  0.66796880715E+03  0.57163166053E+03 0.  0.
        4    1    3    3  502    0 -0.27505708806E+03 -0.58701887052E+02  0.23221739184E+03  0.36473119309E+03  0.12699999809E+01 0.  1.
       -4    1    3    3    0  502  0.27505708806E+03  0.58701887052E+02  0.11335397852E+03  0.30323761406E+03  0.12699999809E+01 0. -1.
</event>
<event>
 5   0  0.2092587E-02  0.6013161E+03  0.7818609E-02  0.9902679E-01
        2   -1    0    0  501    0  0.00000000000E+00  0.00000000000E+00  0.99974223139E+03  0.99974223140E+03  0.25500000920E-02 0. -1.
       -2   -1    0    0    0  501  0.00000000000E+00  0.00000000000E+00 -0.90418568440E+02  0.90418568476E+02  0.25500000920E-02 0.  1.
    10030    2    1    2    0    0  0.00000000000E+00  0.00000000000E+00  0.90932366295E+03  0.10901607999E+04  0.60131609456E+03 0.  0.
        3    1    3    3  502    0 -0.13852334930E+03  0.24865380134E+03  0.63022712990E+03  0.69152272318E+03  0.10100000352E+00 0. -1.
       -3    1    3    3    0  502  0.13852334930E+03 -0.24865380134E+03  0.27909653306E+03  0.39863807669E+03  0.10100000352E+00 0.  1.
</event>
<event>
 5   0  0.8551000E-03  0.6000047E+03  0.7818609E-02  0.9905396E-01
        4   -1    0    0  501    0  0.00000000000E+00  0.00000000000E+00  0.15036491552E+04  0.15036496915E+04  0.12699999809E+01 0.  1.
       -4   -1    0    0    0  501  0.00000000000E+00  0.00000000000E+00 -0.59848047578E+02  0.59861521021E+02  0.12699999809E+01 0. -1.
    10030    2    1    2    0    0  0.00000000000E+00  0.00000000000E+00  0.14438011076E+04  0.15635112125E+04  0.60000472781E+03 0.  0.
        2    1    3    3  502    0  0.47143469814E+02 -0.42761292397E+02  0.14858598799E+04  0.14872224506E+04  0.25500000920E-02 0.  1.
       -2    1    3    3    0  502 -0.47143469814E+02  0.42761292397E+02 -0.42058772252E+02  0.76288761973E+02  0.25500000920E-02 0. -1.
</event>
<event>
 5   0  0.2141800E-02  0.5996272E+03  0.7818609E-02  0.9906180E-01
       -2   -1    0    0    0  501  0.00000000000E+00  0.00000000000E+00  0.24659050778E+03  0.24659050780E+03  0.25500000920E-02 0.  1.
        2   -1    0    0  501    0  0.00000000000E+00  0.00000000000E+00 -0.36452416923E+03  0.36452416924E+03  0.25500000920E-02 0. -1.
    10030    2    1    2    0    0  0.00000000000E+00  0.00000000000E+00 -0.11793366145E+03  0.61111467703E+03  0.59962721752E+03 0.  0.
        2    1    3    3  502    0  0.24674008006E+03  0.10430546089E+03 -0.19618612124E+03  0.33203808585E+03  0.25500000920E-02 0. -1.
       -2    1    3    3    0  502 -0.24674008006E+03 -0.10430546089E+03  0.78252459790E+02  0.27907659119E+03  0.25500000920E-02 0.  1.
</event>
<event>
 5   0  0.1250390E-02  0.6029842E+03  0.7818609E-02  0.9899234E-01
        1   -1    0    0  501    0  0.00000000000E+00  0.00000000000E+00  0.58112257664E+03  0.58112257666E+03  0.50400001928E-02 0. -1.
       -1   -1    0    0    0  501  0.00000000000E+00  0.00000000000E+00 -0.15641708678E+03  0.15641708687E+03  0.50400001928E-02 0.  1.
    10030    2    1    2    0    0  0.00000000000E+00  0.00000000000E+00  0.42470548985E+03  0.73753966352E+03  0.60298424703E+03 0.  0.
        3    1    3    3  502    0  0.28849152731E+03  0.87436597781E+00  0.10523557159E+03  0.30708738426E+03  0.10100000352E+00 0. -1.
       -3    1    3    3    0  502 -0.28849152731E+03 -0.87436597781E+00  0.31946991826E+03  0.43045227926E+03  0.10100000352E+00 0.  1.
</event>
<event>
 5   0  0.2141800E-02  0.6010733E+03  0.7818609E-02  0.9903182E-01
       -2   -1    0    0    0  501  0.00000000000E+00  0.00000000000E+00  0.13372380663E+03  0.13372380665E+03  0.25500000920E-02 0.  1.
        2   -1    0    0  501    0  0.00000000000E+00  0.00000000000E+00 -0.67543904138E+03  0.67543904139E+03  0.25500000920E-02 0. -1.
    10030    2    1    2    0    0  0.00000000000E+00  0.00000000000E+00 -0.54171523476E+03  0.80916284804E+03  0.60107330591E+03 0.  0.
        2    1    3    3  502    0  0.15845780175E+03 -0.24299700496E+03 -0.16515023042E+03  0.33381284872E+03  0.25500000920E-02 0.  1.
       -2    1    3    3    0  502 -0.15845780175E+03  0.24299700496E+03 -0.37656500434E+03  0.47534999932E+03  0.25500000920E-02 0. -1.
</event>
<event>
 5   0  0.1250390E-02  0.5996870E+03  0.7818609E-02  0.9906056E-01
       -1   -1    0    0    0  501  0.00000000000E+00  0.00000000000E+00  0.23209080615E+03  0.23209080620E+03  0.50400001928E-02 0.  1.
        1   -1    0    0  501    0  0.00000000000E+00  0.00000000000E+00 -0.38737474556E+03  0.38737474559E+03  0.50400001928E-02 0. -1.
    10030    2    1    2    0    0  0.00000000000E+00  0.00000000000E+00 -0.15528393941E+03  0.61946555180E+03  0.59968697503E+03 0.  0.
        3    1    3    3  502    0  0.22467396284E+03 -0.18519805481E+03 -0.15162391244E+03  0.32827812920E+03  0.10100000352E+00 0. -1.
       -3    1    3    3    0  502 -0.22467396284E+03  0.18519805481E+03 -0.36600269688E+01  0.29118742260E+03  0.10100000352E+00 0.  1.
</event>
<event>
 5   0  0.1303808E-02  0.5971049E+03  0.7818609E-02  0.9911431E-01
        1   -1    0    0  501    0  0.00000000000E+00  0.00000000000E+00  0.71510724722E+03  0.71510724724E+03  0.50400001928E-02 0. -1.
       -1   -1    0    0    0  501  0.00000000000E+00  0.00000000000E+00 -0.12464361568E+03  0.12464361578E+03  0.50400001928E-02 0.  1.
    10030    2    1    2    0    0  0.00000000000E+00  0.00000000000E+00  0.59046363154E+03  0.83975086302E+03  0.59710485828E+03 0.  0.
        4    1    3    3  502    0 -0.10307111632E+03 -0.90307510238E+02  0.66825915858E+03  0.68216641470E+03  0.12699999809E+01 0. -1.
       -4    1    3    3    0  502  0.10307111632E+03  0.90307510238E+02 -0.77795527043E+02  0.15758444832E+03  0.12699999809E+01 0.  1.
</event>
<event>
 5   0  0.2092587E-02  0.6006943E+03  0.7818609E-02  0.9903967E-01
        2   -1    0    0  501    0  0.00000000000E+00  0.00000000000E+00  0.15852048118E+04  0.15852048118E+04  0.25500000920E-02 0. -1.
       -2   -1    0    0    0  501  0.00000000000E+00  0.00000000000E+00 -0.56906476753E+02  0.56906476810E+02  0.25500000920E-02 0.  1.
    10030    2    1    2    0    0  0.00000000000E+00  0.00000000000E+00  0.15282983350E+04  0.16421112886E+04  0.60069433431E+03 0.  0.
        3    1    3    3  502    0  0.45705464231E+02 -0.25850740164E+03  0.11630555552E+04  0.11923142626E+04  0.10100000352E+00 0. -1.
       -3    1    3    3    0  502 -0.45705464231E+02  0.25850740164E+03  0.36524277986E+03  0.44979702601E+03  0.10100000352E+00 0.  1.
</event>
<event>
 5   0  0.1276705E-02  0.5971163E+03  0.7818609E-02  0.9911407E-01
        1   -1    0    0  501    0  0.00000000000E+00  0.00000000000E+00  0.10265639185E+04  0.10265639185E+04  0.50400001928E-02 0. -1.
       -1   -1    0    0    0  501  0.00000000000E+00  0.00000000000E+00 -0.86830409070E+02  0.86830409216E+02  0.50400001928E-02 0.  1.
    10030    2    1    2    0    0  0.00000000000E+00  0.00000000000E+00  0.93973350943E+03  0.11133943277E+04  0.59711628706E+03 0.  0.
        1    1    3    3  502    0 -0.49300645022E+02 -0.22007643172E+02  0.10173859159E+04  0.10188174478E+04  0.50400001928E-02 0. -1.
       -1    1    3    3    0  502  0.49300645022E+02  0.22007643172E+02 -0.77652406503E+02  0.94576879938E+02  0.50400001928E-02 0.  1.
</event>
<event>
 5   0  0.1332555E-02  0.6021258E+03  0.7818609E-02  0.9901006E-01
       -1   -1    0    0    0  501  0.00000000000E+00  0.00000000000E+00  0.63617414064E+03  0.63617414066E+03  0.50400001928E-02 0. -1.
        1   -1    0    0  501    0  0.00000000000E+00  0.00000000000E+00 -0.14247492728E+03  0.14247492737E+03  0.50400001928E-02 0.  1.
    10030    2    1    2    0    0  0.00000000000E+00  0.00000000000E+00  0.49369921336E+03  0.77864906803E+03  0.60212578243E+03 0.  0.
        2    1    3    3  502    0  0.18737176558E+03 -0.79790154091E+02 -0.39884337653E+02  0.20752206539E+03  0.25500000920E-02 0.  1.
       -2    1    3    3    0  502 -0.18737176558E+03  0.79790154091E+02  0.53358355101E+03  0.57112700264E+03  0.25500000920E-02 0. -1.
</event>
<event>
 5   0  0.1332555E-02  0.5979371E+03  0.7818609E-02  0.9909695E-01
        1   -1    0    0  501    0  0.00000000000E+00  0.00000000000E+00  0.42302726221E+03  0.42302726224E+03  0.50400001928E-02 0. -1.
       -1   -1    0    0    0  501  0.00000000000E+00  0.00000000000E+00 -0.21129181636E+03  0.21129181642E+03  0.50400001928E-02 0.  1.
    10030    2    1    2    0    0  0.00000000000E+00  0.00000000000E+00  0.21173544585E+03  0.63431907866E+03  0.59793711586E+03 0.  0.
        2    1    3    3  502    0 -0.55916899078E+02  0.29339159450E+03  0.91759219720E+02  0.31245012680E+03  0.25500000920E-02 0. -1.
       -2    1    3    3    0  502  0.55916899078E+02 -0.29339159450E+03  0.11997622613E+03  0.32186895186E+03  0.25500000920E-02 0.  1.
</event>
<event>
 5   0  0.2142838E-02  0.6007530E+03  0.7818609E-02  0.9903845E-01
        2   -1    0    0  501    0  0.00000000000E+00  0.00000000000E+00  0.24813373178E+03  0.24813373179E+03  0.25500000920E-02 0.  1.
       -2   -1    0    0    0  501  0.00000000000E+00  0.00000000000E+00 -0.36361864124E+03  0.36361864125E+03  0.25500000920E-02 0. -1.
    10030    2    1    2    0    0  0.00000000000E+00  0.00000000000E+00 -0.11548490946E+03  0.61175237304E+03  0.60075302880E+03 0.  0.
        4    1    3    3  502    0  0.10974364387E+03  0.11390716769E+03  0.20228741074E+03  0.25678847261E+03  0.12699999809E+01 0.  1.
       -4    1    3    3    0  502 -0.10974364387E+03 -0.11390716769E+03 -0.31777232021E+03  0.35496390043E+03  0.12699999809E+01 0. -1.
</event>
<event>
 5   0  0.1303808E-02  0.6000567E+03  0.7818609E-02  0.9905289E-01
        1   -1    0    0  501    0  0.00000000000E+00  0.00000000000E+00  0.65833923752E+03  0.65833923754E+03  0.50400001928E-02 0.  1.
       -1   -1    0    0    0  501  0.00000000000E+00  0.00000000000E+00 -0.13673345112E+03  0.13673345121E+03  0.50400001928E-02 0. -1.
    10030    2    1    2    0    0  0.00000000000E+00  0.00000000000E+00  0.52160578640E+03  0.79507268875E+03  0.60005665065E+03 0.  0.
        4    1    3    3  502    0 -0.16534089688E+02 -0.27540813220E+03  0.41697472940E+03  0.49999255321E+03  0.12699999809E+01 0.  1.
       -4    1    3    3    0  502  0.16534089688E+02  0.27540813220E+03  0.10463105700E+03  0.29508013554E+03  0.12699999809E+01 0. -1.
</event>
<event>
 5   0  0.1276705E-02  0.5994280E+03  0.7818609E-02  0.9906594E-01
        1   -1    0    0  501    0  0.00000000000E+00  0.00000000000E+00  0.22990363013E+03  0.22990363018E+03  0.50400001928E-02 0.  1.
       -1   -1    0    0    0  501  0.00000000000E+00  0.00000000000E+00 -0.39072226624E+03  0.39072226627E+03  0.50400001928E-02 0. -1.
    10030    2    1    2    0    0  0.00000000000E+00  0.00000000000E+00 -0.16081863611E+03  0.62062589645E+03  0.59942795199E+03 0.  0.
        1    1    3    3  502    0 -0.11681279396E+03 -0.26365759907E+03 -0.16495428031E+03  0.33222051863E+03  0.50400001928E-02 0. -1.
       -1    1    3    3    0  502  0.11681279396E+03  0.26365759907E+03  0.41356441990E+01  0.28840537782E+03  0.50400001928E-02 0.  1.
</event>
<event>
 5   0  0.2126207E-02  0.6027792E+03  0.7818609E-02  0.9899657E-01
        2   -1    0    0  501    0  0.00000000000E+00  0.00000000000E+00  0.90662077807E+03  0.90662077808E+03  0.25500000920E-02 0.  1.
       -2   -1    0    0    0  501  0.00000000000E+00  0.00000000000E+00 -0.10019150908E+03  0.10019150912E+03  0.25500000920E-02 0. -1.
    10030    2    1    2    0    0  0.00000000000E+00  0.00000000000E+00  0.80642926899E+03  0.10068122872E+04  0.60277924297E+03 0.  0.
        5    1    3    3  502    0  0.92017145678E+02 -0.26098006210E+03  0.60250310059E+03  0.66303078671E+03  0.46999998093E+01 0.  1.
       -5    1    3    3    0  502 -0.92017145678E+02  0.26098006210E+03  0.20392616840E+03  0.34378150048E+03  0.46999998093E+01 0. -1.
</event>
<event>
 5   0  0.2179625E-02  0.6018860E+03  0.7818609E-02  0.9901501E-01
        2   -1    0    0  501    0  0.00000000000E+00  0.00000000000E+00  0.10692288574E+04  0.10692288574E+04  0.25500000920E-02 0.  1.
       -2   -1    0    0    0  501  0.00000000000E+00  0.00000000000E+00 -0.84702815015E+02  0.84702815053E+02  0.25500000920E-02 0. -1.
    10030    2    1    2    0    0  0.00000000000E+00  0.00000000000E+00  0.98452604241E+03  0.11539316725E+04  0.60188601626E+03 0.  0.
        1    1    3    3  502    0 -0.27477491775E+03  0.64841459302E+02  0.29246038041E+03  0.40649568805E+03  0.50400001928E-02 0. -1.
       -1    1    3    3    0  502  0.27477491775E+03 -0.64841459302E+02  0.69206566200E+03  0.74743598442E+03  0.50400001928E-02 0.  1.
</event>
<event>
 5   0  0.2179625E-02  0.6000236E+03  0.7818609E-02  0.9905357E-01
        2   -1    0    0  501    0  0.00000000000E+00  0.00000000000E+00  0.32072953921E+03  0.32072953922E+03  0.25500000920E-02 0. -1.
       -2   -1    0    0    0  501  0.00000000000E+00  0.00000000000E+00 -0.28063233446E+03  0.28063233447E+03  0.25500000920E-02 0.  1.
    10030    2    1    2    0    0  0.00000000000E+00  0.00000000000E+00  0.40097204750E+02  0.60136187370E+03  0.60002359729E+03 0.  0.
        1    1    3    3  502    0  0.75150789360E+02  0.13259067887E+02  0.31083989499E+03  0.32007012414E+03  0.50400001928E-02 0. -1.
       -1    1    3    3    0  502 -0.75150789360E+02 -0.13259067887E+02 -0.27074269024E+03  0.28129174956E+03  0.50400001928E-02 0.  1.
</event>
<event>
 5   0  0.8551000E-03  0.6015514E+03  0.7818609E-02  0.9902193E-01
       -3   -1    0    0    0  501  0.00000000000E+00  0.00000000000E+00  0.11608443439E+04  0.11608443483E+04  0.10100000352E+00 0. -1.
        3   -1    0    0  501    0  0.00000000000E+00  0.00000000000E+00 -0.77931186185E+02  0.77931251633E+02  0.10100000352E+00 0.  1.
    10030    2    1    2    0    0  0.00000000000E+00  0.00000000000E+00  0.10829131577E+04  0.12387755999E+04  0.60155139417E+03 0.  0.
        3    1    3    3  502    0 -0.26190577241E+03  0.10896819640E+03  0.33555416048E+03  0.43939197338E+03  0.10100000352E+00 0.  1.
       -3    1    3    3    0  502  0.26190577241E+03 -0.10896819640E+03  0.74735899725E+03  0.79938362657E+03  0.10100000352E+00 0. -1.
</event>
<event>
 5   0  0.1250390E-02  0.5962288E+03  0.7818609E-02  0.9913261E-01
        1   -1    0    0  501    0  0.00000000000E+00  0.00000000000E+00  0.79757613655E+03  0.79757613656E+03  0.50400001928E-02 0. -1.
       -1   -1    0    0    0  501  0.00000000000E+00  0.00000000000E+00 -0.11142786035E+03  0.11142786046E+03  0.50400001928E-02 0.  1.
    10030    2    1    2    0    0  0.00000000000E+00  0.00000000000E+00  0.68614827620E+03  0.90900399702E+03  0.59622882324E+03 0.  0.
        3    1    3    3  502    0  0.27851594667E+03 -0.96302096220E+02  0.41171394451E+03  0.50631374521E+03  0.10100000352E+00 0. -1.
       -3    1    3    3    0  502 -0.27851594667E+03  0.96302096220E+02  0.27443433169E+03  0.40269025181E+03  0.10100000352E+00 0.  1.
</event>
<event>
 5   0  0.2126207E-02  0.5982969E+03  0.7818609E-02  0.9908946E-01
       -2   -1    0    0    0  501  0.00000000000E+00  0.00000000000E+00  0.72591882436E+02  0.72591882481E+02  0.25500000920E-02 0. -1.
        2   -1    0    0  501    0  0.00000000000E+00  0.00000000000E+00 -0.12327797825E+04  0.12327797826E+04  0.25500000920E-02 0.  1.
    10030    2    1    2    0    0  0.00000000000E+00  0.00000000000E+00 -0.11601879001E+04  0.13053716650E+04  0.59829693322E+03 0.  0.
        5    1    3    3  502    0 -0.50251467834E+02  0.54008884128E+02  0.52351503686E+02  0.90581121216E+02  0.46999998093E+01 0. -1.
       -5    1    3    3    0  502  0.50251467834E+02 -0.54008884128E+02 -0.12125394038E+04  0.12147905438E+04  0.46999998093E+01 0.  1.
</event>
<event>
 5   0  0.2141800E-02  0.6053624E+03  0.7818609E-02  0.9894343E-01
       -2   -1    0    0    0  501  0.00000000000E+00  0.00000000000E+00  0.14678499567E+03  0.14678499569E+03  0.25500000920E-02 0.  1.
        2   -1    0    0  501    0  0.00000000000E+00  0.00000000000E+00 -0.62415041325E+03  0.62415041326E+03  0.25500000920E-02 0. -1.
    10030    2    1    2    0    0  0.00000000000E+00  0.00000000000E+00 -0.47736541758E+03  0.77093540895E+03  0.60536242274E+03 0.  0.
        2    1    3    3  502    0  0.55536206418E+02  0.28678539712E+03 -0.33965034148E+03  0.44798715238E+03  0.25500000920E-02 0. -1.
       -2    1    3    3    0  502 -0.55536206418E+02 -0.28678539712E+03 -0.13771507611E+03  0.32294825657E+03  0.25500000920E-02 0.  1.
</event>
<event>
 5   0  0.1337051E-02  0.6058453E+03  0.7818609E-02  0.9893352E-01
        1   -1    0    0  501    0  0.00000000000E+00  0.00000000000E+00  0.55695540317E+03  0.55695540319E+03  0.50400001928E-02 0.  1.
       -1   -1    0    0    0  501  0.00000000000E+00  0.00000000000E+00 -0.16475672111E+03  0.16475672118E+03  0.50400001928E-02 0. -1.
    10030    2    1    2    0    0  0.00000000000E+00  0.00000000000E+00  0.39219868206E+03  0.72171212437E+03  0.60584534682E+03 0.  0.
        5    1    3    3  502    0  0.19842124720E+03  0.60764689826E+02 -0.66723354579E+02  0.21803081185E+03  0.46999998093E+01 0. -1.
       -5    1    3    3    0  502 -0.19842124720E+03 -0.60764689826E+02  0.45892203664E+03  0.50368131252E+03  0.46999998093E+01 0.  1.
</event>
<event>
 5   0  0.2179625E-02  0.5985274E+03  0.7818609E-02  0.9908466E-01
       -2   -1    0    0    0  501  0.00000000000E+00  0.00000000000E+00  0.93472105269E+02  0.93472105304E+02  0.25500000920E-02 0.  1.
        2   -1    0    0  501    0  0.00000000000E+00  0.00000000000E+00 -0.95813368312E+03  0.95813368312E+03  0.25500000920E-02 0. -1.
    10030    2    1    2    0    0  0.00000000000E+00  0.00000000000E+00 -0.86466157785E+03  0.10516057884E+04  0.59852743466E+03 0.  0.
        1    1    3    3  502    0 -0.14464820410E+03  0.41722688817E+02 -0.88675908666E+03  0.89944736561E+03  0.50400001928E-02 0. -1.
       -1    1    3    3    0  502  0.14464820410E+03 -0.41722688817E+02  0.22097508810E+02  0.15215842281E+03  0.50400001928E-02 0.  1.
</event>
<event>
 5   0  0.2142838E-02  0.5990086E+03  0.7818609E-02  0.9907465E-01
        2   -1    0    0  501    0  0.00000000000E+00  0.00000000000E+00  0.67552361592E+03  0.67552361593E+03  0.25500000920E-02 0.  1.
       -2   -1    0    0    0  501  0.00000000000E+00  0.00000000000E+00 -0.13279006300E+03  0.13279006303E+03  0.25500000920E-02 0. -1.
    10030    2    1    2    0    0  0.00000000000E+00  0.00000000000E+00  0.54273355292E+03  0.80831367895E+03  0.59900859269E+03 0.  0.
        4    1    3    3  502    0 -0.13781945640E+03  0.58333407585E+01  0.63010163441E+03  0.64502551346E+03  0.12699999809E+01 0.  1.
       -4    1    3    3    0  502  0.13781945640E+03 -0.58333407585E+01 -0.87368081493E+02  0.16328816549E+03  0.12699999809E+01 0. -1.
</event>
<event>
 5   0  0.2179625E-02  0.5957725E+03  0.7818609E-02  0.9914216E-01
        2   -1    0    0  501    0  0.00000000000E+00  0.00000000000E+00  0.75917123706E+03  0.75917123706E+03  0.25500000920E-02 0. -1.
       -2   -1    0    0    0  501  0.00000000000E+00  0.00000000000E+00 -0.11688562802E+03  0.11688562805E+03  0.25500000920E-02 0.  1.
    10030    2    1    2    0    0  0.00000000000E+00  0.00000000000E+00  0.64228560904E+03  0.87605686511E+03  0.59577246271E+03 0.  0.
        1    1    3    3  502    0  0.40511638038E+02  0.12134741731E+03 -0.74433813036E+02  0.14800939515E+03  0.50400001928E-02 0.  1.
       -1    1    3    3    0  502 -0.40511638038E+02 -0.12134741731E+03  0.71671942208E+03  0.72804746996E+03  0.50400001928E-02 0. -1.
</event>
<event>
 5   0  0.2141800E-02  0.6010732E+03  0.7818609E-02  0.9903182E-01
        2   -1    0    0  501    0  0.00000000000E+00  0.00000000000E+00  0.10304697400E+04  0.10304697400E+04  0.25500000920E-02 0.  1.
       -2   -1    0    0    0  501  0.00000000000E+00  0.00000000000E+00 -0.87651540798E+02  0.87651540835E+02  0.25500000920E-02 0. -1.
    10030    2    1    2    0    0  0.00000000000E+00  0.00000000000E+00  0.94281819920E+03  0.11181212808E+04  0.60107324172E+03 0.  0.
        2    1    3    3  502    0 -0.13298576813E+03 -0.24278757914E+03  0.68907122649E+03  0.74259691508E+03  0.25500000920E-02 0.  1.
       -2    1    3    3    0  502  0.13298576813E+03  0.24278757914E+03  0.25374697271E+03  0.37552436575E+03  0.25500000920E-02 0. -1.
</event>
<event>
 5   0  0.1332555E-02  0.5932246E+03  0.7818609E-02  0.9919564E-01
       -1   -1    0    0    0  501  0.00000000000E+00  0.00000000000E+00  0.64244146792E+02  0.64244146990E+02  0.50400001928E-02 0. -1.
        1   -1    0    0  501    0  0.00000000000E+00  0.00000000000E+00 -0.13694452567E+04  0.13694452567E+04  0.50400001928E-02 0.  1.
    10030    2    1    2    0    0  0.00000000000E+00  0.00000000000E+00 -0.13052011099E+04  0.14336894037E+04  0.59322455190E+03 0.  0.
        2    1    3    3  502    0  0.18810067652E+03  0.22702805647E+03 -0.57409300234E+03  0.64537305356E+03  0.25500000920E-02 0. -1.
       -2    1    3    3    0  502 -0.18810067652E+03 -0.22702805647E+03 -0.73110810761E+03  0.78831635017E+03  0.25500000920E-02 0.  1.
</event>
<event>
 5   0  0.1332555E-02  0.5997509E+03  0.7818609E-02  0.9905923E-01
       -1   -1    0    0    0  501  0.00000000000E+00  0.00000000000E+00  0.28371810991E+03  0.28371810995E+03  0.50400001928E-02 0.  1.
        1   -1    0    0  501    0  0.00000000000E+00  0.00000000000E+00 -0.31695288292E+03  0.31695288296E+03  0.50400001928E-02 0. -1.
    10030    2    1    2    0    0  0.00000000000E+00  0.00000000000E+00 -0.33234773010E+02  0.60067099291E+03  0.59975085793E+03 0.  0.
        2    1    3    3  502    0  0.14682249403E+03  0.21459561542E+03 -0.16623583538E+03  0.30861379730E+03  0.25500000920E-02 0. -1.
       -2    1    3    3    0  502 -0.14682249403E+03 -0.21459561542E+03  0.13300106237E+03  0.29205719561E+03  0.25500000920E-02 0.  1.
</event>
<event>
 5   0  0.2179625E-02  0.5996476E+03  0.7818609E-02  0.9906138E-01
        2   -1    0    0  501    0  0.00000000000E+00  0.00000000000E+00  0.11044321553E+04  0.11044321553E+04  0.25500000920E-02 0.  1.
       -2   -1    0    0    0  501  0.00000000000E+00  0.00000000000E+00 -0.81394132336E+02  0.81394132376E+02  0.25500000920E-02 0. -1.
    10030    2    1    2    0    0  0.00000000000E+00  0.00000000000E+00  0.10230380230E+04  0.11858262877E+04  0.59964755326E+03 0.  0.
        1    1    3    3  502    0  0.10423661230E+03  0.18286218605E+03  0.89276524521E+02  0.22863540471E+03  0.50400001928E-02 0. -1.
       -1    1    3    3    0  502 -0.10423661230E+03 -0.18286218605E+03  0.93376149847E+03  0.95719088299E+03  0.50400001928E-02 0.  1.
</event>
<event>
 5   0  0.1276705E-02  0.5986698E+03  0.7818609E-02  0.9908170E-01
        1   -1    0    0  501    0  0.00000000000E+00  0.00000000000E+00  0.20722211440E+03  0.20722211446E+03  0.50400001928E-02 0.  1.
       -1   -1    0    0    0  501  0.00000000000E+00  0.00000000000E+00 -0.43239296342E+03  0.43239296345E+03  0.50400001928E-02 0. -1.
    10030    2    1    2    0    0  0.00000000000E+00  0.00000000000E+00 -0.22517084903E+03  0.63961507791E+03  0.59866980602E+03 0.  0.
        1    1    3    3  502    0 -0.95419152431E+02 -0.16954270351E+03  0.13046380050E+03  0.23424420213E+03  0.50400001928E-02 0.  1.
       -1    1    3    3    0  502  0.95419152431E+02  0.16954270351E+03 -0.35563464953E+03  0.40537087578E+03  0.50400001928E-02 0. -1.
</event>
<event>
 5   0  0.1337051E-02  0.6000563E+03  0.7818609E-02  0.9905289E-01
        1   -1    0    0  501    0  0.00000000000E+00  0.00000000000E+00  0.18580914596E+03  0.18580914603E+03  0.50400001928E-02 0. -1.
       -1   -1    0    0    0  501  0.00000000000E+00  0.00000000000E+00 -0.48445890409E+03  0.48445890412E+03  0.50400001928E-02 0.  1.
    10030    2    1    2    0    0  0.00000000000E+00  0.00000000000E+00 -0.29864975813E+03  0.67026805015E+03  0.60005631487E+03 0.  0.
        5    1    3    3  502    0 -0.10274708562E+02 -0.21698746731E+03 -0.38042872923E+03  0.43810642386E+03  0.46999998093E+01 0.  1.
       -5    1    3    3    0  502  0.10274708562E+02  0.21698746731E+03  0.81778971100E+02  0.23216162628E+03  0.46999998093E+01 0. -1.
</event>
<event>
 5   0  0.2092587E-02  0.6001331E+03  0.7818609E-02  0.9905130E-01
        2   -1    0    0  501    0  0.00000000000E+00  0.00000000000E+00  0.38290563022E+03  0.38290563023E+03  0.25500000920E-02 0. -1.
       -2   -1    0    0    0  501  0.00000000000E+00  0.00000000000E+00 -0.23514918495E+03  0.23514918496E+03  0.25500000920E-02 0.  1.
    10030    2    1    2    0    0  0.00000000000E+00  0.00000000000E+00  0.14775644527E+03  0.61805481519E+03  0.60013314145E+03 0.  0.
        3    1    3    3  502    0  0.29647764114E+03 -0.29779535782E+02  0.37407055594E+02  0.30030835895E+03  0.10100000352E+00 0.  1.
       -3    1    3    3    0  502 -0.29647764114E+03  0.29779535782E+02  0.11034938967E+03  0.31774645624E+03  0.10100000352E+00 0. -1.
</event>
<event>
 5   0  0.1303808E-02  0.5904084E+03  0.7818609E-02  0.9925508E-01
       -1   -1    0    0    0  501  0.00000000000E+00  0.00000000000E+00  0.14010941223E+03  0.14010941232E+03  0.50400001928E-02 0.  1.
        1   -1    0    0  501    0  0.00000000000E+00  0.00000000000E+00 -0.62198197663E+03  0.62198197665E+03  0.50400001928E-02 0. -1.
    10030    2    1    2    0    0  0.00000000000E+00  0.00000000000E+00 -0.48187256440E+03  0.76209138897E+03  0.59040843220E+03 0.  0.
        4    1    3    3  502    0 -0.15305303318E+03 -0.10609264604E+03 -0.53658854812E+03  0.56798746763E+03  0.12699999809E+01 0. -1.
       -4    1    3    3    0  502  0.15305303318E+03  0.10609264604E+03  0.54715983715E+02  0.19410392134E+03  0.12699999809E+01 0.  1.
</event>
<event>
 5   0  0.2141800E-02  0.6004675E+03  0.7818609E-02  0.9904437E-01
       -2   -1    0    0    0  501  0.00000000000E+00  0.00000000000E+00  0.26489376866E+03  0.26489376867E+03  0.25500000920E-02 0. -1.
        2   -1    0    0  501    0  0.00000000000E+00  0.00000000000E+00 -0.34028853861E+03  0.34028853862E+03  0.25500000920E-02 0.  1.
    10030    2    1    2    0    0  0.00000000000E+00  0.00000000000E+00 -0.75394769951E+02  0.60518230730E+03  0.60046752929E+03 0.  0.
        2    1    3    3  502    0  0.22317789397E+03  0.14117857479E+03  0.10625459572E+03  0.28465734042E+03  0.25500000920E-02 0. -1.
       -2    1    3    3    0  502 -0.22317789397E+03 -0.14117857479E+03 -0.18164936567E+03  0.32052496688E+03  0.25500000920E-02 0.  1.
</event>
<event>
 5   0  0.1303808E-02  0.6003696E+03  0.7818609E-02  0.9904640E-01
       -1   -1    0    0    0  501  0.00000000000E+00  0.00000000000E+00  0.21511128562E+03  0.21511128568E+03  0.50400001928E-02 0. -1.
        1   -1    0    0  501    0  0.00000000000E+00  0.00000000000E+00 -0.41890373556E+03  0.41890373559E+03  0.50400001928E-02 0.  1.
    10030    2    1    2    0    0  0.00000000000E+00  0.00000000000E+00 -0.20379244994E+03  0.63401502127E+03  0.60036962327E+03 0.  0.
        4    1    3    3  502    0  0.92561292480E+02 -0.27240633744E+03 -0.11442724625E+02  0.28793289911E+03  0.12699999809E+01 0. -1.
       -4    1    3    3    0  502 -0.92561292480E+02  0.27240633744E+03 -0.19234972531E+03  0.34608212215E+03  0.12699999809E+01 0.  1.
</event>
<event>
 5   0  0.1276705E-02  0.5988187E+03  0.7818609E-02  0.9907860E-01
       -1   -1    0    0    0  501  0.00000000000E+00  0.00000000000E+00  0.22202001877E+03  0.22202001883E+03  0.50400001928E-02 0. -1.
        1   -1    0    0  501    0  0.00000000000E+00  0.00000000000E+00 -0.40377427705E+03  0.40377427708E+03  0.50400001928E-02 0.  1.
    10030    2    1    2    0    0  0.00000000000E+00  0.00000000000E+00 -0.18175425828E+03  0.62579429591E+03  0.59881874586E+03 0.  0.
        1    1    3    3  502    0  0.15202724733E+03 -0.16836708545E+03  0.11333875043E+03  0.25358515684E+03  0.50400001928E-02 0. -1.
       -1    1    3    3    0  502 -0.15202724733E+03  0.16836708545E+03 -0.29509300871E+03  0.37220913907E+03  0.50400001928E-02 0.  1.
</event>
<event>
 5   0  0.2126207E-02  0.5985917E+03  0.7818609E-02  0.9908332E-01
       -2   -1    0    0    0  501  0.00000000000E+00  0.00000000000E+00  0.55461379402E+02  0.55461379460E+02  0.25500000920E-02 0. -1.
        2   -1    0    0  501    0  0.00000000000E+00  0.00000000000E+00 -0.16151421050E+04  0.16151421050E+04  0.25500000920E-02 0.  1.
    10030    2    1    2    0    0  0.00000000000E+00  0.00000000000E+00 -0.15596807255E+04  0.16706034844E+04  0.59859171100E+03 0.  0.
        5    1    3    3  502    0 -0.13538183682E+03  0.16137903942E+03 -0.18659091441E+03  0.28144217069E+03  0.46999998093E+01 0. -1.
       -5    1    3    3    0  502  0.13538183682E+03 -0.16137903942E+03 -0.13730898111E+04  0.13891613137E+04  0.46999998093E+01 0.  1.
</event>
<event>
 5   0  0.1250390E-02  0.6016614E+03  0.7818609E-02  0.9901965E-01
        1   -1    0    0  501    0  0.00000000000E+00  0.00000000000E+00  0.81235117072E+03  0.81235117074E+03  0.50400001928E-02 0. -1.
       -1   -1    0    0    0  501  0.00000000000E+00  0.00000000000E+00 -0.11140390842E+03  0.11140390853E+03  0.50400001928E-02 0.  1.
    10030    2    1    2    0    0  0.00000000000E+00  0.00000000000E+00  0.70094726231E+03  0.92375507927E+03  0.60166135154E+03 0.  0.
        3    1    3    3  502    0 -0.25622855253E+03  0.39503394490E+02  0.11618701986E+03  0.28410037503E+03  0.10100000352E+00 0.  1.
       -3    1    3    3    0  502  0.25622855253E+03 -0.39503394490E+02  0.58476024245E+03  0.63965470424E+03  0.10100000352E+00 0. -1.
</event>
<event>
 5   0  0.8551000E-03  0.5905825E+03  0.7818609E-02  0.9925139E-01
        3   -1    0    0  501    0  0.00000000000E+00  0.00000000000E+00  0.45163840669E+03  0.45163841798E+03  0.10100000352E+00 0. -1.
       -3   -1    0    0    0  501  0.00000000000E+00  0.00000000000E+00 -0.19306794313E+03  0.19306796955E+03  0.10100000352E+00 0.  1.
    10030    2    1    2    0    0  0.00000000000E+00  0.00000000000E+00  0.25857046356E+03  0.64470638753E+03  0.59058245952E+03 0.  0.
        5    1    3    3  502    0 -0.22269472237E+02  0.19166405014E+03  0.37324720975E+03  0.42019829497E+03  0.46999998093E+01 0. -1.
       -5    1    3    3    0  502  0.22269472237E+02 -0.19166405014E+03 -0.11467674619E+03  0.22450809256E+03  0.46999998093E+01 0.  1.
</event>
<event>
 5   0  0.1250390E-02  0.6008207E+03  0.7818609E-02  0.9903705E-01
        1   -1    0    0  501    0  0.00000000000E+00  0.00000000000E+00  0.81864333307E+03  0.81864333309E+03  0.50400001928E-02 0. -1.
       -1   -1    0    0    0  501  0.00000000000E+00  0.00000000000E+00 -0.11023894934E+03  0.11023894946E+03  0.50400001928E-02 0.  1.
    10030    2    1    2    0    0  0.00000000000E+00  0.00000000000E+00  0.70840438373E+03  0.92888228255E+03  0.60082070864E+03 0.  0.
        3    1    3    3  502    0  0.12418376226E+03  0.26688590707E+03  0.26148367421E+03  0.39373013128E+03  0.10100000352E+00 0.  1.
       -3    1    3    3    0  502 -0.12418376226E+03 -0.26688590707E+03  0.44692070953E+03  0.53515215127E+03  0.10100000352E+00 0. -1.
</event>
<event>
 5   0  0.2141800E-02  0.5999094E+03  0.7818609E-02  0.9905594E-01
        2   -1    0    0  501    0  0.00000000000E+00  0.00000000000E+00  0.31417242022E+03  0.31417242023E+03  0.25500000920E-02 0.  1.
       -2   -1    0    0    0  501  0.00000000000E+00  0.00000000000E+00 -0.28638037553E+03  0.28638037554E+03  0.25500000920E-02 0. -1.
    10030    2    1    2    0    0  0.00000000000E+00  0.00000000000E+00  0.27792044694E+02  0.60055279577E+03  0.59990937879E+03 0.  0.
        2    1    3    3  502    0 -0.27723663644E+03  0.11383790409E+03  0.26302647116E+02  0.30085054469E+03  0.25500000920E-02 0.  1.
       -2    1    3    3    0  502  0.27723663644E+03 -0.11383790409E+03  0.14893975778E+01  0.29970225108E+03  0.25500000920E-02 0. -1.
</event>
<event>
 5   0  0.2142838E-02  0.6060211E+03  0.7818609E-02  0.9892992E-01
        2   -1    0    0  501    0  0.00000000000E+00  0.00000000000E+00  0.30097273146E+03  0.30097273148E+03  0.25500000920E-02 0. -1.
       -2   -1    0    0    0  501  0.00000000000E+00  0.00000000000E+00 -0.30506217420E+03  0.30506217421E+03  0.25500000920E-02 0.  1.
    10030    2    1    2    0    0  0.00000000000E+00  0.00000000000E+00 -0.40894427328E+01  0.60603490568E+03  0.60602110802E+03 0.  0.
        4    1    3    3  502    0 -0.14621535287E+03 -0.69466962877E+02  0.25410402870E+03  0.30128899523E+03  0.12699999809E+01 0. -1.
       -4    1    3    3    0  502  0.14621535287E+03  0.69466962877E+02 -0.25819347143E+03  0.30474591045E+03  0.12699999809E+01 0.  1.
</event>
<event>
 5   0  0.1250390E-02  0.5971809E+03  0.7818609E-02  0.9911272E-01
        1   -1    0    0  501    0  0.00000000000E+00  0.00000000000E+00  0.17598344805E+03  0.17598344813E+03  0.50400001928E-02 0.  1.
       -1   -1    0    0    0  501  0.00000000000E+00  0.00000000000E+00 -0.50661736102E+03  0.50661736105E+03  0.50400001928E-02 0. -1.
    10030    2    1    2    0    0  0.00000000000E+00  0.00000000000E+00 -0.33063391297E+03  0.68260080917E+03  0.59718094433E+03 0.  0.
        3    1    3    3  502    0 -0.16355008290E+03 -0.54534578777E+02 -0.44397841925E+03  0.47627670199E+03  0.10100000352E+00 0. -1.
       -3    1    3    3    0  502  0.16355008290E+03  0.54534578777E+02  0.11334450628E+03  0.20632410718E+03  0.10100000352E+00 0.  1.
</event>
<event>
 5   0  0.2141800E-02  0.5923990E+03  0.7818609E-02  0.9921302E-01
       -2   -1    0    0    0  501  0.00000000000E+00  0.00000000000E+00  0.96145163610E+02  0.96145163644E+02  0.25500000920E-02 0. -1.
        2   -1    0    0  501    0  0.00000000000E+00  0.00000000000E+00 -0.91251737360E+03  0.91251737361E+03  0.25500000920E-02 0.  1.
    10030    2    1    2    0    0  0.00000000000E+00  0.00000000000E+00 -0.81637220999E+03  0.10086625373E+04  0.59239896084E+03 0.  0.
        2    1    3    3  502    0  0.98146474298E+02  0.17928080403E+03 -0.77320945356E+03  0.79976696367E+03  0.25500000920E-02 0.  1.
       -2    1    3    3    0  502 -0.98146474298E+02 -0.17928080403E+03 -0.43162756437E+02  0.20889557358E+03  0.25500000920E-02 0. -1.
</event>
<event>
 5   0  0.2142838E-02  0.6006003E+03  0.7818609E-02  0.9904161E-01
       -2   -1    0    0    0  501  0.00000000000E+00  0.00000000000E+00  0.32031763158E+03  0.32031763159E+03  0.25500000920E-02 0. -1.
        2   -1    0    0  501    0  0.00000000000E+00  0.00000000000E+00 -0.28153359367E+03  0.28153359368E+03  0.25500000920E-02 0.  1.
    10030    2    1    2    0    0  0.00000000000E+00  0.00000000000E+00  0.38784037903E+02  0.60185122527E+03  0.60060027952E+03 0.  0.
        4    1    3    3  502    0 -0.27226032433E+03  0.92644770558E+02  0.10600017336E+03  0.30650674931E+03  0.12699999809E+01 0. -1.
       -4    1    3    3    0  502  0.27226032433E+03 -0.92644770558E+02 -0.67216135456E+02  0.29534447597E+03  0.12699999809E+01 0.  1.
</event>
<event>
 5   0  0.2092587E-02  0.5998245E+03  0.7818609E-02  0.9905770E-01
       -2   -1    0    0    0  501  0.00000000000E+00  0.00000000000E+00  0.15566753794E+03  0.15566753796E+03  0.25500000920E-02 0. -1.
        2   -1    0    0  501    0  0.00000000000E+00  0.00000000000E+00 -0.57781696641E+03  0.57781696642E+03  0.25500000920E-02 0.  1.
    10030    2    1    2    0    0  0.00000000000E+00  0.00000000000E+00 -0.42214942847E+03  0.73348450438E+03  0.59982445616E+03 0.  0.
        3    1    3    3  502    0 -0.13804925388E+02 -0.26009899109E+03 -0.29265990559E+02  0.26210411964E+03  0.10100000352E+00 0. -1.
       -3    1    3    3    0  502  0.13804925388E+02  0.26009899109E+03 -0.39288343791E+03  0.47138038474E+03  0.10100000352E+00 0.  1.
</event>
<event>
 5   0  0.1250390E-02  0.5954727E+03  0.7818609E-02  0.9914844E-01
        1   -1    0    0  501    0  0.00000000000E+00  0.00000000000E+00  0.23435101834E+03  0.23435101839E+03  0.50400001928E-02 0. -1.
       -1   -1    0    0    0  501  0.00000000000E+00  0.00000000000E+00 -0.37826560827E+03  0.37826560831E+03  0.50400001928E-02 0.  1.
    10030    2    1    2    0    0  0.00000000000E+00  0.00000000000E+00 -0.14391458993E+03  0.61261662670E+03  0.59547268797E+03 0.  0.
        3    1    3    3  502    0 -0.17078595206E+03  0.38529493023E+02  0.17579663415E+03  0.24810648931E+03  0.10100000352E+00 0. -1.
       -3    1    3    3    0  502  0.17078595206E+03 -0.38529493023E+02 -0.31971122409E+03  0.36451013739E+03  0.10100000352E+00 0.  1.
</event>
<event>
 5   0  0.2141800E-02  0.6013072E+03  0.7818609E-02  0.9902698E-01
       -2   -1    0    0    0  501  0.00000000000E+00  0.00000000000E+00  0.51888469320E+02  0.51888469382E+02  0.25500000920E-02 0.  1.
        2   -1    0    0  501    0  0.00000000000E+00  0.00000000000E+00 -0.17420554780E+04  0.17420554780E+04  0.25500000920E-02 0. -1.
    10030    2    1    2    0    0  0.00000000000E+00  0.00000000000E+00 -0.16901670087E+04  0.17939439474E+04  0.60130721692E+03 0.  0.
        2    1    3    3  502    0 -0.44736822702E+01  0.24870656506E+02 -0.17388816083E+04  0.17390652118E+04  0.25500000920E-02 0. -1.
       -2    1    3    3    0  502  0.44736822702E+01 -0.24870656506E+02  0.48714599633E+02  0.54878735518E+02  0.25500000920E-02 0.  1.
</event>
<event>
 5   0  0.1337051E-02  0.5712675E+03  0.7818609E-02  0.9966878E-01
        1   -1    0    0  501    0  0.00000000000E+00  0.00000000000E+00  0.29318191274E+03  0.29318191278E+03  0.50400001928E-02 0.  1.
       -1   -1    0    0    0  501  0.00000000000E+00  0.00000000000E+00 -0.27827992523E+03  0.27827992528E+03  0.50400001928E-02 0. -1.
    10030    2    1    2    0    0  0.00000000000E+00  0.00000000000E+00  0.14901987510E+02  0.57146183806E+03  0.57126750575E+03 0.  0.
        5    1    3    3  502    0 -0.13073885232E+03  0.10844020553E+03  0.23712139780E+03  0.29172002498E+03  0.46999998093E+01 0.  1.
       -5    1    3    3    0  502  0.13073885232E+03 -0.10844020553E+03 -0.22221941029E+03  0.27974181308E+03  0.46999998093E+01 0. -1.
</event>
<event>
 5   0  0.1303808E-02  0.6019917E+03  0.7818609E-02  0.9901283E-01
       -1   -1    0    0    0  501  0.00000000000E+00  0.00000000000E+00  0.11207304832E+04  0.11207304832E+04  0.50400001928E-02 0.  1.
        1   -1    0    0  501    0  0.00000000000E+00  0.00000000000E+00 -0.80838787980E+02  0.80838788138E+02  0.50400001928E-02 0. -1.
    10030    2    1    2    0    0  0.00000000000E+00  0.00000000000E+00  0.10398916953E+04  0.12015692714E+04  0.60199167442E+03 0.  0.
        4    1    3    3  502    0  0.16898003193E+03  0.22119580003E+03  0.29136319402E+03  0.40295900148E+03  0.12699999809E+01 0. -1.
       -4    1    3    3    0  502 -0.16898003193E+03 -0.22119580003E+03  0.74852850123E+03  0.79861026990E+03  0.12699999809E+01 0.  1.
</event>
<event>
 5   0  0.2141800E-02  0.6025554E+03  0.7818609E-02  0.9900119E-01
       -2   -1    0    0    0  501  0.00000000000E+00  0.00000000000E+00  0.52519480319E+02  0.52519480381E+02  0.25500000920E-02 0.  1.
        2   -1    0    0  501    0  0.00000000000E+00  0.00000000000E+00 -0.17282778051E+04  0.17282778051E+04  0.25500000920E-02 0. -1.
    10030    2    1    2    0    0  0.00000000000E+00  0.00000000000E+00 -0.16757583248E+04  0.17807972855E+04  0.60255539903E+03 0.  0.
        2    1    3    3  502    0  0.71394312819E+02 -0.74759988480E+02 -0.16742234396E+04  0.16774117949E+04  0.25500000920E-02 0. -1.
       -2    1    3    3    0  502 -0.71394312819E+02  0.74759988480E+02 -0.15348851103E+01  0.10338549056E+03  0.25500000920E-02 0.  1.
</event>
<event>
 5   0  0.1250390E-02  0.6000383E+03  0.7818609E-02  0.9905327E-01
        1   -1    0    0  501    0  0.00000000000E+00  0.00000000000E+00  0.42309595793E+03  0.42309595796E+03  0.50400001928E-02 0. -1.
       -1   -1    0    0    0  501  0.00000000000E+00  0.00000000000E+00 -0.21274483900E+03  0.21274483906E+03  0.50400001928E-02 0.  1.
    10030    2    1    2    0    0  0.00000000000E+00  0.00000000000E+00  0.21035111893E+03  0.63584079702E+03  0.60003827038E+03 0.  0.
        3    1    3    3  502    0  0.10100441218E+03 -0.16764799059E+03  0.34612747434E+03  0.39763296987E+03  0.10100000352E+00 0. -1.
       -3    1    3    3    0  502 -0.10100441218E+03  0.16764799059E+03 -0.13577635541E+03  0.23820782716E+03  0.10100000352E+00 0.  1.
</event>
<event>
 5   0  0.1250390E-02  0.6054702E+03  0.7818609E-02  0.9894122E-01
       -1   -1    0    0    0  501  0.00000000000E+00  0.00000000000E+00  0.16556899884E+03  0.16556899891E+03  0.50400001928E-02 0.  1.
        1   -1    0    0  501    0  0.00000000000E+00  0.00000000000E+00 -0.55353682445E+03  0.55353682447E+03  0.50400001928E-02 0. -1.
    10030    2    1    2    0    0  0.00000000000E+00  0.00000000000E+00 -0.38796782561E+03  0.71910582339E+03  0.60547019044E+03 0.  0.
        3    1    3    3  502    0  0.10571214665E+03 -0.50717070094E+02  0.13750747416E+03  0.18070859083E+03  0.10100000352E+00 0.  1.
       -3    1    3    3    0  502 -0.10571214665E+03  0.50717070094E+02 -0.52547529978E+03  0.53839723256E+03  0.10100000352E+00 0. -1.
</event>
<event>
 5   0  0.1250390E-02  0.5994787E+03  0.7818609E-02  0.9906488E-01
       -1   -1    0    0    0  501  0.00000000000E+00  0.00000000000E+00  0.74635770399E+02  0.74635770569E+02  0.50400001928E-02 0. -1.
        1   -1    0    0  501    0  0.00000000000E+00  0.00000000000E+00 -0.12037618363E+04  0.12037618363E+04  0.50400001928E-02 0.  1.
    10030    2    1    2    0    0  0.00000000000E+00  0.00000000000E+00 -0.11291260659E+04  0.12783976069E+04  0.59947874740E+03 0.  0.
        3    1    3    3  502    0 -0.55691097732E+02 -0.20526141207E+03 -0.11415310019E+03  0.24138079073E+03  0.10100000352E+00 0. -1.
       -3    1    3    3    0  502  0.55691097732E+02  0.20526141207E+03 -0.10149729657E+04  0.10370168162E+04  0.10100000352E+00 0.  1.
</event>
<event>
 5   0  0.1332555E-02  0.6194976E+03  0.7818609E-02  0.9865760E-01
        1   -1    0    0  501    0  0.00000000000E+00  0.00000000000E+00  0.13249713457E+04  0.13249713457E+04  0.50400001928E-02 0. -1.
       -1   -1    0    0    0  501  0.00000000000E+00  0.00000000000E+00 -0.72412382995E+02  0.72412383171E+02  0.50400001928E-02 0.  1.
    10030    2    1    2    0    0  0.00000000000E+00  0.00000000000E+00  0.12525589627E+04  0.13973837289E+04  0.61949764382E+03 0.  0.
        2    1    3    3  502    0 -0.29212436005E+03  0.46120478013E+02  0.41855431313E+03  0.51249532024E+03  0.25500000920E-02 0.  1.
       -2    1    3    3    0  502  0.29212436005E+03 -0.46120478013E+02  0.83400464960E+03  0.88488840866E+03  0.25500000920E-02 0. -1.
</event>
<event>
 5   0  0.2126207E-02  0.5920583E+03  0.7818609E-02  0.9922021E-01
       -2   -1    0    0    0  501  0.00000000000E+00  0.00000000000E+00  0.38385250318E+02  0.38385250403E+02  0.25500000920E-02 0.  1.
        2   -1    0    0  501    0  0.00000000000E+00  0.00000000000E+00 -0.22829929543E+04  0.22829929543E+04  0.25500000920E-02 0. -1.
    10030    2    1    2    0    0  0.00000000000E+00  0.00000000000E+00 -0.22446077040E+04  0.23213782047E+04  0.59205829486E+03 0.  0.
        5    1    3    3  502    0 -0.20593474382E+03  0.12981024684E+03 -0.17824928507E+04  0.17990449332E+04  0.46999998093E+01 0. -1.
       -5    1    3    3    0  502  0.20593474382E+03 -0.12981024684E+03 -0.46211485331E+03  0.52233327152E+03  0.46999998093E+01 0.  1.
</event>
<event>
 5   0  0.1303808E-02  0.5997892E+03  0.7818609E-02  0.9905843E-01
       -1   -1    0    0    0  501  0.00000000000E+00  0.00000000000E+00  0.67422816082E+02  0.67422816271E+02  0.50400001928E-02 0.  1.
        1   -1    0    0  501    0  0.00000000000E+00  0.00000000000E+00 -0.13339220785E+04  0.13339220785E+04  0.50400001928E-02 0. -1.
    10030    2    1    2    0    0  0.00000000000E+00  0.00000000000E+00 -0.12664992624E+04  0.14013448948E+04  0.59978924000E+03 0.  0.
        4    1    3    3  502    0 -0.31015287504E+02 -0.13117614190E+03 -0.73483182550E+01  0.13499903312E+03  0.12699999809E+01 0.  1.
       -4    1    3    3    0  502  0.31015287504E+02  0.13117614190E+03 -0.12591509441E+04  0.12663458616E+04  0.12699999809E+01 0. -1.
</event>
<event>
 5   0  0.1250390E-02  0.6014370E+03  0.7818609E-02  0.9902429E-01
       -1   -1    0    0    0  501  0.00000000000E+00  0.00000000000E+00  0.32907024129E+03  0.32907024133E+03  0.50400001928E-02 0. -1.
        1   -1    0    0  501    0  0.00000000000E+00  0.00000000000E+00 -0.27480950736E+03  0.27480950741E+03  0.50400001928E-02 0.  1.
    10030    2    1    2    0    0  0.00000000000E+00  0.00000000000E+00  0.54260733926E+02  0.60387974874E+03  0.60143704882E+03 0.  0.
        3    1    3    3  502    0  0.20143230850E+03  0.63167068018E+02  0.24216499778E+03  0.32126149744E+03  0.10100000352E+00 0. -1.
       -3    1    3    3    0  502 -0.20143230850E+03 -0.63167068018E+02 -0.18790426385E+03  0.28261825129E+03  0.10100000352E+00 0.  1.
</event>
<event>
 5   0  0.2141800E-02  0.6003477E+03  0.7818609E-02  0.9904685E-01
       -2   -1    0    0    0  501  0.00000000000E+00  0.00000000000E+00  0.71701090999E+02  0.71701091044E+02  0.25500000920E-02 0. -1.
        2   -1    0    0  501    0  0.00000000000E+00  0.00000000000E+00 -0.12566662249E+04  0.12566662249E+04  0.25500000920E-02 0.  1.
    10030    2    1    2    0    0  0.00000000000E+00  0.00000000000E+00 -0.11849651339E+04  0.13283673160E+04  0.60034769720E+03 0.  0.
        2    1    3    3  502    0  0.10828109068E+02 -0.18406971404E+03 -0.68378189747E+02  0.19665829352E+03  0.25500000920E-02 0. -1.
       -2    1    3    3    0  502 -0.10828109068E+02  0.18406971404E+03 -0.11165869442E+04  0.11317090225E+04  0.25500000920E-02 0.  1.
</event>
<event>
 5   0  0.8551000E-03  0.6014338E+03  0.7818609E-02  0.9902436E-01
       -4   -1    0    0    0  501  0.00000000000E+00  0.00000000000E+00  0.49586701033E+03  0.49586863667E+03  0.12699999809E+01 0.  1.
        4   -1    0    0  501    0  0.00000000000E+00  0.00000000000E+00 -0.18236464330E+03  0.18236906543E+03  0.12699999809E+01 0. -1.
    10030    2    1    2    0    0  0.00000000000E+00  0.00000000000E+00  0.31350236703E+03  0.67823770210E+03  0.60143382547E+03 0.  0.
        1    1    3    3  502    0  0.28650609232E+03 -0.22067050137E+02  0.25671645483E+03  0.38532588006E+03  0.50400001928E-02 0.  1.
       -1    1    3    3    0  502 -0.28650609232E+03  0.22067050137E+02  0.56785912193E+02  0.29291182203E+03  0.50400001928E-02 0. -1.
</event>
<event>
 5   0  0.2126207E-02  0.5996613E+03  0.7818609E-02  0.9906109E-01
       -2   -1    0    0    0  501  0.00000000000E+00  0.00000000000E+00  0.14959079568E+03  0.14959079570E+03  0.25500000920E-02 0.  1.
        2   -1    0    0  501    0  0.00000000000E+00  0.00000000000E+00 -0.60096225193E+03  0.60096225194E+03  0.25500000920E-02 0. -1.
    10030    2    1    2    0    0  0.00000000000E+00  0.00000000000E+00 -0.45137145626E+03  0.75055304764E+03  0.59966130924E+03 0.  0.
        5    1    3    3  502    0 -0.36816048682E+02 -0.44633369368E+02 -0.59386186386E+03  0.59669218400E+03  0.46999998093E+01 0. -1.
       -5    1    3    3    0  502  0.36816048682E+02  0.44633369368E+02  0.14249040760E+03  0.15386086364E+03  0.46999998093E+01 0.  1.
</event>
<event>
 5   0  0.1276705E-02  0.5954405E+03  0.7818609E-02  0.9914911E-01
        1   -1    0    0  501    0  0.00000000000E+00  0.00000000000E+00  0.49732741695E+03  0.49732741698E+03  0.50400001928E-02 0. -1.
       -1   -1    0    0    0  501  0.00000000000E+00  0.00000000000E+00 -0.17822733465E+03  0.17822733472E+03  0.50400001928E-02 0.  1.
    10030    2    1    2    0    0  0.00000000000E+00  0.00000000000E+00  0.31910008230E+03  0.67555475170E+03  0.59544047563E+03 0.  0.
        1    1    3    3  502    0  0.20308606654E+03 -0.21769757851E+03  0.15833133166E+03  0.33720171518E+03  0.50400001928E-02 0.  1.
       -1    1    3    3    0  502 -0.20308606654E+03  0.21769757851E+03  0.16076875064E+03  0.33835303651E+03  0.50400001928E-02 0. -1.
</event>
<event>
 5   0  0.2092587E-02  0.5993053E+03  0.7818609E-02  0.9906848E-01
        2   -1    0    0  501    0  0.00000000000E+00  0.00000000000E+00  0.94108968682E+03  0.94108968683E+03  0.25500000920E-02 0. -1.
       -2   -1    0    0    0  501  0.00000000000E+00  0.00000000000E+00 -0.95412499845E+02  0.95412499879E+02  0.25500000920E-02 0.  1.
    10030    2    1    2    0    0  0.00000000000E+00  0.00000000000E+00  0.84567718698E+03  0.10365021867E+04  0.59930532992E+03 0.  0.
        3    1    3    3  502    0  0.85869913775E+02  0.17552711701E+02 -0.72748546491E+02  0.11390391125E+03  0.10100000352E+00 0.  1.
       -3    1    3    3    0  502 -0.85869913775E+02 -0.17552711701E+02  0.91842573347E+03  0.92259827546E+03  0.10100000352E+00 0. -1.
</event>
<event>
 5   0  0.2126207E-02  0.6063093E+03  0.7818609E-02  0.9892402E-01
       -2   -1    0    0    0  501  0.00000000000E+00  0.00000000000E+00  0.41702050048E+03  0.41702050048E+03  0.25500000920E-02 0. -1.
        2   -1    0    0  501    0  0.00000000000E+00  0.00000000000E+00 -0.22037945947E+03  0.22037945949E+03  0.25500000920E-02 0.  1.
    10030    2    1    2    0    0  0.00000000000E+00  0.00000000000E+00  0.19664104100E+03  0.63739995997E+03  0.60630933521E+03 0.  0.
        5    1    3    3  502    0 -0.22469833337E+03 -0.20246710649E+03  0.11930379319E+03  0.32517342342E+03  0.46999998093E+01 0. -1.
       -5    1    3    3    0  502  0.22469833337E+03  0.20246710649E+03  0.77337247813E+02  0.31222653655E+03  0.46999998093E+01 0.  1.
</event>
<event>
 5   0  0.1276705E-02  0.5999232E+03  0.7818609E-02  0.9905565E-01
       -1   -1    0    0    0  501  0.00000000000E+00  0.00000000000E+00  0.87903497994E+02  0.87903498138E+02  0.50400001928E-02 0.  1.
        1   -1    0    0  501    0  0.00000000000E+00  0.00000000000E+00 -0.10235879109E+04  0.10235879110E+04  0.50400001928E-02 0. -1.
    10030    2    1    2    0    0  0.00000000000E+00  0.00000000000E+00 -0.93568441295E+03  0.11114914091E+04  0.59992318829E+03 0.  0.
        1    1    3    3  502    0 -0.70769090908E+02 -0.28984819711E+03 -0.41053594748E+03  0.50750370027E+03  0.50400001928E-02 0.  1.
       -1    1    3    3    0  502  0.70769090908E+02  0.28984819711E+03 -0.52514846547E+03  0.60398770882E+03  0.50400001928E-02 0. -1.
</event>
<event>
 5   0  0.2141800E-02  0.5995754E+03  0.7818609E-02  0.9906287E-01
        2   -1    0    0  501    0  0.00000000000E+00  0.00000000000E+00  0.47773678002E+03  0.47773678002E+03  0.25500000920E-02 0. -1.
       -2   -1    0    0    0  501  0.00000000000E+00  0.00000000000E+00 -0.18812169538E+03  0.18812169540E+03  0.25500000920E-02 0.  1.
    10030    2    1    2    0    0  0.00000000000E+00  0.00000000000E+00  0.28961508463E+03  0.66585847542E+03  0.59957535977E+03 0.  0.
        2    1    3    3  502    0 -0.52791317936E+02 -0.29161692582E+03  0.94582942225E+02  0.31108405237E+03  0.25500000920E-02 0.  1.
       -2    1    3    3    0  502  0.52791317936E+02  0.29161692582E+03  0.19503214241E+03  0.35477442305E+03  0.25500000920E-02 0. -1.
</event>
<event>
 5   0  0.2126207E-02  0.6013895E+03  0.7818609E-02  0.9902528E-01
        2   -1    0    0  501    0  0.00000000000E+00  0.00000000000E+00  0.55221901353E+03  0.55221901354E+03  0.25500000920E-02 0. -1.
       -2   -1    0    0    0  501  0.00000000000E+00  0.00000000000E+00 -0.16373453671E+03  0.16373453673E+03  0.25500000920E-02 0.  1.
    10030    2    1    2    0    0  0.00000000000E+00  0.00000000000E+00  0.38848447683E+03  0.71595355027E+03  0.60138947231E+03 0.  0.
        5    1    3    3  502    0 -0.38301424882E+02  0.16523830355E+03 -0.10129068158E+03  0.19761727728E+03  0.46999998093E+01 0.  1.
       -5    1    3    3    0  502  0.38301424882E+02 -0.16523830355E+03  0.48977515840E+03  0.51833627299E+03  0.46999998093E+01 0. -1.
</event>
<event>
 5   0  0.1332555E-02  0.5999287E+03  0.7818609E-02  0.9905554E-01
       -1   -1    0    0    0  501  0.00000000000E+00  0.00000000000E+00  0.21342556132E+03  0.21342556138E+03  0.50400001928E-02 0.  1.
        1   -1    0    0  501    0  0.00000000000E+00  0.00000000000E+00 -0.42159241622E+03  0.42159241625E+03  0.50400001928E-02 0. -1.
    10030    2    1    2    0    0  0.00000000000E+00  0.00000000000E+00 -0.20816685490E+03  0.63501797763E+03  0.59992865612E+03 0.  0.
        2    1    3    3  502    0  0.76067710408E+02  0.27778833243E+03 -0.15359909720E+02  0.28842430729E+03  0.25500000920E-02 0. -1.
       -2    1    3    3    0  502 -0.76067710408E+02 -0.27778833243E+03 -0.19280694518E+03  0.34659367034E+03  0.25500000920E-02 0.  1.
</event>
<event>
 5   0  0.2126207E-02  0.6006297E+03  0.7818609E-02  0.9904100E-01
       -2   -1    0    0    0  501  0.00000000000E+00  0.00000000000E+00  0.17167588998E+03  0.17167589000E+03  0.25500000920E-02 0. -1.
        2   -1    0    0  501    0  0.00000000000E+00  0.00000000000E+00 -0.52534469989E+03  0.52534469990E+03  0.25500000920E-02 0.  1.
    10030    2    1    2    0    0  0.00000000000E+00  0.00000000000E+00 -0.35366880991E+03  0.69702058990E+03  0.60062973257E+03 0.  0.
        5    1    3    3  502    0  0.28317104343E+03 -0.99110900316E+02 -0.19142691979E+03  0.35591454875E+03  0.46999998093E+01 0.  1.
       -5    1    3    3    0  502 -0.28317104343E+03  0.99110900316E+02 -0.16224189012E+03  0.34110604115E+03  0.46999998093E+01 0. -1.
</event>
<event>
 5   0  0.1303808E-02  0.6011924E+03  0.7818609E-02  0.9902935E-01
       -1   -1    0    0    0  501  0.00000000000E+00  0.00000000000E+00  0.72924041459E+02  0.72924041634E+02  0.50400001928E-02 0.  1.
        1   -1    0    0  501    0  0.00000000000E+00  0.00000000000E+00 -0.12390711007E+04  0.12390711007E+04  0.50400001928E-02 0. -1.
    10030    2    1    2    0    0  0.00000000000E+00  0.00000000000E+00 -0.11661470592E+04  0.13119951423E+04  0.60119238996E+03 0.  0.
        4    1    3    3  502    0  0.10764812364E+03  0.13774457381E+03 -0.49431085341E+02  0.18167754742E+03  0.12699999809E+01 0.  1.
       -4    1    3    3    0  502 -0.10764812364E+03 -0.13774457381E+03 -0.11167159739E+04  0.11303175949E+04  0.12699999809E+01 0. -1.
</event>
<event>
 5   0  0.1337051E-02  0.5959616E+03  0.7818609E-02  0.9913820E-01
        1   -1    0    0  501    0  0.00000000000E+00  0.00000000000E+00  0.43013360864E+03  0.43013360867E+03  0.50400001928E-02 0. -1.
       -1   -1    0    0    0  501  0.00000000000E+00  0.00000000000E+00 -0.20643018393E+03  0.20643018400E+03  0.50400001928E-02 0.  1.
    10030    2    1    2    0    0  0.00000000000E+00  0.00000000000E+00  0.22370342470E+03  0.63656379266E+03  0.59596160942E+03 0.  0.
        5    1    3    3  502    0 -0.22422834495E+03  0.12571068560E+03  0.27274235212E+03  0.37482263511E+03  0.46999998093E+01 0. -1.
       -5    1    3    3    0  502  0.22422834495E+03 -0.12571068560E+03 -0.49038927416E+02  0.26174115755E+03  0.46999998093E+01 0.  1.
</event>
<event>
 5   0  0.1337051E-02  0.5690644E+03  0.7818609E-02  0.9971751E-01
       -1   -1    0    0    0  501  0.00000000000E+00  0.00000000000E+00  0.22906418105E+03  0.22906418110E+03  0.50400001928E-02 0. -1.
        1   -1    0    0  501    0  0.00000000000E+00  0.00000000000E+00 -0.35343186840E+03  0.35343186843E+03  0.50400001928E-02 0.  1.
    10030    2    1    2    0    0  0.00000000000E+00  0.00000000000E+00 -0.12436768735E+03  0.58249604953E+03  0.56906443050E+03 0.  0.
        5    1    3    3  502    0  0.25650150701E+03  0.31977521305E+02  0.59452353243E+02  0.26527769841E+03  0.46999998093E+01 0. -1.
       -5    1    3    3    0  502 -0.25650150701E+03 -0.31977521305E+02 -0.18382004059E+03  0.31721835112E+03  0.46999998093E+01 0.  1.
</event>
<event>
 5   0  0.1337051E-02  0.6009960E+03  0.7818609E-02  0.9903342E-01
        1   -1    0    0  501    0  0.00000000000E+00  0.00000000000E+00  0.80028617936E+02  0.80028618095E+02  0.50400001928E-02 0. -1.
       -1   -1    0    0    0  501  0.00000000000E+00  0.00000000000E+00 -0.11283343064E+04  0.11283343064E+04  0.50400001928E-02 0.  1.
    10030    2    1    2    0    0  0.00000000000E+00  0.00000000000E+00 -0.10483056885E+04  0.12083629245E+04  0.60099595744E+03 0.  0.
        5    1    3    3  502    0  0.22203895265E+02 -0.20143768581E+03 -0.97015644260E+03  0.99110835298E+03  0.46999998093E+01 0.  1.
       -5    1    3    3    0  502 -0.22203895265E+02  0.20143768581E+03 -0.78149245883E+02  0.21725457155E+03  0.46999998093E+01 0. -1.
</event>
<event>
 5   0  0.2092587E-02  0.5997256E+03  0.7818609E-02  0.9905976E-01
        2   -1    0    0  501    0  0.00000000000E+00  0.00000000000E+00  0.17378675690E+04  0.17378675690E+04  0.25500000920E-02 0.  1.
       -2   -1    0    0    0  501  0.00000000000E+00  0.00000000000E+00 -0.51740244943E+02  0.51740245006E+02  0.25500000920E-02 0. -1.
    10030    2    1    2    0    0  0.00000000000E+00  0.00000000000E+00  0.16861273241E+04  0.17896078140E+04  0.59972558310E+03 0.  0.
        3    1    3    3  502    0  0.20136217387E+02  0.23414777616E+03  0.13988257054E+04  0.14184301226E+04  0.10100000352E+00 0.  1.
       -3    1    3    3    0  502 -0.20136217387E+02 -0.23414777616E+03  0.28730161861E+03  0.37117769139E+03  0.10100000352E+00 0. -1.
</event>
<event>
 5   0  0.1337051E-02  0.5943073E+03  0.7818609E-02  0.9917288E-01
        1   -1    0    0  501    0  0.00000000000E+00  0.00000000000E+00  0.57215405819E+03  0.57215405821E+03  0.50400001928E-02 0.  1.
       -1   -1    0    0    0  501  0.00000000000E+00  0.00000000000E+00 -0.15432955120E+03  0.15432955128E+03  0.50400001928E-02 0. -1.
    10030    2    1    2    0    0  0.00000000000E+00  0.00000000000E+00  0.41782450699E+03  0.72648360950E+03  0.59430725742E+03 0.  0.
        5    1    3    3  502    0  0.24608736834E+03  0.15813070973E+03  0.14523127992E+03  0.32661679210E+03  0.46999998093E+01 0. -1.
       -5    1    3    3    0  502 -0.24608736834E+03 -0.15813070973E+03  0.27259322707E+03  0.39986681740E+03  0.46999998093E+01 0.  1.
</event>
<event>
 5   0  0.1337051E-02  0.5989658E+03  0.7818609E-02  0.9907554E-01
       -1   -1    0    0    0  501  0.00000000000E+00  0.00000000000E+00  0.20463911952E+03  0.20463911959E+03  0.50400001928E-02 0.  1.
        1   -1    0    0  501    0  0.00000000000E+00  0.00000000000E+00 -0.43828384279E+03  0.43828384282E+03  0.50400001928E-02 0. -1.
    10030    2    1    2    0    0  0.00000000000E+00  0.00000000000E+00 -0.23364472327E+03  0.64292296241E+03  0.59896584116E+03 0.  0.
        5    1    3    3  502    0  0.29809524574E+03  0.26240240281E+02 -0.12851214638E+03  0.32570966751E+03  0.46999998093E+01 0. -1.
       -5    1    3    3    0  502 -0.29809524574E+03 -0.26240240281E+02 -0.10513257689E+03  0.31721329490E+03  0.46999998093E+01 0.  1.
</event>
<event>
 5   0  0.2092587E-02  0.5960395E+03  0.7818609E-02  0.9913657E-01
        2   -1    0    0  501    0  0.00000000000E+00  0.00000000000E+00  0.28479455146E+03  0.28479455147E+03  0.25500000920E-02 0. -1.
       -2   -1    0    0    0  501  0.00000000000E+00  0.00000000000E+00 -0.31185908673E+03  0.31185908674E+03  0.25500000920E-02 0.  1.
    10030    2    1    2    0    0  0.00000000000E+00  0.00000000000E+00 -0.27064535272E+02  0.59665363822E+03  0.59603949108E+03 0.  0.
        3    1    3    3  502    0 -0.24735903938E+03  0.16568371376E+03 -0.17043694838E+00  0.29772071916E+03  0.10100000352E+00 0. -1.
       -3    1    3    3    0  502  0.24735903938E+03 -0.16568371376E+03 -0.26894098324E+02  0.29893291906E+03  0.10100000352E+00 0.  1.
</event>
<event>
 5   0  0.2179625E-02  0.5996786E+03  0.7818609E-02  0.9906073E-01
        2   -1    0    0  501    0  0.00000000000E+00  0.00000000000E+00  0.97425929333E+03  0.97425929333E+03  0.25500000920E-02 0.  1.
       -2   -1    0    0    0  501  0.00000000000E+00  0.00000000000E+00 -0.92278917406E+02  0.92278917441E+02  0.25500000920E-02 0. -1.
    10030    2    1    2    0    0  0.00000000000E+00  0.00000000000E+00  0.88198037592E+03  0.10665382108E+04  0.59967855683E+03 0.  0.
        1    1    3    3  502    0 -0.95617528019E+02 -0.20350785109E+03  0.79377110064E+03  0.82500346505E+03  0.50400001928E-02 0.  1.
       -1    1    3    3    0  502  0.95617528019E+02  0.20350785109E+03  0.88209275284E+02  0.24153474572E+03  0.50400001928E-02 0. -1.
</event>
<event>
 5   0  0.2142838E-02  0.5948322E+03  0.7818609E-02  0.9916186E-01
       -2   -1    0    0    0  501  0.00000000000E+00  0.00000000000E+00  0.77368822701E+02  0.77368822743E+02  0.25500000920E-02 0.  1.
        2   -1    0    0  501    0  0.00000000000E+00  0.00000000000E+00 -0.11433072771E+04  0.11433072771E+04  0.25500000920E-02 0. -1.
    10030    2    1    2    0    0  0.00000000000E+00  0.00000000000E+00 -0.10659384544E+04  0.12206760999E+04  0.59483220506E+03 0.  0.
        4    1    3    3  502    0  0.95161451257E+02 -0.27908370834E+03 -0.45319137766E+03  0.54067315058E+03  0.12699999809E+01 0.  1.
       -4    1    3    3    0  502 -0.95161451257E+02  0.27908370834E+03 -0.61274707678E+03  0.68000294931E+03  0.12699999809E+01 0. -1.
</event>
<event>
 5   0  0.1332555E-02  0.5917916E+03  0.7818609E-02  0.9922584E-01
        1   -1    0    0  501    0  0.00000000000E+00  0.00000000000E+00  0.18145011731E+03  0.18145011738E+03  0.50400001928E-02 0. -1.
       -1   -1    0    0    0  501  0.00000000000E+00  0.00000000000E+00 -0.48252561406E+03  0.48252561408E+03  0.50400001928E-02 0.  1.
    10030    2    1    2    0    0  0.00000000000E+00  0.00000000000E+00 -0.30107549675E+03  0.66397573146E+03  0.59179161638E+03 0.  0.
        2    1    3    3  502    0 -0.75900629185E+02 -0.28321033476E+03 -0.19521055585E+03  0.35224446106E+03  0.25500000920E-02 0.  1.
       -2    1    3    3    0  502  0.75900629185E+02  0.28321033476E+03 -0.10586494090E+03  0.31173127040E+03  0.25500000920E-02 0. -1.
</event>
<event>
 5   0  0.2126207E-02  0.6056490E+03  0.7818609E-02  0.9893755E-01
        2   -1    0    0  501    0  0.00000000000E+00  0.00000000000E+00  0.13730288918E+04  0.13730288918E+04  0.25500000920E-02 0.  1.
       -2   -1    0    0    0  501  0.00000000000E+00  0.00000000000E+00 -0.66788605948E+02  0.66788605997E+02  0.25500000920E-02 0. -1.
    10030    2    1    2    0    0  0.00000000000E+00  0.00000000000E+00  0.13062402859E+04  0.14398174978E+04  0.60564902591E+03 0.  0.
        5    1    3    3  502    0  0.15754014102E+03 -0.17600413074E+03  0.20278241312E+03  0.31135052134E+03  0.46999998093E+01 0. -1.
       -5    1    3    3    0  502 -0.15754014102E+03  0.17600413074E+03  0.11034578727E+04  0.11284669765E+04  0.46999998093E+01 0.  1.
</event>
<event>
 5   0  0.1303808E-02  0.5975536E+03  0.7818609E-02  0.9910495E-01
       -1   -1    0    0    0  501  0.00000000000E+00  0.00000000000E+00  0.14120506165E+03  0.14120506174E+03  0.50400001928E-02 0. -1.
        1   -1    0    0  501    0  0.00000000000E+00  0.00000000000E+00 -0.63218401738E+03  0.63218401740E+03  0.50400001928E-02 0.  1.
    10030    2    1    2    0    0  0.00000000000E+00  0.00000000000E+00 -0.49097895573E+03  0.77338907914E+03  0.59755362334E+03 0.  0.
        4    1    3    3  502    0  0.14649106966E+03 -0.24975000800E+03 -0.15010628419E+03  0.32614139486E+03  0.12699999809E+01 0.  1.
       -4    1    3    3    0  502 -0.14649106966E+03  0.24975000800E+03 -0.34087267154E+03  0.44724768428E+03  0.12699999809E+01 0. -1.
</event>
<event>
 5   0  0.2179625E-02  0.5907150E+03  0.7818609E-02  0.9924859E-01
        2   -1    0    0  501    0  0.00000000000E+00  0.00000000000E+00  0.64971746228E+03  0.64971746229E+03  0.25500000920E-02 0.  1.
       -2   -1    0    0    0  501  0.00000000000E+00  0.00000000000E+00 -0.13426767183E+03  0.13426767186E+03  0.25500000920E-02 0. -1.
    10030    2    1    2    0    0  0.00000000000E+00  0.00000000000E+00  0.51544979045E+03  0.78398513414E+03  0.59071499395E+03 0.  0.
        1    1    3    3  502    0 -0.12197665439E+03  0.59560227143E+02 -0.90417282175E+02  0.16309816006E+03  0.50400001928E-02 0. -1.
       -1    1    3    3    0  502  0.12197665439E+03 -0.59560227143E+02  0.60586707263E+03  0.62088697409E+03  0.50400001928E-02 0.  1.
</event>
<event>
 5   0  0.2126207E-02  0.5916338E+03  0.7818609E-02  0.9922917E-01
       -2   -1    0    0    0  501  0.00000000000E+00  0.00000000000E+00  0.94614020149E+02  0.94614020183E+02  0.25500000920E-02 0. -1.
        2   -1    0    0  501    0  0.00000000000E+00  0.00000000000E+00 -0.92489066802E+03  0.92489066802E+03  0.25500000920E-02 0.  1.
    10030    2    1    2    0    0  0.00000000000E+00  0.00000000000E+00 -0.83027664787E+03  0.10195046882E+04  0.59163375265E+03 0.  0.
        5    1    3    3  502    0 -0.29071838368E+03 -0.51587323398E+02 -0.38494027647E+03  0.48515929033E+03  0.46999998093E+01 0.  1.
       -5    1    3    3    0  502  0.29071838368E+03  0.51587323398E+02 -0.44533637139E+03  0.53434539787E+03  0.46999998093E+01 0. -1.
</event>
<event>
 5   0  0.2141800E-02  0.6036641E+03  0.7818609E-02  0.9897833E-01
        2   -1    0    0  501    0  0.00000000000E+00  0.00000000000E+00  0.83850901137E+03  0.83850901137E+03  0.25500000920E-02 0. -1.
       -2   -1    0    0    0  501  0.00000000000E+00  0.00000000000E+00 -0.10864831080E+03  0.10864831083E+03  0.25500000920E-02 0.  1.
    10030    2    1    2    0    0  0.00000000000E+00  0.00000000000E+00  0.72986070057E+03  0.94715732220E+03  0.60366410425E+03 0.  0.
        2    1    3    3  502    0  0.38449947591E+02 -0.15282879508E+03  0.76883348295E+03  0.78481842715E+03  0.25500000920E-02 0. -1.
       -2    1    3    3    0  502 -0.38449947591E+02  0.15282879508E+03 -0.38972782383E+02  0.16233889505E+03  0.25500000920E-02 0.  1.
</event>
<event>
 5   0  0.1276705E-02  0.6000749E+03  0.7818609E-02  0.9905251E-01
        1   -1    0    0  501    0  0.00000000000E+00  0.00000000000E+00  0.77621203605E+03  0.77621203606E+03  0.50400001928E-02 0.  1.
       -1   -1    0    0    0  501  0.00000000000E+00  0.00000000000E+00 -0.11597665788E+03  0.11597665799E+03  0.50400001928E-02 0. -1.
    10030    2    1    2    0    0  0.00000000000E+00  0.00000000000E+00  0.66023537816E+03  0.89218869406E+03  0.60007492134E+03 0.  0.
        1    1    3    3  502    0  0.22707853693E+03  0.19218372843E+03  0.27209016588E+03  0.40315295584E+03  0.50400001928E-02 0. -1.
       -1    1    3    3    0  502 -0.22707853693E+03 -0.19218372843E+03  0.38814521228E+03  0.48903573822E+03  0.50400001928E-02 0.  1.
</event>
<event>
 5   0  0.1303808E-02  0.5994762E+03  0.7818609E-02  0.9906493E-01
       -1   -1    0    0    0  501  0.00000000000E+00  0.00000000000E+00  0.16580335208E+03  0.16580335215E+03  0.50400001928E-02 0. -1.
        1   -1    0    0  501    0  0.00000000000E+00  0.00000000000E+00 -0.54186431567E+03  0.54186431569E+03  0.50400001928E-02 0.  1.
    10030    2    1    2    0    0  0.00000000000E+00  0.00000000000E+00 -0.37606096359E+03  0.70766766785E+03  0.59947617115E+03 0.  0.
        4    1    3    3  502    0  0.17058602944E+03 -0.16070300137E+03  0.32552133706E+02  0.23661424808E+03  0.12699999809E+01 0. -1.
       -4    1    3    3    0  502 -0.17058602944E+03  0.16070300137E+03 -0.40861309730E+03  0.47105341976E+03  0.12699999809E+01 0.  1.
</event>
<event>
 5   0  0.2141800E-02  0.5999400E+03  0.7818609E-02  0.9905531E-01
        2   -1    0    0  501    0  0.00000000000E+00  0.00000000000E+00  0.85011432036E+03  0.85011432036E+03  0.25500000920E-02 0. -1.
       -2   -1    0    0    0  501  0.00000000000E+00  0.00000000000E+00 -0.10584692482E+03  0.10584692485E+03  0.25500000920E-02 0.  1.
    10030    2    1    2    0    0  0.00000000000E+00  0.00000000000E+00  0.74426739554E+03  0.95596124521E+03  0.59993995223E+03 0.  0.
        2    1    3    3  502    0 -0.86784411595E+02 -0.12587687361E+03 -0.39098806951E+02  0.15781393512E+03  0.25500000920E-02 0.  1.
       -2    1    3    3    0  502  0.86784411595E+02  0.12587687361E+03  0.78336620249E+03  0.79814731010E+03  0.25500000920E-02 0. -1.
</event>
<event>
 5   0  0.2126207E-02  0.6036432E+03  0.7818609E-02  0.9897876E-01
       -2   -1    0    0    0  501  0.00000000000E+00  0.00000000000E+00  0.45922322399E+03  0.45922322400E+03  0.25500000920E-02 0.  1.
        2   -1    0    0  501    0  0.00000000000E+00  0.00000000000E+00 -0.19837036203E+03  0.19837036204E+03  0.25500000920E-02 0. -1.
    10030    2    1    2    0    0  0.00000000000E+00  0.00000000000E+00  0.26085286196E+03  0.65759358604E+03  0.60364319661E+03 0.  0.
        5    1    3    3  502    0  0.27117780433E+03 -0.12376481306E+03  0.18174345434E+03  0.34915312358E+03  0.46999998093E+01 0.  1.
       -5    1    3    3    0  502 -0.27117780433E+03  0.12376481306E+03  0.79109407622E+02  0.30844046246E+03  0.46999998093E+01 0. -1.
</event>
<event>
 5   0  0.1303808E-02  0.6030315E+03  0.7818609E-02  0.9899136E-01
        1   -1    0    0  501    0  0.00000000000E+00  0.00000000000E+00  0.13146706227E+03  0.13146706237E+03  0.50400001928E-02 0.  1.
       -1   -1    0    0    0  501  0.00000000000E+00  0.00000000000E+00 -0.69151735540E+03  0.69151735542E+03  0.50400001928E-02 0. -1.
    10030    2    1    2    0    0  0.00000000000E+00  0.00000000000E+00 -0.56005029314E+03  0.82298441779E+03  0.60303152578E+03 0.  0.
        4    1    3    3  502    0 -0.92801621371E+02 -0.22551380016E+03 -0.52201848611E+03  0.57617143953E+03  0.12699999809E+01 0. -1.
       -4    1    3    3    0  502  0.92801621371E+02  0.22551380016E+03 -0.38031807028E+02  0.24681297826E+03  0.12699999809E+01 0.  1.
</event>
<event>
 5   0  0.1332555E-02  0.6017700E+03  0.7818609E-02  0.9901741E-01
        1   -1    0    0  501    0  0.00000000000E+00  0.00000000000E+00  0.73666133160E+03  0.73666133161E+03  0.50400001928E-02 0. -1.
       -1   -1    0    0    0  501  0.00000000000E+00  0.00000000000E+00 -0.12289470640E+03  0.12289470651E+03  0.50400001928E-02 0.  1.
    10030    2    1    2    0    0  0.00000000000E+00  0.00000000000E+00  0.61376662519E+03  0.85955603812E+03  0.60176998302E+03 0.  0.
        2    1    3    3  502    0  0.10394589401E+03 -0.24635921791E+03  0.50394880790E+03  0.57049278183E+03  0.25500000920E-02 0. -1.
       -2    1    3    3    0  502 -0.10394589401E+03  0.24635921791E+03  0.10981781729E+03  0.28906325628E+03  0.25500000920E-02 0.  1.
</event>
<event>
 5   0  0.8551000E-03  0.5955082E+03  0.7818609E-02  0.9914769E-01
        3   -1    0    0  501    0  0.00000000000E+00  0.00000000000E+00  0.10601764892E+04  0.10601764940E+04  0.10100000352E+00 0. -1.
       -3   -1    0    0    0  501  0.00000000000E+00  0.00000000000E+00 -0.83625190020E+02  0.83625251013E+02  0.10100000352E+00 0.  1.
    10030    2    1    2    0    0  0.00000000000E+00  0.00000000000E+00  0.97655129913E+03  0.11438017450E+04  0.59550817960E+03 0.  0.
        1    1    3    3  502    0 -0.21267468837E+03  0.18629328984E+03  0.30889908036E+03  0.41875333406E+03  0.50400001928E-02 0.  1.
       -1    1    3    3    0  502  0.21267468837E+03 -0.18629328984E+03  0.66765221878E+03  0.72504841092E+03  0.50400001928E-02 0. -1.
</event>
<event>
 5   0  0.2142838E-02  0.5991232E+03  0.7818609E-02  0.9907227E-01
        2   -1    0    0  501    0  0.00000000000E+00  0.00000000000E+00  0.96879210483E+03  0.96879210483E+03  0.25500000920E-02 0.  1.
       -2   -1    0    0    0  501  0.00000000000E+00  0.00000000000E+00 -0.92627880073E+02  0.92627880109E+02  0.25500000920E-02 0. -1.
    10030    2    1    2    0    0  0.00000000000E+00  0.00000000000E+00  0.87616422475E+03  0.10614199849E+04  0.59912322246E+03 0.  0.
        4    1    3    3  502    0  0.26272909466E+03 -0.12047112311E+03  0.29863308060E+03  0.41559980560E+03  0.12699999809E+01 0.  1.
       -4    1    3    3    0  502 -0.26272909466E+03  0.12047112311E+03  0.57753114415E+03  0.64582017934E+03  0.12699999809E+01 0. -1.
</event>
<event>
 5   0  0.1337051E-02  0.5989943E+03  0.7818609E-02  0.9907495E-01
        1   -1    0    0  501    0  0.00000000000E+00  0.00000000000E+00  0.82751428523E+03  0.82751428524E+03  0.50400001928E-02 0.  1.
       -1   -1    0    0    0  501  0.00000000000E+00  0.00000000000E+00 -0.10839515305E+03  0.10839515316E+03  0.50400001928E-02 0. -1.
    10030    2    1    2    0    0  0.00000000000E+00  0.00000000000E+00  0.71911913218E+03  0.93590943840E+03  0.59899428263E+03 0.  0.
        5    1    3    3  502    0  0.32769403829E+02  0.13929500779E+03  0.77057930034E+03  0.78376749176E+03  0.46999998093E+01 0.  1.
       -5    1    3    3    0  502 -0.32769403829E+02 -0.13929500779E+03 -0.51460168161E+02  0.15214194665E+03  0.46999998093E+01 0. -1.
</event>
<event>
 5   0  0.2142838E-02  0.5991474E+03  0.7818609E-02  0.9907177E-01
       -2   -1    0    0    0  501  0.00000000000E+00  0.00000000000E+00  0.80221039222E+02  0.80221039263E+02  0.25500000920E-02 0.  1.
        2   -1    0    0  501    0  0.00000000000E+00  0.00000000000E+00 -0.11187138658E+04  0.11187138658E+04  0.25500000920E-02 0. -1.
    10030    2    1    2    0    0  0.00000000000E+00  0.00000000000E+00 -0.10384928266E+04  0.11989349051E+04  0.59914735728E+03 0.  0.
        4    1    3    3  502    0  0.58155453675E+02  0.12688494545E+03 -0.10496652059E+04  0.10589053327E+04  0.12699999809E+01 0. -1.
       -4    1    3    3    0  502 -0.58155453675E+02 -0.12688494545E+03  0.11172379362E+02  0.14002957236E+03  0.12699999809E+01 0.  1.
</event>
<event>
 5   0  0.2142838E-02  0.6019706E+03  0.7818609E-02  0.9901326E-01
       -2   -1    0    0    0  501  0.00000000000E+00  0.00000000000E+00  0.15399482261E+03  0.15399482263E+03  0.25500000920E-02 0.  1.
        2   -1    0    0  501    0  0.00000000000E+00  0.00000000000E+00 -0.58828051583E+03  0.58828051584E+03  0.25500000920E-02 0. -1.
    10030    2    1    2    0    0  0.00000000000E+00  0.00000000000E+00 -0.43428569323E+03  0.74227533846E+03  0.60197060954E+03 0.  0.
        4    1    3    3  502    0  0.25028761865E+03 -0.80674535094E+02 -0.36598209399E+02  0.26550577111E+03  0.12699999809E+01 0.  1.
       -4    1    3    3    0  502 -0.25028761865E+03  0.80674535094E+02 -0.39768748383E+03  0.47676956735E+03  0.12699999809E+01 0. -1.
</event>
<event>
 5   0  0.2092587E-02  0.5994687E+03  0.7818609E-02  0.9906509E-01
       -2   -1    0    0    0  501  0.00000000000E+00  0.00000000000E+00  0.79234351710E+02  0.79234351751E+02  0.25500000920E-02 0.  1.
        2   -1    0    0  501    0  0.00000000000E+00  0.00000000000E+00 -0.11338602887E+04  0.11338602887E+04  0.25500000920E-02 0. -1.
    10030    2    1    2    0    0  0.00000000000E+00  0.00000000000E+00 -0.10546259370E+04  0.12130946404E+04  0.59946871454E+03 0.  0.
        3    1    3    3  502    0 -0.26657278943E+03 -0.39926756215E+01 -0.25011682487E+03  0.36556180026E+03  0.10100000352E+00 0.  1.
       -3    1    3    3    0  502  0.26657278943E+03  0.39926756215E+01 -0.80450911209E+03  0.84753284017E+03  0.10100000352E+00 0. -1.
</event>
<event>
 5   0  0.1332555E-02  0.5980975E+03  0.7818609E-02  0.9909361E-01
       -1   -1    0    0    0  501  0.00000000000E+00  0.00000000000E+00  0.73085254780E+02  0.73085254954E+02  0.50400001928E-02 0.  1.
        1   -1    0    0  501    0  0.00000000000E+00  0.00000000000E+00 -0.12236415892E+04  0.12236415892E+04  0.50400001928E-02 0. -1.
    10030    2    1    2    0    0  0.00000000000E+00  0.00000000000E+00 -0.11505563344E+04  0.12967268442E+04  0.59809750853E+03 0.  0.
        2    1    3    3  502    0  0.20343870680E+02 -0.27450212591E+03 -0.32183580009E+03  0.42348975481E+03  0.25500000920E-02 0.  1.
       -2    1    3    3    0  502 -0.20343870680E+02  0.27450212591E+03 -0.82872053434E+03  0.87323708936E+03  0.25500000920E-02 0. -1.
</event>
<event>
 5   0  0.1303808E-02  0.6008696E+03  0.7818609E-02  0.9903604E-01
        1   -1    0    0  501    0  0.00000000000E+00  0.00000000000E+00  0.47194337228E+03  0.47194337231E+03  0.50400001928E-02 0. -1.
       -1   -1    0    0    0  501  0.00000000000E+00  0.00000000000E+00 -0.19125401112E+03  0.19125401119E+03  0.50400001928E-02 0.  1.
    10030    2    1    2    0    0  0.00000000000E+00  0.00000000000E+00  0.28068936116E+03  0.66319738349E+03  0.60086957986E+03 0.  0.
        4    1    3    3  502    0 -0.24465483941E+03 -0.16679256694E+03  0.19644735537E+03  0.35534339330E+03  0.12699999809E+01 0.  1.
       -4    1    3    3    0  502  0.24465483941E+03  0.16679256694E+03  0.84242005795E+02  0.30785399019E+03  0.12699999809E+01 0. -1.
</event>
<event>
 5   0  0.1337051E-02  0.6033693E+03  0.7818609E-02  0.9898440E-01
        1   -1    0    0  501    0  0.00000000000E+00  0.00000000000E+00  0.14357984861E+04  0.14357984862E+04  0.50400001928E-02 0.  1.
       -1   -1    0    0    0  501  0.00000000000E+00  0.00000000000E+00 -0.63388862862E+02  0.63388863063E+02  0.50400001928E-02 0. -1.
    10030    2    1    2    0    0  0.00000000000E+00  0.00000000000E+00  0.13724096233E+04  0.14991873492E+04  0.60336931806E+03 0.  0.
        5    1    3    3  502    0 -0.17541911950E+03  0.14911487084E+01  0.12959296343E+04  0.13077575456E+04  0.46999998093E+01 0.  1.
       -5    1    3    3    0  502  0.17541911950E+03 -0.14911487084E+01  0.76479989024E+02  0.19142980366E+03  0.46999998093E+01 0. -1.
</event>
<event>
 5   0  0.2179625E-02  0.5988915E+03  0.7818609E-02  0.9907709E-01
       -2   -1    0    0    0  501  0.00000000000E+00  0.00000000000E+00  0.68518345502E+02  0.68518345550E+02  0.25500000920E-02 0. -1.
        2   -1    0    0  501    0  0.00000000000E+00  0.00000000000E+00 -0.13086677080E+04  0.13086677080E+04  0.25500000920E-02 0.  1.
    10030    2    1    2    0    0  0.00000000000E+00  0.00000000000E+00 -0.12401493625E+04  0.13771860536E+04  0.59889146329E+03 0.  0.
        1    1    3    3  502    0 -0.12657009079E+03  0.34721441980E+02 -0.12390028492E+04  0.12459348405E+04  0.50400001928E-02 0.  1.
       -1    1    3    3    0  502  0.12657009079E+03 -0.34721441980E+02 -0.11465133145E+01  0.13125121307E+03  0.50400001928E-02 0. -1.
</event>
<event>
 5   0  0.2126207E-02  0.6009507E+03  0.7818609E-02  0.9903436E-01
        2   -1    0    0  501    0  0.00000000000E+00  0.00000000000E+00  0.83454263241E+02  0.83454263280E+02  0.25500000920E-02 0.  1.
       -2   -1    0    0    0  501  0.00000000000E+00  0.00000000000E+00 -0.10818552379E+04  0.10818552379E+04  0.25500000920E-02 0. -1.
    10030    2    1    2    0    0  0.00000000000E+00  0.00000000000E+00 -0.99840097468E+03  0.11653095012E+04  0.60095068629E+03 0.  0.
        5    1    3    3  502    0  0.42619756082E+00 -0.20277860080E+03 -0.69329930659E+02  0.21435501364E+03  0.46999998093E+01 0.  1.
       -5    1    3    3    0  502 -0.42619756082E+00  0.20277860080E+03 -0.92907104402E+03  0.95095448757E+03  0.46999998093E+01 0. -1.
</event>
<event>
 5   0  0.2142838E-02  0.6010593E+03  0.7818609E-02  0.9903211E-01
       -2   -1    0    0    0  501  0.00000000000E+00  0.00000000000E+00  0.47292077740E+02  0.47292077809E+02  0.25500000920E-02 0.  1.
        2   -1    0    0  501    0  0.00000000000E+00  0.00000000000E+00 -0.19097926861E+04  0.19097926861E+04  0.25500000920E-02 0. -1.
    10030    2    1    2    0    0  0.00000000000E+00  0.00000000000E+00 -0.18625006084E+04  0.19570847639E+04  0.60105927910E+03 0.  0.
        4    1    3    3  502    0  0.22565827678E+03  0.19648843086E+03 -0.83990115035E+03  0.89160805100E+03  0.12699999809E+01 0.  1.
       -4    1    3    3    0  502 -0.22565827678E+03 -0.19648843086E+03 -0.10225994580E+04  0.10654767129E+04  0.12699999809E+01 0. -1.
</event>
<event>
 5   0  0.1337051E-02  0.6017008E+03  0.7818609E-02  0.9901884E-01
       -1   -1    0    0    0  501  0.00000000000E+00  0.00000000000E+00  0.26773938635E+03  0.26773938640E+03  0.50400001928E-02 0.  1.
        1   -1    0    0  501    0  0.00000000000E+00  0.00000000000E+00 -0.33805624531E+03  0.33805624535E+03  0.50400001928E-02 0. -1.
    10030    2    1    2    0    0  0.00000000000E+00  0.00000000000E+00 -0.70316858958E+02  0.60579563175E+03  0.60170082831E+03 0.  0.
        5    1    3    3  502    0 -0.15436774134E+03 -0.19293554056E+03 -0.20789337164E+03  0.32294777650E+03  0.46999998093E+01 0. -1.
       -5    1    3    3    0  502  0.15436774134E+03  0.19293554056E+03  0.13757651268E+03  0.28284785525E+03  0.46999998093E+01 0.  1.
</event>
<event>
 5   0  0.1276705E-02  0.5990489E+03  0.7818609E-02  0.9907381E-01
       -1   -1    0    0    0  501  0.00000000000E+00  0.00000000000E+00  0.61779165547E+03  0.61779165549E+03  0.50400001928E-02 0.  1.
        1   -1    0    0  501    0  0.00000000000E+00  0.00000000000E+00 -0.14521868798E+03  0.14521868806E+03  0.50400001928E-02 0. -1.
    10030    2    1    2    0    0  0.00000000000E+00  0.00000000000E+00  0.47257296749E+03  0.76301034355E+03  0.59904889180E+03 0.  0.
        1    1    3    3  502    0 -0.17349677578E+03 -0.17808249980E+03  0.44903829202E+03  0.51327370444E+03  0.50400001928E-02 0.  1.
       -1    1    3    3    0  502  0.17349677578E+03  0.17808249980E+03  0.23534675470E+02  0.24973663911E+03  0.50400001928E-02 0. -1.
</event>
<event>
 5   0  0.8551000E-03  0.6009709E+03  0.7818609E-02  0.9903394E-01
        4   -1    0    0  501    0  0.00000000000E+00  0.00000000000E+00  0.98428397687E+03  0.98428479619E+03  0.12699999809E+01 0.  1.
       -4   -1    0    0    0  501  0.00000000000E+00  0.00000000000E+00 -0.91727924687E+02  0.91736716027E+02  0.12699999809E+01 0. -1.
    10030    2    1    2    0    0  0.00000000000E+00  0.00000000000E+00  0.89255605218E+03  0.10760215122E+04  0.60097087157E+03 0.  0.
        3    1    3    3  502    0 -0.12765548891E+03 -0.14129981042E+03  0.86246139388E+03  0.88323339295E+03  0.10100000352E+00 0.  1.
       -3    1    3    3    0  502  0.12765548891E+03  0.14129981042E+03  0.30094658296E+02  0.19278811927E+03  0.10100000352E+00 0. -1.
</event>
<event>
 5   0  0.1332555E-02  0.6041262E+03  0.7818609E-02  0.9896882E-01
       -1   -1    0    0    0  501  0.00000000000E+00  0.00000000000E+00  0.22103148365E+03  0.22103148370E+03  0.50400001928E-02 0.  1.
        1   -1    0    0  501    0  0.00000000000E+00  0.00000000000E+00 -0.41280145625E+03  0.41280145628E+03  0.50400001928E-02 0. -1.
    10030    2    1    2    0    0  0.00000000000E+00  0.00000000000E+00 -0.19176997261E+03  0.63383293999E+03  0.60412620653E+03 0.  0.
        2    1    3    3  502    0 -0.25379449467E+03 -0.70847861316E+02  0.59062826494E+02  0.27003607622E+03  0.25500000920E-02 0.  1.
       -2    1    3    3    0  502  0.25379449467E+03  0.70847861316E+02 -0.25083279910E+03  0.36379686377E+03  0.25500000920E-02 0. -1.
</event>
<event>
 5   0  0.1250390E-02  0.5999057E+03  0.7818609E-02  0.9905602E-01
        1   -1    0    0  501    0  0.00000000000E+00  0.00000000000E+00  0.22420159390E+03  0.22420159396E+03  0.50400001928E-02 0.  1.
       -1   -1    0    0    0  501  0.00000000000E+00  0.00000000000E+00 -0.40129826509E+03  0.40129826512E+03  0.50400001928E-02 0. -1.
    10030    2    1    2    0    0  0.00000000000E+00  0.00000000000E+00 -0.17709667119E+03  0.62549985908E+03  0.59990569489E+03 0.  0.
        3    1    3    3  502    0  0.63686375030E+02 -0.27656982699E+03 -0.18977200468E+03  0.34140920832E+03  0.10100000352E+00 0. -1.
       -3    1    3    3    0  502 -0.63686375030E+02  0.27656982699E+03  0.12675333492E+02  0.28409065075E+03  0.10100000352E+00 0.  1.
</event>
<event>
 5   0  0.2179625E-02  0.5818174E+03  0.7818609E-02  0.9943864E-01
        2   -1    0    0  501    0  0.00000000000E+00  0.00000000000E+00  0.69832669335E+03  0.69832669335E+03  0.25500000920E-02 0.  1.
       -2   -1    0    0    0  501  0.00000000000E+00  0.00000000000E+00 -0.12118665076E+03  0.12118665078E+03  0.25500000920E-02 0. -1.
    10030    2    1    2    0    0  0.00000000000E+00  0.00000000000E+00  0.57714004259E+03  0.81951334413E+03  0.58181740473E+03 0.  0.
        1    1    3    3  502    0  0.64694722724E+02  0.21055750741E+03  0.20917678108E+02  0.22126323770E+03  0.50400001928E-02 0. -1.
       -1    1    3    3    0  502 -0.64694722724E+02 -0.21055750741E+03  0.55622236448E+03  0.59825010644E+03  0.50400001928E-02 0.  1.
</event>
<event>
 5   0  0.1332555E-02  0.5985244E+03  0.7818609E-02  0.9908472E-01
       -1   -1    0    0    0  501  0.00000000000E+00  0.00000000000E+00  0.23213871372E+03  0.23213871378E+03  0.50400001928E-02 0. -1.
        1   -1    0    0  501    0  0.00000000000E+00  0.00000000000E+00 -0.38579457797E+03  0.38579457800E+03  0.50400001928E-02 0.  1.
    10030    2    1    2    0    0  0.00000000000E+00  0.00000000000E+00 -0.15365586424E+03  0.61793329178E+03  0.59852437584E+03 0.  0.
        2    1    3    3  502    0  0.10785630539E+03  0.11356714884E+03  0.18644600632E+03  0.24350070469E+03  0.25500000920E-02 0. -1.
       -2    1    3    3    0  502 -0.10785630539E+03 -0.11356714884E+03 -0.34010187056E+03  0.37443258709E+03  0.25500000920E-02 0.  1.
</event>
<event>
 5   0  0.1303808E-02  0.6008957E+03  0.7818609E-02  0.9903550E-01
       -1   -1    0    0    0  501  0.00000000000E+00  0.00000000000E+00  0.10370851430E+03  0.10370851442E+03  0.50400001928E-02 0. -1.
        1   -1    0    0  501    0  0.00000000000E+00  0.00000000000E+00 -0.87040982044E+03  0.87040982045E+03  0.50400001928E-02 0.  1.
    10030    2    1    2    0    0  0.00000000000E+00  0.00000000000E+00 -0.76670130614E+03  0.97411833488E+03  0.60089569603E+03 0.  0.
        4    1    3    3  502    0  0.71658086792E+02 -0.19050739355E+03 -0.25091286684E+02  0.20508323668E+03  0.12699999809E+01 0. -1.
       -4    1    3    3    0  502 -0.71658086792E+02  0.19050739355E+03 -0.74161001945E+03  0.76903509819E+03  0.12699999809E+01 0.  1.
</event>
<event>
 5   0  0.2142838E-02  0.5985096E+03  0.7818609E-02  0.9908503E-01
       -2   -1    0    0    0  501  0.00000000000E+00  0.00000000000E+00  0.10687694974E+03  0.10687694977E+03  0.25500000920E-02 0.  1.
        2   -1    0    0  501    0  0.00000000000E+00  0.00000000000E+00 -0.83791153659E+03  0.83791153659E+03  0.25500000920E-02 0. -1.
    10030    2    1    2    0    0  0.00000000000E+00  0.00000000000E+00 -0.73103458685E+03  0.94478848637E+03  0.59850957955E+03 0.  0.
        4    1    3    3  502    0 -0.17983019914E+03  0.49663646280E+01  0.11982652259E+02  0.18030186398E+03  0.12699999809E+01 0.  1.
       -4    1    3    3    0  502  0.17983019914E+03 -0.49663646280E+01 -0.74301723910E+03  0.76448662239E+03  0.12699999809E+01 0. -1.
</event>
<event>
 5   0  0.1337051E-02  0.5982433E+03  0.7818609E-02  0.9909057E-01
       -1   -1    0    0    0  501  0.00000000000E+00  0.00000000000E+00  0.12724819649E+03  0.12724819659E+03  0.50400001928E-02 0. -1.
        1   -1    0    0  501    0  0.00000000000E+00  0.00000000000E+00 -0.70314357048E+03  0.70314357050E+03  0.50400001928E-02 0.  1.
    10030    2    1    2    0    0  0.00000000000E+00  0.00000000000E+00 -0.57589537398E+03  0.83039176709E+03  0.59824326580E+03 0.  0.
        5    1    3    3  502    0  0.98124310748E+02  0.11451462703E+03  0.70560971036E+02  0.16656206289E+03  0.46999998093E+01 0. -1.
       -5    1    3    3    0  502 -0.98124310748E+02 -0.11451462703E+03 -0.64645634502E+03  0.66382970420E+03  0.46999998093E+01 0.  1.
</event>
<event>
 5   0  0.1337051E-02  0.5983817E+03  0.7818609E-02  0.9908769E-01
        1   -1    0    0  501    0  0.00000000000E+00  0.00000000000E+00  0.10420426584E+03  0.10420426596E+03  0.50400001928E-02 0.  1.
       -1   -1    0    0    0  501  0.00000000000E+00  0.00000000000E+00 -0.85903547254E+03  0.85903547256E+03  0.50400001928E-02 0. -1.
    10030    2    1    2    0    0  0.00000000000E+00  0.00000000000E+00 -0.75483120670E+03  0.96323973852E+03  0.59838168693E+03 0.  0.
        5    1    3    3  502    0 -0.18713799713E+03  0.13159593103E+03 -0.67127983257E+02  0.23846671710E+03  0.46999998093E+01 0.  1.
       -5    1    3    3    0  502  0.18713799713E+03 -0.13159593103E+03 -0.68770322345E+03  0.72477302141E+03  0.46999998093E+01 0. -1.
</event>
<event>
 5   0  0.8551000E-03  0.5915374E+03  0.7818609E-02  0.9923121E-01
        3   -1    0    0  501    0  0.00000000000E+00  0.00000000000E+00  0.38582944731E+03  0.38582946053E+03  0.10100000352E+00 0.  1.
       -3   -1    0    0    0  501  0.00000000000E+00  0.00000000000E+00 -0.22672998865E+03  0.22673001115E+03  0.10100000352E+00 0. -1.
    10030    2    1    2    0    0  0.00000000000E+00  0.00000000000E+00  0.15909945866E+03  0.61255947168E+03  0.59153737718E+03 0.  0.
        3    1    3    3  502    0 -0.15970173857E+02  0.29420125366E+03  0.52751836040E+02  0.29931954583E+03  0.10100000352E+00 0.  1.
       -3    1    3    3    0  502  0.15970173857E+02 -0.29420125366E+03  0.10634762262E+03  0.31323992585E+03  0.10100000352E+00 0. -1.
</event>
<event>
 5   0  0.1332555E-02  0.5992246E+03  0.7818609E-02  0.9907016E-01
       -1   -1    0    0    0  501  0.00000000000E+00  0.00000000000E+00  0.19247407027E+03  0.19247407034E+03  0.50400001928E-02 0. -1.
        1   -1    0    0  501    0  0.00000000000E+00  0.00000000000E+00 -0.46638772799E+03  0.46638772802E+03  0.50400001928E-02 0.  1.
    10030    2    1    2    0    0  0.00000000000E+00  0.00000000000E+00 -0.27391365772E+03  0.65886179835E+03  0.59922464689E+03 0.  0.
        2    1    3    3  502    0  0.10538212970E+03 -0.27665278454E+03 -0.86266657342E+02  0.30835708624E+03  0.25500000920E-02 0. -1.
       -2    1    3    3    0  502 -0.10538212970E+03  0.27665278454E+03 -0.18764700038E+03  0.35050471211E+03  0.25500000920E-02 0.  1.
</event>
<event>
 5   0  0.2179625E-02  0.5992919E+03  0.7818609E-02  0.9906876E-01
        2   -1    0    0  501    0  0.00000000000E+00  0.00000000000E+00  0.18779473529E+03  0.18779473531E+03  0.25500000920E-02 0.  1.
       -2   -1    0    0    0  501  0.00000000000E+00  0.00000000000E+00 -0.47811616037E+03  0.47811616038E+03  0.25500000920E-02 0. -1.
    10030    2    1    2    0    0  0.00000000000E+00  0.00000000000E+00 -0.29032142508E+03  0.66591089569E+03  0.59929190812E+03 0.  0.
        1    1    3    3  502    0  0.23327842085E+03 -0.52988644319E+02 -0.34566658915E+03  0.42037127511E+03  0.50400001928E-02 0. -1.
       -1    1    3    3    0  502 -0.23327842085E+03  0.52988644319E+02  0.55345164066E+02  0.24553962058E+03  0.50400001928E-02 0.  1.
</event>
<event>
 5   0  0.1332555E-02  0.6000161E+03  0.7818609E-02  0.9905373E-01
        1   -1    0    0  501    0  0.00000000000E+00  0.00000000000E+00  0.40033622050E+03  0.40033622053E+03  0.50400001928E-02 0.  1.
       -1   -1    0    0    0  501  0.00000000000E+00  0.00000000000E+00 -0.22482307762E+03  0.22482307768E+03  0.50400001928E-02 0. -1.
    10030    2    1    2    0    0  0.00000000000E+00  0.00000000000E+00  0.17551314288E+03  0.62515929821E+03  0.60001607046E+03 0.  0.
        2    1    3    3  502    0 -0.20566070275E+03 -0.21366931544E+03  0.40537266107E+02  0.29932285406E+03  0.25500000920E-02 0. -1.
       -2    1    3    3    0  502  0.20566070275E+03  0.21366931544E+03  0.13497587678E+03  0.32583644414E+03  0.25500000920E-02 0.  1.
</event>
<event>
 5   0  0.2179625E-02  0.5977396E+03  0.7818609E-02  0.9910107E-01
       -2   -1    0    0    0  501  0.00000000000E+00  0.00000000000E+00  0.17527095745E+03  0.17527095747E+03  0.25500000920E-02 0. -1.
        2   -1    0    0  501    0  0.00000000000E+00  0.00000000000E+00 -0.50962902973E+03  0.50962902973E+03  0.25500000920E-02 0.  1.
    10030    2    1    2    0    0  0.00000000000E+00  0.00000000000E+00 -0.33435807228E+03  0.68489998720E+03  0.59773963560E+03 0.  0.
        1    1    3    3  502    0 -0.27216987970E+03 -0.73019261026E+02 -0.53085894961E+02  0.28675140482E+03  0.50400001928E-02 0. -1.
       -1    1    3    3    0  502  0.27216987970E+03  0.73019261026E+02 -0.28127217731E+03  0.39814858238E+03  0.50400001928E-02 0.  1.
</event>
<event>
 5   0  0.2092587E-02  0.6003237E+03  0.7818609E-02  0.9904735E-01
       -2   -1    0    0    0  501  0.00000000000E+00  0.00000000000E+00  0.58328723931E+03  0.58328723932E+03  0.25500000920E-02 0.  1.
        2   -1    0    0  501    0  0.00000000000E+00  0.00000000000E+00 -0.15446444254E+03  0.15446444256E+03  0.25500000920E-02 0. -1.
    10030    2    1    2    0    0  0.00000000000E+00  0.00000000000E+00  0.42882279677E+03  0.73775168188E+03  0.60032370692E+03 0.  0.
        3    1    3    3  502    0  0.29592351341E+03 -0.32199075868E+01  0.27605429073E+03  0.40470615912E+03  0.10100000352E+00 0.  1.
       -3    1    3    3    0  502 -0.29592351341E+03  0.32199075868E+01  0.15276850604E+03  0.33304552277E+03  0.10100000352E+00 0. -1.
</event>
<event>
 5   0  0.2092587E-02  0.5965218E+03  0.7818609E-02  0.9912649E-01
        2   -1    0    0  501    0  0.00000000000E+00  0.00000000000E+00  0.17415653384E+04  0.17415653384E+04  0.25500000920E-02 0.  1.
       -2   -1    0    0    0  501  0.00000000000E+00  0.00000000000E+00 -0.51080231234E+02  0.51080231298E+02  0.25500000920E-02 0. -1.
    10030    2    1    2    0    0  0.00000000000E+00  0.00000000000E+00  0.16904851072E+04  0.17926455697E+04  0.59652178587E+03 0.  0.
        3    1    3    3  502    0 -0.11568979873E+03  0.20071705628E+03  0.28071887732E+03  0.36397055444E+03  0.10100000352E+00 0. -1.
       -3    1    3    3    0  502  0.11568979873E+03 -0.20071705628E+03  0.14097662299E+04  0.14286750153E+04  0.10100000352E+00 0.  1.
</event>
<event>
 5   0  0.1276705E-02  0.6008223E+03  0.7818609E-02  0.9903702E-01
        1   -1    0    0  501    0  0.00000000000E+00  0.00000000000E+00  0.29814734131E+03  0.29814734136E+03  0.50400001928E-02 0. -1.
       -1   -1    0    0    0  501  0.00000000000E+00  0.00000000000E+00 -0.30269213327E+03  0.30269213331E+03  0.50400001928E-02 0.  1.
    10030    2    1    2    0    0  0.00000000000E+00  0.00000000000E+00 -0.45447919581E+01  0.60083947467E+03  0.60082228586E+03 0.  0.
        1    1    3    3  502    0 -0.36769325743E+01 -0.99873190016E+02  0.28103533976E+03  0.29827677774E+03  0.50400001928E-02 0. -1.
       -1    1    3    3    0  502  0.36769325743E+01  0.99873190016E+02 -0.28558013172E+03  0.30256269693E+03  0.50400001928E-02 0.  1.
</event>
<event>
 5   0  0.1250390E-02  0.6090483E+03  0.7818609E-02  0.9886809E-01
        1   -1    0    0  501    0  0.00000000000E+00  0.00000000000E+00  0.22360493804E+03  0.22360493809E+03  0.50400001928E-02 0.  1.
       -1   -1    0    0    0  501  0.00000000000E+00  0.00000000000E+00 -0.41472680397E+03  0.41472680400E+03  0.50400001928E-02 0. -1.
    10030    2    1    2    0    0  0.00000000000E+00  0.00000000000E+00 -0.19112186594E+03  0.63833174210E+03  0.60904831116E+03 0.  0.
        3    1    3    3  502    0  0.28784635470E+02  0.18407336199E+03  0.15690120716E+03  0.24357659338E+03  0.10100000352E+00 0.  1.
       -3    1    3    3    0  502 -0.28784635470E+02 -0.18407336199E+03 -0.34802307309E+03  0.39475514872E+03  0.10100000352E+00 0. -1.
</event>
<event>
 5   0  0.2092587E-02  0.5998795E+03  0.7818609E-02  0.9905656E-01
        2   -1    0    0  501    0  0.00000000000E+00  0.00000000000E+00  0.76238830412E+03  0.76238830412E+03  0.25500000920E-02 0. -1.
       -2   -1    0    0    0  501  0.00000000000E+00  0.00000000000E+00 -0.11800266288E+03  0.11800266291E+03  0.25500000920E-02 0.  1.
    10030    2    1    2    0    0  0.00000000000E+00  0.00000000000E+00  0.64438564124E+03  0.88039096703E+03  0.59987948806E+03 0.  0.
        3    1    3    3  502    0  0.20797653771E+02  0.29917087707E+03  0.32997030548E+03  0.44588806756E+03  0.10100000352E+00 0. -1.
       -3    1    3    3    0  502 -0.20797653771E+02 -0.29917087707E+03  0.31441533575E+03  0.43450289947E+03  0.10100000352E+00 0.  1.
</event>
<event>
 5   0  0.1337051E-02  0.6009830E+03  0.7818609E-02  0.9903369E-01
        1   -1    0    0  501    0  0.00000000000E+00  0.00000000000E+00  0.27699144343E+03  0.27699144348E+03  0.50400001928E-02 0. -1.
       -1   -1    0    0    0  501  0.00000000000E+00  0.00000000000E+00 -0.32598534050E+03  0.32598534054E+03  0.50400001928E-02 0.  1.
    10030    2    1    2    0    0  0.00000000000E+00  0.00000000000E+00 -0.48993897074E+02  0.60297678402E+03  0.60098302814E+03 0.  0.
        5    1    3    3  502    0  0.17254584002E+03  0.23215181600E+03  0.57053246754E+02  0.29486216364E+03  0.46999998093E+01 0. -1.
       -5    1    3    3    0  502 -0.17254584002E+03 -0.23215181600E+03 -0.10604714383E+03  0.30811462038E+03  0.46999998093E+01 0.  1.
</event>
<event>
 5   0  0.2141800E-02  0.5977669E+03  0.7818609E-02  0.9910050E-01
       -2   -1    0    0    0  501  0.00000000000E+00  0.00000000000E+00  0.61034161280E+03  0.61034161281E+03  0.25500000920E-02 0. -1.
        2   -1    0    0  501    0  0.00000000000E+00  0.00000000000E+00 -0.14636283589E+03  0.14636283592E+03  0.25500000920E-02 0.  1.
    10030    2    1    2    0    0  0.00000000000E+00  0.00000000000E+00  0.46397877691E+03  0.75670444872E+03  0.59776694229E+03 0.  0.
        2    1    3    3  502    0  0.23234523034E+03  0.16956140392E+03  0.12917990247E+03  0.31531384836E+03  0.25500000920E-02 0. -1.
       -2    1    3    3    0  502 -0.23234523034E+03 -0.16956140392E+03  0.33479887444E+03  0.44139060036E+03  0.25500000920E-02 0.  1.
</event>
<event>
 5   0  0.1276705E-02  0.5935595E+03  0.7818609E-02  0.9918859E-01
       -1   -1    0    0    0  501  0.00000000000E+00  0.00000000000E+00  0.45575209028E+03  0.45575209030E+03  0.50400001928E-02 0. -1.
        1   -1    0    0  501    0  0.00000000000E+00  0.00000000000E+00 -0.19325906360E+03  0.19325906366E+03  0.50400001928E-02 0.  1.
    10030    2    1    2    0    0  0.00000000000E+00  0.00000000000E+00  0.26249302668E+03  0.64901115397E+03  0.59355950748E+03 0.  0.
        1    1    3    3  502    0 -0.12808391269E+03 -0.44599591357E+02 -0.15739129320E+03  0.20776580912E+03  0.50400001928E-02 0.  1.
       -1    1    3    3    0  502  0.12808391269E+03  0.44599591357E+02  0.41988431988E+03  0.44124534484E+03  0.50400001928E-02 0. -1.
</event>
<event>
 5   0  0.1276705E-02  0.5931351E+03  0.7818609E-02  0.9919752E-01
       -1   -1    0    0    0  501  0.00000000000E+00  0.00000000000E+00  0.16559629006E+03  0.16559629013E+03  0.50400001928E-02 0.  1.
        1   -1    0    0  501    0  0.00000000000E+00  0.00000000000E+00 -0.53112484526E+03  0.53112484529E+03  0.50400001928E-02 0. -1.
    10030    2    1    2    0    0  0.00000000000E+00  0.00000000000E+00 -0.36552855521E+03  0.69672113542E+03  0.59313507388E+03 0.  0.
        1    1    3    3  502    0 -0.74115818185E+02  0.27519264340E+03 -0.86413885815E+02  0.29781119047E+03  0.50400001928E-02 0.  1.
       -1    1    3    3    0  502  0.74115818185E+02 -0.27519264340E+03 -0.27911466939E+03  0.39890994495E+03  0.50400001928E-02 0. -1.
</event>
<event>
 5   0  0.1332555E-02  0.5993354E+03  0.7818609E-02  0.9906786E-01
        1   -1    0    0  501    0  0.00000000000E+00  0.00000000000E+00  0.16976235093E+03  0.16976235100E+03  0.50400001928E-02 0. -1.
       -1   -1    0    0    0  501  0.00000000000E+00  0.00000000000E+00 -0.52897915297E+03  0.52897915299E+03  0.50400001928E-02 0.  1.
    10030    2    1    2    0    0  0.00000000000E+00  0.00000000000E+00 -0.35921680204E+03  0.69874150400E+03  0.59933544742E+03 0.  0.
        2    1    3    3  502    0 -0.93796136559E+02  0.20664721736E+03  0.48554861723E+02  0.23207404482E+03  0.25500000920E-02 0. -1.
       -2    1    3    3    0  502  0.93796136559E+02 -0.20664721736E+03 -0.40777166376E+03  0.46666745917E+03  0.25500000920E-02 0.  1.
</event>
<event>
 5   0  0.2142838E-02  0.5991278E+03  0.7818609E-02  0.9907217E-01
       -2   -1    0    0    0  501  0.00000000000E+00  0.00000000000E+00  0.16561701214E+03  0.16561701216E+03  0.25500000920E-02 0.  1.
        2   -1    0    0  501    0  0.00000000000E+00  0.00000000000E+00 -0.54184376001E+03  0.54184376002E+03  0.25500000920E-02 0. -1.
    10030    2    1    2    0    0  0.00000000000E+00  0.00000000000E+00 -0.37622674787E+03  0.70746077218E+03  0.59912784809E+03 0.  0.
        4    1    3    3  502    0  0.17345803316E+03  0.23796843759E+03 -0.25300750051E+03  0.38824100089E+03  0.12699999809E+01 0. -1.
       -4    1    3    3    0  502 -0.17345803316E+03 -0.23796843759E+03 -0.12321924736E+03  0.31921977129E+03  0.12699999809E+01 0.  1.
</event>
<event>
 5   0  0.1250390E-02  0.5989601E+03  0.7818609E-02  0.9907566E-01
        1   -1    0    0  501    0  0.00000000000E+00  0.00000000000E+00  0.52898278728E+03  0.52898278730E+03  0.50400001928E-02 0. -1.
       -1   -1    0    0    0  501  0.00000000000E+00  0.00000000000E+00 -0.16954864383E+03  0.16954864391E+03  0.50400001928E-02 0.  1.
    10030    2    1    2    0    0  0.00000000000E+00  0.00000000000E+00  0.35943414345E+03  0.69853143121E+03  0.59896014634E+03 0.  0.
        3    1    3    3  502    0 -0.10174844092E+03 -0.17317216361E+02  0.50758550362E+03  0.51797266810E+03  0.10100000352E+00 0. -1.
       -3    1    3    3    0  502  0.10174844092E+03  0.17317216361E+02 -0.14815136017E+03  0.18055876311E+03  0.10100000352E+00 0.  1.
</event>
<event>
 5   0  0.1337051E-02  0.6009990E+03  0.7818609E-02  0.9903336E-01
       -1   -1    0    0    0  501  0.00000000000E+00  0.00000000000E+00  0.18564727276E+03  0.18564727283E+03  0.50400001928E-02 0. -1.
        1   -1    0    0  501    0  0.00000000000E+00  0.00000000000E+00 -0.48640595568E+03  0.48640595571E+03  0.50400001928E-02 0.  1.
    10030    2    1    2    0    0  0.00000000000E+00  0.00000000000E+00 -0.30075868292E+03  0.67205322854E+03  0.60099896558E+03 0.  0.
        5    1    3    3  502    0  0.18494859481E+03 -0.17796821175E+03 -0.32504904412E+03  0.41419516921E+03  0.46999998093E+01 0.  1.
       -5    1    3    3    0  502 -0.18494859481E+03  0.17796821175E+03  0.24290361197E+02  0.25785805933E+03  0.46999998093E+01 0. -1.
</event>
<event>
 5   0  0.1332555E-02  0.6073143E+03  0.7818609E-02  0.9890346E-01
        1   -1    0    0  501    0  0.00000000000E+00  0.00000000000E+00  0.28297143570E+03  0.28297143574E+03  0.50400001928E-02 0.  1.
       -1   -1    0    0    0  501  0.00000000000E+00  0.00000000000E+00 -0.32585498471E+03  0.32585498475E+03  0.50400001928E-02 0. -1.
    10030    2    1    2    0    0  0.00000000000E+00  0.00000000000E+00 -0.42883549011E+02  0.60882642049E+03  0.60731426092E+03 0.  0.
        2    1    3    3  502    0  0.28715025448E+03 -0.97684614974E+02 -0.69108494382E+01  0.30338970401E+03  0.25500000920E-02 0.  1.
       -2    1    3    3    0  502 -0.28715025448E+03  0.97684614974E+02 -0.35972699573E+02  0.30543671648E+03  0.25500000920E-02 0. -1.
</event>
<event>
 5   0  0.2141800E-02  0.5997500E+03  0.7818609E-02  0.9905925E-01
       -2   -1    0    0    0  501  0.00000000000E+00  0.00000000000E+00  0.75593300599E+02  0.75593300642E+02  0.25500000920E-02 0.  1.
        2   -1    0    0  501    0  0.00000000000E+00  0.00000000000E+00 -0.11895897711E+04  0.11895897711E+04  0.25500000920E-02 0. -1.
    10030    2    1    2    0    0  0.00000000000E+00  0.00000000000E+00 -0.11139964705E+04  0.12651830717E+04  0.59975000519E+03 0.  0.
        2    1    3    3  502    0 -0.27887752867E+03 -0.29442690129E+02 -0.33289768575E+03  0.43527051035E+03  0.25500000920E-02 0.  1.
       -2    1    3    3    0  502  0.27887752867E+03  0.29442690129E+02 -0.78109878472E+03  0.82991256136E+03  0.25500000920E-02 0. -1.
</event>
<event>
 5   0  0.8551000E-03  0.6004815E+03  0.7818609E-02  0.9904408E-01
       -3   -1    0    0    0  501  0.00000000000E+00  0.00000000000E+00  0.13781280709E+03  0.13781284410E+03  0.10100000352E+00 0. -1.
        3   -1    0    0  501    0  0.00000000000E+00  0.00000000000E+00 -0.65410823388E+03  0.65410824168E+03  0.10100000352E+00 0.  1.
    10030    2    1    2    0    0  0.00000000000E+00  0.00000000000E+00 -0.51629542679E+03  0.79192108578E+03  0.60048150544E+03 0.  0.
        4    1    3    3  502    0 -0.28441012298E+03  0.39939734953E+02 -0.37356127868E+03  0.47120477747E+03  0.12699999809E+01 0.  1.
       -4    1    3    3    0  502  0.28441012298E+03 -0.39939734953E+02 -0.14273414811E+03  0.32071630831E+03  0.12699999809E+01 0. -1.
</event>
<event>
 5   0  0.2142838E-02  0.6024477E+03  0.7818609E-02  0.9900341E-01
        2   -1    0    0  501    0  0.00000000000E+00  0.00000000000E+00  0.66794897668E+03  0.66794897669E+03  0.25500000920E-02 0.  1.
       -2   -1    0    0    0  501  0.00000000000E+00  0.00000000000E+00 -0.13584242735E+03  0.13584242737E+03  0.25500000920E-02 0. -1.
    10030    2    1    2    0    0  0.00000000000E+00  0.00000000000E+00  0.53210654934E+03  0.80379140406E+03  0.60244770843E+03 0.  0.
        4    1    3    3  502    0 -0.45884197998E+02  0.34433439431E+00 -0.13114855231E+03  0.13894975302E+03  0.12699999809E+01 0. -1.
       -4    1    3    3    0  502  0.45884197998E+02 -0.34433439431E+00  0.66325510165E+03  0.66484165104E+03  0.12699999809E+01 0.  1.
</event>
<event>
 5   0  0.2142838E-02  0.6065374E+03  0.7818609E-02  0.9891935E-01
        2   -1    0    0  501    0  0.00000000000E+00  0.00000000000E+00  0.15610497427E+04  0.15610497427E+04  0.25500000920E-02 0. -1.
       -2   -1    0    0    0  501  0.00000000000E+00  0.00000000000E+00 -0.58916707449E+02  0.58916707504E+02  0.25500000920E-02 0.  1.
    10030    2    1    2    0    0  0.00000000000E+00  0.00000000000E+00  0.15021330353E+04  0.16199664502E+04  0.60653742193E+03 0.  0.
        4    1    3    3  502    0  0.11542802538E+03  0.22142715720E+03  0.29142777388E+03  0.38377776809E+03  0.12699999809E+01 0.  1.
       -4    1    3    3    0  502 -0.11542802538E+03 -0.22142715720E+03  0.12107052614E+04  0.12361886821E+04  0.12699999809E+01 0. -1.
</event>
<event>
 5   0  0.1303808E-02  0.6000453E+03  0.7818609E-02  0.9905312E-01
       -1   -1    0    0    0  501  0.00000000000E+00  0.00000000000E+00  0.74923967750E+02  0.74923967919E+02  0.50400001928E-02 0.  1.
        1   -1    0    0  501    0  0.00000000000E+00  0.00000000000E+00 -0.12013992020E+04  0.12013992020E+04  0.50400001928E-02 0. -1.
    10030    2    1    2    0    0  0.00000000000E+00  0.00000000000E+00 -0.11264752342E+04  0.12763231699E+04  0.60004531554E+03 0.  0.
        4    1    3    3  502    0  0.18570517371E+03  0.63837694101E+02 -0.80767252918E+02  0.21233611275E+03  0.12699999809E+01 0.  1.
       -4    1    3    3    0  502 -0.18570517371E+03 -0.63837694101E+02 -0.10457079813E+04  0.10639870571E+04  0.12699999809E+01 0. -1.
</event>
<event>
 5   0  0.2141800E-02  0.5994618E+03  0.7818609E-02  0.9906523E-01
       -2   -1    0    0    0  501  0.00000000000E+00  0.00000000000E+00  0.20920425571E+03  0.20920425573E+03  0.25500000920E-02 0.  1.
        2   -1    0    0  501    0  0.00000000000E+00  0.00000000000E+00 -0.42943006980E+03  0.42943006981E+03  0.25500000920E-02 0. -1.
    10030    2    1    2    0    0  0.00000000000E+00  0.00000000000E+00 -0.22022581409E+03  0.63863432554E+03  0.59946175238E+03 0.  0.
        2    1    3    3  502    0  0.25996345839E+03  0.75788284815E+02 -0.24701605208E+03  0.36652666179E+03  0.25500000920E-02 0. -1.
       -2    1    3    3    0  502 -0.25996345839E+03 -0.75788284815E+02  0.26790237987E+02  0.27210766375E+03  0.25500000920E-02 0.  1.
</event>
<event>
 5   0  0.8551000E-03  0.6004483E+03  0.7818609E-02  0.9904476E-01
        3   -1    0    0  501    0  0.00000000000E+00  0.00000000000E+00  0.88706943689E+03  0.88706944264E+03  0.10100000352E+00 0.  1.
       -3   -1    0    0    0  501  0.00000000000E+00  0.00000000000E+00 -0.10160930209E+03  0.10160935229E+03  0.10100000352E+00 0. -1.
    10030    2    1    2    0    0  0.00000000000E+00  0.00000000000E+00  0.78546013480E+03  0.98867879493E+03  0.60044827936E+03 0.  0.
        1    1    3    3  502    0 -0.20477055407E+03  0.69895397868E+02  0.50029555135E+02  0.22207949674E+03  0.50400001928E-02 0. -1.
       -1    1    3    3    0  502  0.20477055407E+03 -0.69895397868E+02  0.73543057966E+03  0.76659929819E+03  0.50400001928E-02 0.  1.
</event>
<event>
 5   0  0.2142838E-02  0.6041266E+03  0.7818609E-02  0.9896881E-01
        2   -1    0    0  501    0  0.00000000000E+00  0.00000000000E+00  0.24560775302E+04  0.24560775302E+04  0.25500000920E-02 0. -1.
       -2   -1    0    0    0  501  0.00000000000E+00  0.00000000000E+00 -0.37149578897E+02  0.37149578984E+02  0.25500000920E-02 0.  1.
    10030    2    1    2    0    0  0.00000000000E+00  0.00000000000E+00  0.24189279513E+04  0.24932271092E+04  0.60412662943E+03 0.  0.
        4    1    3    3  502    0 -0.42265105296E+02  0.20242282587E+03  0.30078181389E+03  0.36501048207E+03  0.12699999809E+01 0.  1.
       -4    1    3    3    0  502  0.42265105296E+02 -0.20242282587E+03  0.21181461374E+04  0.21282166271E+04  0.12699999809E+01 0. -1.
</event>
<event>
 5   0  0.2126207E-02  0.5975146E+03  0.7818609E-02  0.9910576E-01
        2   -1    0    0  501    0  0.00000000000E+00  0.00000000000E+00  0.12532254948E+04  0.12532254948E+04  0.25500000920E-02 0. -1.
       -2   -1    0    0    0  501  0.00000000000E+00  0.00000000000E+00 -0.71220953705E+02  0.71220953751E+02  0.25500000920E-02 0.  1.
    10030    2    1    2    0    0  0.00000000000E+00  0.00000000000E+00  0.11820045411E+04  0.13244464486E+04  0.59751456880E+03 0.  0.
        5    1    3    3  502    0 -0.65180889808E+01  0.26375408772E+03  0.90152405459E+03  0.93934893159E+03  0.46999998093E+01 0. -1.
       -5    1    3    3    0  502  0.65180889808E+01 -0.26375408772E+03  0.28048048654E+03  0.38509751700E+03  0.46999998093E+01 0.  1.
</event>
<event>
 5   0  0.8551000E-03  0.6031983E+03  0.7818609E-02  0.9898793E-01
       -4   -1    0    0    0  501  0.00000000000E+00  0.00000000000E+00  0.37762839757E+03  0.37763053312E+03  0.12699999809E+01 0. -1.
        4   -1    0    0  501    0  0.00000000000E+00  0.00000000000E+00 -0.24087262222E+03  0.24087597023E+03  0.12699999809E+01 0.  1.
    10030    2    1    2    0    0  0.00000000000E+00  0.00000000000E+00  0.13675577535E+03  0.61850650335E+03  0.60319826972E+03 0.  0.
        4    1    3    3  502    0 -0.17302154370E+03 -0.21334582973E+03  0.19606746953E+03  0.33748624143E+03  0.12699999809E+01 0. -1.
       -4    1    3    3    0  502  0.17302154370E+03  0.21334582973E+03 -0.59311694183E+02  0.28102026192E+03  0.12699999809E+01 0.  1.
</event>
<event>
 5   0  0.2126207E-02  0.5890483E+03  0.7818609E-02  0.9928392E-01
       -2   -1    0    0    0  501  0.00000000000E+00  0.00000000000E+00  0.82319906698E+02  0.82319906737E+02  0.25500000920E-02 0. -1.
        2   -1    0    0  501    0  0.00000000000E+00  0.00000000000E+00 -0.10537483105E+04  0.10537483105E+04  0.25500000920E-02 0.  1.
    10030    2    1    2    0    0  0.00000000000E+00  0.00000000000E+00 -0.97142840384E+03  0.11360682173E+04  0.58904825823E+03 0.  0.
        5    1    3    3  502    0  0.23885615606E+03 -0.23979914853E+02 -0.81468947780E+03  0.84933405374E+03  0.46999998093E+01 0.  1.
       -5    1    3    3    0  502 -0.23885615606E+03  0.23979914853E+02 -0.15673892604E+03  0.28673416354E+03  0.46999998093E+01 0. -1.
</event>
<event>
 5   0  0.1337051E-02  0.5972110E+03  0.7818609E-02  0.9911209E-01
       -1   -1    0    0    0  501  0.00000000000E+00  0.00000000000E+00  0.15265412058E+03  0.15265412066E+03  0.50400001928E-02 0.  1.
        1   -1    0    0  501    0  0.00000000000E+00  0.00000000000E+00 -0.58409983814E+03  0.58409983816E+03  0.50400001928E-02 0. -1.
    10030    2    1    2    0    0  0.00000000000E+00  0.00000000000E+00 -0.43144571756E+03  0.73675395882E+03  0.59721100847E+03 0.  0.
        5    1    3    3  502    0  0.16266761021E+02  0.12877347238E+03 -0.54742756659E+03  0.56262442656E+03  0.46999998093E+01 0. -1.
       -5    1    3    3    0  502 -0.16266761021E+02 -0.12877347238E+03  0.11598184903E+03  0.17412953226E+03  0.46999998093E+01 0.  1.
</event>
<event>
 5   0  0.1332555E-02  0.6073358E+03  0.7818609E-02  0.9890302E-01
        1   -1    0    0  501    0  0.00000000000E+00  0.00000000000E+00  0.13823959200E+03  0.13823959209E+03  0.50400001928E-02 0.  1.
       -1   -1    0    0    0  501  0.00000000000E+00  0.00000000000E+00 -0.66706060525E+03  0.66706060527E+03  0.50400001928E-02 0. -1.
    10030    2    1    2    0    0  0.00000000000E+00  0.00000000000E+00 -0.52882101325E+03  0.80530019736E+03  0.60733577518E+03 0.  0.
        2    1    3    3  502    0  0.97372043350E+02 -0.27864886257E+02 -0.64400545931E+03  0.65192085282E+03  0.25500000920E-02 0. -1.
       -2    1    3    3    0  502 -0.97372043350E+02  0.27864886257E+02  0.11518444606E+03  0.15337934454E+03  0.25500000920E-02 0.  1.
</event>
<event>
 5   0  0.2179625E-02  0.5987273E+03  0.7818609E-02  0.9908050E-01
        2   -1    0    0  501    0  0.00000000000E+00  0.00000000000E+00  0.36021270590E+03  0.36021270591E+03  0.25500000920E-02 0. -1.
       -2   -1    0    0    0  501  0.00000000000E+00  0.00000000000E+00 -0.24879355758E+03  0.24879355759E+03  0.25500000920E-02 0.  1.
    10030    2    1    2    0    0  0.00000000000E+00  0.00000000000E+00  0.11141914832E+03  0.60900626350E+03  0.59872731888E+03 0.  0.
        1    1    3    3  502    0  0.20928816660E+03  0.17315215769E+03 -0.72289587074E+02  0.28108537994E+03  0.50400001928E-02 0.  1.
       -1    1    3    3    0  502 -0.20928816660E+03 -0.17315215769E+03  0.18370873540E+03  0.32792088356E+03  0.50400001928E-02 0. -1.
</event>
<event>
 5   0  0.1303808E-02  0.6018998E+03  0.7818609E-02  0.9901472E-01
       -1   -1    0    0    0  501  0.00000000000E+00  0.00000000000E+00  0.42582527400E+02  0.42582527698E+02  0.50400001928E-02 0. -1.
        1   -1    0    0  501    0  0.00000000000E+00  0.00000000000E+00 -0.21269483910E+04  0.21269483910E+04  0.50400001928E-02 0.  1.
    10030    2    1    2    0    0  0.00000000000E+00  0.00000000000E+00 -0.20843658636E+04  0.21695309187E+04  0.60189978724E+03 0.  0.
        4    1    3    3  502    0  0.73483781967E+02  0.20191513421E+03 -0.18016892102E+04  0.18144572772E+04  0.12699999809E+01 0.  1.
       -4    1    3    3    0  502 -0.73483781967E+02 -0.20191513421E+03 -0.28267665340E+03  0.35507364153E+03  0.12699999809E+01 0. -1.
</event>
<event>
 5   0  0.2092587E-02  0.5984302E+03  0.7818609E-02  0.9908668E-01
        2   -1    0    0  501    0  0.00000000000E+00  0.00000000000E+00  0.17191433132E+04  0.17191433132E+04  0.25500000920E-02 0.  1.
       -2   -1    0    0    0  501  0.00000000000E+00  0.00000000000E+00 -0.52078073408E+02  0.52078073471E+02  0.25500000920E-02 0. -1.
    10030    2    1    2    0    0  0.00000000000E+00  0.00000000000E+00  0.16670652398E+04  0.17712213867E+04  0.59843018547E+03 0.  0.
        3    1    3    3  502    0  0.18532912024E+03 -0.17748331167E+03  0.12890161689E+04  0.13143096677E+04  0.10100000352E+00 0. -1.
       -3    1    3    3    0  502 -0.18532912024E+03  0.17748331167E+03  0.37804907090E+03  0.45691171898E+03  0.10100000352E+00 0.  1.
</event>
<event>
 5   0  0.1250390E-02  0.5943507E+03  0.7818609E-02  0.9917196E-01
       -1   -1    0    0    0  501  0.00000000000E+00  0.00000000000E+00  0.16536018196E+03  0.16536018204E+03  0.50400001928E-02 0. -1.
        1   -1    0    0  501    0  0.00000000000E+00  0.00000000000E+00 -0.53406555811E+03  0.53406555813E+03  0.50400001928E-02 0.  1.
    10030    2    1    2    0    0  0.00000000000E+00  0.00000000000E+00 -0.36870537615E+03  0.69942574018E+03  0.59435066385E+03 0.  0.
        3    1    3    3  502    0  0.13525486319E+03 -0.74666196863E+02 -0.48309101307E+03  0.50719410099E+03  0.10100000352E+00 0.  1.
       -3    1    3    3    0  502 -0.13525486319E+03  0.74666196863E+02  0.11438563692E+03  0.19223163919E+03  0.10100000352E+00 0. -1.
</event>
<event>
 5   0  0.1250390E-02  0.6021446E+03  0.7818609E-02  0.9900967E-01
       -1   -1    0    0    0  501  0.00000000000E+00  0.00000000000E+00  0.82040736130E+02  0.82040736285E+02  0.50400001928E-02 0. -1.
        1   -1    0    0  501    0  0.00000000000E+00  0.00000000000E+00 -0.11048721490E+04  0.11048721490E+04  0.50400001928E-02 0.  1.
    10030    2    1    2    0    0  0.00000000000E+00  0.00000000000E+00 -0.10228314129E+04  0.11869128853E+04  0.60214458241E+03 0.  0.
        3    1    3    3  502    0  0.26223533999E+03  0.80874898928E+02 -0.26730903165E+03  0.38309561655E+03  0.10100000352E+00 0. -1.
       -3    1    3    3    0  502 -0.26223533999E+03 -0.80874898928E+02 -0.75552238122E+03  0.80381726875E+03  0.10100000352E+00 0.  1.
</event>
<event>
 5   0  0.1337051E-02  0.6167556E+03  0.7818609E-02  0.9871241E-01
       -1   -1    0    0    0  501  0.00000000000E+00  0.00000000000E+00  0.24782855096E+03  0.24782855101E+03  0.50400001928E-02 0. -1.
        1   -1    0    0  501    0  0.00000000000E+00  0.00000000000E+00 -0.38372039940E+03  0.38372039943E+03  0.50400001928E-02 0.  1.
    10030    2    1    2    0    0  0.00000000000E+00  0.00000000000E+00 -0.13589184844E+03  0.63154895044E+03  0.61675560989E+03 0.  0.
        5    1    3    3  502    0  0.23669715804E+03 -0.33199421312E+02  0.13152648344E+03  0.27285353588E+03  0.46999998093E+01 0.  1.
       -5    1    3    3    0  502 -0.23669715804E+03  0.33199421312E+02 -0.26741833188E+03  0.35869541456E+03  0.46999998093E+01 0. -1.
</event>
<event>
 5   0  0.2141800E-02  0.5939333E+03  0.7818609E-02  0.9918073E-01
       -2   -1    0    0    0  501  0.00000000000E+00  0.00000000000E+00  0.81096365741E+03  0.81096365741E+03  0.25500000920E-02 0.  1.
        2   -1    0    0  501    0  0.00000000000E+00  0.00000000000E+00 -0.10874617623E+03  0.10874617626E+03  0.25500000920E-02 0. -1.
    10030    2    1    2    0    0  0.00000000000E+00  0.00000000000E+00  0.70221748118E+03  0.91970983367E+03  0.59393331889E+03 0.  0.
        2    1    3    3  502    0  0.62190427335E+02  0.20269792784E+03  0.67309056930E+03  0.70569470289E+03  0.25500000920E-02 0.  1.
       -2    1    3    3    0  502 -0.62190427335E+02 -0.20269792784E+03  0.29126911878E+02  0.21401513078E+03  0.25500000920E-02 0. -1.
</event>
<event>
 5   0  0.2126207E-02  0.6008240E+03  0.7818609E-02  0.9903698E-01
       -2   -1    0    0    0  501  0.00000000000E+00  0.00000000000E+00  0.32169178689E+03  0.32169178690E+03  0.25500000920E-02 0.  1.
        2   -1    0    0  501    0  0.00000000000E+00  0.00000000000E+00 -0.28053985636E+03  0.28053985637E+03  0.25500000920E-02 0. -1.
    10030    2    1    2    0    0  0.00000000000E+00  0.00000000000E+00  0.41151930535E+02  0.60223164327E+03  0.60082399317E+03 0.  0.
        5    1    3    3  502    0 -0.76558017784E+02  0.15861501886E+03 -0.22331575072E+03  0.28445011656E+03  0.46999998093E+01 0. -1.
       -5    1    3    3    0  502  0.76558017784E+02 -0.15861501886E+03  0.26446768125E+03  0.31778152671E+03  0.46999998093E+01 0.  1.
</event>
<event>
 5   0  0.1303808E-02  0.6008702E+03  0.7818609E-02  0.9903602E-01
       -1   -1    0    0    0  501  0.00000000000E+00  0.00000000000E+00  0.29944928330E+03  0.29944928334E+03  0.50400001928E-02 0.  1.
        1   -1    0    0  501    0  0.00000000000E+00  0.00000000000E+00 -0.30142416641E+03  0.30142416645E+03  0.50400001928E-02 0. -1.
    10030    2    1    2    0    0  0.00000000000E+00  0.00000000000E+00 -0.19748831052E+01  0.60087344979E+03  0.60087020437E+03 0.  0.
        4    1    3    3  502    0 -0.21014162486E+02  0.26204802849E+03 -0.14641474959E+03  0.30091469897E+03  0.12699999809E+01 0. -1.
       -4    1    3    3    0  502  0.21014162486E+02 -0.26204802849E+03  0.14443986649E+03  0.29995875082E+03  0.12699999809E+01 0.  1.
</event>
<event>
 5   0  0.2142838E-02  0.6020755E+03  0.7818609E-02  0.9901109E-01
        2   -1    0    0  501    0  0.00000000000E+00  0.00000000000E+00  0.89355914577E+03  0.89355914577E+03  0.25500000920E-02 0. -1.
       -2   -1    0    0    0  501  0.00000000000E+00  0.00000000000E+00 -0.10141884075E+03  0.10141884078E+03  0.25500000920E-02 0.  1.
    10030    2    1    2    0    0  0.00000000000E+00  0.00000000000E+00  0.79214030502E+03  0.99497798656E+03  0.60207551927E+03 0.  0.
        4    1    3    3  502    0 -0.18958449694E+03 -0.14990047250E+03  0.99480665010E+02  0.26136267665E+03  0.12699999809E+01 0.  1.
       -4    1    3    3    0  502  0.18958449694E+03  0.14990047250E+03  0.69265964001E+03  0.73361530991E+03  0.12699999809E+01 0. -1.
</event>
<event>
 5   0  0.1337051E-02  0.5988201E+03  0.7818609E-02  0.9907857E-01
        1   -1    0    0  501    0  0.00000000000E+00  0.00000000000E+00  0.55759448932E+03  0.55759448934E+03  0.50400001928E-02 0. -1.
       -1   -1    0    0    0  501  0.00000000000E+00  0.00000000000E+00 -0.16077343522E+03  0.16077343530E+03  0.50400001928E-02 0.  1.
    10030    2    1    2    0    0  0.00000000000E+00  0.00000000000E+00  0.39682105411E+03  0.71836792464E+03  0.59882011169E+03 0.  0.
        5    1    3    3  502    0  0.29303121661E+03  0.60557056961E+02  0.20978121153E+03  0.36546504315E+03  0.46999998093E+01 0. -1.
       -5    1    3    3    0  502 -0.29303121661E+03 -0.60557056961E+02  0.18703984257E+03  0.35290288149E+03  0.46999998093E+01 0.  1.
</event>
<event>
 5   0  0.2141800E-02  0.6023086E+03  0.7818609E-02  0.9900628E-01
        2   -1    0    0  501    0  0.00000000000E+00  0.00000000000E+00  0.11126480621E+04  0.11126480621E+04  0.25500000920E-02 0. -1.
       -2   -1    0    0    0  501  0.00000000000E+00  0.00000000000E+00 -0.81511776304E+02  0.81511776344E+02  0.25500000920E-02 0.  1.
    10030    2    1    2    0    0  0.00000000000E+00  0.00000000000E+00  0.10311362858E+04  0.11941598385E+04  0.60230862512E+03 0.  0.
        2    1    3    3  502    0  0.28362369222E+03  0.10124953419E+03  0.51602458258E+03  0.59747404697E+03  0.25500000920E-02 0. -1.
       -2    1    3    3    0  502 -0.28362369222E+03 -0.10124953419E+03  0.51511170326E+03  0.59668579153E+03  0.25500000920E-02 0.  1.
</event>
<event>
 5   0  0.2092587E-02  0.5980968E+03  0.7818609E-02  0.9909362E-01
        2   -1    0    0  501    0  0.00000000000E+00  0.00000000000E+00  0.85054151153E+03  0.85054151153E+03  0.25500000920E-02 0. -1.
       -2   -1    0    0    0  501  0.00000000000E+00  0.00000000000E+00 -0.10514472431E+03  0.10514472434E+03  0.25500000920E-02 0.  1.
    10030    2    1    2    0    0  0.00000000000E+00  0.00000000000E+00  0.74539678722E+03  0.95568623588E+03  0.59809682415E+03 0.  0.
        3    1    3    3  502    0 -0.26537415884E+03 -0.40503518389E+02  0.58326683149E+03  0.64207802181E+03  0.10100000352E+00 0. -1.
       -3    1    3    3    0  502  0.26537415884E+03  0.40503518389E+02  0.16212995573E+03  0.31360821407E+03  0.10100000352E+00 0.  1.
</event>
<event>
 5   0  0.1332555E-02  0.6003987E+03  0.7818609E-02  0.9904579E-01
        1   -1    0    0  501    0  0.00000000000E+00  0.00000000000E+00  0.11382475800E+04  0.11382475800E+04  0.50400001928E-02 0. -1.
       -1   -1    0    0    0  501  0.00000000000E+00  0.00000000000E+00 -0.79174019393E+02  0.79174019553E+02  0.50400001928E-02 0.  1.
    10030    2    1    2    0    0  0.00000000000E+00  0.00000000000E+00  0.10590735606E+04  0.12174215996E+04  0.60039865449E+03 0.  0.
        2    1    3    3  502    0  0.14712399589E+03  0.53635119424E+02  0.10205194170E+02  0.15692782480E+03  0.25500000920E-02 0.  1.
       -2    1    3    3    0  502 -0.14712399589E+03 -0.53635119424E+02  0.10488683665E+04  0.10604937748E+04  0.25500000920E-02 0. -1.
</event>
<event>
 5   0  0.1337051E-02  0.5947212E+03  0.7818609E-02  0.9916419E-01
       -1   -1    0    0    0  501  0.00000000000E+00  0.00000000000E+00  0.94276482724E+02  0.94276482858E+02  0.50400001928E-02 0.  1.
        1   -1    0    0  501    0  0.00000000000E+00  0.00000000000E+00 -0.93791501856E+03  0.93791501857E+03  0.50400001928E-02 0. -1.
    10030    2    1    2    0    0  0.00000000000E+00  0.00000000000E+00 -0.84363853583E+03  0.10321915014E+04  0.59472120904E+03 0.  0.
        5    1    3    3  502    0  0.80921744498E+02 -0.27088780885E+03 -0.26206300033E+03  0.38552255428E+03  0.46999998093E+01 0.  1.
       -5    1    3    3    0  502 -0.80921744498E+02  0.27088780885E+03 -0.58157553550E+03  0.64666894715E+03  0.46999998093E+01 0. -1.
</event>
<event>
 5   0  0.2092587E-02  0.6010307E+03  0.7818609E-02  0.9903270E-01
        2   -1    0    0  501    0  0.00000000000E+00  0.00000000000E+00  0.25026651748E+04  0.25026651748E+04  0.25500000920E-02 0. -1.
       -2   -1    0    0    0  501  0.00000000000E+00  0.00000000000E+00 -0.36085322976E+02  0.36085323066E+02  0.25500000920E-02 0.  1.
    10030    2    1    2    0    0  0.00000000000E+00  0.00000000000E+00  0.24665798518E+04  0.25387504979E+04  0.60103071885E+03 0.  0.
        3    1    3    3  502    0 -0.29428191758E+03 -0.53425636835E+02  0.13566801291E+04  0.13892577617E+04  0.10100000352E+00 0.  1.
       -3    1    3    3    0  502  0.29428191758E+03  0.53425636835E+02  0.11098997228E+04  0.11494927362E+04  0.10100000352E+00 0. -1.
</event>
<event>
 5   0  0.2092587E-02  0.6003380E+03  0.7818609E-02  0.9904705E-01
        2   -1    0    0  501    0  0.00000000000E+00  0.00000000000E+00  0.30889244312E+03  0.30889244313E+03  0.25500000920E-02 0. -1.
       -2   -1    0    0    0  501  0.00000000000E+00  0.00000000000E+00 -0.29169192256E+03  0.29169192257E+03  0.25500000920E-02 0.  1.
    10030    2    1    2    0    0  0.00000000000E+00  0.00000000000E+00  0.17200520559E+02  0.60058436570E+03  0.60033800681E+03 0.  0.
        3    1    3    3  502    0 -0.11403099355E+03 -0.60695437841E+01  0.28631373408E+03  0.30824579701E+03  0.10100000352E+00 0. -1.
       -3    1    3    3    0  502  0.11403099355E+03  0.60695437841E+01 -0.26911321352E+03  0.29233856869E+03  0.10100000352E+00 0.  1.
</event>
<event>
 5   0  0.2141800E-02  0.5999735E+03  0.7818609E-02  0.9905461E-01
       -2   -1    0    0    0  501  0.00000000000E+00  0.00000000000E+00  0.17859184940E+03  0.17859184942E+03  0.25500000920E-02 0.  1.
        2   -1    0    0  501    0  0.00000000000E+00  0.00000000000E+00 -0.50389788016E+03  0.50389788017E+03  0.25500000920E-02 0. -1.
    10030    2    1    2    0    0  0.00000000000E+00  0.00000000000E+00 -0.32530603076E+03  0.68248972959E+03  0.59997351387E+03 0.  0.
        2    1    3    3  502    0  0.44456914295E+02 -0.25243889173E+03 -0.33994127300E+03  0.42574861172E+03  0.25500000920E-02 0. -1.
       -2    1    3    3    0  502 -0.44456914295E+02  0.25243889173E+03  0.14635242233E+02  0.25674111787E+03  0.25500000920E-02 0.  1.
</event>
<event>
 5   0  0.1276705E-02  0.5992381E+03  0.7818609E-02  0.9906988E-01
        1   -1    0    0  501    0  0.00000000000E+00  0.00000000000E+00  0.81729116245E+03  0.81729116246E+03  0.50400001928E-02 0. -1.
       -1   -1    0    0    0  501  0.00000000000E+00  0.00000000000E+00 -0.10984038397E+03  0.10984038409E+03  0.50400001928E-02 0.  1.
    10030    2    1    2    0    0  0.00000000000E+00  0.00000000000E+00  0.70745077847E+03  0.92713154656E+03  0.59923810014E+03 0.  0.
        1    1    3    3  502    0  0.17737234654E+03  0.23489744298E+03  0.44033752805E+03  0.52965545090E+03  0.50400001928E-02 0.  1.
       -1    1    3    3    0  502 -0.17737234654E+03 -0.23489744298E+03  0.26711325042E+03  0.39747609565E+03  0.50400001928E-02 0. -1.
</event>
<event>
 5   0  0.2142838E-02  0.5997937E+03  0.7818609E-02  0.9905834E-01
       -2   -1    0    0    0  501  0.00000000000E+00  0.00000000000E+00  0.94673498491E+02  0.94673498525E+02  0.25500000920E-02 0.  1.
        2   -1    0    0  501    0  0.00000000000E+00  0.00000000000E+00 -0.94998197606E+03  0.94998197607E+03  0.25500000920E-02 0. -1.
    10030    2    1    2    0    0  0.00000000000E+00  0.00000000000E+00 -0.85530847757E+03  0.10446554746E+04  0.59979368852E+03 0.  0.
        4    1    3    3  502    0  0.26423052457E+03  0.80929852110E+02 -0.63053768167E+03  0.68843793619E+03  0.12699999809E+01 0. -1.
       -4    1    3    3    0  502 -0.26423052457E+03 -0.80929852110E+02 -0.22477079590E+03  0.35621753840E+03  0.12699999809E+01 0.  1.
</event>
<event>
 5   0  0.2092587E-02  0.6063785E+03  0.7818609E-02  0.9892260E-01
       -2   -1    0    0    0  501  0.00000000000E+00  0.00000000000E+00  0.69359752052E+02  0.69359752099E+02  0.25500000920E-02 0.  1.
        2   -1    0    0  501    0  0.00000000000E+00  0.00000000000E+00 -0.13253178044E+04  0.13253178044E+04  0.25500000920E-02 0. -1.
    10030    2    1    2    0    0  0.00000000000E+00  0.00000000000E+00 -0.12559580523E+04  0.13946775565E+04  0.60637847698E+03 0.  0.
        3    1    3    3  502    0  0.22475964708E+03 -0.69662700201E+02 -0.18823801220E+03  0.30133594241E+03  0.10100000352E+00 0.  1.
       -3    1    3    3    0  502 -0.22475964708E+03  0.69662700201E+02 -0.10677200401E+04  0.10933416141E+04  0.10100000352E+00 0. -1.
</event>
<event>
 5   0  0.8551000E-03  0.6003828E+03  0.7818609E-02  0.9904612E-01
       -4   -1    0    0    0  501  0.00000000000E+00  0.00000000000E+00  0.38579510051E+03  0.38579719087E+03  0.12699999809E+01 0. -1.
        4   -1    0    0  501    0  0.00000000000E+00  0.00000000000E+00 -0.23357779769E+03  0.23358125027E+03  0.12699999809E+01 0.  1.
    10030    2    1    2    0    0  0.00000000000E+00  0.00000000000E+00  0.15221730282E+03  0.61937844113E+03  0.60038283292E+03 0.  0.
        3    1    3    3  502    0  0.31480974315E+02  0.14557952600E+03 -0.19277227054E+03  0.24360954133E+03  0.10100000352E+00 0.  1.
       -3    1    3    3    0  502 -0.31480974315E+02 -0.14557952600E+03  0.34498957336E+03  0.37576889981E+03  0.10100000352E+00 0. -1.
</event>
<event>
 5   0  0.1276705E-02  0.5991002E+03  0.7818609E-02  0.9907275E-01
       -1   -1    0    0    0  501  0.00000000000E+00  0.00000000000E+00  0.52833077471E+03  0.52833077473E+03  0.50400001928E-02 0. -1.
        1   -1    0    0  501    0  0.00000000000E+00  0.00000000000E+00 -0.16983729211E+03  0.16983729219E+03  0.50400001928E-02 0.  1.
    10030    2    1    2    0    0  0.00000000000E+00  0.00000000000E+00  0.35849348260E+03  0.69816806692E+03  0.59910021916E+03 0.  0.
        1    1    3    3  502    0  0.62324086539E+02  0.28460611432E+03  0.26036571627E+03  0.39073678904E+03  0.50400001928E-02 0. -1.
       -1    1    3    3    0  502 -0.62324086539E+02 -0.28460611432E+03  0.98127766324E+02  0.30743127788E+03  0.50400001928E-02 0.  1.
</event>
<event>
 5   0  0.2179625E-02  0.6021915E+03  0.7818609E-02  0.9900870E-01
       -2   -1    0    0    0  501  0.00000000000E+00  0.00000000000E+00  0.49325494358E+03  0.49325494359E+03  0.25500000920E-02 0. -1.
        2   -1    0    0  501    0  0.00000000000E+00  0.00000000000E+00 -0.18379676792E+03  0.18379676794E+03  0.25500000920E-02 0.  1.
    10030    2    1    2    0    0  0.00000000000E+00  0.00000000000E+00  0.30945817566E+03  0.67705171153E+03  0.60219154561E+03 0.  0.
        1    1    3    3  502    0  0.55551156491E+02 -0.29335640870E+03  0.11097105496E+03  0.31852549126E+03  0.50400001928E-02 0.  1.
       -1    1    3    3    0  502 -0.55551156491E+02  0.29335640870E+03  0.19848712070E+03  0.35852622027E+03  0.50400001928E-02 0. -1.
</event>
<event>
 5   0  0.1337051E-02  0.6014594E+03  0.7818609E-02  0.9902383E-01
       -1   -1    0    0    0  501  0.00000000000E+00  0.00000000000E+00  0.12794900984E+03  0.12794900994E+03  0.50400001928E-02 0.  1.
        1   -1    0    0  501    0  0.00000000000E+00  0.00000000000E+00 -0.70683118128E+03  0.70683118130E+03  0.50400001928E-02 0. -1.
    10030    2    1    2    0    0  0.00000000000E+00  0.00000000000E+00 -0.57888217144E+03  0.83478019124E+03  0.60145939121E+03 0.  0.
        5    1    3    3  502    0  0.18113606607E+03  0.12082554520E+03 -0.16109432405E+01  0.21779295660E+03  0.46999998093E+01 0.  1.
       -5    1    3    3    0  502 -0.18113606607E+03 -0.12082554520E+03 -0.57727122820E+03  0.61698723465E+03  0.46999998093E+01 0. -1.
</event>
<event>
 5   0  0.1303808E-02  0.5976320E+03  0.7818609E-02  0.9910331E-01
       -1   -1    0    0    0  501  0.00000000000E+00  0.00000000000E+00  0.16686304238E+03  0.16686304245E+03  0.50400001928E-02 0. -1.
        1   -1    0    0  501    0  0.00000000000E+00  0.00000000000E+00 -0.53511558350E+03  0.53511558352E+03  0.50400001928E-02 0.  1.
    10030    2    1    2    0    0  0.00000000000E+00  0.00000000000E+00 -0.36825254112E+03  0.70197862597E+03  0.59763204171E+03 0.  0.
        4    1    3    3  502    0 -0.52613520434E+02  0.11999556030E+02 -0.52934126426E+03  0.53208642045E+03  0.12699999809E+01 0.  1.
       -4    1    3    3    0  502  0.52613520434E+02 -0.11999556030E+02  0.16108872314E+03  0.16989220553E+03  0.12699999809E+01 0. -1.
</event>
<event>
 5   0  0.2092587E-02  0.5963523E+03  0.7818609E-02  0.9913003E-01
        2   -1    0    0  501    0  0.00000000000E+00  0.00000000000E+00  0.20634862148E+04  0.20634862148E+04  0.25500000920E-02 0.  1.
       -2   -1    0    0    0  501  0.00000000000E+00  0.00000000000E+00 -0.43086806210E+02  0.43086806285E+02  0.25500000920E-02 0. -1.
    10030    2    1    2    0    0  0.00000000000E+00  0.00000000000E+00  0.20203994086E+04  0.21065730211E+04  0.59635234798E+03 0.  0.
        3    1    3    3  502    0 -0.11272173288E+03 -0.38909169316E+02  0.44812275198E+02  0.12739019872E+03  0.10100000352E+00 0. -1.
       -3    1    3    3    0  502  0.11272173288E+03  0.38909169316E+02  0.19755871334E+04  0.19791828224E+04  0.10100000352E+00 0.  1.
</event>
<event>
 5   0  0.1303808E-02  0.5999793E+03  0.7818609E-02  0.9905449E-01
        1   -1    0    0  501    0  0.00000000000E+00  0.00000000000E+00  0.40468503074E+03  0.40468503077E+03  0.50400001928E-02 0. -1.
       -1   -1    0    0    0  501  0.00000000000E+00  0.00000000000E+00 -0.22237983254E+03  0.22237983259E+03  0.50400001928E-02 0.  1.
    10030    2    1    2    0    0  0.00000000000E+00  0.00000000000E+00  0.18230519820E+03  0.62706486336E+03  0.59997929762E+03 0.  0.
        4    1    3    3  502    0  0.28270289254E+03  0.40518159160E+02  0.18710986760E+03  0.34142987878E+03  0.12699999809E+01 0. -1.
       -4    1    3    3    0  502 -0.28270289254E+03 -0.40518159160E+02 -0.48046693974E+01  0.28563498458E+03  0.12699999809E+01 0.  1.
</event>
<event>
 5   0  0.1276705E-02  0.5992254E+03  0.7818609E-02  0.9907014E-01
        1   -1    0    0  501    0  0.00000000000E+00  0.00000000000E+00  0.68202017661E+03  0.68202017663E+03  0.50400001928E-02 0.  1.
       -1   -1    0    0    0  501  0.00000000000E+00  0.00000000000E+00 -0.13162041605E+03  0.13162041614E+03  0.50400001928E-02 0. -1.
    10030    2    1    2    0    0  0.00000000000E+00  0.00000000000E+00  0.55039976057E+03  0.81364059277E+03  0.59922543152E+03 0.  0.
        1    1    3    3  502    0 -0.13627734950E+03 -0.36964719082E+02  0.63400860666E+03  0.64954200772E+03  0.50400001928E-02 0.  1.
       -1    1    3    3    0  502  0.13627734950E+03  0.36964719082E+02 -0.83608846097E+02  0.16409858505E+03  0.50400001928E-02 0. -1.
</event>
<event>
 5   0  0.1332555E-02  0.5845962E+03  0.7818609E-02  0.9937890E-01
       -1   -1    0    0    0  501  0.00000000000E+00  0.00000000000E+00  0.92603226791E+02  0.92603226928E+02  0.50400001928E-02 0. -1.
        1   -1    0    0  501    0  0.00000000000E+00  0.00000000000E+00 -0.92262625235E+03  0.92262625237E+03  0.50400001928E-02 0.  1.
    10030    2    1    2    0    0  0.00000000000E+00  0.00000000000E+00 -0.83002302556E+03  0.10152294793E+04  0.58459616203E+03 0.  0.
        2    1    3    3  502    0  0.12853471658E+03 -0.25700614714E+03 -0.32205965452E+03  0.43161991858E+03  0.25500000920E-02 0. -1.
       -2    1    3    3    0  502 -0.12853471658E+03  0.25700614714E+03 -0.50796337104E+03  0.58360956072E+03  0.25500000920E-02 0.  1.
</event>
<event>
 5   0  0.2179625E-02  0.6016309E+03  0.7818609E-02  0.9902028E-01
        2   -1    0    0  501    0  0.00000000000E+00  0.00000000000E+00  0.19283035025E+03  0.19283035027E+03  0.25500000920E-02 0. -1.
       -2   -1    0    0    0  501  0.00000000000E+00  0.00000000000E+00 -0.46927223499E+03  0.46927223499E+03  0.25500000920E-02 0.  1.
    10030    2    1    2    0    0  0.00000000000E+00  0.00000000000E+00 -0.27644188473E+03  0.66210258526E+03  0.60163088166E+03 0.  0.
        1    1    3    3  502    0  0.21420952793E+03 -0.27414285911E+02 -0.36867966815E+03  0.42727270292E+03  0.50400001928E-02 0.  1.
       -1    1    3    3    0  502 -0.21420952793E+03  0.27414285911E+02  0.92237783414E+02  0.23482988234E+03  0.50400001928E-02 0. -1.
</event>
<event>
 5   0  0.1337051E-02  0.6018626E+03  0.7818609E-02  0.9901549E-01
       -1   -1    0    0    0  501  0.00000000000E+00  0.00000000000E+00  0.10467926570E+03  0.10467926582E+03  0.50400001928E-02 0. -1.
        1   -1    0    0  501    0  0.00000000000E+00  0.00000000000E+00 -0.86511551106E+03  0.86511551108E+03  0.50400001928E-02 0.  1.
    10030    2    1    2    0    0  0.00000000000E+00  0.00000000000E+00 -0.76043624536E+03  0.96979477690E+03  0.60186263054E+03 0.  0.
        5    1    3    3  502    0 -0.10667968229E+02  0.11420639022E+03  0.68009565528E+02  0.13343274004E+03  0.46999998093E+01 0. -1.
       -5    1    3    3    0  502  0.10667968229E+02 -0.11420639022E+03 -0.82844581089E+03  0.83636203686E+03  0.46999998093E+01 0.  1.
</event>
<event>
 5   0  0.2092587E-02  0.6088620E+03  0.7818609E-02  0.9887189E-01
        2   -1    0    0  501    0  0.00000000000E+00  0.00000000000E+00  0.66214096338E+03  0.66214096339E+03  0.25500000920E-02 0.  1.
       -2   -1    0    0    0  501  0.00000000000E+00  0.00000000000E+00 -0.13996751719E+03  0.13996751721E+03  0.25500000920E-02 0. -1.
    10030    2    1    2    0    0  0.00000000000E+00  0.00000000000E+00  0.52217344619E+03  0.80210848060E+03  0.60886197676E+03 0.  0.
        3    1    3    3  502    0  0.22729930100E+01  0.10545721830E+03  0.63729738307E+03  0.64596776704E+03  0.10100000352E+00 0.  1.
       -3    1    3    3    0  502 -0.22729930100E+01 -0.10545721830E+03 -0.11512393687E+03  0.15614071356E+03  0.10100000352E+00 0. -1.
</event>
<event>
 5   0  0.2141800E-02  0.6021204E+03  0.7818609E-02  0.9901017E-01
       -2   -1    0    0    0  501  0.00000000000E+00  0.00000000000E+00  0.39751756238E+03  0.39751756239E+03  0.25500000920E-02 0. -1.
        2   -1    0    0  501    0  0.00000000000E+00  0.00000000000E+00 -0.22800814189E+03  0.22800814190E+03  0.25500000920E-02 0.  1.
    10030    2    1    2    0    0  0.00000000000E+00  0.00000000000E+00  0.16950942049E+03  0.62552570429E+03  0.60212038921E+03 0.  0.
        2    1    3    3  502    0 -0.10762111482E+02 -0.13876206880E+03  0.36208963289E+03  0.38791704916E+03  0.25500000920E-02 0. -1.
       -2    1    3    3    0  502  0.10762111482E+02  0.13876206880E+03 -0.19258021239E+03  0.23760865513E+03  0.25500000920E-02 0.  1.
</event>
<event>
 5   0  0.2179625E-02  0.5996597E+03  0.7818609E-02  0.9906112E-01
        2   -1    0    0  501    0  0.00000000000E+00  0.00000000000E+00  0.11738569995E+03  0.11738569998E+03  0.25500000920E-02 0.  1.
       -2   -1    0    0    0  501  0.00000000000E+00  0.00000000000E+00 -0.76583377966E+03  0.76583377967E+03  0.25500000920E-02 0. -1.
    10030    2    1    2    0    0  0.00000000000E+00  0.00000000000E+00 -0.64844807971E+03  0.88321947965E+03  0.59965968444E+03 0.  0.
        1    1    3    3  502    0  0.99534142742E+02  0.17198255520E+03 -0.65492433452E+03  0.68440552952E+03  0.50400001928E-02 0.  1.
       -1    1    3    3    0  502 -0.99534142742E+02 -0.17198255520E+03  0.64762548024E+01  0.19881395013E+03  0.50400001928E-02 0. -1.
</event>
<event>
 5   0  0.2092587E-02  0.5984418E+03  0.7818609E-02  0.9908644E-01
        2   -1    0    0  501    0  0.00000000000E+00  0.00000000000E+00  0.86355165597E+03  0.86355165597E+03  0.25500000920E-02 0. -1.
       -2   -1    0    0    0  501  0.00000000000E+00  0.00000000000E+00 -0.10368011828E+03  0.10368011831E+03  0.25500000920E-02 0.  1.
    10030    2    1    2    0    0  0.00000000000E+00  0.00000000000E+00  0.75987153769E+03  0.96723177428E+03  0.59844176942E+03 0.  0.
        3    1    3    3  502    0  0.11703904917E+03  0.11775638527E+03 -0.22404847073E+02  0.16753116926E+03  0.10100000352E+00 0.  1.
       -3    1    3    3    0  502 -0.11703904917E+03 -0.11775638527E+03  0.78227638476E+03  0.79970060501E+03  0.10100000352E+00 0. -1.
</event>
<event>
 5   0  0.1276705E-02  0.5984354E+03  0.7818609E-02  0.9908658E-01
        1   -1    0    0  501    0  0.00000000000E+00  0.00000000000E+00  0.96754634823E+03  0.96754634824E+03  0.50400001928E-02 0. -1.
       -1   -1    0    0    0  501  0.00000000000E+00  0.00000000000E+00 -0.92534293456E+02  0.92534293593E+02  0.50400001928E-02 0.  1.
    10030    2    1    2    0    0  0.00000000000E+00  0.00000000000E+00  0.87501205477E+03  0.10600806418E+04  0.59843535256E+03 0.  0.
        1    1    3    3  502    0 -0.15467585883E+03 -0.23047197967E+03  0.63547178163E+03  0.69344526820E+03  0.50400001928E-02 0. -1.
       -1    1    3    3    0  502  0.15467585883E+03  0.23047197967E+03  0.23954027314E+03  0.36663537363E+03  0.50400001928E-02 0.  1.
</event>
<event>
 5   0  0.1337051E-02  0.5993318E+03  0.7818609E-02  0.9906793E-01
        1   -1    0    0  501    0  0.00000000000E+00  0.00000000000E+00  0.24389168650E+03  0.24389168655E+03  0.50400001928E-02 0.  1.
       -1   -1    0    0    0  501  0.00000000000E+00  0.00000000000E+00 -0.36819476342E+03  0.36819476346E+03  0.50400001928E-02 0. -1.
    10030    2    1    2    0    0  0.00000000000E+00  0.00000000000E+00 -0.12430307693E+03  0.61208645001E+03  0.59933176735E+03 0.  0.
        5    1    3    3  502    0 -0.24182127659E+03  0.83680941167E+02 -0.22134545246E+03  0.33837247088E+03  0.46999998093E+01 0. -1.
       -5    1    3    3    0  502  0.24182127659E+03 -0.83680941167E+02  0.97042375538E+02  0.27371397913E+03  0.46999998093E+01 0.  1.
</event>
<event>
 5   0  0.8551000E-03  0.5920931E+03  0.7818609E-02  0.9921948E-01
        3   -1    0    0  501    0  0.00000000000E+00  0.00000000000E+00  0.34909148281E+03  0.34909149742E+03  0.10100000352E+00 0. -1.
       -3   -1    0    0    0  501  0.00000000000E+00  0.00000000000E+00 -0.25106182863E+03  0.25106184895E+03  0.10100000352E+00 0.  1.
    10030    2    1    2    0    0  0.00000000000E+00  0.00000000000E+00  0.98029654180E+02  0.60015334637E+03  0.59209308902E+03 0.  0.
        2    1    3    3  502    0  0.40604677233E+02 -0.43052116015E+02 -0.24500521232E+03  0.25205114278E+03  0.25500000920E-02 0.  1.
       -2    1    3    3    0  502 -0.40604677233E+02  0.43052116015E+02  0.34303486650E+03  0.34810220359E+03  0.25500000920E-02 0. -1.
</event>
<event>
 5   0  0.2142838E-02  0.6011225E+03  0.7818609E-02  0.9903080E-01
       -2   -1    0    0    0  501  0.00000000000E+00  0.00000000000E+00  0.13996413166E+03  0.13996413168E+03  0.25500000920E-02 0.  1.
        2   -1    0    0  501    0  0.00000000000E+00  0.00000000000E+00 -0.64543014844E+03  0.64543014845E+03  0.25500000920E-02 0. -1.
    10030    2    1    2    0    0  0.00000000000E+00  0.00000000000E+00 -0.50546601678E+03  0.78539428013E+03  0.60112251758E+03 0.  0.
        4    1    3    3  502    0  0.29531008370E+03 -0.39645788829E+02 -0.30426500313E+03  0.42586223023E+03  0.12699999809E+01 0. -1.
       -4    1    3    3    0  502 -0.29531008370E+03  0.39645788829E+02 -0.20120101365E+03  0.35953204990E+03  0.12699999809E+01 0.  1.
</event>
<event>
 5   0  0.2141800E-02  0.5988514E+03  0.7818609E-02  0.9907792E-01
       -2   -1    0    0    0  501  0.00000000000E+00  0.00000000000E+00  0.90028889506E+02  0.90028889542E+02  0.25500000920E-02 0. -1.
        2   -1    0    0  501    0  0.00000000000E+00  0.00000000000E+00 -0.99585530402E+03  0.99585530402E+03  0.25500000920E-02 0.  1.
    10030    2    1    2    0    0  0.00000000000E+00  0.00000000000E+00 -0.90582641451E+03  0.10858841936E+04  0.59885139108E+03 0.  0.
        2    1    3    3  502    0  0.15642491518E+03 -0.21572411880E+03 -0.70054420270E+03  0.74951172737E+03  0.25500000920E-02 0.  1.
       -2    1    3    3    0  502 -0.15642491518E+03  0.21572411880E+03 -0.20528221182E+03  0.33637246620E+03  0.25500000920E-02 0. -1.
</event>
<event>
 5   0  0.1332555E-02  0.6002256E+03  0.7818609E-02  0.9904938E-01
       -1   -1    0    0    0  501  0.00000000000E+00  0.00000000000E+00  0.12032324712E+03  0.12032324722E+03  0.50400001928E-02 0. -1.
        1   -1    0    0  501    0  0.00000000000E+00  0.00000000000E+00 -0.74854774693E+03  0.74854774695E+03  0.50400001928E-02 0.  1.
    10030    2    1    2    0    0  0.00000000000E+00  0.00000000000E+00 -0.62822449981E+03  0.86887099417E+03  0.60022560954E+03 0.  0.
        2    1    3    3  502    0 -0.12639483745E+02  0.26726419167E+03 -0.11733911628E+03  0.29216155276E+03  0.25500000920E-02 0. -1.
       -2    1    3    3    0  502  0.12639483745E+02 -0.26726419167E+03 -0.51088538354E+03  0.57670944141E+03  0.25500000920E-02 0.  1.
</event>
<event>
 5   0  0.8551000E-03  0.6015096E+03  0.7818609E-02  0.9902279E-01
        4   -1    0    0  501    0  0.00000000000E+00  0.00000000000E+00  0.13041730074E+03  0.13042348421E+03  0.12699999809E+01 0.  1.
       -4   -1    0    0    0  501  0.00000000000E+00  0.00000000000E+00 -0.69354617252E+03  0.69354733531E+03  0.12699999809E+01 0. -1.
    10030    2    1    2    0    0  0.00000000000E+00  0.00000000000E+00 -0.56312887178E+03  0.82397081952E+03  0.60150958861E+03 0.  0.
        4    1    3    3  502    0 -0.88714698614E+02  0.84792636836E+02  0.94559673911E+02  0.15492977068E+03  0.12699999809E+01 0.  1.
       -4    1    3    3    0  502  0.88714698614E+02 -0.84792636836E+02 -0.65768854569E+03  0.66904104884E+03  0.12699999809E+01 0. -1.
</event>
<event>
 5   0  0.2179625E-02  0.6027824E+03  0.7818609E-02  0.9899650E-01
        2   -1    0    0  501    0  0.00000000000E+00  0.00000000000E+00  0.89692479768E+03  0.89692479769E+03  0.25500000920E-02 0.  1.
       -2   -1    0    0    0  501  0.00000000000E+00  0.00000000000E+00 -0.10127565311E+03  0.10127565314E+03  0.25500000920E-02 0. -1.
    10030    2    1    2    0    0  0.00000000000E+00  0.00000000000E+00  0.79564914458E+03  0.99820045082E+03  0.60278236434E+03 0.  0.
        1    1    3    3  502    0 -0.27672485238E+03  0.11650863951E+03  0.44118926020E+03  0.53366550417E+03  0.50400001928E-02 0. -1.
       -1    1    3    3    0  502  0.27672485238E+03 -0.11650863951E+03  0.35445988438E+03  0.46453494665E+03  0.50400001928E-02 0.  1.
</event>
<event>
 5   0  0.1303808E-02  0.6010010E+03  0.7818609E-02  0.9903332E-01
       -1   -1    0    0    0  501  0.00000000000E+00  0.00000000000E+00  0.28713685316E+03  0.28713685321E+03  0.50400001928E-02 0.  1.
        1   -1    0    0  501    0  0.00000000000E+00  0.00000000000E+00 -0.31448607909E+03  0.31448607913E+03  0.50400001928E-02 0. -1.
    10030    2    1    2    0    0  0.00000000000E+00  0.00000000000E+00 -0.27349225928E+02  0.60162293234E+03  0.60100097550E+03 0.  0.
        4    1    3    3  502    0 -0.10816119048E+03 -0.21123373532E+03  0.17085387545E+03  0.29242297057E+03  0.12699999809E+01 0.  1.
       -4    1    3    3    0  502  0.10816119048E+03  0.21123373532E+03 -0.19820310137E+03  0.30919996177E+03  0.12699999809E+01 0. -1.
</event>
<event>
 5   0  0.1337051E-02  0.5977790E+03  0.7818609E-02  0.9910025E-01
        1   -1    0    0  501    0  0.00000000000E+00  0.00000000000E+00  0.18175902732E+04  0.18175902732E+04  0.50400001928E-02 0.  1.
       -1   -1    0    0    0  501  0.00000000000E+00  0.00000000000E+00 -0.49150205386E+02  0.49150205644E+02  0.50400001928E-02 0. -1.
    10030    2    1    2    0    0  0.00000000000E+00  0.00000000000E+00  0.17684400678E+04  0.18667404788E+04  0.59777900760E+03 0.  0.
        5    1    3    3  502    0 -0.53324861456E+01  0.61794882964E+01  0.18171267300E+04  0.18171511396E+04  0.46999998093E+01 0.  1.
       -5    1    3    3    0  502  0.53324861456E+01 -0.61794882964E+01 -0.48686662209E+02  0.49589339170E+02  0.46999998093E+01 0. -1.
</event>
<event>
 5   0  0.1276705E-02  0.6017250E+03  0.7818609E-02  0.9901834E-01
       -1   -1    0    0    0  501  0.00000000000E+00  0.00000000000E+00  0.42076516413E+03  0.42076516416E+03  0.50400001928E-02 0. -1.
        1   -1    0    0  501    0  0.00000000000E+00  0.00000000000E+00 -0.21512773251E+03  0.21512773257E+03  0.50400001928E-02 0.  1.
    10030    2    1    2    0    0  0.00000000000E+00  0.00000000000E+00  0.20563743163E+03  0.63589289673E+03  0.60172503922E+03 0.  0.
        1    1    3    3  502    0 -0.20766628311E+03 -0.20297593491E+03  0.18598788988E+03  0.34484200803E+03  0.50400001928E-02 0.  1.
       -1    1    3    3    0  502  0.20766628311E+03  0.20297593491E+03  0.19649541750E+02  0.29105088870E+03  0.50400001928E-02 0. -1.
</event>
<event>
 5   0  0.1250390E-02  0.5976107E+03  0.7818609E-02  0.9910375E-01
        1   -1    0    0  501    0  0.00000000000E+00  0.00000000000E+00  0.83950723750E+03  0.83950723752E+03  0.50400001928E-02 0.  1.
       -1   -1    0    0    0  501  0.00000000000E+00  0.00000000000E+00 -0.10635363546E+03  0.10635363558E+03  0.50400001928E-02 0. -1.
    10030    2    1    2    0    0  0.00000000000E+00  0.00000000000E+00  0.73315360204E+03  0.94586087310E+03  0.59761073205E+03 0.  0.
        3    1    3    3  502    0 -0.10993020915E+03  0.20155161467E+03  0.63876737679E+02  0.23830222844E+03  0.10100000352E+00 0. -1.
       -3    1    3    3    0  502  0.10993020915E+03 -0.20155161467E+03  0.66927686437E+03  0.70755864466E+03  0.10100000352E+00 0.  1.
</event>
<event>
 5   0  0.2092587E-02  0.6017157E+03  0.7818609E-02  0.9901853E-01
        2   -1    0    0  501    0  0.00000000000E+00  0.00000000000E+00  0.33445527463E+03  0.33445527464E+03  0.25500000920E-02 0. -1.
       -2   -1    0    0    0  501  0.00000000000E+00  0.00000000000E+00 -0.27063541868E+03  0.27063541870E+03  0.25500000920E-02 0.  1.
    10030    2    1    2    0    0  0.00000000000E+00  0.00000000000E+00  0.63819855947E+02  0.60509069334E+03  0.60171569129E+03 0.  0.
        3    1    3    3  502    0  0.99328985193E+02 -0.28396897028E+03  0.35216180600E+02  0.30289406227E+03  0.10100000352E+00 0. -1.
       -3    1    3    3    0  502 -0.99328985193E+02  0.28396897028E+03  0.28603675346E+02  0.30219663106E+03  0.10100000352E+00 0.  1.
</event>
<event>
 5   0  0.2179625E-02  0.6030618E+03  0.7818609E-02  0.9899074E-01
        2   -1    0    0  501    0  0.00000000000E+00  0.00000000000E+00  0.15647534178E+04  0.15647534178E+04  0.25500000920E-02 0. -1.
       -2   -1    0    0    0  501  0.00000000000E+00  0.00000000000E+00 -0.58105562815E+02  0.58105562870E+02  0.25500000920E-02 0.  1.
    10030    2    1    2    0    0  0.00000000000E+00  0.00000000000E+00  0.15066478550E+04  0.16228589807E+04  0.60306178143E+03 0.  0.
        1    1    3    3  502    0  0.44577643057E+02 -0.28855490364E+03  0.55069471526E+03  0.62331033051E+03  0.50400001928E-02 0. -1.
       -1    1    3    3    0  502 -0.44577643057E+02  0.28855490364E+03  0.95595313973E+03  0.99954865017E+03  0.50400001928E-02 0.  1.
</event>
<event>
 5   0  0.1337051E-02  0.6006778E+03  0.7818609E-02  0.9904001E-01
       -1   -1    0    0    0  501  0.00000000000E+00  0.00000000000E+00  0.10872475253E+03  0.10872475265E+03  0.50400001928E-02 0. -1.
        1   -1    0    0  501    0  0.00000000000E+00  0.00000000000E+00 -0.82964965375E+03  0.82964965377E+03  0.50400001928E-02 0.  1.
    10030    2    1    2    0    0  0.00000000000E+00  0.00000000000E+00 -0.72092490123E+03  0.93837440642E+03  0.60067779500E+03 0.  0.
        5    1    3    3  502    0 -0.19292014556E+03  0.22943173769E+03 -0.38859313385E+03  0.49079916310E+03  0.46999998093E+01 0.  1.
       -5    1    3    3    0  502  0.19292014556E+03 -0.22943173769E+03 -0.33233176738E+03  0.44757524332E+03  0.46999998093E+01 0. -1.
</event>
<event>
 5   0  0.2142838E-02  0.6057589E+03  0.7818609E-02  0.9893530E-01
        2   -1    0    0  501    0  0.00000000000E+00  0.00000000000E+00  0.77882785952E+03  0.77882785952E+03  0.25500000920E-02 0.  1.
       -2   -1    0    0    0  501  0.00000000000E+00  0.00000000000E+00 -0.11778719619E+03  0.11778719622E+03  0.25500000920E-02 0. -1.
    10030    2    1    2    0    0  0.00000000000E+00  0.00000000000E+00  0.66104066333E+03  0.89661505574E+03  0.60575886258E+03 0.  0.
        4    1    3    3  502    0  0.95107156710E+02 -0.88456294877E+02 -0.74469452638E+02  0.14972374440E+03  0.12699999809E+01 0. -1.
       -4    1    3    3    0  502 -0.95107156710E+02  0.88456294877E+02  0.73551011597E+03  0.74689131134E+03  0.12699999809E+01 0.  1.
</event>
<event>
 5   0  0.1332555E-02  0.5993531E+03  0.7818609E-02  0.9906749E-01
       -1   -1    0    0    0  501  0.00000000000E+00  0.00000000000E+00  0.47956037605E+02  0.47956037870E+02  0.50400001928E-02 0. -1.
        1   -1    0    0  501    0  0.00000000000E+00  0.00000000000E+00 -0.18726744590E+04  0.18726744590E+04  0.50400001928E-02 0.  1.
    10030    2    1    2    0    0  0.00000000000E+00  0.00000000000E+00 -0.18247184214E+04  0.19206304969E+04  0.59935314144E+03 0.  0.
        2    1    3    3  502    0 -0.19776465640E+03  0.21782749912E+03 -0.10949420396E+04  0.11337802913E+04  0.25500000920E-02 0.  1.
       -2    1    3    3    0  502  0.19776465640E+03 -0.21782749912E+03 -0.72977638176E+03  0.78685020561E+03  0.25500000920E-02 0. -1.
</event>
<event>
 5   0  0.2126207E-02  0.6039819E+03  0.7818609E-02  0.9897179E-01
       -2   -1    0    0    0  501  0.00000000000E+00  0.00000000000E+00  0.11288282074E+03  0.11288282077E+03  0.25500000920E-02 0. -1.
        2   -1    0    0  501    0  0.00000000000E+00  0.00000000000E+00 -0.80790442395E+03  0.80790442395E+03  0.25500000920E-02 0.  1.
    10030    2    1    2    0    0  0.00000000000E+00  0.00000000000E+00 -0.69502160321E+03  0.92078724472E+03  0.60398188807E+03 0.  0.
        5    1    3    3  502    0 -0.25606731688E+03  0.12762476819E+03 -0.20034932956E+03  0.34931432275E+03  0.46999998093E+01 0. -1.
       -5    1    3    3    0  502  0.25606731688E+03 -0.12762476819E+03 -0.49467227365E+03  0.57147292197E+03  0.46999998093E+01 0.  1.
</event>
<event>
 5   0  0.2126207E-02  0.5949503E+03  0.7818609E-02  0.9915938E-01
        2   -1    0    0  501    0  0.00000000000E+00  0.00000000000E+00  0.16797754876E+03  0.16797754877E+03  0.25500000920E-02 0. -1.
       -2   -1    0    0    0  501  0.00000000000E+00  0.00000000000E+00 -0.52680534346E+03  0.52680534347E+03  0.25500000920E-02 0.  1.
    10030    2    1    2    0    0  0.00000000000E+00  0.00000000000E+00 -0.35882779470E+03  0.69478289224E+03  0.59495031818E+03 0.  0.
        5    1    3    3  502    0  0.25111347244E+03  0.51946044360E+02 -0.35541110890E+03  0.43828702228E+03  0.46999998093E+01 0.  1.
       -5    1    3    3    0  502 -0.25111347244E+03 -0.51946044360E+02 -0.34166858022E+01  0.25649586996E+03  0.46999998093E+01 0. -1.
</event>
<event>
 5   0  0.2092587E-02  0.6018274E+03  0.7818609E-02  0.9901622E-01
       -2   -1    0    0    0  501  0.00000000000E+00  0.00000000000E+00  0.54341188497E+02  0.54341188557E+02  0.25500000920E-02 0.  1.
        2   -1    0    0  501    0  0.00000000000E+00  0.00000000000E+00 -0.16663058423E+04  0.16663058423E+04  0.25500000920E-02 0. -1.
    10030    2    1    2    0    0  0.00000000000E+00  0.00000000000E+00 -0.16119646538E+04  0.17206470308E+04  0.60182735040E+03 0.  0.
        3    1    3    3  502    0  0.10473350525E+03  0.22646068986E+03 -0.12869084750E+04  0.13108726042E+04  0.10100000352E+00 0. -1.
       -3    1    3    3    0  502 -0.10473350525E+03 -0.22646068986E+03 -0.32505617880E+03  0.40977442667E+03  0.10100000352E+00 0.  1.
</event>
<event>
 5   0  0.2126207E-02  0.6027683E+03  0.7818609E-02  0.9899679E-01
       -2   -1    0    0    0  501  0.00000000000E+00  0.00000000000E+00  0.14959732699E+03  0.14959732701E+03  0.25500000920E-02 0. -1.
        2   -1    0    0  501    0  0.00000000000E+00  0.00000000000E+00 -0.60717929794E+03  0.60717929794E+03  0.25500000920E-02 0.  1.
    10030    2    1    2    0    0  0.00000000000E+00  0.00000000000E+00 -0.45758197095E+03  0.75677662496E+03  0.60276828047E+03 0.  0.
        5    1    3    3  502    0  0.28664850077E+03  0.78000654542E+02 -0.29230057400E+03  0.41678913213E+03  0.46999998093E+01 0.  1.
       -5    1    3    3    0  502 -0.28664850077E+03 -0.78000654542E+02 -0.16528139695E+03  0.33998749282E+03  0.46999998093E+01 0. -1.
</event>
<event>
 5   0  0.2141800E-02  0.5970450E+03  0.7818609E-02  0.9911556E-01
       -2   -1    0    0    0  501  0.00000000000E+00  0.00000000000E+00  0.25159762404E+03  0.25159762405E+03  0.25500000920E-02 0. -1.
        2   -1    0    0  501    0  0.00000000000E+00  0.00000000000E+00 -0.35419926231E+03  0.35419926232E+03  0.25500000920E-02 0.  1.
    10030    2    1    2    0    0  0.00000000000E+00  0.00000000000E+00 -0.10260163827E+03  0.60579688637E+03  0.59704503294E+03 0.  0.
        2    1    3    3  502    0  0.20214006740E+03 -0.57461358111E+02  0.16382900973E+03  0.26646267836E+03  0.25500000920E-02 0. -1.
       -2    1    3    3    0  502 -0.20214006740E+03  0.57461358111E+02 -0.26643064800E+03  0.33933420801E+03  0.25500000920E-02 0.  1.
</event>
<event>
 5   0  0.2126207E-02  0.6175468E+03  0.7818609E-02  0.9869656E-01
       -2   -1    0    0    0  501  0.00000000000E+00  0.00000000000E+00  0.46616448591E+03  0.46616448592E+03  0.25500000920E-02 0. -1.
        2   -1    0    0  501    0  0.00000000000E+00  0.00000000000E+00 -0.20452226966E+03  0.20452226968E+03  0.25500000920E-02 0.  1.
    10030    2    1    2    0    0  0.00000000000E+00  0.00000000000E+00  0.26164221625E+03  0.67068675560E+03  0.61754681994E+03 0.  0.
        5    1    3    3  502    0  0.18911158000E+02 -0.28886936969E+03  0.24736689996E+03  0.38080916196E+03  0.46999998093E+01 0. -1.
       -5    1    3    3    0  502 -0.18911158000E+02  0.28886936969E+03  0.14275316288E+02  0.28987759364E+03  0.46999998093E+01 0.  1.
</event>
<event>
 5   0  0.2141800E-02  0.6050812E+03  0.7818609E-02  0.9894920E-01
        2   -1    0    0  501    0  0.00000000000E+00  0.00000000000E+00  0.10699739120E+04  0.10699739120E+04  0.25500000920E-02 0.  1.
       -2   -1    0    0    0  501  0.00000000000E+00  0.00000000000E+00 -0.85544899251E+02  0.85544899289E+02  0.25500000920E-02 0. -1.
    10030    2    1    2    0    0  0.00000000000E+00  0.00000000000E+00  0.98442901279E+03  0.11555188113E+04  0.60508118639E+03 0.  0.
        2    1    3    3  502    0 -0.33114488856E+02  0.29421659717E+03  0.37340102938E+03  0.47653783079E+03  0.25500000920E-02 0.  1.
       -2    1    3    3    0  502  0.33114488856E+02 -0.29421659717E+03  0.61102798341E+03  0.67898098054E+03  0.25500000920E-02 0. -1.
</event>
<event>
 5   0  0.2142838E-02  0.6041963E+03  0.7818609E-02  0.9896738E-01
       -2   -1    0    0    0  501  0.00000000000E+00  0.00000000000E+00  0.52379217310E+03  0.52379217310E+03  0.25500000920E-02 0. -1.
        2   -1    0    0  501    0  0.00000000000E+00  0.00000000000E+00 -0.17423572157E+03  0.17423572159E+03  0.25500000920E-02 0.  1.
    10030    2    1    2    0    0  0.00000000000E+00  0.00000000000E+00  0.34955645153E+03  0.69802789470E+03  0.60419634968E+03 0.  0.
        4    1    3    3  502    0  0.23591382023E+03 -0.13708907866E+02  0.39220315226E+03  0.45789539228E+03  0.12699999809E+01 0. -1.
       -4    1    3    3    0  502 -0.23591382023E+03  0.13708907866E+02 -0.42646700733E+02  0.24013250241E+03  0.12699999809E+01 0.  1.
</event>
<event>
 5   0  0.2179625E-02  0.6002592E+03  0.7818609E-02  0.9904868E-01
        2   -1    0    0  501    0  0.00000000000E+00  0.00000000000E+00  0.15562578577E+04  0.15562578577E+04  0.25500000920E-02 0. -1.
       -2   -1    0    0    0  501  0.00000000000E+00  0.00000000000E+00 -0.57881013015E+02  0.57881013071E+02  0.25500000920E-02 0.  1.
    10030    2    1    2    0    0  0.00000000000E+00  0.00000000000E+00  0.14983768446E+04  0.16141388707E+04  0.60025921521E+03 0.  0.
        1    1    3    3  502    0 -0.27951006360E+03 -0.38660102955E+02  0.47420159667E+03  0.55180398107E+03  0.50400001928E-02 0.  1.
       -1    1    3    3    0  502  0.27951006360E+03  0.38660102955E+02  0.10241752480E+04  0.10623348897E+04  0.50400001928E-02 0. -1.
</event>
<event>
 5   0  0.1276705E-02  0.5816475E+03  0.7818609E-02  0.9944230E-01
        1   -1    0    0  501    0  0.00000000000E+00  0.00000000000E+00  0.50297397364E+02  0.50297397617E+02  0.50400001928E-02 0. -1.
       -1   -1    0    0    0  501  0.00000000000E+00  0.00000000000E+00 -0.16815674792E+04  0.16815674792E+04  0.50400001928E-02 0.  1.
    10030    2    1    2    0    0  0.00000000000E+00  0.00000000000E+00 -0.16312700818E+04  0.17318648768E+04  0.58164754936E+03 0.  0.
        1    1    3    3  502    0  0.21665545808E+03  0.16110904178E+03 -0.11374652255E+04  0.11690692239E+04  0.50400001928E-02 0.  1.
       -1    1    3    3    0  502 -0.21665545808E+03 -0.16110904178E+03 -0.49380485627E+03  0.56279565293E+03  0.50400001928E-02 0. -1.
</event>
<event>
 5   0  0.1337051E-02  0.5980341E+03  0.7818609E-02  0.9909493E-01
       -1   -1    0    0    0  501  0.00000000000E+00  0.00000000000E+00  0.10239587056E+04  0.10239587056E+04  0.50400001928E-02 0.  1.
        1   -1    0    0  501    0  0.00000000000E+00  0.00000000000E+00 -0.87319130419E+02  0.87319130564E+02  0.50400001928E-02 0. -1.
    10030    2    1    2    0    0  0.00000000000E+00  0.00000000000E+00  0.93663957518E+03  0.11112778362E+04  0.59803405871E+03 0.  0.
        5    1    3    3  502    0 -0.15499020156E+03 -0.24170952317E+03  0.62316231801E+03  0.68614781262E+03  0.46999998093E+01 0.  1.
       -5    1    3    3    0  502  0.15499020156E+03  0.24170952317E+03  0.31347725717E+03  0.42513002356E+03  0.46999998093E+01 0. -1.
</event>
<event>
 5   0  0.1332555E-02  0.6052991E+03  0.7818609E-02  0.9894473E-01
        1   -1    0    0  501    0  0.00000000000E+00  0.00000000000E+00  0.90958792463E+03  0.90958792465E+03  0.50400001928E-02 0.  1.
       -1   -1    0    0    0  501  0.00000000000E+00  0.00000000000E+00 -0.10070135393E+03  0.10070135405E+03  0.50400001928E-02 0. -1.
    10030    2    1    2    0    0  0.00000000000E+00  0.00000000000E+00  0.80888657071E+03  0.10102892787E+04  0.60529905202E+03 0.  0.
        2    1    3    3  502    0  0.75912566001E+02  0.26650407024E+03  0.60756080857E+03  0.66777037464E+03  0.25500000920E-02 0.  1.
       -2    1    3    3    0  502 -0.75912566001E+02 -0.26650407024E+03  0.20132576214E+03  0.34251890406E+03  0.25500000920E-02 0. -1.
</event>
<event>
 5   0  0.1337051E-02  0.6009227E+03  0.7818609E-02  0.9903494E-01
        1   -1    0    0  501    0  0.00000000000E+00  0.00000000000E+00  0.35142970754E+03  0.35142970757E+03  0.50400001928E-02 0.  1.
       -1   -1    0    0    0  501  0.00000000000E+00  0.00000000000E+00 -0.25688498338E+03  0.25688498343E+03  0.50400001928E-02 0. -1.
    10030    2    1    2    0    0  0.00000000000E+00  0.00000000000E+00  0.94544724160E+02  0.60831469100E+03  0.60092267258E+03 0.  0.
        5    1    3    3  502    0 -0.29818647480E+03 -0.30011716782E+02  0.26061145750E+02  0.30086068240E+03  0.46999998093E+01 0. -1.
       -5    1    3    3    0  502  0.29818647480E+03  0.30011716782E+02  0.68483578410E+02  0.30745400860E+03  0.46999998093E+01 0.  1.
</event>
<event>
 5   0  0.2179625E-02  0.6030168E+03  0.7818609E-02  0.9899167E-01
       -2   -1    0    0    0  501  0.00000000000E+00  0.00000000000E+00  0.14174407452E+03  0.14174407455E+03  0.25500000920E-02 0. -1.
        2   -1    0    0  501    0  0.00000000000E+00  0.00000000000E+00 -0.64134828732E+03  0.64134828732E+03  0.25500000920E-02 0.  1.
    10030    2    1    2    0    0  0.00000000000E+00  0.00000000000E+00 -0.49960421279E+03  0.78309236187E+03  0.60301681384E+03 0.  0.
        1    1    3    3  502    0  0.72499423931E+02  0.69406532119E+02  0.11941370892E+03  0.15599059932E+03  0.50400001928E-02 0. -1.
       -1    1    3    3    0  502 -0.72499423931E+02 -0.69406532119E+02 -0.61901792171E+03  0.62710176255E+03  0.50400001928E-02 0.  1.
</event>
<event>
 5   0  0.2142838E-02  0.5973753E+03  0.7818609E-02  0.9910867E-01
        2   -1    0    0  501    0  0.00000000000E+00  0.00000000000E+00  0.55311372208E+03  0.55311372209E+03  0.25500000920E-02 0. -1.
       -2   -1    0    0    0  501  0.00000000000E+00  0.00000000000E+00 -0.16129467541E+03  0.16129467543E+03  0.25500000920E-02 0.  1.
    10030    2    1    2    0    0  0.00000000000E+00  0.00000000000E+00  0.39181904667E+03  0.71440839752E+03  0.59737525319E+03 0.  0.
        4    1    3    3  502    0  0.20363220192E+03  0.97533400744E+02 -0.37932911739E+02  0.22895273881E+03  0.12699999809E+01 0.  1.
       -4    1    3    3    0  502 -0.20363220192E+03 -0.97533400744E+02  0.42975195841E+03  0.48545565871E+03  0.12699999809E+01 0. -1.
</event>
<event>
 5   0  0.1303808E-02  0.5998786E+03  0.7818609E-02  0.9905658E-01
       -1   -1    0    0    0  501  0.00000000000E+00  0.00000000000E+00  0.92311585911E+02  0.92311586048E+02  0.50400001928E-02 0. -1.
        1   -1    0    0  501    0  0.00000000000E+00  0.00000000000E+00 -0.97456429620E+03  0.97456429621E+03  0.50400001928E-02 0.  1.
    10030    2    1    2    0    0  0.00000000000E+00  0.00000000000E+00 -0.88225271029E+03  0.10668758823E+04  0.59987857383E+03 0.  0.
        4    1    3    3  502    0 -0.37124315068E+02  0.56612126187E+02 -0.96079391815E+03  0.96317688597E+03  0.12699999809E+01 0.  1.
       -4    1    3    3    0  502  0.37124315068E+02 -0.56612126187E+02  0.78541207861E+02  0.10369899630E+03  0.12699999809E+01 0. -1.
</event>
<event>
 5   0  0.1332555E-02  0.5987454E+03  0.7818609E-02  0.9908012E-01
       -1   -1    0    0    0  501  0.00000000000E+00  0.00000000000E+00  0.70347328267E+02  0.70347328448E+02  0.50400001928E-02 0.  1.
        1   -1    0    0  501    0  0.00000000000E+00  0.00000000000E+00 -0.12740214214E+04  0.12740214215E+04  0.50400001928E-02 0. -1.
    10030    2    1    2    0    0  0.00000000000E+00  0.00000000000E+00 -0.12036740932E+04  0.13443687499E+04  0.59874536585E+03 0.  0.
        2    1    3    3  502    0 -0.20499427160E+03 -0.77445188749E+02 -0.14386215174E+03  0.26213875593E+03  0.25500000920E-02 0.  1.
       -2    1    3    3    0  502  0.20499427160E+03  0.77445188749E+02 -0.10598119414E+04  0.10822299940E+04  0.25500000920E-02 0. -1.
</event>
<event>
 5   0  0.1332555E-02  0.6023756E+03  0.7818609E-02  0.9900490E-01
        1   -1    0    0  501    0  0.00000000000E+00  0.00000000000E+00  0.23659585837E+03  0.23659585842E+03  0.50400001928E-02 0.  1.
       -1   -1    0    0    0  501  0.00000000000E+00  0.00000000000E+00 -0.38341371909E+03  0.38341371912E+03  0.50400001928E-02 0. -1.
    10030    2    1    2    0    0  0.00000000000E+00  0.00000000000E+00 -0.14681786072E+03  0.62000957754E+03  0.60237562369E+03 0.  0.
        2    1    3    3  502    0  0.14938596203E+03 -0.11487950650E+03  0.16841709156E+03  0.25274054562E+03  0.25500000920E-02 0.  1.
       -2    1    3    3    0  502 -0.14938596203E+03  0.11487950650E+03 -0.31523495228E+03  0.36726903192E+03  0.25500000920E-02 0. -1.
</event>
<event>
 5   0  0.2141800E-02  0.6005596E+03  0.7818609E-02  0.9904246E-01
       -2   -1    0    0    0  501  0.00000000000E+00  0.00000000000E+00  0.21853004896E+03  0.21853004898E+03  0.25500000920E-02 0.  1.
        2   -1    0    0  501    0  0.00000000000E+00  0.00000000000E+00 -0.41261119905E+03  0.41261119906E+03  0.25500000920E-02 0. -1.
    10030    2    1    2    0    0  0.00000000000E+00  0.00000000000E+00 -0.19408115008E+03  0.63114124803E+03  0.60055955754E+03 0.  0.
        2    1    3    3  502    0  0.74379791187E+02 -0.18233608611E+03 -0.33527590806E+03  0.38882995791E+03  0.25500000920E-02 0. -1.
       -2    1    3    3    0  502 -0.74379791187E+02  0.18233608611E+03  0.14119475798E+03  0.24231129012E+03  0.25500000920E-02 0.  1.
</event>
<event>
 5   0  0.1303808E-02  0.5971751E+03  0.7818609E-02  0.9911284E-01
        1   -1    0    0  501    0  0.00000000000E+00  0.00000000000E+00  0.44005206744E+03  0.44005206747E+03  0.50400001928E-02 0.  1.
       -1   -1    0    0    0  501  0.00000000000E+00  0.00000000000E+00 -0.20259993471E+03  0.20259993477E+03  0.50400001928E-02 0. -1.
    10030    2    1    2    0    0  0.00000000000E+00  0.00000000000E+00  0.23745213273E+03  0.64265200225E+03  0.59717508375E+03 0.  0.
        4    1    3    3  502    0  0.10815911317E+03 -0.25468127945E+03  0.23948543763E+03  0.36594512649E+03  0.12699999809E+01 0.  1.
       -4    1    3    3    0  502 -0.10815911317E+03  0.25468127945E+03 -0.20333048918E+01  0.27670687576E+03  0.12699999809E+01 0. -1.
</event>
<event>
 5   0  0.1332555E-02  0.6001965E+03  0.7818609E-02  0.9904999E-01
        1   -1    0    0  501    0  0.00000000000E+00  0.00000000000E+00  0.45790354475E+03  0.45790354478E+03  0.50400001928E-02 0. -1.
       -1   -1    0    0    0  501  0.00000000000E+00  0.00000000000E+00 -0.19667667580E+03  0.19667667587E+03  0.50400001928E-02 0.  1.
    10030    2    1    2    0    0  0.00000000000E+00  0.00000000000E+00  0.26122686895E+03  0.65458022064E+03  0.60019645800E+03 0.  0.
        2    1    3    3  502    0 -0.10746980472E+03  0.22742055488E+03 -0.47890726551E+02  0.25605348934E+03  0.25500000920E-02 0.  1.
       -2    1    3    3    0  502  0.10746980472E+03 -0.22742055488E+03  0.30911759550E+03  0.39852673130E+03  0.25500000920E-02 0. -1.
</event>
<event>
 5   0  0.1250390E-02  0.5968180E+03  0.7818609E-02  0.9912030E-01
       -1   -1    0    0    0  501  0.00000000000E+00  0.00000000000E+00  0.37927704031E+03  0.37927704034E+03  0.50400001928E-02 0. -1.
        1   -1    0    0  501    0  0.00000000000E+00  0.00000000000E+00 -0.23478336044E+03  0.23478336050E+03  0.50400001928E-02 0.  1.
    10030    2    1    2    0    0  0.00000000000E+00  0.00000000000E+00  0.14449367986E+03  0.61406040084E+03  0.59681802281E+03 0.  0.
        3    1    3    3  502    0 -0.28292931184E+03  0.57190757796E+02  0.15011794513E+03  0.32535393947E+03  0.10100000352E+00 0. -1.
       -3    1    3    3    0  502  0.28292931184E+03 -0.57190757796E+02 -0.56242652620E+01  0.28870646137E+03  0.10100000352E+00 0.  1.
</event>
<event>
 5   0  0.1303808E-02  0.6012464E+03  0.7818609E-02  0.9902824E-01
        1   -1    0    0  501    0  0.00000000000E+00  0.00000000000E+00  0.60570770832E+03  0.60570770834E+03  0.50400001928E-02 0.  1.
       -1   -1    0    0    0  501  0.00000000000E+00  0.00000000000E+00 -0.14920447881E+03  0.14920447889E+03  0.50400001928E-02 0. -1.
    10030    2    1    2    0    0  0.00000000000E+00  0.00000000000E+00  0.45650322951E+03  0.75491218723E+03  0.60124638201E+03 0.  0.
        4    1    3    3  502    0  0.76906529492E+02  0.14183999527E+03  0.54673206079E+03  0.57004452259E+03  0.12699999809E+01 0.  1.
       -4    1    3    3    0  502 -0.76906529492E+02 -0.14183999527E+03 -0.90228831283E+02  0.18486766464E+03  0.12699999809E+01 0. -1.
</event>
<event>
 5   0  0.2142838E-02  0.6032671E+03  0.7818609E-02  0.9898651E-01
       -2   -1    0    0    0  501  0.00000000000E+00  0.00000000000E+00  0.18333558406E+03  0.18333558408E+03  0.25500000920E-02 0. -1.
        2   -1    0    0  501    0  0.00000000000E+00  0.00000000000E+00 -0.49626376873E+03  0.49626376873E+03  0.25500000920E-02 0.  1.
    10030    2    1    2    0    0  0.00000000000E+00  0.00000000000E+00 -0.31292818466E+03  0.67959935282E+03  0.60326713120E+03 0.  0.
        4    1    3    3  502    0 -0.85269664185E+02 -0.19242856093E+03  0.86933246737E+02  0.22772498541E+03  0.12699999809E+01 0. -1.
       -4    1    3    3    0  502  0.85269664185E+02  0.19242856093E+03 -0.39986143140E+03  0.45187436740E+03  0.12699999809E+01 0.  1.
</event>
<event>
 5   0  0.2141800E-02  0.5985247E+03  0.7818609E-02  0.9908472E-01
        2   -1    0    0  501    0  0.00000000000E+00  0.00000000000E+00  0.25497663451E+03  0.25497663452E+03  0.25500000920E-02 0. -1.
       -2   -1    0    0    0  501  0.00000000000E+00  0.00000000000E+00 -0.35123981127E+03  0.35123981127E+03  0.25500000920E-02 0.  1.
    10030    2    1    2    0    0  0.00000000000E+00  0.00000000000E+00 -0.96263176756E+02  0.60621644580E+03  0.59852466946E+03 0.  0.
        2    1    3    3  502    0 -0.14155540661E+03 -0.66931037485E+02  0.21017575509E+03  0.26209071894E+03  0.25500000920E-02 0. -1.
       -2    1    3    3    0  502  0.14155540661E+03  0.66931037485E+02 -0.30643893185E+03  0.34412572685E+03  0.25500000920E-02 0.  1.
</event>
<event>
 5   0  0.2126207E-02  0.5991319E+03  0.7818609E-02  0.9907209E-01
        2   -1    0    0  501    0  0.00000000000E+00  0.00000000000E+00  0.14057763216E+03  0.14057763218E+03  0.25500000920E-02 0. -1.
       -2   -1    0    0    0  501  0.00000000000E+00  0.00000000000E+00 -0.63836433414E+03  0.63836433414E+03  0.25500000920E-02 0.  1.
    10030    2    1    2    0    0  0.00000000000E+00  0.00000000000E+00 -0.49778670198E+03  0.77894196632E+03  0.59913186047E+03 0.  0.
        5    1    3    3  502    0  0.22765788720E+03 -0.18937287820E+03 -0.19035258484E+03  0.35206021808E+03  0.46999998093E+01 0.  1.
       -5    1    3    3    0  502 -0.22765788720E+03  0.18937287820E+03 -0.30743411714E+03  0.42688174824E+03  0.46999998093E+01 0. -1.
</event>
<event>
 5   0  0.2092587E-02  0.6011689E+03  0.7818609E-02  0.9902984E-01
       -2   -1    0    0    0  501  0.00000000000E+00  0.00000000000E+00  0.25420306481E+03  0.25420306483E+03  0.25500000920E-02 0. -1.
        2   -1    0    0  501    0  0.00000000000E+00  0.00000000000E+00 -0.35542854807E+03  0.35542854808E+03  0.25500000920E-02 0.  1.
    10030    2    1    2    0    0  0.00000000000E+00  0.00000000000E+00 -0.10122548326E+03  0.60963161290E+03  0.60116894879E+03 0.  0.
        3    1    3    3  502    0  0.25251118385E+03 -0.11342925173E+03 -0.16940667190E+03  0.32454078912E+03  0.10100000352E+00 0.  1.
       -3    1    3    3    0  502 -0.25251118385E+03  0.11342925173E+03  0.68181188644E+02  0.28509082378E+03  0.10100000352E+00 0. -1.
</event>
<event>
 5   0  0.2179625E-02  0.5968328E+03  0.7818609E-02  0.9911999E-01
       -2   -1    0    0    0  501  0.00000000000E+00  0.00000000000E+00  0.34654471801E+03  0.34654471802E+03  0.25500000920E-02 0. -1.
        2   -1    0    0  501    0  0.00000000000E+00  0.00000000000E+00 -0.25697220207E+03  0.25697220209E+03  0.25500000920E-02 0.  1.
    10030    2    1    2    0    0  0.00000000000E+00  0.00000000000E+00  0.89572515935E+02  0.60351692011E+03  0.59683283861E+03 0.  0.
        1    1    3    3  502    0  0.17934248404E+03  0.12876489799E+03 -0.15823131145E+03  0.27162708533E+03  0.50400001928E-02 0.  1.
       -1    1    3    3    0  502 -0.17934248404E+03 -0.12876489799E+03  0.24780382738E+03  0.33188983478E+03  0.50400001928E-02 0. -1.
</event>
<event>
 5   0  0.1250390E-02  0.6004262E+03  0.7818609E-02  0.9904522E-01
        1   -1    0    0  501    0  0.00000000000E+00  0.00000000000E+00  0.74541634431E+03  0.74541634433E+03  0.50400001928E-02 0. -1.
       -1   -1    0    0    0  501  0.00000000000E+00  0.00000000000E+00 -0.12090948178E+03  0.12090948189E+03  0.50400001928E-02 0.  1.
    10030    2    1    2    0    0  0.00000000000E+00  0.00000000000E+00  0.62450686253E+03  0.86632582621E+03  0.60042619515E+03 0.  0.
        3    1    3    3  502    0  0.25112293074E+03 -0.99946634020E+02  0.12370946441E+03  0.29724753621E+03  0.10100000352E+00 0.  1.
       -3    1    3    3    0  502 -0.25112293074E+03  0.99946634020E+02  0.50079739812E+03  0.56907829001E+03  0.10100000352E+00 0. -1.
</event>
<event>
 5   0  0.1276705E-02  0.5991283E+03  0.7818609E-02  0.9907216E-01
       -1   -1    0    0    0  501  0.00000000000E+00  0.00000000000E+00  0.36784618717E+03  0.36784618721E+03  0.50400001928E-02 0. -1.
        1   -1    0    0  501    0  0.00000000000E+00  0.00000000000E+00 -0.24395707666E+03  0.24395707672E+03  0.50400001928E-02 0.  1.
    10030    2    1    2    0    0  0.00000000000E+00  0.00000000000E+00  0.12388911051E+03  0.61180326392E+03  0.59912830182E+03 0.  0.
        1    1    3    3  502    0  0.13344508008E+03 -0.89004213471E+02 -0.19640851819E+03  0.25358557817E+03  0.50400001928E-02 0.  1.
       -1    1    3    3    0  502 -0.13344508008E+03  0.89004213471E+02  0.32029762869E+03  0.35821768575E+03  0.50400001928E-02 0. -1.
</event>
<event>
 5   0  0.2126207E-02  0.5986606E+03  0.7818609E-02  0.9908189E-01
        2   -1    0    0  501    0  0.00000000000E+00  0.00000000000E+00  0.11780242514E+04  0.11780242514E+04  0.25500000920E-02 0. -1.
       -2   -1    0    0    0  501  0.00000000000E+00  0.00000000000E+00 -0.76058395848E+02  0.76058395891E+02  0.25500000920E-02 0.  1.
    10030    2    1    2    0    0  0.00000000000E+00  0.00000000000E+00  0.11019658555E+04  0.12540826473E+04  0.59866062125E+03 0.  0.
        5    1    3    3  502    0 -0.76265811970E+02  0.26365564129E+03  0.80101083487E+03  0.84674153012E+03  0.46999998093E+01 0.  1.
       -5    1    3    3    0  502  0.76265811970E+02 -0.26365564129E+03  0.30095502065E+03  0.40734111714E+03  0.46999998093E+01 0. -1.
</event>
<event>
 5   0  0.1332555E-02  0.6003541E+03  0.7818609E-02  0.9904672E-01
       -1   -1    0    0    0  501  0.00000000000E+00  0.00000000000E+00  0.50443022398E+03  0.50443022401E+03  0.50400001928E-02 0.  1.
        1   -1    0    0  501    0  0.00000000000E+00  0.00000000000E+00 -0.17862975865E+03  0.17862975872E+03  0.50400001928E-02 0. -1.
    10030    2    1    2    0    0  0.00000000000E+00  0.00000000000E+00  0.32580046533E+03  0.68305998273E+03  0.60035405953E+03 0.  0.
        2    1    3    3  502    0  0.15214075018E+03  0.19804188293E+03 -0.26593847924E+02  0.25114662652E+03  0.25500000920E-02 0. -1.
       -2    1    3    3    0  502 -0.15214075018E+03 -0.19804188293E+03  0.35239431325E+03  0.43191335621E+03  0.25500000920E-02 0.  1.
</event>
<event>
 5   0  0.2179625E-02  0.5916317E+03  0.7818609E-02  0.9922921E-01
        2   -1    0    0  501    0  0.00000000000E+00  0.00000000000E+00  0.92512449282E+03  0.92512449282E+03  0.25500000920E-02 0. -1.
       -2   -1    0    0    0  501  0.00000000000E+00  0.00000000000E+00 -0.94589454142E+02  0.94589454176E+02  0.25500000920E-02 0.  1.
    10030    2    1    2    0    0  0.00000000000E+00  0.00000000000E+00  0.83053503867E+03  0.10197139470E+04  0.59163171250E+03 0.  0.
        1    1    3    3  502    0  0.16548710362E+03 -0.10219773792E+03  0.79941953477E+03  0.82274051298E+03  0.50400001928E-02 0. -1.
       -1    1    3    3    0  502 -0.16548710362E+03  0.10219773792E+03  0.31115503904E+02  0.19697343402E+03  0.50400001928E-02 0.  1.
</event>
<event>
 5   0  0.8551000E-03  0.6005781E+03  0.7818609E-02  0.9904207E-01
       -3   -1    0    0    0  501  0.00000000000E+00  0.00000000000E+00  0.10154668996E+04  0.10154669046E+04  0.10100000352E+00 0.  1.
        3   -1    0    0  501    0  0.00000000000E+00  0.00000000000E+00 -0.88800029995E+02  0.88800087434E+02  0.10100000352E+00 0. -1.
    10030    2    1    2    0    0  0.00000000000E+00  0.00000000000E+00  0.92666686958E+03  0.11042669920E+04  0.60057814022E+03 0.  0.
        5    1    3    3  502    0 -0.28758221142E+03  0.75293879651E+02  0.38578720595E+03  0.48705908770E+03  0.46999998093E+01 0.  1.
       -5    1    3    3    0  502  0.28758221142E+03 -0.75293879651E+02  0.54087966363E+03  0.61720790433E+03  0.46999998093E+01 0. -1.
</event>
<event>
 5   0  0.2092587E-02  0.5992168E+03  0.7818609E-02  0.9907032E-01
       -2   -1    0    0    0  501  0.00000000000E+00  0.00000000000E+00  0.22792689839E+03  0.22792689841E+03  0.25500000920E-02 0. -1.
        2   -1    0    0  501    0  0.00000000000E+00  0.00000000000E+00 -0.39383329083E+03  0.39383329084E+03  0.25500000920E-02 0.  1.
    10030    2    1    2    0    0  0.00000000000E+00  0.00000000000E+00 -0.16590639244E+03  0.62176018925E+03  0.59921682376E+03 0.  0.
        3    1    3    3  502    0  0.11679744672E+03 -0.10857884039E+03 -0.34613739118E+03  0.38110643122E+03  0.10100000352E+00 0.  1.
       -3    1    3    3    0  502 -0.11679744672E+03  0.10857884039E+03  0.18023099875E+03  0.24065375803E+03  0.10100000352E+00 0. -1.
</event>
<event>
 5   0  0.8551000E-03  0.5758105E+03  0.7818609E-02  0.9956903E-01
       -3   -1    0    0    0  501  0.00000000000E+00  0.00000000000E+00  0.95504104227E+02  0.95504157633E+02  0.10100000352E+00 0.  1.
        3   -1    0    0  501    0  0.00000000000E+00  0.00000000000E+00 -0.86791453744E+03  0.86791454332E+03  0.10100000352E+00 0. -1.
    10030    2    1    2    0    0  0.00000000000E+00  0.00000000000E+00 -0.77241043321E+03  0.96341870095E+03  0.57581048619E+03 0.  0.
        1    1    3    3  502    0  0.17430784132E+03  0.22699166986E+03 -0.43860954780E+03  0.52372395131E+03  0.50400001928E-02 0.  1.
       -1    1    3    3    0  502 -0.17430784132E+03 -0.22699166986E+03 -0.33380088541E+03  0.43969474963E+03  0.50400001928E-02 0. -1.
</event>
<event>
 5   0  0.1276705E-02  0.5998660E+03  0.7818609E-02  0.9905684E-01
       -1   -1    0    0    0  501  0.00000000000E+00  0.00000000000E+00  0.11269271343E+03  0.11269271355E+03  0.50400001928E-02 0.  1.
        1   -1    0    0  501    0  0.00000000000E+00  0.00000000000E+00 -0.79827519199E+03  0.79827519201E+03  0.50400001928E-02 0. -1.
    10030    2    1    2    0    0  0.00000000000E+00  0.00000000000E+00 -0.68558247856E+03  0.91096790555E+03  0.59986597674E+03 0.  0.
        1    1    3    3  502    0  0.45528550159E+02  0.67776486385E+02  0.95490999636E+02  0.12563849738E+03  0.50400001928E-02 0.  1.
       -1    1    3    3    0  502 -0.45528550159E+02 -0.67776486385E+02 -0.78107347819E+03  0.78532940818E+03  0.50400001928E-02 0. -1.
</event>
<event>
 5   0  0.2092587E-02  0.6011045E+03  0.7818609E-02  0.9903117E-01
       -2   -1    0    0    0  501  0.00000000000E+00  0.00000000000E+00  0.34096197297E+03  0.34096197298E+03  0.25500000920E-02 0. -1.
        2   -1    0    0  501    0  0.00000000000E+00  0.00000000000E+00 -0.26493177711E+03  0.26493177712E+03  0.25500000920E-02 0.  1.
    10030    2    1    2    0    0  0.00000000000E+00  0.00000000000E+00  0.76030195860E+02  0.60589375010E+03  0.60110452147E+03 0.  0.
        3    1    3    3  502    0 -0.25781725171E+03 -0.13686945312E+03 -0.34170208272E+02  0.29388874734E+03  0.10100000352E+00 0.  1.
       -3    1    3    3    0  502  0.25781725171E+03  0.13686945312E+03  0.11020040413E+03  0.31200500276E+03  0.10100000352E+00 0. -1.
</event>
<event>
 5   0  0.2179625E-02  0.6020027E+03  0.7818609E-02  0.9901260E-01
        2   -1    0    0  501    0  0.00000000000E+00  0.00000000000E+00  0.20051587304E+03  0.20051587305E+03  0.25500000920E-02 0. -1.
       -2   -1    0    0    0  501  0.00000000000E+00  0.00000000000E+00 -0.45184358615E+03  0.45184358615E+03  0.25500000920E-02 0.  1.
    10030    2    1    2    0    0  0.00000000000E+00  0.00000000000E+00 -0.25132771311E+03  0.65235945921E+03  0.60200269488E+03 0.  0.
        1    1    3    3  502    0  0.18007656669E+03  0.22377716326E+03 -0.22318033674E+03  0.36374888509E+03  0.50400001928E-02 0.  1.
       -1    1    3    3    0  502 -0.18007656669E+03 -0.22377716326E+03 -0.28147376368E+02  0.28861057412E+03  0.50400001928E-02 0. -1.
</event>
<event>
 5   0  0.1332555E-02  0.6014510E+03  0.7818609E-02  0.9902400E-01
        1   -1    0    0  501    0  0.00000000000E+00  0.00000000000E+00  0.65494000380E+03  0.65494000382E+03  0.50400001928E-02 0. -1.
       -1   -1    0    0    0  501  0.00000000000E+00  0.00000000000E+00 -0.13808260583E+03  0.13808260592E+03  0.50400001928E-02 0.  1.
    10030    2    1    2    0    0  0.00000000000E+00  0.00000000000E+00  0.51685739797E+03  0.79302260974E+03  0.60145098696E+03 0.  0.
        2    1    3    3  502    0 -0.19077154776E+03  0.14484177774E+03  0.49817713846E+03  0.55276883533E+03  0.25500000920E-02 0. -1.
       -2    1    3    3    0  502  0.19077154776E+03 -0.14484177774E+03  0.18680259510E+02  0.24025377441E+03  0.25500000920E-02 0.  1.
</event>
<event>
 5   0  0.2142838E-02  0.6017328E+03  0.7818609E-02  0.9901818E-01
       -2   -1    0    0    0  501  0.00000000000E+00  0.00000000000E+00  0.76170473026E+02  0.76170473069E+02  0.25500000920E-02 0.  1.
        2   -1    0    0  501    0  0.00000000000E+00  0.00000000000E+00 -0.11883946706E+04  0.11883946706E+04  0.25500000920E-02 0. -1.
    10030    2    1    2    0    0  0.00000000000E+00  0.00000000000E+00 -0.11122241975E+04  0.12645651436E+04  0.60173277865E+03 0.  0.
        4    1    3    3  502    0 -0.23529102411E+03 -0.16747318425E+03 -0.37891060224E+03  0.47642836907E+03  0.12699999809E+01 0.  1.
       -4    1    3    3    0  502  0.23529102411E+03  0.16747318425E+03 -0.73331359529E+03  0.78813677456E+03  0.12699999809E+01 0. -1.
</event>
<event>
 5   0  0.2141800E-02  0.5995339E+03  0.7818609E-02  0.9906374E-01
        2   -1    0    0  501    0  0.00000000000E+00  0.00000000000E+00  0.62566034603E+02  0.62566034655E+02  0.25500000920E-02 0. -1.
       -2   -1    0    0    0  501  0.00000000000E+00  0.00000000000E+00 -0.14362459454E+04  0.14362459454E+04  0.25500000920E-02 0.  1.
    10030    2    1    2    0    0  0.00000000000E+00  0.00000000000E+00 -0.13736799108E+04  0.14988119801E+04  0.59953386413E+03 0.  0.
        2    1    3    3  502    0  0.25374619533E+03  0.13206322166E+00 -0.28783890934E+03  0.38371654488E+03  0.25500000920E-02 0. -1.
       -2    1    3    3    0  502 -0.25374619533E+03 -0.13206322166E+00 -0.10858410015E+04  0.11150954352E+04  0.25500000920E-02 0.  1.
</event>
<event>
 5   0  0.1250390E-02  0.6008933E+03  0.7818609E-02  0.9903555E-01
       -1   -1    0    0    0  501  0.00000000000E+00  0.00000000000E+00  0.23538430899E+03  0.23538430904E+03  0.50400001928E-02 0. -1.
        1   -1    0    0  501    0  0.00000000000E+00  0.00000000000E+00 -0.38349278693E+03  0.38349278696E+03  0.50400001928E-02 0.  1.
    10030    2    1    2    0    0  0.00000000000E+00  0.00000000000E+00 -0.14810847794E+03  0.61887709601E+03  0.60089328397E+03 0.  0.
        3    1    3    3  502    0  0.79672928763E+01 -0.24748247100E+03 -0.24931503004E+03  0.35138162390E+03  0.10100000352E+00 0.  1.
       -3    1    3    3    0  502 -0.79672928763E+01  0.24748247100E+03  0.10120655210E+03  0.26749547211E+03  0.10100000352E+00 0. -1.
</event>
<event>
 5   0  0.1303808E-02  0.5983160E+03  0.7818609E-02  0.9908906E-01
        1   -1    0    0  501    0  0.00000000000E+00  0.00000000000E+00  0.18703755789E+03  0.18703755796E+03  0.50400001928E-02 0. -1.
       -1   -1    0    0    0  501  0.00000000000E+00  0.00000000000E+00 -0.47848946412E+03  0.47848946415E+03  0.50400001928E-02 0.  1.
    10030    2    1    2    0    0  0.00000000000E+00  0.00000000000E+00 -0.29145190623E+03  0.66552702211E+03  0.59831597297E+03 0.  0.
        4    1    3    3  502    0 -0.27470570221E+03  0.10192401670E+03 -0.78596268787E+02  0.30336564468E+03  0.12699999809E+01 0. -1.
       -4    1    3    3    0  502  0.27470570221E+03 -0.10192401670E+03 -0.21285563744E+03  0.36216137742E+03  0.12699999809E+01 0.  1.
</event>
<event>
 5   0  0.1337051E-02  0.5931275E+03  0.7818609E-02  0.9919768E-01
        1   -1    0    0  501    0  0.00000000000E+00  0.00000000000E+00  0.35503308014E+03  0.35503308018E+03  0.50400001928E-02 0.  1.
       -1   -1    0    0    0  501  0.00000000000E+00  0.00000000000E+00 -0.24772356171E+03  0.24772356176E+03  0.50400001928E-02 0. -1.
    10030    2    1    2    0    0  0.00000000000E+00  0.00000000000E+00  0.10730951843E+03  0.60275664194E+03  0.59312750455E+03 0.  0.
        5    1    3    3  502    0 -0.22004361066E+03  0.19737586733E+03  0.29788484157E+02  0.29712937819E+03  0.46999998093E+01 0. -1.
       -5    1    3    3    0  502  0.22004361066E+03 -0.19737586733E+03  0.77521034273E+02  0.30562726375E+03  0.46999998093E+01 0.  1.
</event>
<event>
 5   0  0.1303808E-02  0.6041770E+03  0.7818609E-02  0.9896778E-01
        1   -1    0    0  501    0  0.00000000000E+00  0.00000000000E+00  0.11540881789E+04  0.11540881789E+04  0.50400001928E-02 0.  1.
       -1   -1    0    0    0  501  0.00000000000E+00  0.00000000000E+00 -0.79073208695E+02  0.79073208856E+02  0.50400001928E-02 0. -1.
    10030    2    1    2    0    0  0.00000000000E+00  0.00000000000E+00  0.10750149702E+04  0.12331613877E+04  0.60417697913E+03 0.  0.
        4    1    3    3  502    0  0.20172098573E+02 -0.28941796408E+03  0.36569229275E+03  0.46679989007E+03  0.12699999809E+01 0. -1.
       -4    1    3    3    0  502 -0.20172098573E+02  0.28941796408E+03  0.70932267743E+03  0.76636149767E+03  0.12699999809E+01 0.  1.
</event>
<event>
 5   0  0.1276705E-02  0.6012350E+03  0.7818609E-02  0.9902847E-01
       -1   -1    0    0    0  501  0.00000000000E+00  0.00000000000E+00  0.44632388118E+03  0.44632388121E+03  0.50400001928E-02 0. -1.
        1   -1    0    0  501    0  0.00000000000E+00  0.00000000000E+00 -0.20247822321E+03  0.20247822327E+03  0.50400001928E-02 0.  1.
    10030    2    1    2    0    0  0.00000000000E+00  0.00000000000E+00  0.24384565797E+03  0.64880210448E+03  0.60123495064E+03 0.  0.
        1    1    3    3  502    0 -0.82736824924E+02  0.69374755846E+02 -0.18083141236E+03  0.21061395649E+03  0.50400001928E-02 0.  1.
       -1    1    3    3    0  502  0.82736824924E+02 -0.69374755846E+02  0.42467707033E+03  0.43818814799E+03  0.50400001928E-02 0. -1.
</event>
<event>
 5   0  0.2126207E-02  0.6021962E+03  0.7818609E-02  0.9900860E-01
        2   -1    0    0  501    0  0.00000000000E+00  0.00000000000E+00  0.53444998669E+03  0.53444998669E+03  0.25500000920E-02 0. -1.
       -2   -1    0    0    0  501  0.00000000000E+00  0.00000000000E+00 -0.16963243663E+03  0.16963243665E+03  0.25500000920E-02 0.  1.
    10030    2    1    2    0    0  0.00000000000E+00  0.00000000000E+00  0.36481755006E+03  0.70408242334E+03  0.60219615909E+03 0.  0.
        5    1    3    3  502    0 -0.20856212062E+03 -0.15444065700E+03  0.36083166975E+03  0.44449033576E+03  0.46999998093E+01 0. -1.
       -5    1    3    3    0  502  0.20856212062E+03  0.15444065700E+03  0.39858803062E+01  0.25959208758E+03  0.46999998093E+01 0.  1.
</event>
<event>
 5   0  0.1303808E-02  0.5967227E+03  0.7818609E-02  0.9912229E-01
        1   -1    0    0  501    0  0.00000000000E+00  0.00000000000E+00  0.32989682637E+03  0.32989682640E+03  0.50400001928E-02 0.  1.
       -1   -1    0    0    0  501  0.00000000000E+00  0.00000000000E+00 -0.26984042693E+03  0.26984042698E+03  0.50400001928E-02 0. -1.
    10030    2    1    2    0    0  0.00000000000E+00  0.00000000000E+00  0.60056399433E+02  0.59973725339E+03  0.59672271784E+03 0.  0.
        4    1    3    3  502    0 -0.12836937081E+03  0.26060434453E+03 -0.38319520331E+02  0.29302443292E+03  0.12699999809E+01 0. -1.
       -4    1    3    3    0  502  0.12836937081E+03 -0.26060434453E+03  0.98375919764E+02  0.30671282047E+03  0.12699999809E+01 0.  1.
</event>
<event>
 5   0  0.8551000E-03  0.6010523E+03  0.7818609E-02  0.9903225E-01
        4   -1    0    0  501    0  0.00000000000E+00  0.00000000000E+00  0.10295870965E+03  0.10296654210E+03  0.12699999809E+01 0.  1.
       -4   -1    0    0    0  501  0.00000000000E+00  0.00000000000E+00 -0.87716393389E+03  0.87716485327E+03  0.12699999809E+01 0. -1.
    10030    2    1    2    0    0  0.00000000000E+00  0.00000000000E+00 -0.77420522424E+03  0.98013139538E+03  0.60105226309E+03 0.  0.
        2    1    3    3  502    0 -0.17950537270E+03 -0.18736025007E+03 -0.13985008819E+03  0.29476107156E+03  0.25500000920E-02 0.  1.
       -2    1    3    3    0  502  0.17950537270E+03  0.18736025007E+03 -0.63435513605E+03  0.68537032382E+03  0.25500000920E-02 0. -1.
</event>
<event>
 5   0  0.2092587E-02  0.6009958E+03  0.7818609E-02  0.9903342E-01
        2   -1    0    0  501    0  0.00000000000E+00  0.00000000000E+00  0.57587050344E+03  0.57587050345E+03  0.25500000920E-02 0. -1.
       -2   -1    0    0    0  501  0.00000000000E+00  0.00000000000E+00 -0.15680434431E+03  0.15680434434E+03  0.25500000920E-02 0.  1.
    10030    2    1    2    0    0  0.00000000000E+00  0.00000000000E+00  0.41906615913E+03  0.73267484779E+03  0.60099582931E+03 0.  0.
        3    1    3    3  502    0 -0.27666413505E+03  0.65434303706E+02  0.32819551874E+03  0.43420847579E+03  0.10100000352E+00 0.  1.
       -3    1    3    3    0  502  0.27666413505E+03 -0.65434303706E+02  0.90870640389E+02  0.29846637199E+03  0.10100000352E+00 0. -1.
</event>
<event>
 5   0  0.2092587E-02  0.6018130E+03  0.7818609E-02  0.9901652E-01
       -2   -1    0    0    0  501  0.00000000000E+00  0.00000000000E+00  0.12336283286E+03  0.12336283289E+03  0.25500000920E-02 0.  1.
        2   -1    0    0  501    0  0.00000000000E+00  0.00000000000E+00 -0.73397095392E+03  0.73397095392E+03  0.25500000920E-02 0. -1.
    10030    2    1    2    0    0  0.00000000000E+00  0.00000000000E+00 -0.61060812106E+03  0.85733378681E+03  0.60181304780E+03 0.  0.
        3    1    3    3  502    0  0.14953829532E+03 -0.18899509470E+03 -0.48626123023E+02  0.24585637602E+03  0.10100000352E+00 0.  1.
       -3    1    3    3    0  502 -0.14953829532E+03  0.18899509470E+03 -0.56198199804E+03  0.61147741079E+03  0.10100000352E+00 0. -1.
</event>
<event>
 5   0  0.1337051E-02  0.5974533E+03  0.7818609E-02  0.9910704E-01
       -1   -1    0    0    0  501  0.00000000000E+00  0.00000000000E+00  0.85311827789E+02  0.85311827938E+02  0.50400001928E-02 0. -1.
        1   -1    0    0  501    0  0.00000000000E+00  0.00000000000E+00 -0.10460169962E+04  0.10460169962E+04  0.50400001928E-02 0.  1.
    10030    2    1    2    0    0  0.00000000000E+00  0.00000000000E+00 -0.96070516842E+03  0.11313288242E+04  0.59745333520E+03 0.  0.
        5    1    3    3  502    0  0.26624223611E+03 -0.96311734274E+02 -0.66053847452E+03  0.71867520116E+03  0.46999998093E+01 0. -1.
       -5    1    3    3    0  502 -0.26624223611E+03  0.96311734274E+02 -0.30016669390E+03  0.41265362300E+03  0.46999998093E+01 0.  1.
</event>
<event>
 5   0  0.2126207E-02  0.6009300E+03  0.7818609E-02  0.9903479E-01
       -2   -1    0    0    0  501  0.00000000000E+00  0.00000000000E+00  0.14357600459E+03  0.14357600461E+03  0.25500000920E-02 0. -1.
        2   -1    0    0  501    0  0.00000000000E+00  0.00000000000E+00 -0.62879033287E+03  0.62879033287E+03  0.25500000920E-02 0.  1.
    10030    2    1    2    0    0  0.00000000000E+00  0.00000000000E+00 -0.48521432828E+03  0.77236633749E+03  0.60092995841E+03 0.  0.
        5    1    3    3  502    0 -0.19805543000E+03 -0.18562401822E+03 -0.40807924706E+03  0.49013568669E+03  0.46999998093E+01 0.  1.
       -5    1    3    3    0  502  0.19805543000E+03  0.18562401822E+03 -0.77135081221E+02  0.28223065079E+03  0.46999998093E+01 0. -1.
</event>
<event>
 5   0  0.2092587E-02  0.5990902E+03  0.7818609E-02  0.9907295E-01
        2   -1    0    0  501    0  0.00000000000E+00  0.00000000000E+00  0.65927146722E+03  0.65927146722E+03  0.25500000920E-02 0. -1.
       -2   -1    0    0    0  501  0.00000000000E+00  0.00000000000E+00 -0.13610064344E+03  0.13610064347E+03  0.25500000920E-02 0.  1.
    10030    2    1    2    0    0  0.00000000000E+00  0.00000000000E+00  0.52317082377E+03  0.79537211069E+03  0.59909021325E+03 0.  0.
        3    1    3    3  502    0 -0.96501273755E+02 -0.76779671718E+02 -0.10083573280E+03  0.15929679544E+03  0.10100000352E+00 0.  1.
       -3    1    3    3    0  502  0.96501273755E+02  0.76779671718E+02  0.62400655657E+03  0.63607531525E+03  0.10100000352E+00 0. -1.
</event>
<event>
 5   0  0.1276705E-02  0.6005311E+03  0.7818609E-02  0.9904305E-01
        1   -1    0    0  501    0  0.00000000000E+00  0.00000000000E+00  0.28086393945E+03  0.28086393950E+03  0.50400001928E-02 0. -1.
       -1   -1    0    0    0  501  0.00000000000E+00  0.00000000000E+00 -0.32100743771E+03  0.32100743775E+03  0.50400001928E-02 0.  1.
    10030    2    1    2    0    0  0.00000000000E+00  0.00000000000E+00 -0.40143498251E+02  0.60187137725E+03  0.60053114348E+03 0.  0.
        1    1    3    3  502    0  0.24173219512E+03 -0.17783347932E+03 -0.10038762288E+02  0.30026651045E+03  0.50400001928E-02 0. -1.
       -1    1    3    3    0  502 -0.24173219512E+03  0.17783347932E+03 -0.30104735962E+02  0.30160486680E+03  0.50400001928E-02 0.  1.
</event>
<event>
 5   0  0.1250390E-02  0.6013993E+03  0.7818609E-02  0.9902507E-01
       -1   -1    0    0    0  501  0.00000000000E+00  0.00000000000E+00  0.11197952509E+03  0.11197952520E+03  0.50400001928E-02 0. -1.
        1   -1    0    0  501    0  0.00000000000E+00  0.00000000000E+00 -0.80747154807E+03  0.80747154809E+03  0.50400001928E-02 0.  1.
    10030    2    1    2    0    0  0.00000000000E+00  0.00000000000E+00 -0.69549202298E+03  0.91945107329E+03  0.60139930341E+03 0.  0.
        3    1    3    3  502    0 -0.54874019964E+02  0.29453725633E+03 -0.30856091495E+03  0.43008511003E+03  0.10100000352E+00 0. -1.
       -3    1    3    3    0  502  0.54874019964E+02 -0.29453725633E+03 -0.38693110803E+03  0.48936596326E+03  0.10100000352E+00 0.  1.
</event>
<event>
 5   0  0.1303808E-02  0.6014290E+03  0.7818609E-02  0.9902446E-01
       -1   -1    0    0    0  501  0.00000000000E+00  0.00000000000E+00  0.21590736557E+03  0.21590736563E+03  0.50400001928E-02 0. -1.
        1   -1    0    0  501    0  0.00000000000E+00  0.00000000000E+00 -0.41883335658E+03  0.41883335661E+03  0.50400001928E-02 0.  1.
    10030    2    1    2    0    0  0.00000000000E+00  0.00000000000E+00 -0.20292599101E+03  0.63474072224E+03  0.60142898720E+03 0.  0.
        4    1    3    3  502    0 -0.17004838056E+03  0.87356377721E+02  0.14351429137E+03  0.23905136098E+03  0.12699999809E+01 0. -1.
       -4    1    3    3    0  502  0.17004838056E+03 -0.87356377721E+02 -0.34644028238E+03  0.39568936126E+03  0.12699999809E+01 0.  1.
</event>
<event>
 5   0  0.8551000E-03  0.6008106E+03  0.7818609E-02  0.9903726E-01
       -3   -1    0    0    0  501  0.00000000000E+00  0.00000000000E+00  0.85221485680E+02  0.85221545530E+02  0.10100000352E+00 0.  1.
        3   -1    0    0  501    0  0.00000000000E+00  0.00000000000E+00 -0.10589266238E+04  0.10589266286E+04  0.10100000352E+00 0. -1.
    10030    2    1    2    0    0  0.00000000000E+00  0.00000000000E+00 -0.97370513810E+03  0.11441481741E+04  0.60081057614E+03 0.  0.
        1    1    3    3  502    0  0.20716907209E+03  0.21396901731E+03 -0.41208269523E+03  0.50844263446E+03  0.50400001928E-02 0. -1.
       -1    1    3    3    0  502 -0.20716907209E+03 -0.21396901731E+03 -0.56162244287E+03  0.63570553967E+03  0.50400001928E-02 0.  1.
</event>
<event>
 5   0  0.2179625E-02  0.6043507E+03  0.7818609E-02  0.9896421E-01
        2   -1    0    0  501    0  0.00000000000E+00  0.00000000000E+00  0.12087652586E+04  0.12087652586E+04  0.25500000920E-02 0. -1.
       -2   -1    0    0    0  501  0.00000000000E+00  0.00000000000E+00 -0.75539851762E+02  0.75539851805E+02  0.25500000920E-02 0.  1.
    10030    2    1    2    0    0  0.00000000000E+00  0.00000000000E+00  0.11332254068E+04  0.12843051104E+04  0.60435072095E+03 0.  0.
        1    1    3    3  502    0  0.10416540169E+03  0.23778266519E+03  0.23795034712E+03  0.35215251595E+03  0.50400001928E-02 0.  1.
       -1    1    3    3    0  502 -0.10416540169E+03 -0.23778266519E+03  0.89527505971E+03  0.93215259444E+03  0.50400001928E-02 0. -1.
</event>
<event>
 5   0  0.8551000E-03  0.6043689E+03  0.7818609E-02  0.9896383E-01
       -4   -1    0    0    0  501  0.00000000000E+00  0.00000000000E+00  0.20251301039E+03  0.20251699257E+03  0.12699999809E+01 0. -1.
        4   -1    0    0  501    0  0.00000000000E+00  0.00000000000E+00 -0.45090212015E+03  0.45090390867E+03  0.12699999809E+01 0.  1.
    10030    2    1    2    0    0  0.00000000000E+00  0.00000000000E+00 -0.24838910975E+03  0.65342090123E+03  0.60436886446E+03 0.  0.
        2    1    3    3  502    0 -0.17369093077E+02 -0.16186897792E+02 -0.44989503310E+03  0.45052107816E+03  0.25500000920E-02 0.  1.
       -2    1    3    3    0  502  0.17369093077E+02  0.16186897792E+02  0.20150592334E+03  0.20289982307E+03  0.25500000920E-02 0. -1.
</event>
<event>
 5   0  0.2141800E-02  0.6076249E+03  0.7818609E-02  0.9889712E-01
       -2   -1    0    0    0  501  0.00000000000E+00  0.00000000000E+00  0.35375002572E+03  0.35375002572E+03  0.25500000920E-02 0. -1.
        2   -1    0    0  501    0  0.00000000000E+00  0.00000000000E+00 -0.26092437948E+03  0.26092437949E+03  0.25500000920E-02 0.  1.
    10030    2    1    2    0    0  0.00000000000E+00  0.00000000000E+00  0.92825646234E+02  0.61467440522E+03  0.60762490389E+03 0.  0.
        2    1    3    3  502    0  0.11121633718E+02 -0.19792682186E+03  0.27930825578E+03  0.34250813027E+03  0.25500000920E-02 0. -1.
       -2    1    3    3    0  502 -0.11121633718E+02  0.19792682186E+03 -0.18648260955E+03  0.27216627495E+03  0.25500000920E-02 0.  1.
</event>
<event>
 5   0  0.2092587E-02  0.5944094E+03  0.7818609E-02  0.9917073E-01
       -2   -1    0    0    0  501  0.00000000000E+00  0.00000000000E+00  0.66663424532E+02  0.66663424581E+02  0.25500000920E-02 0.  1.
        2   -1    0    0  501    0  0.00000000000E+00  0.00000000000E+00 -0.13250237916E+04  0.13250237916E+04  0.25500000920E-02 0. -1.
    10030    2    1    2    0    0  0.00000000000E+00  0.00000000000E+00 -0.12583603670E+04  0.13916872162E+04  0.59440936590E+03 0.  0.
        3    1    3    3  502    0 -0.87552550029E+01  0.14171065856E+03 -0.17873470461E+02  0.14310148981E+03  0.10100000352E+00 0.  1.
       -3    1    3    3    0  502  0.87552550029E+01 -0.14171065856E+03 -0.12404868966E+04  0.12485857263E+04  0.10100000352E+00 0. -1.
</event>
<event>
 5   0  0.1332555E-02  0.6009047E+03  0.7818609E-02  0.9903531E-01
       -1   -1    0    0    0  501  0.00000000000E+00  0.00000000000E+00  0.32981197113E+03  0.32981197117E+03  0.50400001928E-02 0.  1.
        1   -1    0    0  501    0  0.00000000000E+00  0.00000000000E+00 -0.27370633953E+03  0.27370633958E+03  0.50400001928E-02 0. -1.
    10030    2    1    2    0    0  0.00000000000E+00  0.00000000000E+00  0.56105631598E+02  0.60351831074E+03  0.60090474245E+03 0.  0.
        2    1    3    3  502    0 -0.37150498072E+02  0.27868377556E+03  0.13447035711E+03  0.31165218307E+03  0.25500000920E-02 0.  1.
       -2    1    3    3    0  502  0.37150498072E+02 -0.27868377556E+03 -0.78364725509E+02  0.29186612767E+03  0.25500000920E-02 0. -1.
</event>
<event>
 5   0  0.1276705E-02  0.6026133E+03  0.7818609E-02  0.9899999E-01
        1   -1    0    0  501    0  0.00000000000E+00  0.00000000000E+00  0.13861101424E+04  0.13861101425E+04  0.50400001928E-02 0.  1.
       -1   -1    0    0    0  501  0.00000000000E+00  0.00000000000E+00 -0.65496731872E+02  0.65496732066E+02  0.50400001928E-02 0. -1.
    10030    2    1    2    0    0  0.00000000000E+00  0.00000000000E+00  0.13206134106E+04  0.14516068745E+04  0.60261325738E+03 0.  0.
        1    1    3    3  502    0  0.26298651949E+03 -0.56108379002E+02  0.98773024699E+03  0.10236801749E+04  0.50400001928E-02 0.  1.
       -1    1    3    3    0  502 -0.26298651949E+03  0.56108379002E+02  0.33288316359E+03  0.42792669963E+03  0.50400001928E-02 0. -1.
</event>
<event>
 5   0  0.2092587E-02  0.5995851E+03  0.7818609E-02  0.9906267E-01
       -2   -1    0    0    0  501  0.00000000000E+00  0.00000000000E+00  0.24822906294E+03  0.24822906295E+03  0.25500000920E-02 0. -1.
        2   -1    0    0  501    0  0.00000000000E+00  0.00000000000E+00 -0.36206706035E+03  0.36206706036E+03  0.25500000920E-02 0.  1.
    10030    2    1    2    0    0  0.00000000000E+00  0.00000000000E+00 -0.11383799741E+03  0.61029612331E+03  0.59958508027E+03 0.  0.
        3    1    3    3  502    0  0.73350070379E+02 -0.23849272331E+03  0.11223196103E+03  0.27359648238E+03  0.10100000352E+00 0. -1.
       -3    1    3    3    0  502 -0.73350070379E+02  0.23849272331E+03 -0.22606995844E+03  0.33669964093E+03  0.10100000352E+00 0.  1.
</event>
<event>
 5   0  0.2126207E-02  0.6025239E+03  0.7818609E-02  0.9900184E-01
        2   -1    0    0  501    0  0.00000000000E+00  0.00000000000E+00  0.61243775383E+03  0.61243775384E+03  0.25500000920E-02 0. -1.
       -2   -1    0    0    0  501  0.00000000000E+00  0.00000000000E+00 -0.14819264294E+03  0.14819264296E+03  0.25500000920E-02 0.  1.
    10030    2    1    2    0    0  0.00000000000E+00  0.00000000000E+00  0.46424511090E+03  0.76063039680E+03  0.60252392280E+03 0.  0.
        5    1    3    3  502    0  0.23346211953E+03  0.18736211522E+03  0.18973206650E+03  0.35444247845E+03  0.46999998093E+01 0. -1.
       -5    1    3    3    0  502 -0.23346211953E+03 -0.18736211522E+03  0.27451304440E+03  0.40618791835E+03  0.46999998093E+01 0.  1.
</event>
<event>
 5   0  0.1250390E-02  0.6008284E+03  0.7818609E-02  0.9903689E-01
        1   -1    0    0  501    0  0.00000000000E+00  0.00000000000E+00  0.41675604509E+03  0.41675604512E+03  0.50400001928E-02 0.  1.
       -1   -1    0    0    0  501  0.00000000000E+00  0.00000000000E+00 -0.21655041879E+03  0.21655041885E+03  0.50400001928E-02 0. -1.
    10030    2    1    2    0    0  0.00000000000E+00  0.00000000000E+00  0.20020562630E+03  0.63330646397E+03  0.60082841520E+03 0.  0.
        3    1    3    3  502    0 -0.24404881412E+03 -0.16160275078E+03  0.28820189328E+02  0.29411883015E+03  0.10100000352E+00 0.  1.
       -3    1    3    3    0  502  0.24404881412E+03  0.16160275078E+03  0.17138543697E+03  0.33918763383E+03  0.10100000352E+00 0. -1.
</event>
<event>
 5   0  0.1332555E-02  0.6017787E+03  0.7818609E-02  0.9901723E-01
       -1   -1    0    0    0  501  0.00000000000E+00  0.00000000000E+00  0.40081253487E+03  0.40081253490E+03  0.50400001928E-02 0.  1.
        1   -1    0    0  501    0  0.00000000000E+00  0.00000000000E+00 -0.22587720347E+03  0.22587720353E+03  0.50400001928E-02 0. -1.
    10030    2    1    2    0    0  0.00000000000E+00  0.00000000000E+00  0.17493533140E+03  0.62668973843E+03  0.60177874512E+03 0.  0.
        2    1    3    3  502    0  0.12762927188E+03 -0.17560228659E+03  0.30444068472E+03  0.37391111860E+03  0.25500000920E-02 0.  1.
       -2    1    3    3    0  502 -0.12762927188E+03  0.17560228659E+03 -0.12950535332E+03  0.25277861983E+03  0.25500000920E-02 0. -1.
</event>
<event>
 5   0  0.1332555E-02  0.5969287E+03  0.7818609E-02  0.9911799E-01
        1   -1    0    0  501    0  0.00000000000E+00  0.00000000000E+00  0.67676483041E+03  0.67676483043E+03  0.50400001928E-02 0. -1.
       -1   -1    0    0    0  501  0.00000000000E+00  0.00000000000E+00 -0.13162764340E+03  0.13162764349E+03  0.50400001928E-02 0.  1.
    10030    2    1    2    0    0  0.00000000000E+00  0.00000000000E+00  0.54513718701E+03  0.80839247392E+03  0.59692867181E+03 0.  0.
        2    1    3    3  502    0 -0.65204269843E+02 -0.25306596529E+03  0.77316579016E+02  0.27252859114E+03  0.25500000920E-02 0.  1.
       -2    1    3    3    0  502  0.65204269843E+02  0.25306596529E+03  0.46782060799E+03  0.53586388278E+03  0.25500000920E-02 0. -1.
</event>
<event>
 5   0  0.2142838E-02  0.6017136E+03  0.7818609E-02  0.9901857E-01
        2   -1    0    0  501    0  0.00000000000E+00  0.00000000000E+00  0.15718986463E+03  0.15718986465E+03  0.25500000920E-02 0. -1.
       -2   -1    0    0    0  501  0.00000000000E+00  0.00000000000E+00 -0.57583117686E+03  0.57583117686E+03  0.25500000920E-02 0.  1.
    10030    2    1    2    0    0  0.00000000000E+00  0.00000000000E+00 -0.41864131223E+03  0.73302104151E+03  0.60171363537E+03 0.  0.
        4    1    3    3  502    0 -0.14841383854E+03 -0.11134327092E+03 -0.49783425627E+03  0.53128575274E+03  0.12699999809E+01 0.  1.
       -4    1    3    3    0  502  0.14841383854E+03  0.11134327092E+03  0.79192944040E+02  0.20173528877E+03  0.12699999809E+01 0. -1.
</event>
<event>
 5   0  0.8551000E-03  0.6004849E+03  0.7818609E-02  0.9904401E-01
        3   -1    0    0  501    0  0.00000000000E+00  0.00000000000E+00  0.10473442185E+04  0.10473442233E+04  0.10100000352E+00 0.  1.
       -3   -1    0    0    0  501  0.00000000000E+00  0.00000000000E+00 -0.86070537835E+02  0.86070597094E+02  0.10100000352E+00 0. -1.
    10030    2    1    2    0    0  0.00000000000E+00  0.00000000000E+00  0.96127368062E+03  0.11334148204E+04  0.60048485917E+03 0.  0.
        5    1    3    3  502    0  0.23934848540E+02 -0.24027048310E+03  0.14393823956E+03  0.28114602759E+03  0.46999998093E+01 0. -1.
       -5    1    3    3    0  502 -0.23934848540E+02  0.24027048310E+03  0.81733544106E+03  0.85226879283E+03  0.46999998093E+01 0.  1.
</event>
<event>
 5   0  0.1337051E-02  0.6003264E+03  0.7818609E-02  0.9904729E-01
        1   -1    0    0  501    0  0.00000000000E+00  0.00000000000E+00  0.43101038749E+03  0.43101038752E+03  0.50400001928E-02 0.  1.
       -1   -1    0    0    0  501  0.00000000000E+00  0.00000000000E+00 -0.20903891108E+03  0.20903891114E+03  0.50400001928E-02 0. -1.
    10030    2    1    2    0    0  0.00000000000E+00  0.00000000000E+00  0.22197147640E+03  0.64004929866E+03  0.60032638488E+03 0.  0.
        5    1    3    3  502    0  0.89633031420E+02 -0.21116305743E+03 -0.95344616534E+02  0.24846851520E+03  0.46999998093E+01 0. -1.
       -5    1    3    3    0  502 -0.89633031420E+02  0.21116305743E+03  0.31731609294E+03  0.39158078347E+03  0.46999998093E+01 0.  1.
</event>
<event>
 5   0  0.2126207E-02  0.6177667E+03  0.7818609E-02  0.9869216E-01
        2   -1    0    0  501    0  0.00000000000E+00  0.00000000000E+00  0.80381399661E+03  0.80381399662E+03  0.25500000920E-02 0. -1.
       -2   -1    0    0    0  501  0.00000000000E+00  0.00000000000E+00 -0.11869525787E+03  0.11869525790E+03  0.25500000920E-02 0.  1.
    10030    2    1    2    0    0  0.00000000000E+00  0.00000000000E+00  0.68511873874E+03  0.92250925452E+03  0.61776665376E+03 0.  0.
        5    1    3    3  502    0  0.11473500671E+03 -0.27886746222E+03  0.24288095053E+03  0.38722658661E+03  0.46999998093E+01 0.  1.
       -5    1    3    3    0  502 -0.11473500671E+03  0.27886746222E+03  0.44223778821E+03  0.53528266791E+03  0.46999998093E+01 0. -1.
</event>
<event>
 5   0  0.1332555E-02  0.6012184E+03  0.7818609E-02  0.9902882E-01
        1   -1    0    0  501    0  0.00000000000E+00  0.00000000000E+00  0.42729515098E+03  0.42729515101E+03  0.50400001928E-02 0. -1.
       -1   -1    0    0    0  501  0.00000000000E+00  0.00000000000E+00 -0.21148352394E+03  0.21148352400E+03  0.50400001928E-02 0.  1.
    10030    2    1    2    0    0  0.00000000000E+00  0.00000000000E+00  0.21581162704E+03  0.63877867501E+03  0.60121837736E+03 0.  0.
        2    1    3    3  502    0  0.18892670574E+03 -0.86339336293E+02 -0.12296680598E+03  0.24138893204E+03  0.25500000920E-02 0.  1.
       -2    1    3    3    0  502 -0.18892670574E+03  0.86339336293E+02  0.33877843302E+03  0.39738974297E+03  0.25500000920E-02 0. -1.
</event>
<event>
 5   0  0.8551000E-03  0.6050781E+03  0.7818609E-02  0.9894926E-01
        3   -1    0    0  501    0  0.00000000000E+00  0.00000000000E+00  0.34867365153E+03  0.34867366616E+03  0.10100000352E+00 0.  1.
       -3   -1    0    0    0  501  0.00000000000E+00  0.00000000000E+00 -0.26250867319E+03  0.26250869262E+03  0.10100000352E+00 0. -1.
    10030    2    1    2    0    0  0.00000000000E+00  0.00000000000E+00  0.86164978338E+02  0.61118235878E+03  0.60507807115E+03 0.  0.
        3    1    3    3  502    0 -0.24342265080E+03 -0.39243403171E+02 -0.13400080958E+03  0.28062583413E+03  0.10100000352E+00 0. -1.
       -3    1    3    3    0  502  0.24342265080E+03  0.39243403171E+02  0.22016578792E+03  0.33055652464E+03  0.10100000352E+00 0.  1.
</event>
<event>
 5   0  0.2179625E-02  0.6006088E+03  0.7818609E-02  0.9904144E-01
       -2   -1    0    0    0  501  0.00000000000E+00  0.00000000000E+00  0.34054075536E+03  0.34054075537E+03  0.25500000920E-02 0.  1.
        2   -1    0    0  501    0  0.00000000000E+00  0.00000000000E+00 -0.26482215874E+03  0.26482215875E+03  0.25500000920E-02 0. -1.
    10030    2    1    2    0    0  0.00000000000E+00  0.00000000000E+00  0.75718596616E+02  0.60536291412E+03  0.60060881772E+03 0.  0.
        1    1    3    3  502    0 -0.37469546909E+02 -0.78317695504E+02  0.32761546503E+03  0.33892406425E+03  0.50400001928E-02 0.  1.
       -1    1    3    3    0  502  0.37469546909E+02  0.78317695504E+02 -0.25189686842E+03  0.26643884987E+03  0.50400001928E-02 0. -1.
</event>
<event>
 5   0  0.1250390E-02  0.6071048E+03  0.7818609E-02  0.9890775E-01
       -1   -1    0    0    0  501  0.00000000000E+00  0.00000000000E+00  0.67500111780E+02  0.67500111969E+02  0.50400001928E-02 0.  1.
        1   -1    0    0  501    0  0.00000000000E+00  0.00000000000E+00 -0.13650949036E+04  0.13650949036E+04  0.50400001928E-02 0. -1.
    10030    2    1    2    0    0  0.00000000000E+00  0.00000000000E+00 -0.12975947918E+04  0.14325950156E+04  0.60710479730E+03 0.  0.
        3    1    3    3  502    0 -0.12703485550E+03  0.24388605832E+03 -0.95214517145E+03  0.99105938353E+03  0.10100000352E+00 0. -1.
       -3    1    3    3    0  502  0.12703485550E+03 -0.24388605832E+03 -0.34544962037E+03  0.44153563205E+03  0.10100000352E+00 0.  1.
</event>
<event>
 5   0  0.8551000E-03  0.5957723E+03  0.7818609E-02  0.9914216E-01
       -4   -1    0    0    0  501  0.00000000000E+00  0.00000000000E+00  0.16796646658E+03  0.16797126777E+03  0.12699999809E+01 0. -1.
        4   -1    0    0  501    0  0.00000000000E+00  0.00000000000E+00 -0.52828371359E+03  0.52828524014E+03  0.12699999809E+01 0.  1.
    10030    2    1    2    0    0  0.00000000000E+00  0.00000000000E+00 -0.36031724701E+03  0.69625650791E+03  0.59577227723E+03 0.  0.
        1    1    3    3  502    0 -0.25563700128E+03 -0.14846563506E+03 -0.22299978113E+03  0.37029883017E+03  0.50400001928E-02 0.  1.
       -1    1    3    3    0  502  0.25563700128E+03  0.14846563506E+03 -0.13731746588E+03  0.32595767774E+03  0.50400001928E-02 0. -1.
</event>
<event>
 5   0  0.2141800E-02  0.6018872E+03  0.7818609E-02  0.9901498E-01
       -2   -1    0    0    0  501  0.00000000000E+00  0.00000000000E+00  0.13877998847E+03  0.13877998850E+03  0.25500000920E-02 0.  1.
        2   -1    0    0  501    0  0.00000000000E+00  0.00000000000E+00 -0.65259442550E+03  0.65259442550E+03  0.25500000920E-02 0. -1.
    10030    2    1    2    0    0  0.00000000000E+00  0.00000000000E+00 -0.51381443702E+03  0.79137441400E+03  0.60188718830E+03 0.  0.
        2    1    3    3  502    0  0.88234720718E+02 -0.28543171292E+03 -0.30450337231E+03  0.42658988787E+03  0.25500000920E-02 0. -1.
       -2    1    3    3    0  502 -0.88234720718E+02  0.28543171292E+03 -0.20931106472E+03  0.36478452613E+03  0.25500000920E-02 0.  1.
</event>
<event>
 5   0  0.2141800E-02  0.6177130E+03  0.7818609E-02  0.9869324E-01
        2   -1    0    0  501    0  0.00000000000E+00  0.00000000000E+00  0.16892790741E+03  0.16892790743E+03  0.25500000920E-02 0.  1.
       -2   -1    0    0    0  501  0.00000000000E+00  0.00000000000E+00 -0.56469260667E+03  0.56469260668E+03  0.25500000920E-02 0. -1.
    10030    2    1    2    0    0  0.00000000000E+00  0.00000000000E+00 -0.39576469926E+03  0.73362051411E+03  0.61771300905E+03 0.  0.
        2    1    3    3  502    0  0.14016280844E+03 -0.25556787825E+03 -0.76581434531E+02  0.30137231024E+03  0.25500000920E-02 0.  1.
       -2    1    3    3    0  502 -0.14016280844E+03  0.25556787825E+03 -0.31918326473E+03  0.43224820387E+03  0.25500000920E-02 0. -1.
</event>
<event>
 5   0  0.2142838E-02  0.6063669E+03  0.7818609E-02  0.9892284E-01
        2   -1    0    0  501    0  0.00000000000E+00  0.00000000000E+00  0.40668967846E+03  0.40668967847E+03  0.25500000920E-02 0.  1.
       -2   -1    0    0    0  501  0.00000000000E+00  0.00000000000E+00 -0.22602052865E+03  0.22602052866E+03  0.25500000920E-02 0. -1.
    10030    2    1    2    0    0  0.00000000000E+00  0.00000000000E+00  0.18066914981E+03  0.63271020713E+03  0.60636693884E+03 0.  0.
        4    1    3    3  502    0  0.13438944859E+03 -0.26723033116E+02 -0.19186643124E+03  0.23577316371E+03  0.12699999809E+01 0. -1.
       -4    1    3    3    0  502 -0.13438944859E+03  0.26723033116E+02  0.37253558105E+03  0.39693704342E+03  0.12699999809E+01 0.  1.
</event>
<event>
 5   0  0.2141800E-02  0.6008443E+03  0.7818609E-02  0.9903656E-01
       -2   -1    0    0    0  501  0.00000000000E+00  0.00000000000E+00  0.25039964118E+03  0.25039964119E+03  0.25500000920E-02 0. -1.
        2   -1    0    0  501    0  0.00000000000E+00  0.00000000000E+00 -0.36043774061E+03  0.36043774062E+03  0.25500000920E-02 0.  1.
    10030    2    1    2    0    0  0.00000000000E+00  0.00000000000E+00 -0.11003809944E+03  0.61083738181E+03  0.60084434232E+03 0.  0.
        2    1    3    3  502    0  0.14719697665E+03 -0.24920066500E+03 -0.13689141862E+03  0.32016742787E+03  0.25500000920E-02 0.  1.
       -2    1    3    3    0  502 -0.14719697665E+03  0.24920066500E+03  0.26853319185E+02  0.29066995395E+03  0.25500000920E-02 0. -1.
</event>
<event>
 5   0  0.2141800E-02  0.5963133E+03  0.7818609E-02  0.9913085E-01
        2   -1    0    0  501    0  0.00000000000E+00  0.00000000000E+00  0.53739196544E+03  0.53739196544E+03  0.25500000920E-02 0.  1.
       -2   -1    0    0    0  501  0.00000000000E+00  0.00000000000E+00 -0.16542371431E+03  0.16542371433E+03  0.25500000920E-02 0. -1.
    10030    2    1    2    0    0  0.00000000000E+00  0.00000000000E+00  0.37196825113E+03  0.70281567977E+03  0.59631325651E+03 0.  0.
        2    1    3    3  502    0 -0.14260569791E+02  0.14658576560E+03  0.49152760452E+03  0.51311805322E+03  0.25500000920E-02 0.  1.
       -2    1    3    3    0  502  0.14260569791E+02 -0.14658576560E+03 -0.11955935340E+03  0.18969762655E+03  0.25500000920E-02 0. -1.
</event>
<event>
 5   0  0.2092587E-02  0.5991136E+03  0.7818609E-02  0.9907247E-01
        2   -1    0    0  501    0  0.00000000000E+00  0.00000000000E+00  0.53250764716E+03  0.53250764716E+03  0.25500000920E-02 0. -1.
       -2   -1    0    0    0  501  0.00000000000E+00  0.00000000000E+00 -0.16851262919E+03  0.16851262921E+03  0.25500000920E-02 0.  1.
    10030    2    1    2    0    0  0.00000000000E+00  0.00000000000E+00  0.36399501797E+03  0.70102027637E+03  0.59911355750E+03 0.  0.
        3    1    3    3  502    0 -0.18734009582E+03 -0.14940412259E+02 -0.90950327279E+02  0.20878577455E+03  0.10100000352E+00 0.  1.
       -3    1    3    3    0  502  0.18734009582E+03  0.14940412259E+02  0.45494534525E+03  0.49223450182E+03  0.10100000352E+00 0. -1.
</event>
<event>
 5   0  0.1332555E-02  0.5979410E+03  0.7818609E-02  0.9909687E-01
       -1   -1    0    0    0  501  0.00000000000E+00  0.00000000000E+00  0.21157852743E+03  0.21157852749E+03  0.50400001928E-02 0. -1.
        1   -1    0    0  501    0  0.00000000000E+00  0.00000000000E+00 -0.42245956349E+03  0.42245956352E+03  0.50400001928E-02 0.  1.
    10030    2    1    2    0    0  0.00000000000E+00  0.00000000000E+00 -0.21088103606E+03  0.63403809101E+03  0.59794104181E+03 0.  0.
        2    1    3    3  502    0  0.23495628672E+03  0.17447767439E+03 -0.17025722619E+03  0.33857707927E+03  0.25500000920E-02 0. -1.
       -2    1    3    3    0  502 -0.23495628672E+03 -0.17447767439E+03 -0.40623809867E+02  0.29546101175E+03  0.25500000920E-02 0.  1.
</event>
<event>
 5   0  0.1276705E-02  0.6028157E+03  0.7818609E-02  0.9899581E-01
       -1   -1    0    0    0  501  0.00000000000E+00  0.00000000000E+00  0.62879524232E+02  0.62879524434E+02  0.50400001928E-02 0. -1.
        1   -1    0    0  501    0  0.00000000000E+00  0.00000000000E+00 -0.14447740151E+04  0.14447740151E+04  0.50400001928E-02 0.  1.
    10030    2    1    2    0    0  0.00000000000E+00  0.00000000000E+00 -0.13818944909E+04  0.15076535395E+04  0.60281573586E+03 0.  0.
        1    1    3    3  502    0 -0.94115118322E+02 -0.18658780451E+03 -0.14773631548E+03  0.25592710530E+03  0.50400001928E-02 0. -1.
       -1    1    3    3    0  502  0.94115118322E+02  0.18658780451E+03 -0.12341581754E+04  0.12517264342E+04  0.50400001928E-02 0.  1.
</event>
<event>
 5   0  0.1250390E-02  0.5992559E+03  0.7818609E-02  0.9906951E-01
       -1   -1    0    0    0  501  0.00000000000E+00  0.00000000000E+00  0.15541654669E+03  0.15541654678E+03  0.50400001928E-02 0. -1.
        1   -1    0    0  501    0  0.00000000000E+00  0.00000000000E+00 -0.57765353526E+03  0.57765353528E+03  0.50400001928E-02 0.  1.
    10030    2    1    2    0    0  0.00000000000E+00  0.00000000000E+00 -0.42223698857E+03  0.73307008206E+03  0.59925593088E+03 0.  0.
        3    1    3    3  502    0  0.16686392696E+03  0.13343530054E+02  0.92879157330E+02  0.19143711234E+03  0.10100000352E+00 0. -1.
       -3    1    3    3    0  502 -0.16686392696E+03 -0.13343530054E+02 -0.51511614590E+03  0.54163296971E+03  0.10100000352E+00 0.  1.
</event>
<event>
 5   0  0.8551000E-03  0.5995732E+03  0.7818609E-02  0.9906292E-01
        3   -1    0    0  501    0  0.00000000000E+00  0.00000000000E+00  0.23329262170E+03  0.23329264356E+03  0.10100000352E+00 0.  1.
       -3   -1    0    0    0  501  0.00000000000E+00  0.00000000000E+00 -0.38523293784E+03  0.38523295108E+03  0.10100000352E+00 0. -1.
    10030    2    1    2    0    0  0.00000000000E+00  0.00000000000E+00 -0.15194031614E+03  0.61852559464E+03  0.59957322451E+03 0.  0.
        1    1    3    3  502    0 -0.24005182389E+03  0.24553396252E+02 -0.25948151852E+03  0.35434221580E+03  0.50400001928E-02 0. -1.
       -1    1    3    3    0  502  0.24005182389E+03 -0.24553396252E+02  0.10754120238E+03  0.26418337884E+03  0.50400001928E-02 0.  1.
</event>
<event>
 5   0  0.1332555E-02  0.5989463E+03  0.7818609E-02  0.9907595E-01
        1   -1    0    0  501    0  0.00000000000E+00  0.00000000000E+00  0.56029665441E+03  0.56029665443E+03  0.50400001928E-02 0.  1.
       -1   -1    0    0    0  501  0.00000000000E+00  0.00000000000E+00 -0.16006551492E+03  0.16006551500E+03  0.50400001928E-02 0. -1.
    10030    2    1    2    0    0  0.00000000000E+00  0.00000000000E+00  0.40023113949E+03  0.72036216942E+03  0.59894631656E+03 0.  0.
        2    1    3    3  502    0  0.60791722238E+02  0.20962458999E+03  0.44673409986E+03  0.49720162732E+03  0.25500000920E-02 0.  1.
       -2    1    3    3    0  502 -0.60791722238E+02 -0.20962458999E+03 -0.46502960371E+02  0.22316054211E+03  0.25500000920E-02 0. -1.
</event>
<event>
 5   0  0.1276705E-02  0.5995043E+03  0.7818609E-02  0.9906435E-01
       -1   -1    0    0    0  501  0.00000000000E+00  0.00000000000E+00  0.79145605145E+02  0.79145605305E+02  0.50400001928E-02 0. -1.
        1   -1    0    0  501    0  0.00000000000E+00  0.00000000000E+00 -0.11352665030E+04  0.11352665030E+04  0.50400001928E-02 0.  1.
    10030    2    1    2    0    0  0.00000000000E+00  0.00000000000E+00 -0.10561208979E+04  0.12144121083E+04  0.59950431020E+03 0.  0.
        1    1    3    3  502    0 -0.19013191784E+02  0.22016383206E+03 -0.93832089047E+03  0.96399154972E+03  0.50400001928E-02 0.  1.
       -1    1    3    3    0  502  0.19013191784E+02 -0.22016383206E+03 -0.11780000741E+03  0.25042055862E+03  0.50400001928E-02 0. -1.
</event>
<event>
 5   0  0.2142838E-02  0.5989292E+03  0.7818609E-02  0.9907630E-01
       -2   -1    0    0    0  501  0.00000000000E+00  0.00000000000E+00  0.19682104940E+03  0.19682104941E+03  0.25500000920E-02 0.  1.
        2   -1    0    0  501    0  0.00000000000E+00  0.00000000000E+00 -0.45563749815E+03  0.45563749815E+03  0.25500000920E-02 0. -1.
    10030    2    1    2    0    0  0.00000000000E+00  0.00000000000E+00 -0.25881644875E+03  0.65245854757E+03  0.59892921297E+03 0.  0.
        4    1    3    3  502    0  0.49936422829E+02 -0.16574141695E+03 -0.39561184707E+03  0.43182659721E+03  0.12699999809E+01 0. -1.
       -4    1    3    3    0  502 -0.49936422829E+02  0.16574141695E+03  0.13679539832E+03  0.22063195036E+03  0.12699999809E+01 0.  1.
</event>
<event>
 5   0  0.2142838E-02  0.5969984E+03  0.7818609E-02  0.9911653E-01
       -2   -1    0    0    0  501  0.00000000000E+00  0.00000000000E+00  0.28305500355E+03  0.28305500356E+03  0.25500000920E-02 0.  1.
        2   -1    0    0  501    0  0.00000000000E+00  0.00000000000E+00 -0.31478602701E+03  0.31478602702E+03  0.25500000920E-02 0. -1.
    10030    2    1    2    0    0  0.00000000000E+00  0.00000000000E+00 -0.31731023459E+02  0.59784103058E+03  0.59699835845E+03 0.  0.
        4    1    3    3  502    0  0.20890398573E+03  0.89498429945E+02  0.17792586579E+03  0.28863483995E+03  0.12699999809E+01 0.  1.
       -4    1    3    3    0  502 -0.20890398573E+03 -0.89498429945E+02 -0.20965688925E+03  0.30920619063E+03  0.12699999809E+01 0. -1.
</event>
<event>
 5   0  0.2141800E-02  0.6003050E+03  0.7818609E-02  0.9904774E-01
        2   -1    0    0  501    0  0.00000000000E+00  0.00000000000E+00  0.10692786313E+04  0.10692786313E+04  0.25500000920E-02 0.  1.
       -2   -1    0    0    0  501  0.00000000000E+00  0.00000000000E+00 -0.84254481940E+02  0.84254481978E+02  0.25500000920E-02 0. -1.
    10030    2    1    2    0    0  0.00000000000E+00  0.00000000000E+00  0.98502414940E+03  0.11535331133E+04  0.60030497968E+03 0.  0.
        2    1    3    3  502    0 -0.26874677627E+03 -0.12937566352E+03  0.55706753305E+03  0.63189170627E+03  0.25500000920E-02 0.  1.
       -2    1    3    3    0  502  0.26874677627E+03  0.12937566352E+03  0.42795661635E+03  0.52164140705E+03  0.25500000920E-02 0. -1.
</event>
<event>
 5   0  0.1337051E-02  0.5970851E+03  0.7818609E-02  0.9911472E-01
        1   -1    0    0  501    0  0.00000000000E+00  0.00000000000E+00  0.16126803467E+04  0.16126803467E+04  0.50400001928E-02 0.  1.
       -1   -1    0    0    0  501  0.00000000000E+00  0.00000000000E+00 -0.55266783195E+02  0.55266783425E+02  0.50400001928E-02 0. -1.
    10030    2    1    2    0    0  0.00000000000E+00  0.00000000000E+00  0.15574135635E+04  0.16679471302E+04  0.59708510376E+03 0.  0.
        5    1    3    3  502    0  0.19097204045E+02 -0.26884969727E+03  0.11371086172E+04  0.11686243880E+04  0.46999998093E+01 0.  1.
       -5    1    3    3    0  502 -0.19097204045E+02  0.26884969727E+03  0.42030494633E+03  0.49932274216E+03  0.46999998093E+01 0. -1.
</event>
<event>
 5   0  0.1303808E-02  0.6008809E+03  0.7818609E-02  0.9903580E-01
        1   -1    0    0  501    0  0.00000000000E+00  0.00000000000E+00  0.16441006853E+03  0.16441006861E+03  0.50400001928E-02 0.  1.
       -1   -1    0    0    0  501  0.00000000000E+00  0.00000000000E+00 -0.54902032624E+03  0.54902032627E+03  0.50400001928E-02 0. -1.
    10030    2    1    2    0    0  0.00000000000E+00  0.00000000000E+00 -0.38461025771E+03  0.71343039488E+03  0.60088091831E+03 0.  0.
        4    1    3    3  502    0 -0.90867465077E+02  0.24701044399E+03 -0.20281523689E+02  0.26397728833E+03  0.12699999809E+01 0.  1.
       -4    1    3    3    0  502  0.90867465077E+02 -0.24701044399E+03 -0.36432873402E+03  0.44945310655E+03  0.12699999809E+01 0. -1.
</event>
<event>
 5   0  0.1250390E-02  0.5978187E+03  0.7818609E-02  0.9909942E-01
       -1   -1    0    0    0  501  0.00000000000E+00  0.00000000000E+00  0.13250405414E+03  0.13250405423E+03  0.50400001928E-02 0. -1.
        1   -1    0    0  501    0  0.00000000000E+00  0.00000000000E+00 -0.67429489736E+03  0.67429489737E+03  0.50400001928E-02 0.  1.
    10030    2    1    2    0    0  0.00000000000E+00  0.00000000000E+00 -0.54179084322E+03  0.80679895161E+03  0.59781872714E+03 0.  0.
        3    1    3    3  502    0 -0.37547295030E+02  0.21196833731E+03 -0.55076936432E+03  0.59134362114E+03  0.10100000352E+00 0.  1.
       -3    1    3    3    0  502  0.37547295030E+02 -0.21196833731E+03  0.89785211035E+01  0.21545533047E+03  0.10100000352E+00 0. -1.
</event>
<event>
 5   0  0.8551000E-03  0.6013011E+03  0.7818609E-02  0.9902710E-01
        3   -1    0    0  501    0  0.00000000000E+00  0.00000000000E+00  0.20078289938E+03  0.20078292478E+03  0.10100000352E+00 0.  1.
       -3   -1    0    0    0  501  0.00000000000E+00  0.00000000000E+00 -0.45019144021E+03  0.45019145154E+03  0.10100000352E+00 0. -1.
    10030    2    1    2    0    0  0.00000000000E+00  0.00000000000E+00 -0.24940854083E+03  0.65097437631E+03  0.60130110459E+03 0.  0.
        4    1    3    3  502    0  0.26290880778E+03 -0.13462247309E+03 -0.18541628416E+03  0.34874784988E+03  0.12699999809E+01 0.  1.
       -4    1    3    3    0  502 -0.26290880778E+03  0.13462247309E+03 -0.63992256674E+02  0.30222652643E+03  0.12699999809E+01 0. -1.
</event>
<event>
 5   0  0.1303808E-02  0.6006854E+03  0.7818609E-02  0.9903985E-01
        1   -1    0    0  501    0  0.00000000000E+00  0.00000000000E+00  0.79431150757E+03  0.79431150759E+03  0.50400001928E-02 0. -1.
       -1   -1    0    0    0  501  0.00000000000E+00  0.00000000000E+00 -0.11356469954E+03  0.11356469965E+03  0.50400001928E-02 0.  1.
    10030    2    1    2    0    0  0.00000000000E+00  0.00000000000E+00  0.68074680803E+03  0.90787620724E+03  0.60068543434E+03 0.  0.
        4    1    3    3  502    0 -0.25748250043E+03 -0.33010736286E+02  0.56867586609E+03  0.62512462782E+03  0.12699999809E+01 0. -1.
       -4    1    3    3    0  502  0.25748250043E+03  0.33010736286E+02  0.11207094194E+03  0.28275157942E+03  0.12699999809E+01 0.  1.
</event>
<event>
 5   0  0.1332555E-02  0.5976311E+03  0.7818609E-02  0.9910333E-01
       -1   -1    0    0    0  501  0.00000000000E+00  0.00000000000E+00  0.41939367588E+03  0.41939367591E+03  0.50400001928E-02 0.  1.
        1   -1    0    0  501    0  0.00000000000E+00  0.00000000000E+00 -0.21290433534E+03  0.21290433540E+03  0.50400001928E-02 0. -1.
    10030    2    1    2    0    0  0.00000000000E+00  0.00000000000E+00  0.20648934053E+03  0.63229801131E+03  0.59763109638E+03 0.  0.
        2    1    3    3  502    0 -0.10402995547E+03  0.77175992461E+02  0.38814612584E+03  0.40918917441E+03  0.25500000920E-02 0.  1.
       -2    1    3    3    0  502  0.10402995547E+03 -0.77175992461E+02 -0.18165678530E+03  0.22310883690E+03  0.25500000920E-02 0. -1.
</event>
<event>
 5   0  0.2179625E-02  0.6017018E+03  0.7818609E-02  0.9901882E-01
        2   -1    0    0  501    0  0.00000000000E+00  0.00000000000E+00  0.51550844115E+03  0.51550844116E+03  0.25500000920E-02 0.  1.
       -2   -1    0    0    0  501  0.00000000000E+00  0.00000000000E+00 -0.17557668388E+03  0.17557668390E+03  0.25500000920E-02 0. -1.
    10030    2    1    2    0    0  0.00000000000E+00  0.00000000000E+00  0.33993175727E+03  0.69108512506E+03  0.60170179531E+03 0.  0.
        1    1    3    3  502    0 -0.18789120897E+03  0.22555674784E+03  0.24556382274E+03  0.38272776744E+03  0.50400001928E-02 0. -1.
       -1    1    3    3    0  502  0.18789120897E+03 -0.22555674784E+03  0.94367934529E+02  0.30835735762E+03  0.50400001928E-02 0.  1.
</event>
<event>
 5   0  0.2141800E-02  0.6015950E+03  0.7818609E-02  0.9902102E-01
        2   -1    0    0  501    0  0.00000000000E+00  0.00000000000E+00  0.25694174303E+03  0.25694174304E+03  0.25500000920E-02 0. -1.
       -2   -1    0    0    0  501  0.00000000000E+00  0.00000000000E+00 -0.35213876054E+03  0.35213876055E+03  0.25500000920E-02 0.  1.
    10030    2    1    2    0    0  0.00000000000E+00  0.00000000000E+00 -0.95197017514E+02  0.60908050360E+03  0.60159503631E+03 0.  0.
        2    1    3    3  502    0  0.52313340180E+02 -0.11103527064E+03 -0.32563088846E+03  0.34799567873E+03  0.25500000920E-02 0.  1.
       -2    1    3    3    0  502 -0.52313340180E+02  0.11103527064E+03  0.23043387095E+03  0.26108482487E+03  0.25500000920E-02 0. -1.
</event>
<event>
 5   0  0.2092587E-02  0.5979232E+03  0.7818609E-02  0.9909724E-01
       -2   -1    0    0    0  501  0.00000000000E+00  0.00000000000E+00  0.19092696874E+03  0.19092696876E+03  0.25500000920E-02 0.  1.
        2   -1    0    0  501    0  0.00000000000E+00  0.00000000000E+00 -0.46812685138E+03  0.46812685139E+03  0.25500000920E-02 0. -1.
    10030    2    1    2    0    0  0.00000000000E+00  0.00000000000E+00 -0.27719988263E+03  0.65905382015E+03  0.59792320821E+03 0.  0.
        3    1    3    3  502    0 -0.28176973079E+02  0.29701309700E+03 -0.11747520903E+03  0.32064178851E+03  0.10100000352E+00 0.  1.
       -3    1    3    3    0  502  0.28176973079E+02 -0.29701309700E+03 -0.15972467360E+03  0.33841203164E+03  0.10100000352E+00 0. -1.
</event>
<event>
 5   0  0.2126207E-02  0.5959966E+03  0.7818609E-02  0.9913747E-01
        2   -1    0    0  501    0  0.00000000000E+00  0.00000000000E+00  0.76731026101E+02  0.76731026143E+02  0.25500000920E-02 0. -1.
       -2   -1    0    0    0  501  0.00000000000E+00  0.00000000000E+00 -0.11573281762E+04  0.11573281762E+04  0.25500000920E-02 0.  1.
    10030    2    1    2    0    0  0.00000000000E+00  0.00000000000E+00 -0.10805971501E+04  0.12340592024E+04  0.59599657222E+03 0.  0.
        5    1    3    3  502    0  0.17652339256E+02  0.14646044262E+03 -0.42674840444E+01  0.14765692586E+03  0.46999998093E+01 0. -1.
       -5    1    3    3    0  502 -0.17652339256E+02 -0.14646044262E+03 -0.10763296661E+04  0.10864022765E+04  0.46999998093E+01 0.  1.
</event>
<event>
 5   0  0.8551000E-03  0.5995979E+03  0.7818609E-02  0.9906241E-01
        3   -1    0    0  501    0  0.00000000000E+00  0.00000000000E+00  0.11337887885E+04  0.11337887930E+04  0.10100000352E+00 0.  1.
       -3   -1    0    0    0  501  0.00000000000E+00  0.00000000000E+00 -0.79273473987E+02  0.79273538327E+02  0.10100000352E+00 0. -1.
    10030    2    1    2    0    0  0.00000000000E+00  0.00000000000E+00  0.10545153145E+04  0.12130623313E+04  0.59959792456E+03 0.  0.
        3    1    3    3  502    0 -0.73524319808E+02 -0.94782356287E+02 -0.28604851875E+02  0.12331978113E+03  0.10100000352E+00 0. -1.
       -3    1    3    3    0  502  0.73524319808E+02  0.94782356287E+02  0.10831201664E+04  0.10897425502E+04  0.10100000352E+00 0.  1.
</event>
<event>
 5   0  0.1250390E-02  0.5901820E+03  0.7818609E-02  0.9925987E-01
        1   -1    0    0  501    0  0.00000000000E+00  0.00000000000E+00  0.31751689939E+03  0.31751689943E+03  0.50400001928E-02 0.  1.
       -1   -1    0    0    0  501  0.00000000000E+00  0.00000000000E+00 -0.27424899362E+03  0.27424899367E+03  0.50400001928E-02 0. -1.
    10030    2    1    2    0    0  0.00000000000E+00  0.00000000000E+00  0.43267905774E+02  0.59176589310E+03  0.59018197242E+03 0.  0.
        3    1    3    3  502    0 -0.79283024481E+02  0.28223780001E+03 -0.12141852046E+02  0.29341337478E+03  0.10100000352E+00 0. -1.
       -3    1    3    3    0  502  0.79283024481E+02 -0.28223780001E+03  0.55409757820E+02  0.29835251832E+03  0.10100000352E+00 0.  1.
</event>
<event>
 5   0  0.1332555E-02  0.6018643E+03  0.7818609E-02  0.9901546E-01
       -1   -1    0    0    0  501  0.00000000000E+00  0.00000000000E+00  0.81683773104E+03  0.81683773105E+03  0.50400001928E-02 0. -1.
        1   -1    0    0  501    0  0.00000000000E+00  0.00000000000E+00 -0.11086678215E+03  0.11086678227E+03  0.50400001928E-02 0.  1.
    10030    2    1    2    0    0  0.00000000000E+00  0.00000000000E+00  0.70597094889E+03  0.92770451332E+03  0.60186433967E+03 0.  0.
        2    1    3    3  502    0  0.77848486574E+02 -0.29046626031E+03  0.37050143819E+03  0.47718167499E+03  0.25500000920E-02 0.  1.
       -2    1    3    3    0  502 -0.77848486574E+02  0.29046626031E+03  0.33546951070E+03  0.45052283833E+03  0.25500000920E-02 0. -1.
</event>
<event>
 5   0  0.1250390E-02  0.6014416E+03  0.7818609E-02  0.9902420E-01
       -1   -1    0    0    0  501  0.00000000000E+00  0.00000000000E+00  0.13509844072E+03  0.13509844082E+03  0.50400001928E-02 0. -1.
        1   -1    0    0  501    0  0.00000000000E+00  0.00000000000E+00 -0.66938591663E+03  0.66938591665E+03  0.50400001928E-02 0.  1.
    10030    2    1    2    0    0  0.00000000000E+00  0.00000000000E+00 -0.53428747590E+03  0.80448435747E+03  0.60144158029E+03 0.  0.
        3    1    3    3  502    0  0.16405144030E+03  0.25197738788E+03 -0.27415869321E+03  0.40690106700E+03  0.10100000352E+00 0.  1.
       -3    1    3    3    0  502 -0.16405144030E+03 -0.25197738788E+03 -0.26012878269E+03  0.39758329046E+03  0.10100000352E+00 0. -1.
</event>
<event>
 5   0  0.2141800E-02  0.5802864E+03  0.7818609E-02  0.9947171E-01
        2   -1    0    0  501    0  0.00000000000E+00  0.00000000000E+00  0.54193239726E+03  0.54193239727E+03  0.25500000920E-02 0.  1.
       -2   -1    0    0    0  501  0.00000000000E+00  0.00000000000E+00 -0.15533870351E+03  0.15533870353E+03  0.25500000920E-02 0. -1.
    10030    2    1    2    0    0  0.00000000000E+00  0.00000000000E+00  0.38659369376E+03  0.69727110080E+03  0.58028639822E+03 0.  0.
        2    1    3    3  502    0  0.46344033062E+02 -0.19921311881E+03 -0.53979804084E+02  0.21153594343E+03  0.25500000920E-02 0. -1.
       -2    1    3    3    0  502 -0.46344033062E+02  0.19921311881E+03  0.44057349784E+03  0.48573515737E+03  0.25500000920E-02 0.  1.
</event>
<event>
 5   0  0.2179625E-02  0.6015621E+03  0.7818609E-02  0.9902170E-01
       -2   -1    0    0    0  501  0.00000000000E+00  0.00000000000E+00  0.76978617375E+02  0.76978617417E+02  0.25500000920E-02 0.  1.
        2   -1    0    0  501    0  0.00000000000E+00  0.00000000000E+00 -0.11752516259E+04  0.11752516259E+04  0.25500000920E-02 0. -1.
    10030    2    1    2    0    0  0.00000000000E+00  0.00000000000E+00 -0.10982730085E+04  0.12522302433E+04  0.60156211735E+03 0.  0.
        1    1    3    3  502    0 -0.25699895013E+03 -0.12415776337E+03 -0.35159385607E+03  0.45285963633E+03  0.50400001928E-02 0.  1.
       -1    1    3    3    0  502  0.25699895013E+03  0.12415776337E+03 -0.74667915244E+03  0.79937060697E+03  0.50400001928E-02 0. -1.
</event>
<event>
 5   0  0.2179625E-02  0.5997354E+03  0.7818609E-02  0.9905955E-01
        2   -1    0    0  501    0  0.00000000000E+00  0.00000000000E+00  0.19252874684E+03  0.19252874686E+03  0.25500000920E-02 0. -1.
       -2   -1    0    0    0  501  0.00000000000E+00  0.00000000000E+00 -0.46705050678E+03  0.46705050678E+03  0.25500000920E-02 0.  1.
    10030    2    1    2    0    0  0.00000000000E+00  0.00000000000E+00 -0.27452175994E+03  0.65957925364E+03  0.59973543764E+03 0.  0.
        1    1    3    3  502    0  0.21633457262E+03  0.17694082220E+03 -0.17733329828E+02  0.28004137709E+03  0.50400001928E-02 0. -1.
       -1    1    3    3    0  502 -0.21633457262E+03 -0.17694082220E+03 -0.25678843011E+03  0.37953787655E+03  0.50400001928E-02 0.  1.
</event>
<event>
 5   0  0.2092587E-02  0.5979594E+03  0.7818609E-02  0.9909649E-01
        2   -1    0    0  501    0  0.00000000000E+00  0.00000000000E+00  0.37088838521E+03  0.37088838522E+03  0.25500000920E-02 0.  1.
       -2   -1    0    0    0  501  0.00000000000E+00  0.00000000000E+00 -0.24101280604E+03  0.24101280606E+03  0.25500000920E-02 0. -1.
    10030    2    1    2    0    0  0.00000000000E+00  0.00000000000E+00  0.12987557917E+03  0.61190119128E+03  0.59795936469E+03 0.  0.
        3    1    3    3  502    0 -0.21303979362E+03  0.26540347276E+02  0.27787229105E+03  0.35114578744E+03  0.10100000352E+00 0.  1.
       -3    1    3    3    0  502  0.21303979362E+03 -0.26540347276E+02 -0.14799671189E+03  0.26075540384E+03  0.10100000352E+00 0. -1.
</event>
<event>
 5   0  0.1303808E-02  0.6013270E+03  0.7818609E-02  0.9902657E-01
        1   -1    0    0  501    0  0.00000000000E+00  0.00000000000E+00  0.85517550223E+03  0.85517550224E+03  0.50400001928E-02 0.  1.
       -1   -1    0    0    0  501  0.00000000000E+00  0.00000000000E+00 -0.10570757899E+03  0.10570757911E+03  0.50400001928E-02 0. -1.
    10030    2    1    2    0    0  0.00000000000E+00  0.00000000000E+00  0.74946792324E+03  0.96088308135E+03  0.60132697266E+03 0.  0.
        4    1    3    3  502    0 -0.18411262317E+03 -0.20799337500E+03  0.55858860843E+03  0.62384416998E+03  0.12699999809E+01 0.  1.
       -4    1    3    3    0  502  0.18411262317E+03  0.20799337500E+03  0.19087931481E+03  0.33703891137E+03  0.12699999809E+01 0. -1.
</event>
<event>
 5   0  0.2092587E-02  0.5997529E+03  0.7818609E-02  0.9905919E-01
       -2   -1    0    0    0  501  0.00000000000E+00  0.00000000000E+00  0.81567026287E+02  0.81567026327E+02  0.25500000920E-02 0.  1.
        2   -1    0    0  501    0  0.00000000000E+00  0.00000000000E+00 -0.11024783420E+04  0.11024783420E+04  0.25500000920E-02 0. -1.
    10030    2    1    2    0    0  0.00000000000E+00  0.00000000000E+00 -0.10209113157E+04  0.11840453683E+04  0.59975288221E+03 0.  0.
        3    1    3    3  502    0 -0.43787277812E+02  0.23905573987E+02 -0.10942283715E+04  0.10953650265E+04  0.10100000352E+00 0. -1.
       -3    1    3    3    0  502  0.43787277812E+02 -0.23905573987E+02  0.73317055738E+02  0.88680341841E+02  0.10100000352E+00 0.  1.
</event>
<event>
 5   0  0.1332555E-02  0.6012805E+03  0.7818609E-02  0.9902753E-01
        1   -1    0    0  501    0  0.00000000000E+00  0.00000000000E+00  0.39081032311E+03  0.39081032314E+03  0.50400001928E-02 0. -1.
       -1   -1    0    0    0  501  0.00000000000E+00  0.00000000000E+00 -0.23127478839E+03  0.23127478844E+03  0.50400001928E-02 0.  1.
    10030    2    1    2    0    0  0.00000000000E+00  0.00000000000E+00  0.15953553472E+03  0.62208511158E+03  0.60128054951E+03 0.  0.
        2    1    3    3  502    0  0.90555829196E+02 -0.19650013638E+03  0.29572908374E+03  0.36642646299E+03  0.25500000920E-02 0. -1.
       -2    1    3    3    0  502 -0.90555829196E+02  0.19650013638E+03 -0.13619354902E+03  0.25565864860E+03  0.25500000920E-02 0.  1.
</event>
<event>
 5   0  0.2126207E-02  0.6006509E+03  0.7818609E-02  0.9904057E-01
        2   -1    0    0  501    0  0.00000000000E+00  0.00000000000E+00  0.19612317117E+04  0.19612317117E+04  0.25500000920E-02 0.  1.
       -2   -1    0    0    0  501  0.00000000000E+00  0.00000000000E+00 -0.45989141851E+02  0.45989141922E+02  0.25500000920E-02 0. -1.
    10030    2    1    2    0    0  0.00000000000E+00  0.00000000000E+00  0.19152425699E+04  0.20072208536E+04  0.60065085854E+03 0.  0.
        5    1    3    3  502    0 -0.24914452266E+02 -0.49334997704E+02  0.19439655093E+04  0.19447567105E+04  0.46999998093E+01 0.  1.
       -5    1    3    3    0  502  0.24914452266E+02  0.49334997704E+02 -0.28722939392E+02  0.62464143120E+02  0.46999998093E+01 0. -1.
</event>
<event>
 5   0  0.2092587E-02  0.6020524E+03  0.7818609E-02  0.9901157E-01
        2   -1    0    0  501    0  0.00000000000E+00  0.00000000000E+00  0.17645145704E+04  0.17645145704E+04  0.25500000920E-02 0.  1.
       -2   -1    0    0    0  501  0.00000000000E+00  0.00000000000E+00 -0.51355068479E+02  0.51355068542E+02  0.25500000920E-02 0. -1.
    10030    2    1    2    0    0  0.00000000000E+00  0.00000000000E+00  0.17131595019E+04  0.18158696389E+04  0.60205237863E+03 0.  0.
        3    1    3    3  502    0  0.17581515659E+03  0.24362770312E+03  0.80004601836E+03  0.85459877645E+03  0.10100000352E+00 0. -1.
       -3    1    3    3    0  502 -0.17581515659E+03 -0.24362770312E+03  0.91311348355E+03  0.96127086248E+03  0.10100000352E+00 0.  1.
</event>
<event>
 5   0  0.1332555E-02  0.6013005E+03  0.7818609E-02  0.9902712E-01
        1   -1    0    0  501    0  0.00000000000E+00  0.00000000000E+00  0.30054722942E+03  0.30054722946E+03  0.50400001928E-02 0. -1.
       -1   -1    0    0    0  501  0.00000000000E+00  0.00000000000E+00 -0.30075328070E+03  0.30075328074E+03  0.50400001928E-02 0.  1.
    10030    2    1    2    0    0  0.00000000000E+00  0.00000000000E+00 -0.20605128300E+00  0.60130051020E+03  0.60130047489E+03 0.  0.
        2    1    3    3  502    0 -0.26025243697E+03 -0.20280702708E+02  0.14905437454E+03  0.30059914243E+03  0.25500000920E-02 0. -1.
       -2    1    3    3    0  502  0.26025243697E+03  0.20280702708E+02 -0.14926042583E+03  0.30070136777E+03  0.25500000920E-02 0.  1.
</event>
<event>
 5   0  0.1332555E-02  0.5978504E+03  0.7818609E-02  0.9909876E-01
        1   -1    0    0  501    0  0.00000000000E+00  0.00000000000E+00  0.43810201870E+03  0.43810201873E+03  0.50400001928E-02 0. -1.
       -1   -1    0    0    0  501  0.00000000000E+00  0.00000000000E+00 -0.20396228398E+03  0.20396228404E+03  0.50400001928E-02 0.  1.
    10030    2    1    2    0    0  0.00000000000E+00  0.00000000000E+00  0.23413973472E+03  0.64206430278E+03  0.59785044411E+03 0.  0.
        2    1    3    3  502    0 -0.12054168833E+03  0.23550195570E+03  0.26651875446E+03  0.37553124537E+03  0.25500000920E-02 0. -1.
       -2    1    3    3    0  502  0.12054168833E+03 -0.23550195570E+03 -0.32379019734E+02  0.26653305741E+03  0.25500000920E-02 0.  1.
</event>
<event>
 5   0  0.8551000E-03  0.5996423E+03  0.7818609E-02  0.9906149E-01
       -3   -1    0    0    0  501  0.00000000000E+00  0.00000000000E+00  0.53847703648E+03  0.53847704596E+03  0.10100000352E+00 0.  1.
        3   -1    0    0  501    0  0.00000000000E+00  0.00000000000E+00 -0.16693876999E+03  0.16693880054E+03  0.10100000352E+00 0. -1.
    10030    2    1    2    0    0  0.00000000000E+00  0.00000000000E+00  0.37153826650E+03  0.70541584650E+03  0.59964225419E+03 0.  0.
        1    1    3    3  502    0 -0.25251512266E+03 -0.48596602923E+02  0.36712930304E+03  0.44822922948E+03  0.50400001928E-02 0.  1.
       -1    1    3    3    0  502  0.25251512266E+03  0.48596602923E+02  0.44089634569E+01  0.25718661701E+03  0.50400001928E-02 0. -1.
</event>
<event>
 5   0  0.1337051E-02  0.5992277E+03  0.7818609E-02  0.9907010E-01
        1   -1    0    0  501    0  0.00000000000E+00  0.00000000000E+00  0.39477980773E+03  0.39477980776E+03  0.50400001928E-02 0. -1.
       -1   -1    0    0    0  501  0.00000000000E+00  0.00000000000E+00 -0.22738870652E+03  0.22738870658E+03  0.50400001928E-02 0.  1.
    10030    2    1    2    0    0  0.00000000000E+00  0.00000000000E+00  0.16739110121E+03  0.62216851434E+03  0.59922773590E+03 0.  0.
        5    1    3    3  502    0 -0.66272268561E+02  0.28195752597E+03  0.42527867333E+01  0.28971060772E+03  0.46999998093E+01 0.  1.
       -5    1    3    3    0  502  0.66272268561E+02 -0.28195752597E+03  0.16313831448E+03  0.33245790663E+03  0.46999998093E+01 0. -1.
</event>
<event>
 5   0  0.2141800E-02  0.5978585E+03  0.7818609E-02  0.9909859E-01
        2   -1    0    0  501    0  0.00000000000E+00  0.00000000000E+00  0.51679784844E+03  0.51679784845E+03  0.25500000920E-02 0.  1.
       -2   -1    0    0    0  501  0.00000000000E+00  0.00000000000E+00 -0.17290842315E+03  0.17290842317E+03  0.25500000920E-02 0. -1.
    10030    2    1    2    0    0  0.00000000000E+00  0.00000000000E+00  0.34388942529E+03  0.68970627161E+03  0.59785851527E+03 0.  0.
        2    1    3    3  502    0 -0.27434075177E+03  0.25576463537E+02  0.30569441202E+03  0.41154110015E+03  0.25500000920E-02 0.  1.
       -2    1    3    3    0  502  0.27434075177E+03 -0.25576463537E+02  0.38195013276E+02  0.27816517146E+03  0.25500000920E-02 0. -1.
</event>
<event>
 5   0  0.2141800E-02  0.5951458E+03  0.7818609E-02  0.9915528E-01
       -2   -1    0    0    0  501  0.00000000000E+00  0.00000000000E+00  0.17945554703E+03  0.17945554705E+03  0.25500000920E-02 0. -1.
        2   -1    0    0  501    0  0.00000000000E+00  0.00000000000E+00 -0.49343487670E+03  0.49343487671E+03  0.25500000920E-02 0.  1.
    10030    2    1    2    0    0  0.00000000000E+00  0.00000000000E+00 -0.31397932967E+03  0.67289042376E+03  0.59514578292E+03 0.  0.
        2    1    3    3  502    0 -0.43228286088E+02  0.96293762654E+02  0.15757879729E+03  0.18966351996E+03  0.25500000920E-02 0. -1.
       -2    1    3    3    0  502  0.43228286088E+02 -0.96293762654E+02 -0.47155812696E+03  0.48322690380E+03  0.25500000920E-02 0.  1.
</event>
<event>
 5   0  0.1250390E-02  0.5705879E+03  0.7818609E-02  0.9968379E-01
        1   -1    0    0  501    0  0.00000000000E+00  0.00000000000E+00  0.86742201218E+02  0.86742201365E+02  0.50400001928E-02 0.  1.
       -1   -1    0    0    0  501  0.00000000000E+00  0.00000000000E+00 -0.93832795125E+03  0.93832795127E+03  0.50400001928E-02 0. -1.
    10030    2    1    2    0    0  0.00000000000E+00  0.00000000000E+00 -0.85158575004E+03  0.10250701526E+04  0.57058787943E+03 0.  0.
        3    1    3    3  502    0  0.17005105049E+03  0.12436971994E+03 -0.77139431046E+03  0.79964640900E+03  0.10100000352E+00 0. -1.
       -3    1    3    3    0  502 -0.17005105049E+03 -0.12436971994E+03 -0.80191439575E+02  0.22542374363E+03  0.10100000352E+00 0.  1.
</event>
<event>
 5   0  0.2142838E-02  0.6002207E+03  0.7818609E-02  0.9904948E-01
        2   -1    0    0  501    0  0.00000000000E+00  0.00000000000E+00  0.55318701663E+03  0.55318701664E+03  0.25500000920E-02 0. -1.
       -2   -1    0    0    0  501  0.00000000000E+00  0.00000000000E+00 -0.16281331441E+03  0.16281331443E+03  0.25500000920E-02 0.  1.
    10030    2    1    2    0    0  0.00000000000E+00  0.00000000000E+00  0.39037370222E+03  0.71600033107E+03  0.60022066501E+03 0.  0.
        4    1    3    3  502    0  0.13394026718E+03 -0.74149757081E+02 -0.11272436513E+03  0.19012253165E+03  0.12699999809E+01 0.  1.
       -4    1    3    3    0  502 -0.13394026718E+03  0.74149757081E+02  0.50309806735E+03  0.52587779942E+03  0.12699999809E+01 0. -1.
</event>
<event>
 5   0  0.1276705E-02  0.5960575E+03  0.7818609E-02  0.9913620E-01
       -1   -1    0    0    0  501  0.00000000000E+00  0.00000000000E+00  0.35978634455E+03  0.35978634459E+03  0.50400001928E-02 0. -1.
        1   -1    0    0  501    0  0.00000000000E+00  0.00000000000E+00 -0.24687185475E+03  0.24687185480E+03  0.50400001928E-02 0.  1.
    10030    2    1    2    0    0  0.00000000000E+00  0.00000000000E+00  0.11291448981E+03  0.60665819939E+03  0.59605745434E+03 0.  0.
        1    1    3    3  502    0  0.12041412585E+03  0.26068062105E+03  0.13767094875E+03  0.31844503144E+03  0.50400001928E-02 0. -1.
       -1    1    3    3    0  502 -0.12041412585E+03 -0.26068062105E+03 -0.24756458945E+02  0.28821316795E+03  0.50400001928E-02 0.  1.
</event>
<event>
 5   0  0.2141800E-02  0.6007494E+03  0.7818609E-02  0.9903852E-01
        2   -1    0    0  501    0  0.00000000000E+00  0.00000000000E+00  0.80962854399E+03  0.80962854399E+03  0.25500000920E-02 0.  1.
       -2   -1    0    0    0  501  0.00000000000E+00  0.00000000000E+00 -0.11143996253E+03  0.11143996256E+03  0.25500000920E-02 0. -1.
    10030    2    1    2    0    0  0.00000000000E+00  0.00000000000E+00  0.69818858146E+03  0.92106850655E+03  0.60074944733E+03 0.  0.
        2    1    3    3  502    0  0.69313749057E+01 -0.64123261544E+02 -0.10069818668E+03  0.11958244619E+03  0.25500000920E-02 0. -1.
       -2    1    3    3    0  502 -0.69313749057E+01  0.64123261544E+02  0.79888676815E+03  0.80148606036E+03  0.25500000920E-02 0.  1.
</event>
<event>
 5   0  0.1250390E-02  0.5986881E+03  0.7818609E-02  0.9908132E-01
        1   -1    0    0  501    0  0.00000000000E+00  0.00000000000E+00  0.43838989974E+03  0.43838989977E+03  0.50400001928E-02 0.  1.
       -1   -1    0    0    0  501  0.00000000000E+00  0.00000000000E+00 -0.20439989491E+03  0.20439989497E+03  0.50400001928E-02 0. -1.
    10030    2    1    2    0    0  0.00000000000E+00  0.00000000000E+00  0.23399000483E+03  0.64278979473E+03  0.59868806390E+03 0.  0.
        3    1    3    3  502    0  0.16493876537E+03  0.13297290205E+03 -0.11005446422E+03  0.23874376284E+03  0.10100000352E+00 0. -1.
       -3    1    3    3    0  502 -0.16493876537E+03 -0.13297290205E+03  0.34404446905E+03  0.40404603189E+03  0.10100000352E+00 0.  1.
</event>
<event>
 5   0  0.8551000E-03  0.5964128E+03  0.7818609E-02  0.9912876E-01
        3   -1    0    0  501    0  0.00000000000E+00  0.00000000000E+00  0.33258374738E+03  0.33258376272E+03  0.10100000352E+00 0. -1.
       -3   -1    0    0    0  501  0.00000000000E+00  0.00000000000E+00 -0.26738245528E+03  0.26738247436E+03  0.10100000352E+00 0.  1.
    10030    2    1    2    0    0  0.00000000000E+00  0.00000000000E+00  0.65201292100E+02  0.59996623708E+03  0.59641284120E+03 0.  0.
        3    1    3    3  502    0  0.17819547704E+03  0.23603390503E+02  0.27196011347E+03  0.32599549322E+03  0.10100000352E+00 0. -1.
       -3    1    3    3    0  502 -0.17819547704E+03 -0.23603390503E+02 -0.20675882137E+03  0.27397074386E+03  0.10100000352E+00 0.  1.
</event>
<event>
 5   0  0.2179625E-02  0.6008379E+03  0.7818609E-02  0.9903669E-01
       -2   -1    0    0    0  501  0.00000000000E+00  0.00000000000E+00  0.66013823465E+02  0.66013823514E+02  0.25500000920E-02 0.  1.
        2   -1    0    0  501    0  0.00000000000E+00  0.00000000000E+00 -0.13671615004E+04  0.13671615004E+04  0.25500000920E-02 0. -1.
    10030    2    1    2    0    0  0.00000000000E+00  0.00000000000E+00 -0.13011476770E+04  0.14331753240E+04  0.60083794146E+03 0.  0.
        1    1    3    3  502    0  0.16342879274E+03  0.25064193168E+03 -0.58651592879E+03  0.65843092498E+03  0.50400001928E-02 0. -1.
       -1    1    3    3    0  502 -0.16342879274E+03 -0.25064193168E+03 -0.71463174819E+03  0.77474439899E+03  0.50400001928E-02 0.  1.
</event>
<event>
 5   0  0.2126207E-02  0.5999635E+03  0.7818609E-02  0.9905482E-01
        2   -1    0    0  501    0  0.00000000000E+00  0.00000000000E+00  0.11513132710E+04  0.11513132710E+04  0.25500000920E-02 0. -1.
       -2   -1    0    0    0  501  0.00000000000E+00  0.00000000000E+00 -0.78162093854E+02  0.78162093896E+02  0.25500000920E-02 0.  1.
    10030    2    1    2    0    0  0.00000000000E+00  0.00000000000E+00  0.10731511772E+04  0.12294753649E+04  0.59996351880E+03 0.  0.
        5    1    3    3  502    0  0.29014336838E+02 -0.27472563586E+03  0.29714668741E+03  0.40575146405E+03  0.46999998093E+01 0.  1.
       -5    1    3    3    0  502 -0.29014336838E+02  0.27472563586E+03  0.77600448977E+03  0.82372390088E+03  0.46999998093E+01 0. -1.
</event>
<event>
 5   0  0.1276705E-02  0.5994391E+03  0.7818609E-02  0.9906571E-01
       -1   -1    0    0    0  501  0.00000000000E+00  0.00000000000E+00  0.98432468925E+02  0.98432469054E+02  0.50400001928E-02 0.  1.
        1   -1    0    0  501    0  0.00000000000E+00  0.00000000000E+00 -0.91262362824E+03  0.91262362826E+03  0.50400001928E-02 0. -1.
    10030    2    1    2    0    0  0.00000000000E+00  0.00000000000E+00 -0.81419115932E+03  0.10110560973E+04  0.59943906112E+03 0.  0.
        1    1    3    3  502    0  0.17244606349E+03  0.23467529756E+03 -0.52661919755E+03  0.60177896221E+03  0.50400001928E-02 0.  1.
       -1    1    3    3    0  502 -0.17244606349E+03 -0.23467529756E+03 -0.28757196177E+03  0.40927713511E+03  0.50400001928E-02 0. -1.
</event>
<event>
 5   0  0.1332555E-02  0.6054395E+03  0.7818609E-02  0.9894185E-01
       -1   -1    0    0    0  501  0.00000000000E+00  0.00000000000E+00  0.13585016098E+03  0.13585016108E+03  0.50400001928E-02 0.  1.
        1   -1    0    0  501    0  0.00000000000E+00  0.00000000000E+00 -0.67456112764E+03  0.67456112766E+03  0.50400001928E-02 0. -1.
    10030    2    1    2    0    0  0.00000000000E+00  0.00000000000E+00 -0.53871096666E+03  0.81041128874E+03  0.60543946957E+03 0.  0.
        2    1    3    3  502    0  0.33620777902E+02  0.10236186459E+03 -0.64802791047E+03  0.65692349691E+03  0.25500000920E-02 0. -1.
       -2    1    3    3    0  502 -0.33620777902E+02 -0.10236186459E+03  0.10931694382E+03  0.15348779183E+03  0.25500000920E-02 0.  1.
</event>
<event>
 5   0  0.1303808E-02  0.6032813E+03  0.7818609E-02  0.9898622E-01
       -1   -1    0    0    0  501  0.00000000000E+00  0.00000000000E+00  0.35220119120E+03  0.35220119124E+03  0.50400001928E-02 0.  1.
        1   -1    0    0  501    0  0.00000000000E+00  0.00000000000E+00 -0.25833836242E+03  0.25833836247E+03  0.50400001928E-02 0. -1.
    10030    2    1    2    0    0  0.00000000000E+00  0.00000000000E+00  0.93862828787E+02  0.61053955371E+03  0.60328129095E+03 0.  0.
        4    1    3    3  502    0  0.25954611493E+03  0.16178224840E+02  0.20160855707E+03  0.32904945513E+03  0.12699999809E+01 0.  1.
       -4    1    3    3    0  502 -0.25954611493E+03 -0.16178224840E+02 -0.10774572828E+03  0.28149009858E+03  0.12699999809E+01 0. -1.
</event>
<event>
 5   0  0.2141800E-02  0.6034904E+03  0.7818609E-02  0.9898191E-01
       -2   -1    0    0    0  501  0.00000000000E+00  0.00000000000E+00  0.20537285843E+03  0.20537285845E+03  0.25500000920E-02 0.  1.
        2   -1    0    0  501    0  0.00000000000E+00  0.00000000000E+00 -0.44334072308E+03  0.44334072309E+03  0.25500000920E-02 0. -1.
    10030    2    1    2    0    0  0.00000000000E+00  0.00000000000E+00 -0.23796786465E+03  0.64871358153E+03  0.60349035308E+03 0.  0.
        2    1    3    3  502    0  0.10479462070E+03 -0.25824523570E+03 -0.24331291105E+03  0.36996444016E+03  0.25500000920E-02 0. -1.
       -2    1    3    3    0  502 -0.10479462070E+03  0.25824523570E+03  0.53450464007E+01  0.27874914138E+03  0.25500000920E-02 0.  1.
</event>
<event>
 5   0  0.2141800E-02  0.6042965E+03  0.7818609E-02  0.9896532E-01
        2   -1    0    0  501    0  0.00000000000E+00  0.00000000000E+00  0.20681545619E+04  0.20681545619E+04  0.25500000920E-02 0. -1.
       -2   -1    0    0    0  501  0.00000000000E+00  0.00000000000E+00 -0.44142520000E+02  0.44142520074E+02  0.25500000920E-02 0.  1.
    10030    2    1    2    0    0  0.00000000000E+00  0.00000000000E+00  0.20240120419E+04  0.21122970820E+04  0.60429646431E+03 0.  0.
        2    1    3    3  502    0 -0.33871901526E+02 -0.27960994728E+03  0.62966341826E+03  0.68978623401E+03  0.25500000920E-02 0.  1.
       -2    1    3    3    0  502  0.33871901526E+02  0.27960994728E+03  0.13943486237E+04  0.14225108480E+04  0.25500000920E-02 0. -1.
</event>
<event>
 5   0  0.2142838E-02  0.6021097E+03  0.7818609E-02  0.9901039E-01
       -2   -1    0    0    0  501  0.00000000000E+00  0.00000000000E+00  0.67684224295E+02  0.67684224343E+02  0.25500000920E-02 0. -1.
        2   -1    0    0  501    0  0.00000000000E+00  0.00000000000E+00 -0.13390715439E+04  0.13390715439E+04  0.25500000920E-02 0.  1.
    10030    2    1    2    0    0  0.00000000000E+00  0.00000000000E+00 -0.12713873196E+04  0.14067557683E+04  0.60210968689E+03 0.  0.
        4    1    3    3  502    0  0.10968399032E+03  0.75579766979E+02 -0.49169403058E+01  0.13329916771E+03  0.12699999809E+01 0. -1.
       -4    1    3    3    0  502 -0.10968399032E+03 -0.75579766979E+02 -0.12664703793E+04  0.12734566006E+04  0.12699999809E+01 0.  1.
</event>
<event>
 5   0  0.8551000E-03  0.5974635E+03  0.7818609E-02  0.9910683E-01
       -3   -1    0    0    0  501  0.00000000000E+00  0.00000000000E+00  0.43566175649E+02  0.43566292723E+02  0.10100000352E+00 0.  1.
        3   -1    0    0  501    0  0.00000000000E+00  0.00000000000E+00 -0.20483903094E+04  0.20483903119E+04  0.10100000352E+00 0. -1.
    10030    2    1    2    0    0  0.00000000000E+00  0.00000000000E+00 -0.20048241338E+04  0.20919566046E+04  0.59746349538E+03 0.  0.
        5    1    3    3  502    0 -0.83833188798E+02 -0.58560041491E+02 -0.19764704521E+02  0.10425936671E+03  0.46999998093E+01 0.  1.
       -5    1    3    3    0  502  0.83833188798E+02  0.58560041491E+02 -0.19850594292E+04  0.19876972379E+04  0.46999998093E+01 0. -1.
</event>
<event>
 5   0  0.2126207E-02  0.5985730E+03  0.7818609E-02  0.9908371E-01
       -2   -1    0    0    0  501  0.00000000000E+00  0.00000000000E+00  0.41572643226E+02  0.41572643304E+02  0.25500000920E-02 0. -1.
        2   -1    0    0  501    0  0.00000000000E+00  0.00000000000E+00 -0.21546000045E+04  0.21546000046E+04  0.25500000920E-02 0.  1.
    10030    2    1    2    0    0  0.00000000000E+00  0.00000000000E+00 -0.21130273613E+04  0.21961726479E+04  0.59857302769E+03 0.  0.
        5    1    3    3  502    0 -0.23798982992E+03 -0.46437494158E+02 -0.41307779919E+03  0.47901039466E+03  0.46999998093E+01 0. -1.
       -5    1    3    3    0  502  0.23798982992E+03  0.46437494158E+02 -0.16999495621E+04  0.17171622532E+04  0.46999998093E+01 0.  1.
</event>
<event>
 5   0  0.2141800E-02  0.5889674E+03  0.7818609E-02  0.9928563E-01
        2   -1    0    0  501    0  0.00000000000E+00  0.00000000000E+00  0.63886070637E+03  0.63886070637E+03  0.25500000920E-02 0.  1.
       -2   -1    0    0    0  501  0.00000000000E+00  0.00000000000E+00 -0.13574265764E+03  0.13574265766E+03  0.25500000920E-02 0. -1.
    10030    2    1    2    0    0  0.00000000000E+00  0.00000000000E+00  0.50311804873E+03  0.77460336404E+03  0.58896740200E+03 0.  0.
        2    1    3    3  502    0 -0.14064476536E+03  0.53943357961E+02 -0.81237852126E+02  0.17114445511E+03  0.25500000920E-02 0. -1.
       -2    1    3    3    0  502  0.14064476536E+03 -0.53943357961E+02  0.58435590085E+03  0.60345890892E+03  0.25500000920E-02 0.  1.
</event>
<event>
 5   0  0.2179625E-02  0.6000792E+03  0.7818609E-02  0.9905242E-01
       -2   -1    0    0    0  501  0.00000000000E+00  0.00000000000E+00  0.64054168565E+03  0.64054168565E+03  0.25500000920E-02 0. -1.
        2   -1    0    0  501    0  0.00000000000E+00  0.00000000000E+00 -0.14054319191E+03  0.14054319193E+03  0.25500000920E-02 0.  1.
    10030    2    1    2    0    0  0.00000000000E+00  0.00000000000E+00  0.49999849374E+03  0.78108487758E+03  0.60007923831E+03 0.  0.
        1    1    3    3  502    0 -0.11704424964E+03  0.71999715915E+02  0.59717385624E+03  0.61278049093E+03  0.50400001928E-02 0. -1.
       -1    1    3    3    0  502  0.11704424964E+03 -0.71999715915E+02 -0.97175362500E+02  0.16830438666E+03  0.50400001928E-02 0.  1.
</event>
<event>
 5   0  0.2142838E-02  0.5997684E+03  0.7818609E-02  0.9905887E-01
        2   -1    0    0  501    0  0.00000000000E+00  0.00000000000E+00  0.15995160112E+03  0.15995160114E+03  0.25500000920E-02 0. -1.
       -2   -1    0    0    0  501  0.00000000000E+00  0.00000000000E+00 -0.56223586356E+03  0.56223586357E+03  0.25500000920E-02 0.  1.
    10030    2    1    2    0    0  0.00000000000E+00  0.00000000000E+00 -0.40228426244E+03  0.72218746471E+03  0.59976837727E+03 0.  0.
        4    1    3    3  502    0 -0.18996638541E+03 -0.23106030226E+03 -0.17551909813E+03  0.34682078596E+03  0.12699999809E+01 0.  1.
       -4    1    3    3    0  502  0.18996638541E+03  0.23106030226E+03 -0.22676516431E+03  0.37536667875E+03  0.12699999809E+01 0. -1.
</event>
<event>
 5   0  0.2142838E-02  0.5967048E+03  0.7818609E-02  0.9912266E-01
       -2   -1    0    0    0  501  0.00000000000E+00  0.00000000000E+00  0.37998662854E+03  0.37998662855E+03  0.25500000920E-02 0. -1.
        2   -1    0    0  501    0  0.00000000000E+00  0.00000000000E+00 -0.23425599110E+03  0.23425599111E+03  0.25500000920E-02 0.  1.
    10030    2    1    2    0    0  0.00000000000E+00  0.00000000000E+00  0.14573063744E+03  0.61424261966E+03  0.59670476546E+03 0.  0.
        4    1    3    3  502    0 -0.14967341588E+03 -0.41291792317E+02 -0.18938789293E+03  0.24490106252E+03  0.12699999809E+01 0.  1.
       -4    1    3    3    0  502  0.14967341588E+03  0.41291792317E+02  0.33511853038E+03  0.36934155715E+03  0.12699999809E+01 0. -1.
</event>
<event>
 5   0  0.2126207E-02  0.6001046E+03  0.7818609E-02  0.9905189E-01
        2   -1    0    0  501    0  0.00000000000E+00  0.00000000000E+00  0.49728006739E+03  0.49728006740E+03  0.25500000920E-02 0.  1.
       -2   -1    0    0    0  501  0.00000000000E+00  0.00000000000E+00 -0.18104764502E+03  0.18104764504E+03  0.25500000920E-02 0. -1.
    10030    2    1    2    0    0  0.00000000000E+00  0.00000000000E+00  0.31623242236E+03  0.67832771244E+03  0.60010460797E+03 0.  0.
        5    1    3    3  502    0  0.13983636403E+03  0.21717336657E+03  0.33062250471E+03  0.41958528391E+03  0.46999998093E+01 0.  1.
       -5    1    3    3    0  502 -0.13983636403E+03 -0.21717336657E+03 -0.14390082347E+02  0.25874242853E+03  0.46999998093E+01 0. -1.
</event>
<event>
 5   0  0.1332555E-02  0.5989707E+03  0.7818609E-02  0.9907544E-01
       -1   -1    0    0    0  501  0.00000000000E+00  0.00000000000E+00  0.97368294602E+02  0.97368294732E+02  0.50400001928E-02 0.  1.
        1   -1    0    0  501    0  0.00000000000E+00  0.00000000000E+00 -0.92115696493E+03  0.92115696494E+03  0.50400001928E-02 0. -1.
    10030    2    1    2    0    0  0.00000000000E+00  0.00000000000E+00 -0.82378867033E+03  0.10185252597E+04  0.59897072653E+03 0.  0.
        2    1    3    3  502    0  0.82145100246E+02 -0.16018599586E+03 -0.81888392349E+03  0.83843798275E+03  0.25500000920E-02 0. -1.
       -2    1    3    3    0  502 -0.82145100246E+02  0.16018599586E+03 -0.49047468428E+01  0.18008727693E+03  0.25500000920E-02 0.  1.
</event>
<event>
 5   0  0.2126207E-02  0.6005918E+03  0.7818609E-02  0.9904179E-01
        2   -1    0    0  501    0  0.00000000000E+00  0.00000000000E+00  0.20756357334E+04  0.20756357334E+04  0.25500000920E-02 0.  1.
       -2   -1    0    0    0  501  0.00000000000E+00  0.00000000000E+00 -0.43445793372E+02  0.43445793447E+02  0.25500000920E-02 0. -1.
    10030    2    1    2    0    0  0.00000000000E+00  0.00000000000E+00  0.20321899400E+04  0.21190815268E+04  0.60059184566E+03 0.  0.
        5    1    3    3  502    0 -0.26851548559E+03 -0.23291353967E+02  0.54917517657E+03  0.61176671839E+03  0.46999998093E+01 0. -1.
       -5    1    3    3    0  502  0.26851548559E+03  0.23291353967E+02  0.14830147634E+04  0.15073148084E+04  0.46999998093E+01 0.  1.
</event>
<event>
 5   0  0.2092587E-02  0.5996778E+03  0.7818609E-02  0.9906075E-01
        2   -1    0    0  501    0  0.00000000000E+00  0.00000000000E+00  0.14144209309E+04  0.14144209309E+04  0.25500000920E-02 0. -1.
       -2   -1    0    0    0  501  0.00000000000E+00  0.00000000000E+00 -0.63561964262E+02  0.63561964313E+02  0.25500000920E-02 0.  1.
    10030    2    1    2    0    0  0.00000000000E+00  0.00000000000E+00  0.13508589666E+04  0.14779828952E+04  0.59967782249E+03 0.  0.
        3    1    3    3  502    0 -0.21718342284E+02 -0.18577070413E+03  0.12530203646E+04  0.12669027134E+04  0.10100000352E+00 0. -1.
       -3    1    3    3    0  502  0.21718342284E+02  0.18577070413E+03  0.97838602022E+02  0.21108018180E+03  0.10100000352E+00 0.  1.
</event>
<event>
 5   0  0.8551000E-03  0.5986710E+03  0.7818609E-02  0.9908167E-01
        4   -1    0    0  501    0  0.00000000000E+00  0.00000000000E+00  0.87228129103E+03  0.87228221556E+03  0.12699999809E+01 0. -1.
       -4   -1    0    0    0  501  0.00000000000E+00  0.00000000000E+00 -0.10271626104E+03  0.10272411198E+03  0.12699999809E+01 0.  1.
    10030    2    1    2    0    0  0.00000000000E+00  0.00000000000E+00  0.76956503000E+03  0.97500632754E+03  0.59867103099E+03 0.  0.
        2    1    3    3  502    0 -0.16126563050E+03 -0.17983056341E+03  0.96852663310E+02  0.26024233613E+03  0.25500000920E-02 0.  1.
       -2    1    3    3    0  502  0.16126563050E+03  0.17983056341E+03  0.67271236669E+03  0.71476399141E+03  0.25500000920E-02 0. -1.
</event>
<event>
 5   0  0.1303808E-02  0.6010581E+03  0.7818609E-02  0.9903213E-01
       -1   -1    0    0    0  501  0.00000000000E+00  0.00000000000E+00  0.30901696244E+03  0.30901696248E+03  0.50400001928E-02 0. -1.
        1   -1    0    0  501    0  0.00000000000E+00  0.00000000000E+00 -0.29227431549E+03  0.29227431553E+03  0.50400001928E-02 0.  1.
    10030    2    1    2    0    0  0.00000000000E+00  0.00000000000E+00  0.16742646952E+02  0.60129127801E+03  0.60105813761E+03 0.  0.
        4    1    3    3  502    0  0.19765093439E+03 -0.10883853864E+03  0.20695370808E+03  0.30617506356E+03  0.12699999809E+01 0. -1.
       -4    1    3    3    0  502 -0.19765093439E+03  0.10883853864E+03 -0.19021106113E+03  0.29511621445E+03  0.12699999809E+01 0.  1.
</event>
<event>
 5   0  0.1337051E-02  0.5930984E+03  0.7818609E-02  0.9919829E-01
        1   -1    0    0  501    0  0.00000000000E+00  0.00000000000E+00  0.44368467849E+03  0.44368467852E+03  0.50400001928E-02 0. -1.
       -1   -1    0    0    0  501  0.00000000000E+00  0.00000000000E+00 -0.19820705915E+03  0.19820705921E+03  0.50400001928E-02 0.  1.
    10030    2    1    2    0    0  0.00000000000E+00  0.00000000000E+00  0.24547761934E+03  0.64189173773E+03  0.59309842469E+03 0.  0.
        5    1    3    3  502    0 -0.14978788960E+03  0.11423205113E+03  0.37056168634E+03  0.41572037087E+03  0.46999998093E+01 0. -1.
       -5    1    3    3    0  502  0.14978788960E+03 -0.11423205113E+03 -0.12508406700E+03  0.22617136687E+03  0.46999998093E+01 0.  1.
</event>
<event>
 5   0  0.1337051E-02  0.6058457E+03  0.7818609E-02  0.9893352E-01
        1   -1    0    0  501    0  0.00000000000E+00  0.00000000000E+00  0.48824394994E+03  0.48824394997E+03  0.50400001928E-02 0.  1.
       -1   -1    0    0    0  501  0.00000000000E+00  0.00000000000E+00 -0.18794343669E+03  0.18794343675E+03  0.50400001928E-02 0. -1.
    10030    2    1    2    0    0  0.00000000000E+00  0.00000000000E+00  0.30030051325E+03  0.67618738672E+03  0.60584567647E+03 0.  0.
        5    1    3    3  502    0 -0.67959743465E+02  0.21438605398E+03  0.37658551362E+03  0.43865549801E+03  0.46999998093E+01 0.  1.
       -5    1    3    3    0  502  0.67959743465E+02 -0.21438605398E+03 -0.76285000367E+02  0.23753188870E+03  0.46999998093E+01 0. -1.
</event>
<event>
 5   0  0.8551000E-03  0.5993694E+03  0.7818609E-02  0.9906715E-01
        3   -1    0    0  501    0  0.00000000000E+00  0.00000000000E+00  0.38398160252E+03  0.38398161581E+03  0.10100000352E+00 0. -1.
       -3   -1    0    0    0  501  0.00000000000E+00  0.00000000000E+00 -0.23389377864E+03  0.23389380045E+03  0.10100000352E+00 0.  1.
    10030    2    1    2    0    0  0.00000000000E+00  0.00000000000E+00  0.15008782389E+03  0.61787541625E+03  0.59936939789E+03 0.  0.
        4    1    3    3  502    0 -0.28215989523E+03  0.99662213252E+02  0.58340457763E+02  0.30488028001E+03  0.12699999809E+01 0.  1.
       -4    1    3    3    0  502  0.28215989523E+03 -0.99662213252E+02  0.91747366122E+02  0.31299513625E+03  0.12699999809E+01 0. -1.
</event>
<event>
 5   0  0.2179625E-02  0.6025966E+03  0.7818609E-02  0.9900033E-01
       -2   -1    0    0    0  501  0.00000000000E+00  0.00000000000E+00  0.88926220228E+02  0.88926220264E+02  0.25500000920E-02 0.  1.
        2   -1    0    0  501    0  0.00000000000E+00  0.00000000000E+00 -0.10208539042E+04  0.10208539042E+04  0.25500000920E-02 0. -1.
    10030    2    1    2    0    0  0.00000000000E+00  0.00000000000E+00 -0.93192768394E+03  0.11097801244E+04  0.60259664494E+03 0.  0.
        1    1    3    3  502    0 -0.22629148804E+03  0.87658215179E+02 -0.13708960117E+03  0.27872093395E+03  0.50400001928E-02 0.  1.
       -1    1    3    3    0  502  0.22629148804E+03 -0.87658215179E+02 -0.79483808277E+03  0.83105919048E+03  0.50400001928E-02 0. -1.
</event>
<event>
 5   0  0.2179625E-02  0.5983970E+03  0.7818609E-02  0.9908737E-01
       -2   -1    0    0    0  501  0.00000000000E+00  0.00000000000E+00  0.85686611964E+02  0.85686612002E+02  0.25500000920E-02 0. -1.
        2   -1    0    0  501    0  0.00000000000E+00  0.00000000000E+00 -0.10447344648E+04  0.10447344648E+04  0.25500000920E-02 0.  1.
    10030    2    1    2    0    0  0.00000000000E+00  0.00000000000E+00 -0.95904785287E+03  0.11304210768E+04  0.59839704784E+03 0.  0.
        1    1    3    3  502    0  0.11283748389E+03  0.27608728406E+03 -0.52435811430E+03  0.60324780833E+03  0.50400001928E-02 0.  1.
       -1    1    3    3    0  502 -0.11283748389E+03 -0.27608728406E+03 -0.43468973857E+03  0.52717326851E+03  0.50400001928E-02 0. -1.
</event>
<event>
 5   0  0.1303808E-02  0.6001782E+03  0.7818609E-02  0.9905036E-01
        1   -1    0    0  501    0  0.00000000000E+00  0.00000000000E+00  0.30360786529E+03  0.30360786533E+03  0.50400001928E-02 0.  1.
       -1   -1    0    0    0  501  0.00000000000E+00  0.00000000000E+00 -0.29661110781E+03  0.29661110786E+03  0.50400001928E-02 0. -1.
    10030    2    1    2    0    0  0.00000000000E+00  0.00000000000E+00  0.69967574747E+01  0.60021897319E+03  0.60017819117E+03 0.  0.
        4    1    3    3  502    0  0.42156899117E+02 -0.27276512829E+03  0.12129361865E+03  0.30148262667E+03  0.12699999809E+01 0.  1.
       -4    1    3    3    0  502 -0.42156899117E+02  0.27276512829E+03 -0.11429686118E+03  0.29873634652E+03  0.12699999809E+01 0. -1.
</event>
<event>
 5   0  0.2141800E-02  0.6004419E+03  0.7818609E-02  0.9904490E-01
        2   -1    0    0  501    0  0.00000000000E+00  0.00000000000E+00  0.16347527528E+04  0.16347527528E+04  0.25500000920E-02 0.  1.
       -2   -1    0    0    0  501  0.00000000000E+00  0.00000000000E+00 -0.55135321518E+02  0.55135321577E+02  0.25500000920E-02 0. -1.
    10030    2    1    2    0    0  0.00000000000E+00  0.00000000000E+00  0.15796174313E+04  0.16898880744E+04  0.60044189954E+03 0.  0.
        2    1    3    3  502    0 -0.28841471146E+03  0.22547564991E+02  0.10156845010E+04  0.10560806996E+04  0.25500000920E-02 0. -1.
       -2    1    3    3    0  502  0.28841471146E+03 -0.22547564991E+02  0.56393293027E+03  0.63380737478E+03  0.25500000920E-02 0.  1.
</event>
<event>
 5   0  0.1337051E-02  0.5963372E+03  0.7818609E-02  0.9913035E-01
        1   -1    0    0  501    0  0.00000000000E+00  0.00000000000E+00  0.20528019134E+03  0.20528019140E+03  0.50400001928E-02 0.  1.
       -1   -1    0    0    0  501  0.00000000000E+00  0.00000000000E+00 -0.43308859199E+03  0.43308859202E+03  0.50400001928E-02 0. -1.
    10030    2    1    2    0    0  0.00000000000E+00  0.00000000000E+00 -0.22780840065E+03  0.63836878343E+03  0.59633718335E+03 0.  0.
        5    1    3    3  502    0  0.48575571301E+02  0.18873297631E+03 -0.35542255802E+03  0.40537267695E+03  0.46999998093E+01 0. -1.
       -5    1    3    3    0  502 -0.48575571301E+02 -0.18873297631E+03  0.12761415737E+03  0.23299610647E+03  0.46999998093E+01 0.  1.
</event>
<event>
 5   0  0.2126207E-02  0.6024464E+03  0.7818609E-02  0.9900343E-01
       -2   -1    0    0    0  501  0.00000000000E+00  0.00000000000E+00  0.68303632161E+02  0.68303632209E+02  0.25500000920E-02 0. -1.
        2   -1    0    0  501    0  0.00000000000E+00  0.00000000000E+00 -0.13284127978E+04  0.13284127978E+04  0.25500000920E-02 0.  1.
    10030    2    1    2    0    0  0.00000000000E+00  0.00000000000E+00 -0.12601091657E+04  0.13967164300E+04  0.60244640968E+03 0.  0.
        5    1    3    3  502    0 -0.24206665114E+03 -0.16192926437E+03 -0.45203499914E+03  0.53775001692E+03  0.46999998093E+01 0. -1.
       -5    1    3    3    0  502  0.24206665114E+03  0.16192926437E+03 -0.80807416653E+03  0.85896641312E+03  0.46999998093E+01 0.  1.
</event>
<event>
 5   0  0.2126207E-02  0.6001140E+03  0.7818609E-02  0.9905170E-01
        2   -1    0    0  501    0  0.00000000000E+00  0.00000000000E+00  0.34326911278E+03  0.34326911279E+03  0.25500000920E-02 0.  1.
       -2   -1    0    0    0  501  0.00000000000E+00  0.00000000000E+00 -0.26228463156E+03  0.26228463157E+03  0.25500000920E-02 0. -1.
    10030    2    1    2    0    0  0.00000000000E+00  0.00000000000E+00  0.80984481222E+02  0.60555374437E+03  0.60011403176E+03 0.  0.
        5    1    3    3  502    0  0.12786142444E+03 -0.23870185624E+03  0.17083354224E+03  0.32020822785E+03  0.46999998093E+01 0.  1.
       -5    1    3    3    0  502 -0.12786142444E+03  0.23870185624E+03 -0.89849061022E+02  0.28534551652E+03  0.46999998093E+01 0. -1.
</event>
<event>
 5   0  0.1276705E-02  0.5981306E+03  0.7818609E-02  0.9909292E-01
        1   -1    0    0  501    0  0.00000000000E+00  0.00000000000E+00  0.49445243559E+03  0.49445243562E+03  0.50400001928E-02 0. -1.
       -1   -1    0    0    0  501  0.00000000000E+00  0.00000000000E+00 -0.18088704580E+03  0.18088704587E+03  0.50400001928E-02 0.  1.
    10030    2    1    2    0    0  0.00000000000E+00  0.00000000000E+00  0.31356538979E+03  0.67533948149E+03  0.59813055563E+03 0.  0.
        1    1    3    3  502    0 -0.71929005363E+02 -0.22425785101E+03 -0.51332507335E+02  0.24104022878E+03  0.50400001928E-02 0.  1.
       -1    1    3    3    0  502  0.71929005363E+02  0.22425785101E+03  0.36489789713E+03  0.43429925271E+03  0.50400001928E-02 0. -1.
</event>
<event>
 5   0  0.1303808E-02  0.6072264E+03  0.7818609E-02  0.9890526E-01
       -1   -1    0    0    0  501  0.00000000000E+00  0.00000000000E+00  0.21102489913E+03  0.21102489919E+03  0.50400001928E-02 0. -1.
        1   -1    0    0  501    0  0.00000000000E+00  0.00000000000E+00 -0.43682509739E+03  0.43682509742E+03  0.50400001928E-02 0.  1.
    10030    2    1    2    0    0  0.00000000000E+00  0.00000000000E+00 -0.22580019826E+03  0.64784999661E+03  0.60722638988E+03 0.  0.
        4    1    3    3  502    0 -0.23239398278E+03 -0.18055990129E+03 -0.19252916414E+03  0.35167873568E+03  0.12699999809E+01 0. -1.
       -4    1    3    3    0  502  0.23239398278E+03  0.18055990129E+03 -0.33271034122E+02  0.29617126093E+03  0.12699999809E+01 0.  1.
</event>
<event>
 5   0  0.2092587E-02  0.5888978E+03  0.7818609E-02  0.9928711E-01
        2   -1    0    0  501    0  0.00000000000E+00  0.00000000000E+00  0.66632199343E+03  0.66632199344E+03  0.25500000920E-02 0.  1.
       -2   -1    0    0    0  501  0.00000000000E+00  0.00000000000E+00 -0.13011751751E+03  0.13011751753E+03  0.25500000920E-02 0. -1.
    10030    2    1    2    0    0  0.00000000000E+00  0.00000000000E+00  0.53620447592E+03  0.79643951097E+03  0.58889783039E+03 0.  0.
        3    1    3    3  502    0 -0.10277816333E+03 -0.27445794751E+03  0.30658428711E+03  0.42412787118E+03  0.10100000352E+00 0.  1.
       -3    1    3    3    0  502  0.10277816333E+03  0.27445794751E+03  0.22962018882E+03  0.37231163979E+03  0.10100000352E+00 0. -1.
</event>
<event>
 5   0  0.2179625E-02  0.6008403E+03  0.7818609E-02  0.9903664E-01
       -2   -1    0    0    0  501  0.00000000000E+00  0.00000000000E+00  0.14170730432E+03  0.14170730434E+03  0.25500000920E-02 0.  1.
        2   -1    0    0  501    0  0.00000000000E+00  0.00000000000E+00 -0.63689211924E+03  0.63689211924E+03  0.25500000920E-02 0. -1.
    10030    2    1    2    0    0  0.00000000000E+00  0.00000000000E+00 -0.49518481492E+03  0.77859942359E+03  0.60084029616E+03 0.  0.
        1    1    3    3  502    0 -0.85190754653E+02  0.28205522772E+03 -0.17159266836E+03  0.34096430902E+03  0.50400001928E-02 0. -1.
       -1    1    3    3    0  502  0.85190754653E+02 -0.28205522772E+03 -0.32359214656E+03  0.43763511457E+03  0.50400001928E-02 0.  1.
</event>
<event>
 5   0  0.2126207E-02  0.6027390E+03  0.7818609E-02  0.9899740E-01
        2   -1    0    0  501    0  0.00000000000E+00  0.00000000000E+00  0.18545470527E+04  0.18545470527E+04  0.25500000920E-02 0.  1.
       -2   -1    0    0    0  501  0.00000000000E+00  0.00000000000E+00 -0.48973452384E+02  0.48973452450E+02  0.25500000920E-02 0. -1.
    10030    2    1    2    0    0  0.00000000000E+00  0.00000000000E+00  0.18055736003E+04  0.19035205051E+04  0.60273898776E+03 0.  0.
        5    1    3    3  502    0  0.18576005995E+03  0.12253474753E+03  0.15444360428E+04  0.15603930097E+04  0.46999998093E+01 0.  1.
       -5    1    3    3    0  502 -0.18576005995E+03 -0.12253474753E+03  0.26113755746E+03  0.34312749546E+03  0.46999998093E+01 0. -1.
</event>
<event>
 5   0  0.8551000E-03  0.5951743E+03  0.7818609E-02  0.9915469E-01
       -4   -1    0    0    0  501  0.00000000000E+00  0.00000000000E+00  0.70967349909E+03  0.70967463546E+03  0.12699999809E+01 0. -1.
        4   -1    0    0  501    0  0.00000000000E+00  0.00000000000E+00 -0.12478266102E+03  0.12478912369E+03  0.12699999809E+01 0.  1.
    10030    2    1    2    0    0  0.00000000000E+00  0.00000000000E+00  0.58489083807E+03  0.83446375914E+03  0.59517432141E+03 0.  0.
        4    1    3    3  502    0 -0.25422752531E+03 -0.13871879376E+03  0.19651033367E+03  0.34998923199E+03  0.12699999809E+01 0. -1.
       -4    1    3    3    0  502  0.25422752531E+03  0.13871879376E+03  0.38838050440E+03  0.48447452716E+03  0.12699999809E+01 0.  1.
</event>
<event>
 5   0  0.2092587E-02  0.5997278E+03  0.7818609E-02  0.9905971E-01
        2   -1    0    0  501    0  0.00000000000E+00  0.00000000000E+00  0.10752926473E+04  0.10752926473E+04  0.25500000920E-02 0. -1.
       -2   -1    0    0    0  501  0.00000000000E+00  0.00000000000E+00 -0.83622230201E+02  0.83622230240E+02  0.25500000920E-02 0.  1.
    10030    2    1    2    0    0  0.00000000000E+00  0.00000000000E+00  0.99167041706E+03  0.11589148775E+04  0.59972783596E+03 0.  0.
        3    1    3    3  502    0 -0.28092815763E+02 -0.14001496966E+03  0.10053628024E+04  0.10154544661E+04  0.10100000352E+00 0. -1.
       -3    1    3    3    0  502  0.28092815763E+02  0.14001496966E+03 -0.13692385350E+02  0.14346041142E+03  0.10100000352E+00 0.  1.
</event>
<event>
 5   0  0.2142838E-02  0.5983668E+03  0.7818609E-02  0.9908800E-01
        2   -1    0    0  501    0  0.00000000000E+00  0.00000000000E+00  0.96327253453E+03  0.96327253453E+03  0.25500000920E-02 0.  1.
       -2   -1    0    0    0  501  0.00000000000E+00  0.00000000000E+00 -0.92923540165E+02  0.92923540200E+02  0.25500000920E-02 0. -1.
    10030    2    1    2    0    0  0.00000000000E+00  0.00000000000E+00  0.87034899436E+03  0.10561960747E+04  0.59836675734E+03 0.  0.
        4    1    3    3  502    0 -0.11198546702E+02 -0.10896108031E+03  0.92660170795E+03  0.93305426560E+03  0.12699999809E+01 0.  1.
       -4    1    3    3    0  502  0.11198546702E+02  0.10896108031E+03 -0.56252713590E+02  0.12314180913E+03  0.12699999809E+01 0. -1.
</event>
<event>
 5   0  0.1337051E-02  0.6022321E+03  0.7818609E-02  0.9900786E-01
        1   -1    0    0  501    0  0.00000000000E+00  0.00000000000E+00  0.40824324387E+03  0.40824324390E+03  0.50400001928E-02 0. -1.
       -1   -1    0    0    0  501  0.00000000000E+00  0.00000000000E+00 -0.22210009116E+03  0.22210009122E+03  0.50400001928E-02 0.  1.
    10030    2    1    2    0    0  0.00000000000E+00  0.00000000000E+00  0.18614315271E+03  0.63034333511E+03  0.60223205396E+03 0.  0.
        5    1    3    3  502    0  0.18138779181E+03 -0.15542134631E+03 -0.98763335238E+02  0.25852197642E+03  0.46999998093E+01 0.  1.
       -5    1    3    3    0  502 -0.18138779181E+03  0.15542134631E+03  0.28490648795E+03  0.37182135869E+03  0.46999998093E+01 0. -1.
</event>
<event>
 5   0  0.2092587E-02  0.5950608E+03  0.7818609E-02  0.9915707E-01
       -2   -1    0    0    0  501  0.00000000000E+00  0.00000000000E+00  0.15722424962E+03  0.15722424964E+03  0.25500000920E-02 0.  1.
        2   -1    0    0  501    0  0.00000000000E+00  0.00000000000E+00 -0.56304516561E+03  0.56304516562E+03  0.25500000920E-02 0. -1.
    10030    2    1    2    0    0  0.00000000000E+00  0.00000000000E+00 -0.40582091599E+03  0.72026941526E+03  0.59506084957E+03 0.  0.
        3    1    3    3  502    0 -0.23277763809E+03 -0.70221149061E+02 -0.41048096133E+03  0.47708601781E+03  0.10100000352E+00 0. -1.
       -3    1    3    3    0  502  0.23277763809E+03  0.70221149061E+02  0.46600453403E+01  0.24318339745E+03  0.10100000352E+00 0.  1.
</event>
<event>
 5   0  0.2142838E-02  0.5974695E+03  0.7818609E-02  0.9910670E-01
       -2   -1    0    0    0  501  0.00000000000E+00  0.00000000000E+00  0.99463490805E+02  0.99463490838E+02  0.25500000920E-02 0. -1.
        2   -1    0    0  501    0  0.00000000000E+00  0.00000000000E+00 -0.89723830417E+03  0.89723830417E+03  0.25500000920E-02 0.  1.
    10030    2    1    2    0    0  0.00000000000E+00  0.00000000000E+00 -0.79777481336E+03  0.99670179501E+03  0.59746950997E+03 0.  0.
        4    1    3    3  502    0  0.29053181291E+03  0.69470566830E+02 -0.39481925508E+03  0.49509468898E+03  0.12699999809E+01 0. -1.
       -4    1    3    3    0  502 -0.29053181291E+03 -0.69470566830E+02 -0.40295555828E+03  0.50160710603E+03  0.12699999809E+01 0.  1.
</event>
<event>
 5   0  0.2179625E-02  0.6009325E+03  0.7818609E-02  0.9903473E-01
        2   -1    0    0  501    0  0.00000000000E+00  0.00000000000E+00  0.33266949918E+03  0.33266949919E+03  0.25500000920E-02 0.  1.
       -2   -1    0    0    0  501  0.00000000000E+00  0.00000000000E+00 -0.27138037189E+03  0.27138037190E+03  0.25500000920E-02 0. -1.
    10030    2    1    2    0    0  0.00000000000E+00  0.00000000000E+00  0.61289127293E+02  0.60404987109E+03  0.60093251671E+03 0.  0.
        1    1    3    3  502    0  0.28377025039E+02 -0.19563768380E+03  0.25809389998E+03  0.32510278391E+03  0.50400001928E-02 0.  1.
       -1    1    3    3    0  502 -0.28377025039E+02  0.19563768380E+03 -0.19680477268E+03  0.27894708719E+03  0.50400001928E-02 0. -1.
</event>
<event>
 5   0  0.1303808E-02  0.5987869E+03  0.7818609E-02  0.9907926E-01
       -1   -1    0    0    0  501  0.00000000000E+00  0.00000000000E+00  0.23896005886E+03  0.23896005891E+03  0.50400001928E-02 0. -1.
        1   -1    0    0  501    0  0.00000000000E+00  0.00000000000E+00 -0.37511053131E+03  0.37511053135E+03  0.50400001928E-02 0.  1.
    10030    2    1    2    0    0  0.00000000000E+00  0.00000000000E+00 -0.13615047245E+03  0.61407059026E+03  0.59878688920E+03 0.  0.
        4    1    3    3  502    0  0.13987794751E+02  0.10176445870E+03 -0.35647042983E+03  0.37097768626E+03  0.12699999809E+01 0.  1.
       -4    1    3    3    0  502 -0.13987794751E+02 -0.10176445870E+03  0.22031995738E+03  0.24309290400E+03  0.12699999809E+01 0. -1.
</event>
<event>
 5   0  0.2092587E-02  0.6012444E+03  0.7818609E-02  0.9902828E-01
        2   -1    0    0  501    0  0.00000000000E+00  0.00000000000E+00  0.75445681049E+03  0.75445681049E+03  0.25500000920E-02 0. -1.
       -2   -1    0    0    0  501  0.00000000000E+00  0.00000000000E+00 -0.11978647228E+03  0.11978647231E+03  0.25500000920E-02 0.  1.
    10030    2    1    2    0    0  0.00000000000E+00  0.00000000000E+00  0.63467033820E+03  0.87424328280E+03  0.60124444224E+03 0.  0.
        3    1    3    3  502    0  0.64939693772E+00 -0.17677161669E+03 -0.36228077029E+02  0.18044697268E+03  0.10100000352E+00 0.  1.
       -3    1    3    3    0  502 -0.64939693772E+00  0.17677161669E+03  0.67089841523E+03  0.69379631013E+03  0.10100000352E+00 0. -1.
</event>
<event>
 5   0  0.2126207E-02  0.5981120E+03  0.7818609E-02  0.9909331E-01
       -2   -1    0    0    0  501  0.00000000000E+00  0.00000000000E+00  0.23711612183E+03  0.23711612184E+03  0.25500000920E-02 0. -1.
        2   -1    0    0  501    0  0.00000000000E+00  0.00000000000E+00 -0.37717598149E+03  0.37717598150E+03  0.25500000920E-02 0.  1.
    10030    2    1    2    0    0  0.00000000000E+00  0.00000000000E+00 -0.14005985967E+03  0.61429210334E+03  0.59811204965E+03 0.  0.
        5    1    3    3  502    0 -0.11856841565E+03 -0.14374892755E+03  0.17015574807E+03  0.25238322441E+03  0.46999998093E+01 0. -1.
       -5    1    3    3    0  502  0.11856841565E+03  0.14374892755E+03 -0.31021560774E+03  0.36190887893E+03  0.46999998093E+01 0.  1.
</event>
<event>
 5   0  0.1250390E-02  0.5996983E+03  0.7818609E-02  0.9906032E-01
        1   -1    0    0  501    0  0.00000000000E+00  0.00000000000E+00  0.14919132139E+03  0.14919132147E+03  0.50400001928E-02 0.  1.
       -1   -1    0    0    0  501  0.00000000000E+00  0.00000000000E+00 -0.60264580563E+03  0.60264580565E+03  0.50400001928E-02 0. -1.
    10030    2    1    2    0    0  0.00000000000E+00  0.00000000000E+00 -0.45345448424E+03  0.75183712713E+03  0.59969833787E+03 0.  0.
        3    1    3    3  502    0 -0.24873954198E+03 -0.15222574676E+03 -0.13927849357E+03  0.32317572108E+03  0.10100000352E+00 0.  1.
       -3    1    3    3    0  502  0.24873954198E+03  0.15222574676E+03 -0.31417599067E+03  0.42866140605E+03  0.10100000352E+00 0. -1.
</event>
<event>
 5   0  0.8551000E-03  0.5924128E+03  0.7818609E-02  0.9921273E-01
       -3   -1    0    0    0  501  0.00000000000E+00  0.00000000000E+00  0.20591538892E+03  0.20591541369E+03  0.10100000352E+00 0. -1.
        3   -1    0    0  501    0  0.00000000000E+00  0.00000000000E+00 -0.42608875224E+03  0.42608876421E+03  0.10100000352E+00 0.  1.
    10030    2    1    2    0    0  0.00000000000E+00  0.00000000000E+00 -0.22017336331E+03  0.63200417790E+03  0.59241283829E+03 0.  0.
        4    1    3    3  502    0  0.19778185299E+03 -0.75540605819E+02  0.11091105590E+03  0.23901238403E+03  0.12699999809E+01 0. -1.
       -4    1    3    3    0  502 -0.19778185299E+03  0.75540605819E+02 -0.33108441921E+03  0.39299179387E+03  0.12699999809E+01 0.  1.
</event>
<event>
 5   0  0.1303808E-02  0.6013634E+03  0.7818609E-02  0.9902581E-01
       -1   -1    0    0    0  501  0.00000000000E+00  0.00000000000E+00  0.14136585734E+03  0.14136585743E+03  0.50400001928E-02 0. -1.
        1   -1    0    0  501    0  0.00000000000E+00  0.00000000000E+00 -0.63954263349E+03  0.63954263351E+03  0.50400001928E-02 0.  1.
    10030    2    1    2    0    0  0.00000000000E+00  0.00000000000E+00 -0.49817677615E+03  0.78090849094E+03  0.60136342666E+03 0.  0.
        4    1    3    3  502    0 -0.14258250899E+03 -0.23562417457E+03 -0.92400935261E+02  0.29049624653E+03  0.12699999809E+01 0. -1.
       -4    1    3    3    0  502  0.14258250899E+03  0.23562417457E+03 -0.40577584089E+03  0.49041224441E+03  0.12699999809E+01 0.  1.
</event>
<event>
 5   0  0.2142838E-02  0.5960781E+03  0.7818609E-02  0.9913576E-01
        2   -1    0    0  501    0  0.00000000000E+00  0.00000000000E+00  0.47690789588E+03  0.47690789589E+03  0.25500000920E-02 0.  1.
       -2   -1    0    0    0  501  0.00000000000E+00  0.00000000000E+00 -0.18625668502E+03  0.18625668504E+03  0.25500000920E-02 0. -1.
    10030    2    1    2    0    0  0.00000000000E+00  0.00000000000E+00  0.29065121086E+03  0.66316458093E+03  0.59607812829E+03 0.  0.
        4    1    3    3  502    0 -0.16482154032E+03 -0.92064749017E+02 -0.11124509138E+03  0.21913270277E+03  0.12699999809E+01 0. -1.
       -4    1    3    3    0  502  0.16482154032E+03  0.92064749017E+02  0.40189630224E+03  0.44403187816E+03  0.12699999809E+01 0.  1.
</event>
<event>
 5   0  0.1250390E-02  0.5913074E+03  0.7818609E-02  0.9923606E-01
       -1   -1    0    0    0  501  0.00000000000E+00  0.00000000000E+00  0.69337889114E+03  0.69337889116E+03  0.50400001928E-02 0. -1.
        1   -1    0    0  501    0  0.00000000000E+00  0.00000000000E+00 -0.12606541967E+03  0.12606541977E+03  0.50400001928E-02 0.  1.
    10030    2    1    2    0    0  0.00000000000E+00  0.00000000000E+00  0.56731347147E+03  0.81944431093E+03  0.59130736829E+03 0.  0.
        3    1    3    3  502    0  0.17405325291E+03 -0.15768328601E+03  0.34777825679E+02  0.23741958827E+03  0.10100000352E+00 0.  1.
       -3    1    3    3    0  502 -0.17405325291E+03  0.15768328601E+03  0.53253564579E+03  0.58202472265E+03  0.10100000352E+00 0. -1.
</event>
<event>
 5   0  0.2126207E-02  0.5996318E+03  0.7818609E-02  0.9906170E-01
        2   -1    0    0  501    0  0.00000000000E+00  0.00000000000E+00  0.95822352582E+03  0.95822352582E+03  0.25500000920E-02 0. -1.
       -2   -1    0    0    0  501  0.00000000000E+00  0.00000000000E+00 -0.93808571780E+02  0.93808571815E+02  0.25500000920E-02 0.  1.
    10030    2    1    2    0    0  0.00000000000E+00  0.00000000000E+00  0.86441495404E+03  0.10520320976E+04  0.59963182178E+03 0.  0.
        5    1    3    3  502    0 -0.24566976955E+03  0.59126575194E+02  0.71520358453E+03  0.75854323864E+03  0.46999998093E+01 0. -1.
       -5    1    3    3    0  502  0.24566976955E+03 -0.59126575194E+02  0.14921136951E+03  0.29348885899E+03  0.46999998093E+01 0.  1.
</event>
<event>
 5   0  0.2141800E-02  0.5936170E+03  0.7818609E-02  0.9918738E-01
       -2   -1    0    0    0  501  0.00000000000E+00  0.00000000000E+00  0.17738474770E+03  0.17738474771E+03  0.25500000920E-02 0. -1.
        2   -1    0    0  501    0  0.00000000000E+00  0.00000000000E+00 -0.49663394821E+03  0.49663394821E+03  0.25500000920E-02 0.  1.
    10030    2    1    2    0    0  0.00000000000E+00  0.00000000000E+00 -0.31924920051E+03  0.67401869593E+03  0.59361700652E+03 0.  0.
        2    1    3    3  502    0  0.25640028145E+03  0.10899797796E+03 -0.27582673315E+03  0.39204853048E+03  0.25500000920E-02 0.  1.
       -2    1    3    3    0  502 -0.25640028145E+03 -0.10899797796E+03 -0.43422467362E+02  0.28197016545E+03  0.25500000920E-02 0. -1.
</event>
<event>
 5   0  0.2126207E-02  0.6004064E+03  0.7818609E-02  0.9904563E-01
        2   -1    0    0  501    0  0.00000000000E+00  0.00000000000E+00  0.23145701631E+04  0.23145701631E+04  0.25500000920E-02 0.  1.
       -2   -1    0    0    0  501  0.00000000000E+00  0.00000000000E+00 -0.38936807983E+02  0.38936808067E+02  0.25500000920E-02 0. -1.
    10030    2    1    2    0    0  0.00000000000E+00  0.00000000000E+00  0.22756333551E+04  0.23535069712E+04  0.60040644268E+03 0.  0.
        5    1    3    3  502    0  0.10738338703E+03 -0.15519198424E+03  0.22285017073E+03  0.29206169275E+03  0.46999998093E+01 0. -1.
       -5    1    3    3    0  502 -0.10738338703E+03  0.15519198424E+03  0.20527831844E+04  0.20614452784E+04  0.46999998093E+01 0.  1.
</event>
<event>
 5   0  0.1250390E-02  0.5966735E+03  0.7818609E-02  0.9912332E-01
        1   -1    0    0  501    0  0.00000000000E+00  0.00000000000E+00  0.35194441277E+03  0.35194441281E+03  0.50400001928E-02 0.  1.
       -1   -1    0    0    0  501  0.00000000000E+00  0.00000000000E+00 -0.25289449739E+03  0.25289449744E+03  0.50400001928E-02 0. -1.
    10030    2    1    2    0    0  0.00000000000E+00  0.00000000000E+00  0.99049915383E+02  0.60483891025E+03  0.59667346314E+03 0.  0.
        3    1    3    3  502    0 -0.94487237308E+02 -0.24223451492E+03  0.19781219248E+03  0.32670333933E+03  0.10100000352E+00 0.  1.
       -3    1    3    3    0  502  0.94487237308E+02  0.24223451492E+03 -0.98762277100E+02  0.27813557092E+03  0.10100000352E+00 0. -1.
</event>
<event>
 5   0  0.1332555E-02  0.5992457E+03  0.7818609E-02  0.9906972E-01
       -1   -1    0    0    0  501  0.00000000000E+00  0.00000000000E+00  0.14155692387E+03  0.14155692396E+03  0.50400001928E-02 0. -1.
        1   -1    0    0  501    0  0.00000000000E+00  0.00000000000E+00 -0.63418910574E+03  0.63418910576E+03  0.50400001928E-02 0.  1.
    10030    2    1    2    0    0  0.00000000000E+00  0.00000000000E+00 -0.49263218187E+03  0.77574602972E+03  0.59924572257E+03 0.  0.
        2    1    3    3  502    0 -0.25108984470E+02 -0.11530522421E+03  0.11020644006E+03  0.16146583313E+03  0.25500000920E-02 0. -1.
       -2    1    3    3    0  502  0.25108984470E+02  0.11530522421E+03 -0.60283862193E+03  0.61428019659E+03  0.25500000920E-02 0.  1.
</event>
<event>
 5   0  0.2092587E-02  0.6001231E+03  0.7818609E-02  0.9905151E-01
       -2   -1    0    0    0  501  0.00000000000E+00  0.00000000000E+00  0.71317101117E+02  0.71317101163E+02  0.25500000920E-02 0. -1.
        2   -1    0    0  501    0  0.00000000000E+00  0.00000000000E+00 -0.12624871598E+04  0.12624871598E+04  0.25500000920E-02 0.  1.
    10030    2    1    2    0    0  0.00000000000E+00  0.00000000000E+00 -0.11911700587E+04  0.13338042610E+04  0.60012306893E+03 0.  0.
        3    1    3    3  502    0 -0.21553803566E+03 -0.63070510991E+01 -0.10593505293E+04  0.10810735303E+04  0.10100000352E+00 0.  1.
       -3    1    3    3    0  502  0.21553803566E+03  0.63070510991E+01 -0.13181952937E+03  0.25273073069E+03  0.10100000352E+00 0. -1.
</event>
<event>
 5   0  0.1332555E-02  0.6006868E+03  0.7818609E-02  0.9903982E-01
       -1   -1    0    0    0  501  0.00000000000E+00  0.00000000000E+00  0.11020780025E+03  0.11020780036E+03  0.50400001928E-02 0. -1.
        1   -1    0    0  501    0  0.00000000000E+00  0.00000000000E+00 -0.81850969493E+03  0.81850969494E+03  0.50400001928E-02 0.  1.
    10030    2    1    2    0    0  0.00000000000E+00  0.00000000000E+00 -0.70830189468E+03  0.92871749530E+03  0.60068678367E+03 0.  0.
        2    1    3    3  502    0  0.24747746299E+03  0.12732557811E+03 -0.17957759079E+03  0.33121746429E+03  0.25500000920E-02 0. -1.
       -2    1    3    3    0  502 -0.24747746299E+03 -0.12732557811E+03 -0.52872430389E+03  0.59750003101E+03  0.25500000920E-02 0.  1.
</event>
<event>
 5   0  0.2142838E-02  0.6002211E+03  0.7818609E-02  0.9904947E-01
       -2   -1    0    0    0  501  0.00000000000E+00  0.00000000000E+00  0.13846051163E+03  0.13846051166E+03  0.25500000920E-02 0. -1.
        2   -1    0    0  501    0  0.00000000000E+00  0.00000000000E+00 -0.65048391726E+03  0.65048391727E+03  0.25500000920E-02 0.  1.
    10030    2    1    2    0    0  0.00000000000E+00  0.00000000000E+00 -0.51202340563E+03  0.78894442892E+03  0.60022107928E+03 0.  0.
        4    1    3    3  502    0  0.45502398310E+02  0.21222642920E+03 -0.52843106745E+03  0.57127185424E+03  0.12699999809E+01 0. -1.
       -4    1    3    3    0  502 -0.45502398310E+02 -0.21222642920E+03  0.16407661823E+02  0.21767257468E+03  0.12699999809E+01 0.  1.
</event>
<event>
 5   0  0.1303808E-02  0.5996590E+03  0.7818609E-02  0.9906114E-01
       -1   -1    0    0    0  501  0.00000000000E+00  0.00000000000E+00  0.19508483217E+03  0.19508483223E+03  0.50400001928E-02 0. -1.
        1   -1    0    0  501    0  0.00000000000E+00  0.00000000000E+00 -0.46081358571E+03  0.46081358574E+03  0.50400001928E-02 0.  1.
    10030    2    1    2    0    0  0.00000000000E+00  0.00000000000E+00 -0.26572875355E+03  0.65589841797E+03  0.59965903999E+03 0.  0.
        4    1    3    3  502    0 -0.18064525830E+03 -0.11576471278E+03 -0.36193857038E+03  0.42075565320E+03  0.12699999809E+01 0.  1.
       -4    1    3    3    0  502  0.18064525830E+03  0.11576471278E+03  0.96209816834E+02  0.23514276477E+03  0.12699999809E+01 0. -1.
</event>
<event>
 5   0  0.1276705E-02  0.5997473E+03  0.7818609E-02  0.9905930E-01
       -1   -1    0    0    0  501  0.00000000000E+00  0.00000000000E+00  0.23199578771E+03  0.23199578776E+03  0.50400001928E-02 0.  1.
        1   -1    0    0  501    0  0.00000000000E+00  0.00000000000E+00 -0.38761142903E+03  0.38761142907E+03  0.50400001928E-02 0. -1.
    10030    2    1    2    0    0  0.00000000000E+00  0.00000000000E+00 -0.15561564132E+03  0.61960721683E+03  0.59974734291E+03 0.  0.
        1    1    3    3  502    0  0.23074416284E+03 -0.16229522889E+03  0.27253338360E+02  0.28341727979E+03  0.50400001928E-02 0.  1.
       -1    1    3    3    0  502 -0.23074416284E+03  0.16229522889E+03 -0.18286897968E+03  0.33618993704E+03  0.50400001928E-02 0. -1.
</event>
<event>
 5   0  0.1337051E-02  0.6057495E+03  0.7818609E-02  0.9893549E-01
        1   -1    0    0  501    0  0.00000000000E+00  0.00000000000E+00  0.35242587744E+03  0.35242587747E+03  0.50400001928E-02 0.  1.
       -1   -1    0    0    0  501  0.00000000000E+00  0.00000000000E+00 -0.26029052796E+03  0.26029052801E+03  0.50400001928E-02 0. -1.
    10030    2    1    2    0    0  0.00000000000E+00  0.00000000000E+00  0.92135349479E+02  0.61271640548E+03  0.60574951169E+03 0.  0.
        5    1    3    3  502    0 -0.24079347237E+02 -0.26775439226E+03 -0.94958959643E+02  0.28515175530E+03  0.46999998093E+01 0.  1.
       -5    1    3    3    0  502  0.24079347237E+02  0.26775439226E+03  0.18709430912E+03  0.32756465017E+03  0.46999998093E+01 0. -1.
</event>
<event>
 5   0  0.1250390E-02  0.6002814E+03  0.7818609E-02  0.9904822E-01
       -1   -1    0    0    0  501  0.00000000000E+00  0.00000000000E+00  0.28147010239E+02  0.28147010690E+02  0.50400001928E-02 0.  1.
        1   -1    0    0  501    0  0.00000000000E+00  0.00000000000E+00 -0.32004977117E+04  0.32004977117E+04  0.50400001928E-02 0. -1.
    10030    2    1    2    0    0  0.00000000000E+00  0.00000000000E+00 -0.31723507014E+04  0.32286447224E+04  0.60028140933E+03 0.  0.
        3    1    3    3  502    0  0.54694491883E+02  0.12433391228E+03 -0.30257196577E+04  0.30287670539E+04  0.10100000352E+00 0. -1.
       -3    1    3    3    0  502 -0.54694491883E+02 -0.12433391228E+03 -0.14663104368E+03  0.19987766848E+03  0.10100000352E+00 0.  1.
</event>
<event>
 5   0  0.2141800E-02  0.6048030E+03  0.7818609E-02  0.9895491E-01
       -2   -1    0    0    0  501  0.00000000000E+00  0.00000000000E+00  0.12191349416E+03  0.12191349418E+03  0.25500000920E-02 0.  1.
        2   -1    0    0  501    0  0.00000000000E+00  0.00000000000E+00 -0.75009475640E+03  0.75009475640E+03  0.25500000920E-02 0. -1.
    10030    2    1    2    0    0  0.00000000000E+00  0.00000000000E+00 -0.62818126224E+03  0.87200825059E+03  0.60480301823E+03 0.  0.
        2    1    3    3  502    0  0.16284162475E+03 -0.25480771507E+03 -0.31190103218E+03  0.43442677207E+03  0.25500000920E-02 0. -1.
       -2    1    3    3    0  502 -0.16284162475E+03  0.25480771507E+03 -0.31628023006E+03  0.43758147852E+03  0.25500000920E-02 0.  1.
</event>
<event>
 5   0  0.1303808E-02  0.5989934E+03  0.7818609E-02  0.9907497E-01
        1   -1    0    0  501    0  0.00000000000E+00  0.00000000000E+00  0.44919716241E+03  0.44919716244E+03  0.50400001928E-02 0. -1.
       -1   -1    0    0    0  501  0.00000000000E+00  0.00000000000E+00 -0.19968575246E+03  0.19968575253E+03  0.50400001928E-02 0.  1.
    10030    2    1    2    0    0  0.00000000000E+00  0.00000000000E+00  0.24951140995E+03  0.64888291497E+03  0.59899340033E+03 0.  0.
        4    1    3    3  502    0 -0.11125313450E+03 -0.20344986823E+03  0.33008840287E+03  0.40339692045E+03  0.12699999809E+01 0. -1.
       -4    1    3    3    0  502  0.11125313450E+03  0.20344986823E+03 -0.80576992921E+02  0.24548599452E+03  0.12699999809E+01 0.  1.
</event>
<event>
 5   0  0.2126207E-02  0.6099328E+03  0.7818609E-02  0.9885010E-01
       -2   -1    0    0    0  501  0.00000000000E+00  0.00000000000E+00  0.49134689231E+02  0.49134689298E+02  0.25500000920E-02 0.  1.
        2   -1    0    0  501    0  0.00000000000E+00  0.00000000000E+00 -0.18928480258E+04  0.18928480258E+04  0.25500000920E-02 0. -1.
    10030    2    1    2    0    0  0.00000000000E+00  0.00000000000E+00 -0.18437133365E+04  0.19419827151E+04  0.60993278179E+03 0.  0.
        5    1    3    3  502    0  0.16280300937E+03  0.11591625069E+03 -0.16551357352E+04  0.16671645957E+04  0.46999998093E+01 0. -1.
       -5    1    3    3    0  502 -0.16280300937E+03 -0.11591625069E+03 -0.18857760131E+03  0.27481811939E+03  0.46999998093E+01 0.  1.
</event>
<event>
 5   0  0.8551000E-03  0.5935221E+03  0.7818609E-02  0.9918938E-01
        3   -1    0    0  501    0  0.00000000000E+00  0.00000000000E+00  0.33197044250E+03  0.33197045787E+03  0.10100000352E+00 0.  1.
       -3   -1    0    0    0  501  0.00000000000E+00  0.00000000000E+00 -0.26528596294E+03  0.26528598216E+03  0.10100000352E+00 0. -1.
    10030    2    1    2    0    0  0.00000000000E+00  0.00000000000E+00  0.66684479568E+02  0.59725644003E+03  0.59352205969E+03 0.  0.
        4    1    3    3  502    0  0.12048409680E+03  0.55339853348E+01  0.30619110829E+03  0.32909216076E+03  0.12699999809E+01 0.  1.
       -4    1    3    3    0  502 -0.12048409680E+03 -0.55339853348E+01 -0.23950662872E+03  0.26816427927E+03  0.12699999809E+01 0. -1.
</event>
<event>
 5   0  0.2142838E-02  0.5986335E+03  0.7818609E-02  0.9908245E-01
       -2   -1    0    0    0  501  0.00000000000E+00  0.00000000000E+00  0.92649177303E+02  0.92649177338E+02  0.25500000920E-02 0. -1.
        2   -1    0    0  501    0  0.00000000000E+00  0.00000000000E+00 -0.96698675101E+03  0.96698675102E+03  0.25500000920E-02 0.  1.
    10030    2    1    2    0    0  0.00000000000E+00  0.00000000000E+00 -0.87433757371E+03  0.10596359284E+04  0.59863353386E+03 0.  0.
        4    1    3    3  502    0  0.78570717334E+02 -0.65333788990E+02 -0.93515005507E+03  0.94071733268E+03  0.12699999809E+01 0.  1.
       -4    1    3    3    0  502 -0.78570717334E+02  0.65333788990E+02  0.60812481366E+02  0.11891859567E+03  0.12699999809E+01 0. -1.
</event>
<event>
 5   0  0.1276705E-02  0.5997378E+03  0.7818609E-02  0.9905950E-01
        1   -1    0    0  501    0  0.00000000000E+00  0.00000000000E+00  0.15181558438E+03  0.15181558446E+03  0.50400001928E-02 0.  1.
       -1   -1    0    0    0  501  0.00000000000E+00  0.00000000000E+00 -0.59230647778E+03  0.59230647780E+03  0.50400001928E-02 0. -1.
    10030    2    1    2    0    0  0.00000000000E+00  0.00000000000E+00 -0.44049089340E+03  0.74412206226E+03  0.59973778969E+03 0.  0.
        1    1    3    3  502    0  0.14050073555E+03 -0.19638502030E+03  0.36255587979E+00  0.24146980010E+03  0.50400001928E-02 0.  1.
       -1    1    3    3    0  502 -0.14050073555E+03  0.19638502030E+03 -0.44085344928E+03  0.50265226216E+03  0.50400001928E-02 0. -1.
</event>
<event>
 5   0  0.2126207E-02  0.5985534E+03  0.7818609E-02  0.9908412E-01
        2   -1    0    0  501    0  0.00000000000E+00  0.00000000000E+00  0.14054596975E+04  0.14054596975E+04  0.25500000920E-02 0.  1.
       -2   -1    0    0    0  501  0.00000000000E+00  0.00000000000E+00 -0.63727573003E+02  0.63727573054E+02  0.25500000920E-02 0. -1.
    10030    2    1    2    0    0  0.00000000000E+00  0.00000000000E+00  0.13417321245E+04  0.14691872706E+04  0.59855337444E+03 0.  0.
        5    1    3    3  502    0 -0.13058031346E+02  0.16643243037E+03  0.12804394004E+04  0.12912851793E+04  0.46999998093E+01 0.  1.
       -5    1    3    3    0  502  0.13058031346E+02 -0.16643243037E+03  0.61292724083E+02  0.17790209129E+03  0.46999998093E+01 0. -1.
</event>
<event>
 5   0  0.8551000E-03  0.6013410E+03  0.7818609E-02  0.9902628E-01
        3   -1    0    0  501    0  0.00000000000E+00  0.00000000000E+00  0.12600793721E+04  0.12600793761E+04  0.10100000352E+00 0. -1.
       -3   -1    0    0    0  501  0.00000000000E+00  0.00000000000E+00 -0.71743660683E+02  0.71743731776E+02  0.10100000352E+00 0.  1.
    10030    2    1    2    0    0  0.00000000000E+00  0.00000000000E+00  0.11883357114E+04  0.13318231079E+04  0.60134102451E+03 0.  0.
        2    1    3    3  502    0  0.10024387359E+03 -0.13486900268E+03  0.41968178139E+02  0.17320453245E+03  0.25500000920E-02 0.  1.
       -2    1    3    3    0  502 -0.10024387359E+03  0.13486900268E+03  0.11463675332E+04  0.11586185754E+04  0.25500000920E-02 0. -1.
</event>
<event>
 5   0  0.2179625E-02  0.5986887E+03  0.7818609E-02  0.9908130E-01
        2   -1    0    0  501    0  0.00000000000E+00  0.00000000000E+00  0.46734500008E+03  0.46734500009E+03  0.25500000920E-02 0. -1.
       -2   -1    0    0    0  501  0.00000000000E+00  0.00000000000E+00 -0.19173638832E+03  0.19173638834E+03  0.25500000920E-02 0.  1.
    10030    2    1    2    0    0  0.00000000000E+00  0.00000000000E+00  0.27560861176E+03  0.65908138843E+03  0.59868870850E+03 0.  0.
        1    1    3    3  502    0  0.13130131578E+03  0.27907011944E+02  0.43235409686E+03  0.45271282502E+03  0.50400001928E-02 0. -1.
       -1    1    3    3    0  502 -0.13130131578E+03 -0.27907011944E+02 -0.15674548509E+03  0.20636856341E+03  0.50400001928E-02 0.  1.
</event>
<event>
 5   0  0.2092587E-02  0.5982819E+03  0.7818609E-02  0.9908977E-01
        2   -1    0    0  501    0  0.00000000000E+00  0.00000000000E+00  0.17670377408E+04  0.17670377408E+04  0.25500000920E-02 0. -1.
       -2   -1    0    0    0  501  0.00000000000E+00  0.00000000000E+00 -0.50641430984E+02  0.50641431049E+02  0.25500000920E-02 0.  1.
    10030    2    1    2    0    0  0.00000000000E+00  0.00000000000E+00  0.17163963098E+04  0.18176791719E+04  0.59828193975E+03 0.  0.
        3    1    3    3  502    0 -0.28494302093E+03 -0.66089994195E+02  0.10485361445E+04  0.10885717565E+04  0.10100000352E+00 0.  1.
       -3    1    3    3    0  502  0.28494302093E+03  0.66089994195E+02  0.66786016529E+03  0.72910741533E+03  0.10100000352E+00 0. -1.
</event>
<event>
 5   0  0.1276705E-02  0.5995641E+03  0.7818609E-02  0.9906311E-01
       -1   -1    0    0    0  501  0.00000000000E+00  0.00000000000E+00  0.26067823913E+03  0.26067823917E+03  0.50400001928E-02 0. -1.
        1   -1    0    0  501    0  0.00000000000E+00  0.00000000000E+00 -0.34475168767E+03  0.34475168771E+03  0.50400001928E-02 0.  1.
    10030    2    1    2    0    0  0.00000000000E+00  0.00000000000E+00 -0.84073448543E+02  0.60542992688E+03  0.59956405130E+03 0.  0.
        1    1    3    3  502    0 -0.27054847975E+02 -0.66252535571E+02  0.25192634344E+03  0.26189357727E+03  0.50400001928E-02 0. -1.
       -1    1    3    3    0  502  0.27054847975E+02  0.66252535571E+02 -0.33599979198E+03  0.34353634961E+03  0.50400001928E-02 0.  1.
</event>
<event>
 5   0  0.8551000E-03  0.5940112E+03  0.7818609E-02  0.9917909E-01
       -4   -1    0    0    0  501  0.00000000000E+00  0.00000000000E+00  0.11007876980E+04  0.11007884306E+04  0.12699999809E+01 0. -1.
        4   -1    0    0  501    0  0.00000000000E+00  0.00000000000E+00 -0.80129843069E+02  0.80139906727E+02  0.12699999809E+01 0.  1.
    10030    2    1    2    0    0  0.00000000000E+00  0.00000000000E+00  0.10206578550E+04  0.11809283374E+04  0.59401117928E+03 0.  0.
        1    1    3    3  502    0  0.49143773867E+02  0.12790422005E+03  0.10342026953E+04  0.10432400563E+04  0.50400001928E-02 0. -1.
       -1    1    3    3    0  502 -0.49143773867E+02 -0.12790422005E+03 -0.13544840371E+02  0.13768828107E+03  0.50400001928E-02 0.  1.
</event>
<event>
 5   0  0.2179625E-02  0.6037807E+03  0.7818609E-02  0.9897593E-01
       -2   -1    0    0    0  501  0.00000000000E+00  0.00000000000E+00  0.22485272647E+03  0.22485272648E+03  0.25500000920E-02 0.  1.
        2   -1    0    0  501    0  0.00000000000E+00  0.00000000000E+00 -0.40532211913E+03  0.40532211914E+03  0.25500000920E-02 0. -1.
    10030    2    1    2    0    0  0.00000000000E+00  0.00000000000E+00 -0.18046939266E+03  0.63017484562E+03  0.60378070056E+03 0.  0.
        1    1    3    3  502    0 -0.87757992445E+02  0.23166854753E+03 -0.27030499836E+03  0.36665593315E+03  0.50400001928E-02 0. -1.
       -1    1    3    3    0  502  0.87757992445E+02 -0.23166854753E+03  0.89835605699E+02  0.26351891247E+03  0.50400001928E-02 0.  1.
</event>
<event>
 5   0  0.2092587E-02  0.6008350E+03  0.7818609E-02  0.9903675E-01
        2   -1    0    0  501    0  0.00000000000E+00  0.00000000000E+00  0.93324767194E+03  0.93324767195E+03  0.25500000920E-02 0. -1.
       -2   -1    0    0    0  501  0.00000000000E+00  0.00000000000E+00 -0.96706040779E+02  0.96706040813E+02  0.25500000920E-02 0.  1.
    10030    2    1    2    0    0  0.00000000000E+00  0.00000000000E+00  0.83654163116E+03  0.10299537128E+04  0.60083504372E+03 0.  0.
        3    1    3    3  502    0 -0.18921057477E+03 -0.67694838709E+02  0.80107000437E+03  0.82589127305E+03  0.10100000352E+00 0. -1.
       -3    1    3    3    0  502  0.18921057477E+03  0.67694838709E+02  0.35471626793E+02  0.20406243971E+03  0.10100000352E+00 0.  1.
</event>
<event>
 5   0  0.1337051E-02  0.6003957E+03  0.7818609E-02  0.9904585E-01
       -1   -1    0    0    0  501  0.00000000000E+00  0.00000000000E+00  0.24643023662E+03  0.24643023667E+03  0.50400001928E-02 0.  1.
        1   -1    0    0  501    0  0.00000000000E+00  0.00000000000E+00 -0.36569685001E+03  0.36569685005E+03  0.50400001928E-02 0. -1.
    10030    2    1    2    0    0  0.00000000000E+00  0.00000000000E+00 -0.11926661339E+03  0.61212708672E+03  0.60039574051E+03 0.  0.
        5    1    3    3  502    0 -0.12511905236E+03  0.13203116474E+02 -0.33747896022E+03  0.36019888692E+03  0.46999998093E+01 0. -1.
       -5    1    3    3    0  502  0.12511905236E+03 -0.13203116474E+02  0.21821234683E+03  0.25192819980E+03  0.46999998093E+01 0.  1.
</event>
<event>
 5   0  0.2092587E-02  0.6004840E+03  0.7818609E-02  0.9904402E-01
       -2   -1    0    0    0  501  0.00000000000E+00  0.00000000000E+00  0.23520873385E+03  0.23520873386E+03  0.25500000920E-02 0. -1.
        2   -1    0    0  501    0  0.00000000000E+00  0.00000000000E+00 -0.38325642066E+03  0.38325642067E+03  0.25500000920E-02 0.  1.
    10030    2    1    2    0    0  0.00000000000E+00  0.00000000000E+00 -0.14804768681E+03  0.61846515453E+03  0.60048399629E+03 0.  0.
        3    1    3    3  502    0 -0.95815611922E+02 -0.77253919282E+02  0.20803137871E+03  0.24171442708E+03  0.10100000352E+00 0. -1.
       -3    1    3    3    0  502  0.95815611922E+02  0.77253919282E+02 -0.35607906552E+03  0.37675072745E+03  0.10100000352E+00 0.  1.
</event>
<event>
 5   0  0.1332555E-02  0.6003762E+03  0.7818609E-02  0.9904626E-01
        1   -1    0    0  501    0  0.00000000000E+00  0.00000000000E+00  0.24268899989E+03  0.24268899994E+03  0.50400001928E-02 0. -1.
       -1   -1    0    0    0  501  0.00000000000E+00  0.00000000000E+00 -0.37131016709E+03  0.37131016712E+03  0.50400001928E-02 0.  1.
    10030    2    1    2    0    0  0.00000000000E+00  0.00000000000E+00 -0.12862116720E+03  0.61399916706E+03  0.60037619248E+03 0.  0.
        2    1    3    3  502    0  0.18046369220E+03 -0.11030025715E+03 -0.28216916026E+03  0.35263681875E+03  0.25500000920E-02 0.  1.
       -2    1    3    3    0  502 -0.18046369220E+03  0.11030025715E+03  0.15354799306E+03  0.26136234830E+03  0.25500000920E-02 0. -1.
</event>
<event>
 5   0  0.1303808E-02  0.6010343E+03  0.7818609E-02  0.9903263E-01
        1   -1    0    0  501    0  0.00000000000E+00  0.00000000000E+00  0.80085106713E+03  0.80085106714E+03  0.50400001928E-02 0. -1.
       -1   -1    0    0    0  501  0.00000000000E+00  0.00000000000E+00 -0.11276822347E+03  0.11276822358E+03  0.50400001928E-02 0.  1.
    10030    2    1    2    0    0  0.00000000000E+00  0.00000000000E+00  0.68808284366E+03  0.91361929072E+03  0.60103428241E+03 0.  0.
        4    1    3    3  502    0  0.23817897136E+03  0.95530604772E+02  0.10633681439E+03  0.27778489851E+03  0.12699999809E+01 0.  1.
       -4    1    3    3    0  502 -0.23817897136E+03 -0.95530604772E+02  0.58174602927E+03  0.63583439221E+03  0.12699999809E+01 0. -1.
</event>
<event>
 5   0  0.2092587E-02  0.5982823E+03  0.7818609E-02  0.9908976E-01
       -2   -1    0    0    0  501  0.00000000000E+00  0.00000000000E+00  0.83829239330E+02  0.83829239369E+02  0.25500000920E-02 0.  1.
        2   -1    0    0  501    0  0.00000000000E+00  0.00000000000E+00 -0.10674728869E+04  0.10674728869E+04  0.25500000920E-02 0. -1.
    10030    2    1    2    0    0  0.00000000000E+00  0.00000000000E+00 -0.98364364755E+03  0.11513021263E+04  0.59828234183E+03 0.  0.
        3    1    3    3  502    0  0.16977992670E+03  0.62091876668E+02 -0.95046576370E+03  0.96750493685E+03  0.10100000352E+00 0. -1.
       -3    1    3    3    0  502 -0.16977992670E+03 -0.62091876668E+02 -0.33177883855E+02  0.18379718941E+03  0.10100000352E+00 0.  1.
</event>
<event>
 5   0  0.1250390E-02  0.5864165E+03  0.7818609E-02  0.9933995E-01
        1   -1    0    0  501    0  0.00000000000E+00  0.00000000000E+00  0.50745060930E+03  0.50745060933E+03  0.50400001928E-02 0. -1.
       -1   -1    0    0    0  501  0.00000000000E+00  0.00000000000E+00 -0.16941763926E+03  0.16941763933E+03  0.50400001928E-02 0.  1.
    10030    2    1    2    0    0  0.00000000000E+00  0.00000000000E+00  0.33803297004E+03  0.67686824866E+03  0.58641652194E+03 0.  0.
        3    1    3    3  502    0  0.32018883523E+02 -0.18972252084E+03  0.42439229086E+03  0.46597067564E+03  0.10100000352E+00 0. -1.
       -3    1    3    3    0  502 -0.32018883523E+02  0.18972252084E+03 -0.86359320814E+02  0.21089757302E+03  0.10100000352E+00 0.  1.
</event>
<event>
 5   0  0.1276705E-02  0.5996403E+03  0.7818609E-02  0.9906153E-01
        1   -1    0    0  501    0  0.00000000000E+00  0.00000000000E+00  0.38970017209E+03  0.38970017212E+03  0.50400001928E-02 0. -1.
       -1   -1    0    0    0  501  0.00000000000E+00  0.00000000000E+00 -0.23066996079E+03  0.23066996084E+03  0.50400001928E-02 0.  1.
    10030    2    1    2    0    0  0.00000000000E+00  0.00000000000E+00  0.15903021131E+03  0.62037013296E+03  0.59964030365E+03 0.  0.
        1    1    3    3  502    0 -0.21877779344E+02  0.28790906792E+03 -0.40347354623E+01  0.28876728993E+03  0.50400001928E-02 0.  1.
       -1    1    3    3    0  502  0.21877779344E+02 -0.28790906792E+03  0.16306494677E+03  0.33160284303E+03  0.50400001928E-02 0. -1.
</event>
<event>
 5   0  0.1303808E-02  0.5991272E+03  0.7818609E-02  0.9907218E-01
        1   -1    0    0  501    0  0.00000000000E+00  0.00000000000E+00  0.46794157009E+03  0.46794157011E+03  0.50400001928E-02 0.  1.
       -1   -1    0    0    0  501  0.00000000000E+00  0.00000000000E+00 -0.19177256297E+03  0.19177256303E+03  0.50400001928E-02 0. -1.
    10030    2    1    2    0    0  0.00000000000E+00  0.00000000000E+00  0.27616900712E+03  0.65971413315E+03  0.59912721269E+03 0.  0.
        4    1    3    3  502    0  0.11240130166E+03 -0.19194674743E+03 -0.82852755208E+02  0.23736848656E+03  0.12699999809E+01 0. -1.
       -4    1    3    3    0  502 -0.11240130166E+03  0.19194674743E+03  0.35902176233E+03  0.42234564659E+03  0.12699999809E+01 0.  1.
</event>
<event>
 5   0  0.2141800E-02  0.5877164E+03  0.7818609E-02  0.9931223E-01
        2   -1    0    0  501    0  0.00000000000E+00  0.00000000000E+00  0.19395265037E+03  0.19395265038E+03  0.25500000920E-02 0.  1.
       -2   -1    0    0    0  501  0.00000000000E+00  0.00000000000E+00 -0.44522539360E+03  0.44522539360E+03  0.25500000920E-02 0. -1.
    10030    2    1    2    0    0  0.00000000000E+00  0.00000000000E+00 -0.25127274323E+03  0.63917804398E+03  0.58771641156E+03 0.  0.
        2    1    3    3  502    0  0.31215639244E+01  0.27924858969E+03 -0.26178685194E+02  0.28049036093E+03  0.25500000920E-02 0. -1.
       -2    1    3    3    0  502 -0.31215639244E+01 -0.27924858969E+03 -0.22509405804E+03  0.35868768306E+03  0.25500000920E-02 0.  1.
</event>
<event>
 5   0  0.2141800E-02  0.5985554E+03  0.7818609E-02  0.9908408E-01
        2   -1    0    0  501    0  0.00000000000E+00  0.00000000000E+00  0.47775693646E+03  0.47775693647E+03  0.25500000920E-02 0. -1.
       -2   -1    0    0    0  501  0.00000000000E+00  0.00000000000E+00 -0.18747429906E+03  0.18747429908E+03  0.25500000920E-02 0.  1.
    10030    2    1    2    0    0  0.00000000000E+00  0.00000000000E+00  0.29028263741E+03  0.66523123555E+03  0.59855541696E+03 0.  0.
        2    1    3    3  502    0 -0.28729585432E+03  0.78769660381E+02  0.11324643474E+03  0.31869785423E+03  0.25500000920E-02 0. -1.
       -2    1    3    3    0  502  0.28729585432E+03 -0.78769660381E+02  0.17703620266E+03  0.34653338131E+03  0.25500000920E-02 0.  1.
</event>
<event>
 5   0  0.2141800E-02  0.5878208E+03  0.7818609E-02  0.9931001E-01
        2   -1    0    0  501    0  0.00000000000E+00  0.00000000000E+00  0.13170211025E+04  0.13170211025E+04  0.25500000920E-02 0. -1.
       -2   -1    0    0    0  501  0.00000000000E+00  0.00000000000E+00 -0.65589939593E+02  0.65589939642E+02  0.25500000920E-02 0.  1.
    10030    2    1    2    0    0  0.00000000000E+00  0.00000000000E+00  0.12514311629E+04  0.13826110421E+04  0.58782083865E+03 0.  0.
        2    1    3    3  502    0  0.23269412803E+03  0.17817180392E+03  0.57356554201E+03  0.64410339226E+03  0.25500000920E-02 0.  1.
       -2    1    3    3    0  502 -0.23269412803E+03 -0.17817180392E+03  0.67786562086E+03  0.73850764985E+03  0.25500000920E-02 0. -1.
</event>
<event>
 5   0  0.8551000E-03  0.6012069E+03  0.7818609E-02  0.9902905E-01
       -4   -1    0    0    0  501  0.00000000000E+00  0.00000000000E+00  0.20774502701E+03  0.20774890890E+03  0.12699999809E+01 0.  1.
        4   -1    0    0  501    0  0.00000000000E+00  0.00000000000E+00 -0.43495903257E+03  0.43496088664E+03  0.12699999809E+01 0. -1.
    10030    2    1    2    0    0  0.00000000000E+00  0.00000000000E+00 -0.22721400555E+03  0.64270979554E+03  0.60120685040E+03 0.  0.
        3    1    3    3  502    0 -0.69736167623E+02 -0.24624139463E+03  0.54963056889E+02  0.26176116085E+03  0.10100000352E+00 0.  1.
       -3    1    3    3    0  502  0.69736167623E+02  0.24624139463E+03 -0.28217706244E+03  0.38094863469E+03  0.10100000352E+00 0. -1.
</event>
<event>
 5   0  0.1303808E-02  0.6015188E+03  0.7818609E-02  0.9902260E-01
        1   -1    0    0  501    0  0.00000000000E+00  0.00000000000E+00  0.80065590160E+03  0.80065590162E+03  0.50400001928E-02 0. -1.
       -1   -1    0    0    0  501  0.00000000000E+00  0.00000000000E+00 -0.11297765994E+03  0.11297766005E+03  0.50400001928E-02 0.  1.
    10030    2    1    2    0    0  0.00000000000E+00  0.00000000000E+00  0.68767824166E+03  0.91363356167E+03  0.60151884505E+03 0.  0.
        4    1    3    3  502    0 -0.19593914472E+03 -0.14169729411E+02 -0.20573487951E+01  0.19646571011E+03  0.12699999809E+01 0.  1.
       -4    1    3    3    0  502  0.19593914472E+03  0.14169729411E+02  0.68973559046E+03  0.71716785156E+03  0.12699999809E+01 0. -1.
</event>
<event>
 5   0  0.1250390E-02  0.6002320E+03  0.7818609E-02  0.9904925E-01
        1   -1    0    0  501    0  0.00000000000E+00  0.00000000000E+00  0.22095171359E+03  0.22095171365E+03  0.50400001928E-02 0. -1.
       -1   -1    0    0    0  501  0.00000000000E+00  0.00000000000E+00 -0.40764394220E+03  0.40764394223E+03  0.50400001928E-02 0.  1.
    10030    2    1    2    0    0  0.00000000000E+00  0.00000000000E+00 -0.18669222861E+03  0.62859565588E+03  0.60023204711E+03 0.  0.
        3    1    3    3  502    0  0.22486745060E+03  0.76039308323E+02  0.98967752821E+02  0.25718081781E+03  0.10100000352E+00 0. -1.
       -3    1    3    3    0  502 -0.22486745060E+03 -0.76039308323E+02 -0.28565998143E+03  0.37141483807E+03  0.10100000352E+00 0.  1.
</event>
<event>
 5   0  0.2126207E-02  0.6002013E+03  0.7818609E-02  0.9904988E-01
       -2   -1    0    0    0  501  0.00000000000E+00  0.00000000000E+00  0.14663161232E+03  0.14663161234E+03  0.25500000920E-02 0.  1.
        2   -1    0    0  501    0  0.00000000000E+00  0.00000000000E+00 -0.61419507945E+03  0.61419507946E+03  0.25500000920E-02 0. -1.
    10030    2    1    2    0    0  0.00000000000E+00  0.00000000000E+00 -0.46756346713E+03  0.76082669180E+03  0.60020134885E+03 0.  0.
        5    1    3    3  502    0  0.99120524071E+02 -0.26243491145E+03 -0.98785574149E+02  0.29745191325E+03  0.46999998093E+01 0.  1.
       -5    1    3    3    0  502 -0.99120524071E+02  0.26243491145E+03 -0.36877789298E+03  0.46337477855E+03  0.46999998093E+01 0. -1.
</event>
<event>
 5   0  0.1332555E-02  0.6005102E+03  0.7818609E-02  0.9904348E-01
        1   -1    0    0  501    0  0.00000000000E+00  0.00000000000E+00  0.68429385950E+03  0.68429385952E+03  0.50400001928E-02 0.  1.
       -1   -1    0    0    0  501  0.00000000000E+00  0.00000000000E+00 -0.13174621547E+03  0.13174621557E+03  0.50400001928E-02 0. -1.
    10030    2    1    2    0    0  0.00000000000E+00  0.00000000000E+00  0.55254764403E+03  0.81604007509E+03  0.60051020410E+03 0.  0.
        2    1    3    3  502    0  0.24517028326E+03  0.41418328222E+02  0.50499590743E+03  0.56288969810E+03  0.25500000920E-02 0.  1.
       -2    1    3    3    0  502 -0.24517028326E+03 -0.41418328222E+02  0.47551736607E+02  0.25315037699E+03  0.25500000920E-02 0. -1.
</event>
<event>
 5   0  0.2126207E-02  0.6004524E+03  0.7818609E-02  0.9904468E-01
       -2   -1    0    0    0  501  0.00000000000E+00  0.00000000000E+00  0.63146582805E+02  0.63146582857E+02  0.25500000920E-02 0.  1.
        2   -1    0    0  501    0  0.00000000000E+00  0.00000000000E+00 -0.14274054356E+04  0.14274054356E+04  0.25500000920E-02 0. -1.
    10030    2    1    2    0    0  0.00000000000E+00  0.00000000000E+00 -0.13642588528E+04  0.14905520184E+04  0.60045241468E+03 0.  0.
        5    1    3    3  502    0 -0.32683376150E+02  0.40534285200E+02  0.51759534519E+02  0.73568816526E+02  0.46999998093E+01 0.  1.
       -5    1    3    3    0  502  0.32683376150E+02 -0.40534285200E+02 -0.14160183873E+04  0.14169832019E+04  0.46999998093E+01 0. -1.
</event>
<event>
 5   0  0.1303808E-02  0.6023775E+03  0.7818609E-02  0.9900486E-01
       -1   -1    0    0    0  501  0.00000000000E+00  0.00000000000E+00  0.12416210520E+03  0.12416210531E+03  0.50400001928E-02 0. -1.
        1   -1    0    0  501    0  0.00000000000E+00  0.00000000000E+00 -0.73061462062E+03  0.73061462064E+03  0.50400001928E-02 0.  1.
    10030    2    1    2    0    0  0.00000000000E+00  0.00000000000E+00 -0.60645251542E+03  0.85477672594E+03  0.60237745456E+03 0.  0.
        4    1    3    3  502    0 -0.11734700503E+03  0.13623900557E+03 -0.64609047542E+03  0.67064588387E+03  0.12699999809E+01 0.  1.
       -4    1    3    3    0  502  0.11734700503E+03 -0.13623900557E+03  0.39637960000E+02  0.18413084207E+03  0.12699999809E+01 0. -1.
</event>
<event>
 5   0  0.1337051E-02  0.6310449E+03  0.7818609E-02  0.9843012E-01
       -1   -1    0    0    0  501  0.00000000000E+00  0.00000000000E+00  0.13294511287E+03  0.13294511296E+03  0.50400001928E-02 0.  1.
        1   -1    0    0  501    0  0.00000000000E+00  0.00000000000E+00 -0.74883846189E+03  0.74883846190E+03  0.50400001928E-02 0. -1.
    10030    2    1    2    0    0  0.00000000000E+00  0.00000000000E+00 -0.61589334902E+03  0.88178357487E+03  0.63104489186E+03 0.  0.
        5    1    3    3  502    0  0.15065565672E+03  0.20604117094E+03 -0.56704749484E+03  0.62186416718E+03  0.46999998093E+01 0. -1.
       -5    1    3    3    0  502 -0.15065565672E+03 -0.20604117094E+03 -0.48845854179E+02  0.25991940769E+03  0.46999998093E+01 0.  1.
</event>
<event>
 5   0  0.1250390E-02  0.6002395E+03  0.7818609E-02  0.9904909E-01
       -1   -1    0    0    0  501  0.00000000000E+00  0.00000000000E+00  0.95943065920E+02  0.95943066053E+02  0.50400001928E-02 0. -1.
        1   -1    0    0  501    0  0.00000000000E+00  0.00000000000E+00 -0.93880540883E+03  0.93880540884E+03  0.50400001928E-02 0.  1.
    10030    2    1    2    0    0  0.00000000000E+00  0.00000000000E+00 -0.84286234291E+03  0.10347484749E+04  0.60023951653E+03 0.  0.
        3    1    3    3  502    0  0.55994038529E+02 -0.22931096095E+03 -0.74094717013E+03  0.77763845603E+03  0.10100000352E+00 0.  1.
       -3    1    3    3    0  502 -0.55994038529E+02  0.22931096095E+03 -0.10191517278E+03  0.25711001887E+03  0.10100000352E+00 0. -1.
</event>
<event>
 5   0  0.1276705E-02  0.5928141E+03  0.7818609E-02  0.9920428E-01
       -1   -1    0    0    0  501  0.00000000000E+00  0.00000000000E+00  0.35975842701E+03  0.35975842705E+03  0.50400001928E-02 0.  1.
        1   -1    0    0  501    0  0.00000000000E+00  0.00000000000E+00 -0.24421146292E+03  0.24421146297E+03  0.50400001928E-02 0. -1.
    10030    2    1    2    0    0  0.00000000000E+00  0.00000000000E+00  0.11554696409E+03  0.60396989002E+03  0.59281407468E+03 0.  0.
        1    1    3    3  502    0 -0.17890691106E+03  0.36325476762E+02  0.29568428737E+03  0.34750024591E+03  0.50400001928E-02 0.  1.
       -1    1    3    3    0  502  0.17890691106E+03 -0.36325476762E+02 -0.18013732328E+03  0.25646964411E+03  0.50400001928E-02 0. -1.
</event>
<event>
 5   0  0.2142838E-02  0.5967935E+03  0.7818609E-02  0.9912081E-01
       -2   -1    0    0    0  501  0.00000000000E+00  0.00000000000E+00  0.30343965962E+03  0.30343965963E+03  0.25500000920E-02 0.  1.
        2   -1    0    0  501    0  0.00000000000E+00  0.00000000000E+00 -0.29343762108E+03  0.29343762109E+03  0.25500000920E-02 0. -1.
    10030    2    1    2    0    0  0.00000000000E+00  0.00000000000E+00  0.10002038541E+02  0.59687728072E+03  0.59679347137E+03 0.  0.
        4    1    3    3  502    0 -0.55022705477E+02  0.12795870501E+03 -0.25892630210E+03  0.29401593686E+03  0.12699999809E+01 0. -1.
       -4    1    3    3    0  502  0.55022705477E+02 -0.12795870501E+03  0.26892834064E+03  0.30286134386E+03  0.12699999809E+01 0.  1.
</event>
<event>
 5   0  0.2141800E-02  0.6007169E+03  0.7818609E-02  0.9903920E-01
       -2   -1    0    0    0  501  0.00000000000E+00  0.00000000000E+00  0.22091670932E+03  0.22091670934E+03  0.25500000920E-02 0. -1.
        2   -1    0    0  501    0  0.00000000000E+00  0.00000000000E+00 -0.40836749081E+03  0.40836749081E+03  0.25500000920E-02 0.  1.
    10030    2    1    2    0    0  0.00000000000E+00  0.00000000000E+00 -0.18745078148E+03  0.62928420015E+03  0.60071691260E+03 0.  0.
        2    1    3    3  502    0  0.27867571283E+03  0.11041210776E+03 -0.11371739621E+03  0.32059730608E+03  0.25500000920E-02 0. -1.
       -2    1    3    3    0  502 -0.27867571283E+03 -0.11041210776E+03 -0.73733385274E+02  0.30868689407E+03  0.25500000920E-02 0.  1.
</event>
<event>
 5   0  0.1250390E-02  0.5996963E+03  0.7818609E-02  0.9906036E-01
       -1   -1    0    0    0  501  0.00000000000E+00  0.00000000000E+00  0.70947990333E+02  0.70947990512E+02  0.50400001928E-02 0. -1.
        1   -1    0    0  501    0  0.00000000000E+00  0.00000000000E+00 -0.12672508652E+04  0.12672508652E+04  0.50400001928E-02 0.  1.
    10030    2    1    2    0    0  0.00000000000E+00  0.00000000000E+00 -0.11963028748E+04  0.13381988557E+04  0.59969626398E+03 0.  0.
        3    1    3    3  502    0  0.12831178475E+03 -0.48561740560E+02 -0.31971539280E+01  0.13723115079E+03  0.10100000352E+00 0. -1.
       -3    1    3    3    0  502 -0.12831178475E+03  0.48561740560E+02 -0.11931057209E+04  0.12009677049E+04  0.10100000352E+00 0.  1.
</event>
<event>
 5   0  0.2092587E-02  0.5969054E+03  0.7818609E-02  0.9911847E-01
       -2   -1    0    0    0  501  0.00000000000E+00  0.00000000000E+00  0.86305287017E+02  0.86305287055E+02  0.25500000920E-02 0. -1.
        2   -1    0    0  501    0  0.00000000000E+00  0.00000000000E+00 -0.10320805631E+04  0.10320805631E+04  0.25500000920E-02 0.  1.
    10030    2    1    2    0    0  0.00000000000E+00  0.00000000000E+00 -0.94577527606E+03  0.11183858501E+04  0.59690538360E+03 0.  0.
        3    1    3    3  502    0 -0.24576328671E+03  0.61682609758E+02 -0.17741239006E+03  0.30932103677E+03  0.10100000352E+00 0. -1.
       -3    1    3    3    0  502  0.24576328671E+03 -0.61682609758E+02 -0.76836288599E+03  0.80906481336E+03  0.10100000352E+00 0.  1.
</event>
<event>
 5   0  0.1276705E-02  0.5984429E+03  0.7818609E-02  0.9908642E-01
        1   -1    0    0  501    0  0.00000000000E+00  0.00000000000E+00  0.43114776869E+03  0.43114776872E+03  0.50400001928E-02 0. -1.
       -1   -1    0    0    0  501  0.00000000000E+00  0.00000000000E+00 -0.20766311708E+03  0.20766311714E+03  0.50400001928E-02 0.  1.
    10030    2    1    2    0    0  0.00000000000E+00  0.00000000000E+00  0.22348465162E+03  0.63881088586E+03  0.59844294497E+03 0.  0.
        1    1    3    3  502    0 -0.13992115922E+03  0.50514724689E+02  0.38887760595E+03  0.41635977308E+03  0.50400001928E-02 0. -1.
       -1    1    3    3    0  502  0.13992115922E+03 -0.50514724689E+02 -0.16539295433E+03  0.22245111278E+03  0.50400001928E-02 0.  1.
</event>
<event>
 5   0  0.1303808E-02  0.6025632E+03  0.7818609E-02  0.9900102E-01
       -1   -1    0    0    0  501  0.00000000000E+00  0.00000000000E+00  0.64969811455E+03  0.64969811457E+03  0.50400001928E-02 0. -1.
        1   -1    0    0  501    0  0.00000000000E+00  0.00000000000E+00 -0.13971196470E+03  0.13971196479E+03  0.50400001928E-02 0.  1.
    10030    2    1    2    0    0  0.00000000000E+00  0.00000000000E+00  0.50998614985E+03  0.78941007936E+03  0.60256319200E+03 0.  0.
        4    1    3    3  502    0  0.33323633508E+02 -0.10974015350E+03 -0.10999160673E+03  0.15891234153E+03  0.12699999809E+01 0.  1.
       -4    1    3    3    0  502 -0.33323633508E+02  0.10974015350E+03  0.61997775659E+03  0.63049773783E+03  0.12699999809E+01 0. -1.
</event>
<event>
 5   0  0.1337051E-02  0.6029547E+03  0.7818609E-02  0.9899295E-01
        1   -1    0    0  501    0  0.00000000000E+00  0.00000000000E+00  0.17153678700E+04  0.17153678700E+04  0.50400001928E-02 0. -1.
       -1   -1    0    0    0  501  0.00000000000E+00  0.00000000000E+00 -0.52984894482E+02  0.52984894721E+02  0.50400001928E-02 0.  1.
    10030    2    1    2    0    0  0.00000000000E+00  0.00000000000E+00  0.16623829755E+04  0.17683527647E+04  0.60295467759E+03 0.  0.
        5    1    3    3  502    0 -0.22162713205E+03  0.19917600738E+03  0.96484627725E+03  0.10098218141E+04  0.46999998093E+01 0. -1.
       -5    1    3    3    0  502  0.22162713205E+03 -0.19917600738E+03  0.69753669824E+03  0.75853095056E+03  0.46999998093E+01 0.  1.
</event>
<event>
 5   0  0.2092587E-02  0.6002744E+03  0.7818609E-02  0.9904837E-01
        2   -1    0    0  501    0  0.00000000000E+00  0.00000000000E+00  0.77047321733E+03  0.77047321734E+03  0.25500000920E-02 0.  1.
       -2   -1    0    0    0  501  0.00000000000E+00  0.00000000000E+00 -0.11691821412E+03  0.11691821415E+03  0.25500000920E-02 0. -1.
    10030    2    1    2    0    0  0.00000000000E+00  0.00000000000E+00  0.65355500321E+03  0.88739143149E+03  0.60027444595E+03 0.  0.
        3    1    3    3  502    0  0.18630941910E+03  0.18909487270E+03  0.11973883077E+03  0.29121378457E+03  0.10100000352E+00 0. -1.
       -3    1    3    3    0  502 -0.18630941910E+03 -0.18909487270E+03  0.53381617244E+03  0.59617764692E+03  0.10100000352E+00 0.  1.
</event>
<event>
 5   0  0.1276705E-02  0.6010572E+03  0.7818609E-02  0.9903215E-01
        1   -1    0    0  501    0  0.00000000000E+00  0.00000000000E+00  0.37849865962E+03  0.37849865966E+03  0.50400001928E-02 0.  1.
       -1   -1    0    0    0  501  0.00000000000E+00  0.00000000000E+00 -0.23862023378E+03  0.23862023383E+03  0.50400001928E-02 0. -1.
    10030    2    1    2    0    0  0.00000000000E+00  0.00000000000E+00  0.13987842584E+03  0.61711889349E+03  0.60105719752E+03 0.  0.
        1    1    3    3  502    0  0.11875495445E+03 -0.95813473452E+02 -0.19588966361E+03  0.24830570118E+03  0.50400001928E-02 0. -1.
       -1    1    3    3    0  502 -0.11875495445E+03  0.95813473452E+02  0.33576808946E+03  0.36881319231E+03  0.50400001928E-02 0.  1.
</event>
<event>
 5   0  0.2179625E-02  0.6006967E+03  0.7818609E-02  0.9903962E-01
       -2   -1    0    0    0  501  0.00000000000E+00  0.00000000000E+00  0.22419092228E+03  0.22419092229E+03  0.25500000920E-02 0. -1.
        2   -1    0    0  501    0  0.00000000000E+00  0.00000000000E+00 -0.40237635264E+03  0.40237635265E+03  0.25500000920E-02 0.  1.
    10030    2    1    2    0    0  0.00000000000E+00  0.00000000000E+00 -0.17818543036E+03  0.62656727494E+03  0.60069668089E+03 0.  0.
        1    1    3    3  502    0 -0.25935049821E+03  0.14410768227E+03 -0.40397868942E+02  0.29943562389E+03  0.50400001928E-02 0. -1.
       -1    1    3    3    0  502  0.25935049821E+03 -0.14410768227E+03 -0.13778756142E+03  0.32713165105E+03  0.50400001928E-02 0.  1.
</event>
<event>
 5   0  0.1303808E-02  0.6020574E+03  0.7818609E-02  0.9901147E-01
        1   -1    0    0  501    0  0.00000000000E+00  0.00000000000E+00  0.10226588654E+04  0.10226588655E+04  0.50400001928E-02 0. -1.
       -1   -1    0    0    0  501  0.00000000000E+00  0.00000000000E+00 -0.88610475205E+02  0.88610475348E+02  0.50400001928E-02 0.  1.
    10030    2    1    2    0    0  0.00000000000E+00  0.00000000000E+00  0.93404839024E+03  0.11112693408E+04  0.60205743289E+03 0.  0.
        4    1    3    3  502    0 -0.26011481563E+03  0.31925144387E+02  0.19363749491E+03  0.32584662724E+03  0.12699999809E+01 0.  1.
       -4    1    3    3    0  502  0.26011481563E+03 -0.31925144387E+02  0.74041089533E+03  0.78542271356E+03  0.12699999809E+01 0. -1.
</event>
<event>
 5   0  0.1337051E-02  0.5996868E+03  0.7818609E-02  0.9906056E-01
        1   -1    0    0  501    0  0.00000000000E+00  0.00000000000E+00  0.86012569632E+03  0.86012569634E+03  0.50400001928E-02 0.  1.
       -1   -1    0    0    0  501  0.00000000000E+00  0.00000000000E+00 -0.10452665719E+03  0.10452665732E+03  0.50400001928E-02 0. -1.
    10030    2    1    2    0    0  0.00000000000E+00  0.00000000000E+00  0.75559903913E+03  0.96465235365E+03  0.59968679782E+03 0.  0.
        5    1    3    3  502    0  0.29186406009E+02  0.22404056603E+03  0.60788395072E+02  0.23401568429E+03  0.46999998093E+01 0. -1.
       -5    1    3    3    0  502 -0.29186406009E+02 -0.22404056603E+03  0.69481064406E+03  0.73063666936E+03  0.46999998093E+01 0.  1.
</event>
<event>
 5   0  0.8551000E-03  0.6000939E+03  0.7818609E-02  0.9905211E-01
       -3   -1    0    0    0  501  0.00000000000E+00  0.00000000000E+00  0.18596956863E+03  0.18596959605E+03  0.10100000352E+00 0.  1.
        3   -1    0    0  501    0  0.00000000000E+00  0.00000000000E+00 -0.48410159822E+03  0.48410160875E+03  0.10100000352E+00 0. -1.
    10030    2    1    2    0    0  0.00000000000E+00  0.00000000000E+00 -0.29813202959E+03  0.67007120481E+03  0.60009391969E+03 0.  0.
        1    1    3    3  502    0 -0.16045910834E+03 -0.20858417996E+03 -0.31000400675E+03  0.40664108229E+03  0.50400001928E-02 0. -1.
       -1    1    3    3    0  502  0.16045910834E+03  0.20858417996E+03  0.11871977159E+02  0.26343012252E+03  0.50400001928E-02 0.  1.
</event>
<event>
 5   0  0.8551000E-03  0.6003114E+03  0.7818609E-02  0.9904760E-01
        3   -1    0    0  501    0  0.00000000000E+00  0.00000000000E+00  0.19302026279E+03  0.19302028922E+03  0.10100000352E+00 0.  1.
       -3   -1    0    0    0  501  0.00000000000E+00  0.00000000000E+00 -0.46675641450E+03  0.46675642543E+03  0.10100000352E+00 0. -1.
    10030    2    1    2    0    0  0.00000000000E+00  0.00000000000E+00 -0.27373615171E+03  0.65977671465E+03  0.60031144620E+03 0.  0.
        5    1    3    3  502    0 -0.11933416352E+03  0.24889177895E+03 -0.26636860107E+03  0.38361710317E+03  0.46999998093E+01 0. -1.
       -5    1    3    3    0  502  0.11933416352E+03 -0.24889177895E+03 -0.73675506372E+01  0.27615961148E+03  0.46999998093E+01 0.  1.
</event>
<event>
 5   0  0.1332555E-02  0.6029832E+03  0.7818609E-02  0.9899236E-01
       -1   -1    0    0    0  501  0.00000000000E+00  0.00000000000E+00  0.29849757305E+03  0.29849757310E+03  0.50400001928E-02 0. -1.
        1   -1    0    0  501    0  0.00000000000E+00  0.00000000000E+00 -0.30451570306E+03  0.30451570310E+03  0.50400001928E-02 0.  1.
    10030    2    1    2    0    0  0.00000000000E+00  0.00000000000E+00 -0.60181300011E+01  0.60301327619E+03  0.60298324469E+03 0.  0.
        2    1    3    3  502    0  0.28071956997E+03 -0.10231474438E+03  0.37309372044E+02  0.30110425625E+03  0.25500000920E-02 0.  1.
       -2    1    3    3    0  502 -0.28071956997E+03  0.10231474438E+03 -0.43327502045E+02  0.30190901994E+03  0.25500000920E-02 0. -1.
</event>
<event>
 5   0  0.8551000E-03  0.5914001E+03  0.7818609E-02  0.9923410E-01
       -3   -1    0    0    0  501  0.00000000000E+00  0.00000000000E+00  0.13197252559E+03  0.13197256424E+03  0.10100000352E+00 0.  1.
        3   -1    0    0  501    0  0.00000000000E+00  0.00000000000E+00 -0.66255082482E+03  0.66255083252E+03  0.10100000352E+00 0. -1.
    10030    2    1    2    0    0  0.00000000000E+00  0.00000000000E+00 -0.53057829923E+03  0.79452339676E+03  0.59140011531E+03 0.  0.
        3    1    3    3  502    0  0.26112679027E+03 -0.13866234602E+03 -0.25869836491E+03  0.39286040906E+03  0.10100000352E+00 0.  1.
       -3    1    3    3    0  502 -0.26112679027E+03  0.13866234602E+03 -0.27187993432E+03  0.40166298770E+03  0.10100000352E+00 0. -1.
</event>
<event>
 5   0  0.1332555E-02  0.6012413E+03  0.7818609E-02  0.9902834E-01
        1   -1    0    0  501    0  0.00000000000E+00  0.00000000000E+00  0.19991057959E+03  0.19991057965E+03  0.50400001928E-02 0.  1.
       -1   -1    0    0    0  501  0.00000000000E+00  0.00000000000E+00 -0.45206592098E+03  0.45206592100E+03  0.50400001928E-02 0. -1.
    10030    2    1    2    0    0  0.00000000000E+00  0.00000000000E+00 -0.25215534139E+03  0.65197650065E+03  0.60124125043E+03 0.  0.
        2    1    3    3  502    0  0.28873455288E+03  0.83696360066E+02 -0.12586744446E+03  0.32590694422E+03  0.25500000920E-02 0. -1.
       -2    1    3    3    0  502 -0.28873455288E+03 -0.83696360066E+02 -0.12628789693E+03  0.32606955643E+03  0.25500000920E-02 0.  1.
</event>
<event>
 5   0  0.8551000E-03  0.6026084E+03  0.7818609E-02  0.9900009E-01
        3   -1    0    0  501    0  0.00000000000E+00  0.00000000000E+00  0.30080135956E+03  0.30080137651E+03  0.10100000352E+00 0. -1.
       -3   -1    0    0    0  501  0.00000000000E+00  0.00000000000E+00 -0.30180788663E+03  0.30180790353E+03  0.10100000352E+00 0.  1.
    10030    2    1    2    0    0  0.00000000000E+00  0.00000000000E+00 -0.10065270766E+01  0.60260928005E+03  0.60260843946E+03 0.  0.
        3    1    3    3  502    0  0.10877011570E+03 -0.12265827457E+03 -0.25330439196E+03  0.30172688905E+03  0.10100000352E+00 0.  1.
       -3    1    3    3    0  502 -0.10877011570E+03  0.12265827457E+03  0.25229786488E+03  0.30088239100E+03  0.10100000352E+00 0. -1.
</event>
<event>
 5   0  0.1337051E-02  0.6015117E+03  0.7818609E-02  0.9902275E-01
        1   -1    0    0  501    0  0.00000000000E+00  0.00000000000E+00  0.88171076241E+03  0.88171076243E+03  0.50400001928E-02 0.  1.
       -1   -1    0    0    0  501  0.00000000000E+00  0.00000000000E+00 -0.10258928321E+03  0.10258928334E+03  0.50400001928E-02 0. -1.
    10030    2    1    2    0    0  0.00000000000E+00  0.00000000000E+00  0.77912147920E+03  0.98430004576E+03  0.60151167963E+03 0.  0.
        5    1    3    3  502    0 -0.19756245332E+03  0.21635730478E+03  0.50043153631E+03  0.57990966437E+03  0.46999998093E+01 0.  1.
       -5    1    3    3    0  502  0.19756245332E+03 -0.21635730478E+03  0.27868994288E+03  0.40439038139E+03  0.46999998093E+01 0. -1.
</event>
<event>
 5   0  0.2141800E-02  0.5993332E+03  0.7818609E-02  0.9906790E-01
        2   -1    0    0  501    0  0.00000000000E+00  0.00000000000E+00  0.15116896332E+04  0.15116896332E+04  0.25500000920E-02 0.  1.
       -2   -1    0    0    0  501  0.00000000000E+00  0.00000000000E+00 -0.59403771081E+02  0.59403771136E+02  0.25500000920E-02 0. -1.
    10030    2    1    2    0    0  0.00000000000E+00  0.00000000000E+00  0.14522858622E+04  0.15710934044E+04  0.59933317934E+03 0.  0.
        2    1    3    3  502    0 -0.79660161108E+02 -0.97662910557E+02  0.14388379674E+04  0.14443470780E+04  0.25500000920E-02 0.  1.
       -2    1    3    3    0  502  0.79660161108E+02  0.97662910557E+02  0.13447894772E+02  0.12674632636E+03  0.25500000920E-02 0. -1.
</event>
<event>
 5   0  0.1303808E-02  0.6125242E+03  0.7818609E-02  0.9879758E-01
       -1   -1    0    0    0  501  0.00000000000E+00  0.00000000000E+00  0.35943278198E+03  0.35943278201E+03  0.50400001928E-02 0. -1.
        1   -1    0    0  501    0  0.00000000000E+00  0.00000000000E+00 -0.26095696736E+03  0.26095696741E+03  0.50400001928E-02 0.  1.
    10030    2    1    2    0    0  0.00000000000E+00  0.00000000000E+00  0.98475814612E+02  0.62038974942E+03  0.61252424860E+03 0.  0.
        4    1    3    3  502    0  0.30306451034E+03  0.62590199779E+01  0.50009406759E+01  0.30317304476E+03  0.12699999809E+01 0. -1.
       -4    1    3    3    0  502 -0.30306451034E+03 -0.62590199779E+01  0.93474873936E+02  0.31721670466E+03  0.12699999809E+01 0.  1.
</event>
<event>
 5   0  0.1276705E-02  0.5986685E+03  0.7818609E-02  0.9908172E-01
       -1   -1    0    0    0  501  0.00000000000E+00  0.00000000000E+00  0.14236399995E+03  0.14236400004E+03  0.50400001928E-02 0.  1.
        1   -1    0    0  501    0  0.00000000000E+00  0.00000000000E+00 -0.62937965853E+03  0.62937965855E+03  0.50400001928E-02 0. -1.
    10030    2    1    2    0    0  0.00000000000E+00  0.00000000000E+00 -0.48701565859E+03  0.77174365859E+03  0.59866854173E+03 0.  0.
        1    1    3    3  502    0  0.18137017400E+03 -0.23647582361E+03 -0.20738885279E+03  0.36307862985E+03  0.50400001928E-02 0.  1.
       -1    1    3    3    0  502 -0.18137017400E+03  0.23647582361E+03 -0.27962680579E+03  0.40866502873E+03  0.50400001928E-02 0. -1.
</event>
<event>
 5   0  0.1276705E-02  0.6031780E+03  0.7818609E-02  0.9898835E-01
        1   -1    0    0  501    0  0.00000000000E+00  0.00000000000E+00  0.32075730283E+03  0.32075730287E+03  0.50400001928E-02 0.  1.
       -1   -1    0    0    0  501  0.00000000000E+00  0.00000000000E+00 -0.28356618454E+03  0.28356618458E+03  0.50400001928E-02 0. -1.
    10030    2    1    2    0    0  0.00000000000E+00  0.00000000000E+00  0.37191118290E+02  0.60432348745E+03  0.60317799877E+03 0.  0.
        1    1    3    3  502    0  0.46269136923E+02 -0.29442139622E+03  0.64847424527E+02  0.30500816395E+03  0.50400001928E-02 0.  1.
       -1    1    3    3    0  502 -0.46269136923E+02  0.29442139622E+03 -0.27656306237E+02  0.29931532350E+03  0.50400001928E-02 0. -1.
</event>
<event>
 5   0  0.8551000E-03  0.6032401E+03  0.7818609E-02  0.9898707E-01
       -3   -1    0    0    0  501  0.00000000000E+00  0.00000000000E+00  0.46048623261E+03  0.46048624369E+03  0.10100000352E+00 0.  1.
        3   -1    0    0  501    0  0.00000000000E+00  0.00000000000E+00 -0.19756211130E+03  0.19756213711E+03  0.10100000352E+00 0. -1.
    10030    2    1    2    0    0  0.00000000000E+00  0.00000000000E+00  0.26292412132E+03  0.65804838080E+03  0.60324006656E+03 0.  0.
        4    1    3    3  502    0  0.41212233617E+02 -0.49329397030E+02 -0.19000060270E+03  0.20058334811E+03  0.12699999809E+01 0. -1.
       -4    1    3    3    0  502 -0.41212233617E+02  0.49329397030E+02  0.45292472402E+03  0.45746503269E+03  0.12699999809E+01 0.  1.
</event>
<event>
 5   0  0.2142838E-02  0.6008791E+03  0.7818609E-02  0.9903584E-01
        2   -1    0    0  501    0  0.00000000000E+00  0.00000000000E+00  0.33662041000E+03  0.33662041001E+03  0.25500000920E-02 0.  1.
       -2   -1    0    0    0  501  0.00000000000E+00  0.00000000000E+00 -0.26814749225E+03  0.26814749226E+03  0.25500000920E-02 0. -1.
    10030    2    1    2    0    0  0.00000000000E+00  0.00000000000E+00  0.68472917747E+02  0.60476790227E+03  0.60087908530E+03 0.  0.
        4    1    3    3  502    0  0.60179357591E+01 -0.12249869004E+03  0.31027439741E+03  0.33363746672E+03  0.12699999809E+01 0.  1.
       -4    1    3    3    0  502 -0.60179357591E+01  0.12249869004E+03 -0.24180147967E+03  0.27113043555E+03  0.12699999809E+01 0. -1.
</event>
<event>
 5   0  0.1276705E-02  0.6016030E+03  0.7818609E-02  0.9902086E-01
        1   -1    0    0  501    0  0.00000000000E+00  0.00000000000E+00  0.19038340334E+04  0.19038340334E+04  0.50400001928E-02 0.  1.
       -1   -1    0    0    0  501  0.00000000000E+00  0.00000000000E+00 -0.47525955284E+02  0.47525955551E+02  0.50400001928E-02 0. -1.
    10030    2    1    2    0    0  0.00000000000E+00  0.00000000000E+00  0.18563080781E+04  0.19513599890E+04  0.60160296344E+03 0.  0.
        1    1    3    3  502    0  0.14239969823E+03  0.46764880965E+02  0.17740868233E+04  0.17804068875E+04  0.50400001928E-02 0.  1.
       -1    1    3    3    0  502 -0.14239969823E+03 -0.46764880965E+02  0.82221254767E+02  0.17095310149E+03  0.50400001928E-02 0. -1.
</event>
<event>
 5   0  0.2142838E-02  0.5940348E+03  0.7818609E-02  0.9917860E-01
        2   -1    0    0  501    0  0.00000000000E+00  0.00000000000E+00  0.10840400757E+04  0.10840400757E+04  0.25500000920E-02 0.  1.
       -2   -1    0    0    0  501  0.00000000000E+00  0.00000000000E+00 -0.81380151860E+02  0.81380151900E+02  0.25500000920E-02 0. -1.
    10030    2    1    2    0    0  0.00000000000E+00  0.00000000000E+00  0.10026599238E+04  0.11654202276E+04  0.59403483402E+03 0.  0.
        4    1    3    3  502    0  0.25365497135E+02 -0.14389969680E+03  0.10086443904E+04  0.10191740040E+04  0.12699999809E+01 0.  1.
       -4    1    3    3    0  502 -0.25365497135E+02  0.14389969680E+03 -0.59844665647E+01  0.14624622363E+03  0.12699999809E+01 0. -1.
</event>
<event>
 5   0  0.2092587E-02  0.5994209E+03  0.7818609E-02  0.9906608E-01
       -2   -1    0    0    0  501  0.00000000000E+00  0.00000000000E+00  0.44037442842E+02  0.44037442916E+02  0.25500000920E-02 0.  1.
        2   -1    0    0  501    0  0.00000000000E+00  0.00000000000E+00 -0.20397721248E+04  0.20397721248E+04  0.25500000920E-02 0. -1.
    10030    2    1    2    0    0  0.00000000000E+00  0.00000000000E+00 -0.19957346820E+04  0.20838095677E+04  0.59942088197E+03 0.  0.
        3    1    3    3  502    0 -0.25865466524E+03  0.13215030017E+03 -0.74098253948E+03  0.79587754818E+03  0.10100000352E+00 0.  1.
       -3    1    3    3    0  502  0.25865466524E+03 -0.13215030017E+03 -0.12547521425E+04  0.12879320195E+04  0.10100000352E+00 0. -1.
</event>
<event>
 5   0  0.2179625E-02  0.5987358E+03  0.7818609E-02  0.9908032E-01
        2   -1    0    0  501    0  0.00000000000E+00  0.00000000000E+00  0.10713917316E+04  0.10713917316E+04  0.25500000920E-02 0.  1.
       -2   -1    0    0    0  501  0.00000000000E+00  0.00000000000E+00 -0.83649262421E+02  0.83649262460E+02  0.25500000920E-02 0. -1.
    10030    2    1    2    0    0  0.00000000000E+00  0.00000000000E+00  0.98774246922E+03  0.11550409941E+04  0.59873576189E+03 0.  0.
        1    1    3    3  502    0 -0.59087504114E+02 -0.40511293576E+02 -0.66868502285E+02  0.97999462615E+02  0.50400001928E-02 0. -1.
       -1    1    3    3    0  502  0.59087504114E+02  0.40511293576E+02  0.10546109715E+04  0.10570415315E+04  0.50400001928E-02 0.  1.
</event>
<event>
 5   0  0.2142838E-02  0.6153168E+03  0.7818609E-02  0.9874128E-01
       -2   -1    0    0    0  501  0.00000000000E+00  0.00000000000E+00  0.42670471620E+02  0.42670471696E+02  0.25500000920E-02 0. -1.
        2   -1    0    0  501    0  0.00000000000E+00  0.00000000000E+00 -0.22182481982E+04  0.22182481982E+04  0.25500000920E-02 0.  1.
    10030    2    1    2    0    0  0.00000000000E+00  0.00000000000E+00 -0.21755777266E+04  0.22609186699E+04  0.61531681881E+03 0.  0.
        4    1    3    3  502    0  0.21055709865E+03 -0.14267465435E+03 -0.45177052960E+03  0.51844823570E+03  0.12699999809E+01 0. -1.
       -4    1    3    3    0  502 -0.21055709865E+03  0.14267465435E+03 -0.17238071970E+04  0.17424704342E+04  0.12699999809E+01 0.  1.
</event>
<event>
 5   0  0.1276705E-02  0.6013091E+03  0.7818609E-02  0.9902694E-01
       -1   -1    0    0    0  501  0.00000000000E+00  0.00000000000E+00  0.20122035708E+03  0.20122035714E+03  0.50400001928E-02 0. -1.
        1   -1    0    0  501    0  0.00000000000E+00  0.00000000000E+00 -0.44922478108E+03  0.44922478111E+03  0.50400001928E-02 0.  1.
    10030    2    1    2    0    0  0.00000000000E+00  0.00000000000E+00 -0.24800442400E+03  0.65044513825E+03  0.60130914141E+03 0.  0.
        1    1    3    3  502    0 -0.23521419800E+03 -0.14866055026E+03 -0.82202132092E+00  0.27825591438E+03  0.50400001928E-02 0. -1.
       -1    1    3    3    0  502  0.23521419800E+03  0.14866055026E+03 -0.24718240268E+03  0.37218922387E+03  0.50400001928E-02 0.  1.
</event>
<event>
 5   0  0.2092587E-02  0.5994702E+03  0.7818609E-02  0.9906506E-01
        2   -1    0    0  501    0  0.00000000000E+00  0.00000000000E+00  0.20860300251E+03  0.20860300252E+03  0.25500000920E-02 0. -1.
       -2   -1    0    0    0  501  0.00000000000E+00  0.00000000000E+00 -0.43067996884E+03  0.43067996885E+03  0.25500000920E-02 0.  1.
    10030    2    1    2    0    0  0.00000000000E+00  0.00000000000E+00 -0.22207696634E+03  0.63928297137E+03  0.59947021486E+03 0.  0.
        3    1    3    3  502    0 -0.17865140788E+03  0.17974815530E+03  0.59638946438E+02  0.26035079989E+03  0.10100000352E+00 0. -1.
       -3    1    3    3    0  502  0.17865140788E+03 -0.17974815530E+03 -0.28171591277E+03  0.37893217148E+03  0.10100000352E+00 0.  1.
</event>
<event>
 5   0  0.1276705E-02  0.5998721E+03  0.7818609E-02  0.9905671E-01
       -1   -1    0    0    0  501  0.00000000000E+00  0.00000000000E+00  0.46894897031E+02  0.46894897302E+02  0.50400001928E-02 0.  1.
        1   -1    0    0  501    0  0.00000000000E+00  0.00000000000E+00 -0.19183671584E+04  0.19183671584E+04  0.50400001928E-02 0. -1.
    10030    2    1    2    0    0  0.00000000000E+00  0.00000000000E+00 -0.18714722613E+04  0.19652620557E+04  0.59987208847E+03 0.  0.
        1    1    3    3  502    0  0.17669103735E+03  0.16774719544E+03 -0.36262043935E+03  0.43686660129E+03  0.50400001928E-02 0. -1.
       -1    1    3    3    0  502 -0.17669103735E+03 -0.16774719544E+03 -0.15088518220E+04  0.15283954544E+04  0.50400001928E-02 0.  1.
</event>
<event>
 5   0  0.2142838E-02  0.5955827E+03  0.7818609E-02  0.9914613E-01
        2   -1    0    0  501    0  0.00000000000E+00  0.00000000000E+00  0.16146698780E+04  0.16146698780E+04  0.25500000920E-02 0.  1.
       -2   -1    0    0    0  501  0.00000000000E+00  0.00000000000E+00 -0.54921243217E+02  0.54921243276E+02  0.25500000920E-02 0. -1.
    10030    2    1    2    0    0  0.00000000000E+00  0.00000000000E+00  0.15597486348E+04  0.16695911213E+04  0.59558266307E+03 0.  0.
        4    1    3    3  502    0 -0.95703742862E+02 -0.26979517460E+03  0.10098367786E+04  0.10496287796E+04  0.12699999809E+01 0.  1.
       -4    1    3    3    0  502  0.95703742862E+02  0.26979517460E+03  0.54991185619E+03  0.61996234169E+03  0.12699999809E+01 0. -1.
</event>
<event>
 5   0  0.2141800E-02  0.5845285E+03  0.7818609E-02  0.9938035E-01
        2   -1    0    0  501    0  0.00000000000E+00  0.00000000000E+00  0.95308470979E+03  0.95308470979E+03  0.25500000920E-02 0.  1.
       -2   -1    0    0    0  501  0.00000000000E+00  0.00000000000E+00 -0.89623079310E+02  0.89623079347E+02  0.25500000920E-02 0. -1.
    10030    2    1    2    0    0  0.00000000000E+00  0.00000000000E+00  0.86346163048E+03  0.10427077891E+04  0.58452848196E+03 0.  0.
        2    1    3    3  502    0  0.37630241461E+02 -0.28373894999E+03  0.32627921498E+03  0.43402989868E+03  0.25500000920E-02 0.  1.
       -2    1    3    3    0  502 -0.37630241461E+02  0.28373894999E+03  0.53718241549E+03  0.60867789046E+03  0.25500000920E-02 0. -1.
</event>
<event>
 5   0  0.2179625E-02  0.5969852E+03  0.7818609E-02  0.9911681E-01
       -2   -1    0    0    0  501  0.00000000000E+00  0.00000000000E+00  0.64855166421E+02  0.64855166471E+02  0.25500000920E-02 0.  1.
        2   -1    0    0  501    0  0.00000000000E+00  0.00000000000E+00 -0.13737967971E+04  0.13737967971E+04  0.25500000920E-02 0. -1.
    10030    2    1    2    0    0  0.00000000000E+00  0.00000000000E+00 -0.13089416307E+04  0.14386519636E+04  0.59698515876E+03 0.  0.
        1    1    3    3  502    0 -0.23856311351E+03 -0.17827948413E+03 -0.70278157027E+03  0.76328098963E+03  0.50400001928E-02 0. -1.
       -1    1    3    3    0  502  0.23856311351E+03  0.17827948413E+03 -0.60616006044E+03  0.67537097397E+03  0.50400001928E-02 0.  1.
</event>
<event>
 5   0  0.2092587E-02  0.6004637E+03  0.7818609E-02  0.9904444E-01
        2   -1    0    0  501    0  0.00000000000E+00  0.00000000000E+00  0.47448306607E+03  0.47448306607E+03  0.25500000920E-02 0. -1.
       -2   -1    0    0    0  501  0.00000000000E+00  0.00000000000E+00 -0.18997342445E+03  0.18997342447E+03  0.25500000920E-02 0.  1.
    10030    2    1    2    0    0  0.00000000000E+00  0.00000000000E+00  0.28450964161E+03  0.66445649054E+03  0.60046373051E+03 0.  0.
        3    1    3    3  502    0  0.10041858951E+03 -0.17164924495E+03  0.39115193469E+03  0.43880200846E+03  0.10100000352E+00 0. -1.
       -3    1    3    3    0  502 -0.10041858951E+03  0.17164924495E+03 -0.10664229308E+03  0.22565448209E+03  0.10100000352E+00 0.  1.
</event>
<event>
 5   0  0.8551000E-03  0.6015457E+03  0.7818609E-02  0.9902204E-01
       -3   -1    0    0    0  501  0.00000000000E+00  0.00000000000E+00  0.20663967644E+03  0.20663970112E+03  0.10100000352E+00 0.  1.
        3   -1    0    0  501    0  0.00000000000E+00  0.00000000000E+00 -0.43778763053E+03  0.43778764218E+03  0.10100000352E+00 0. -1.
    10030    2    1    2    0    0  0.00000000000E+00  0.00000000000E+00 -0.23114795409E+03  0.64442734330E+03  0.60154569579E+03 0.  0.
        4    1    3    3  502    0  0.63617354221E+02  0.13196289451E+03  0.16583246469E+03  0.22127673291E+03  0.12699999809E+01 0.  1.
       -4    1    3    3    0  502 -0.63617354221E+02 -0.13196289451E+03 -0.39698041878E+03  0.42315061039E+03  0.12699999809E+01 0. -1.
</event>
<event>
 5   0  0.2141800E-02  0.6003680E+03  0.7818609E-02  0.9904643E-01
        2   -1    0    0  501    0  0.00000000000E+00  0.00000000000E+00  0.91735509981E+02  0.91735510016E+02  0.25500000920E-02 0. -1.
       -2   -1    0    0    0  501  0.00000000000E+00  0.00000000000E+00 -0.98228516350E+03  0.98228516350E+03  0.25500000920E-02 0.  1.
    10030    2    1    2    0    0  0.00000000000E+00  0.00000000000E+00 -0.89054965352E+03  0.10740206735E+04  0.60036798862E+03 0.  0.
        2    1    3    3  502    0 -0.13502438888E+03 -0.21057649575E+03 -0.14841695459E+03  0.29086360819E+03  0.25500000920E-02 0. -1.
       -2    1    3    3    0  502  0.13502438888E+03  0.21057649575E+03 -0.74213269893E+03  0.78315706533E+03  0.25500000920E-02 0.  1.
</event>
<event>
 5   0  0.1332555E-02  0.6008759E+03  0.7818609E-02  0.9903590E-01
        1   -1    0    0  501    0  0.00000000000E+00  0.00000000000E+00  0.34086348421E+03  0.34086348424E+03  0.50400001928E-02 0. -1.
       -1   -1    0    0    0  501  0.00000000000E+00  0.00000000000E+00 -0.26480681725E+03  0.26480681730E+03  0.50400001928E-02 0.  1.
    10030    2    1    2    0    0  0.00000000000E+00  0.00000000000E+00  0.76056666951E+02  0.60567030155E+03  0.60087594193E+03 0.  0.
        2    1    3    3  502    0  0.14062094093E+03 -0.26547585874E+03  0.41415771282E+02  0.30326052614E+03  0.25500000920E-02 0. -1.
       -2    1    3    3    0  502 -0.14062094093E+03  0.26547585874E+03  0.34640895670E+02  0.30240977540E+03  0.25500000920E-02 0.  1.
</event>
<event>
 5   0  0.1332555E-02  0.6061303E+03  0.7818609E-02  0.9892769E-01
       -1   -1    0    0    0  501  0.00000000000E+00  0.00000000000E+00  0.63332586220E+03  0.63332586222E+03  0.50400001928E-02 0. -1.
        1   -1    0    0  501    0  0.00000000000E+00  0.00000000000E+00 -0.14502565709E+03  0.14502565717E+03  0.50400001928E-02 0.  1.
    10030    2    1    2    0    0  0.00000000000E+00  0.00000000000E+00  0.48830020512E+03  0.77835151940E+03  0.60613034690E+03 0.  0.
        2    1    3    3  502    0  0.18333540852E+03 -0.25749445909E+02  0.55227118678E+03  0.58247606795E+03  0.25500000920E-02 0. -1.
       -2    1    3    3    0  502 -0.18333540852E+03  0.25749445909E+02 -0.63970981658E+02  0.19587545145E+03  0.25500000920E-02 0.  1.
</event>
<event>
 5   0  0.1303808E-02  0.6016068E+03  0.7818609E-02  0.9902078E-01
       -1   -1    0    0    0  501  0.00000000000E+00  0.00000000000E+00  0.84192444417E+02  0.84192444568E+02  0.50400001928E-02 0.  1.
        1   -1    0    0  501    0  0.00000000000E+00  0.00000000000E+00 -0.10747127373E+04  0.10747127373E+04  0.50400001928E-02 0. -1.
    10030    2    1    2    0    0  0.00000000000E+00  0.00000000000E+00 -0.99052029288E+03  0.11589051819E+04  0.60160682341E+03 0.  0.
        4    1    3    3  502    0  0.22956840935E+03 -0.15113815893E+02 -0.86854974683E+03  0.89850451174E+03  0.12699999809E+01 0. -1.
       -4    1    3    3    0  502 -0.22956840935E+03  0.15113815893E+02 -0.12197054605E+03  0.26040067013E+03  0.12699999809E+01 0.  1.
</event>
<event>
 5   0  0.1337051E-02  0.5987902E+03  0.7818609E-02  0.9907919E-01
        1   -1    0    0  501    0  0.00000000000E+00  0.00000000000E+00  0.67614003126E+03  0.67614003128E+03  0.50400001928E-02 0. -1.
       -1   -1    0    0    0  501  0.00000000000E+00  0.00000000000E+00 -0.13257226532E+03  0.13257226541E+03  0.50400001928E-02 0.  1.
    10030    2    1    2    0    0  0.00000000000E+00  0.00000000000E+00  0.54356776594E+03  0.80871229669E+03  0.59879016579E+03 0.  0.
        5    1    3    3  502    0  0.27670128831E+03 -0.11258946087E+03  0.29794941097E+03  0.42194304255E+03  0.46999998093E+01 0. -1.
       -5    1    3    3    0  502 -0.27670128831E+03  0.11258946087E+03  0.24561835497E+03  0.38676925414E+03  0.46999998093E+01 0.  1.
</event>
<event>
 5   0  0.1337051E-02  0.6125414E+03  0.7818609E-02  0.9879723E-01
        1   -1    0    0  501    0  0.00000000000E+00  0.00000000000E+00  0.35335224542E+03  0.35335224546E+03  0.50400001928E-02 0. -1.
       -1   -1    0    0    0  501  0.00000000000E+00  0.00000000000E+00 -0.26546239847E+03  0.26546239852E+03  0.50400001928E-02 0.  1.
    10030    2    1    2    0    0  0.00000000000E+00  0.00000000000E+00  0.87889846953E+02  0.61881464397E+03  0.61254137689E+03 0.  0.
        5    1    3    3  502    0 -0.29459081771E+03 -0.82998137493E+02  0.33484953545E+02  0.30792169917E+03  0.46999998093E+01 0. -1.
       -5    1    3    3    0  502  0.29459081771E+03  0.82998137493E+02  0.54404893408E+02  0.31089294481E+03  0.46999998093E+01 0.  1.
</event>
<event>
 5   0  0.2092587E-02  0.6023899E+03  0.7818609E-02  0.9900460E-01
       -2   -1    0    0    0  501  0.00000000000E+00  0.00000000000E+00  0.35727881309E+02  0.35727881400E+02  0.25500000920E-02 0. -1.
        2   -1    0    0  501    0  0.00000000000E+00  0.00000000000E+00 -0.25391481339E+04  0.25391481339E+04  0.25500000920E-02 0.  1.
    10030    2    1    2    0    0  0.00000000000E+00  0.00000000000E+00 -0.25034202526E+04  0.25748760153E+04  0.60238985142E+03 0.  0.
        3    1    3    3  502    0  0.26709024869E+03 -0.32527884063E+02 -0.67311035660E+03  0.72489504520E+03  0.10100000352E+00 0. -1.
       -3    1    3    3    0  502 -0.26709024869E+03  0.32527884063E+02 -0.18303098960E+04  0.18499809701E+04  0.10100000352E+00 0.  1.
</event>
<event>
 5   0  0.2092587E-02  0.6004854E+03  0.7818609E-02  0.9904400E-01
       -2   -1    0    0    0  501  0.00000000000E+00  0.00000000000E+00  0.15920367905E+03  0.15920367907E+03  0.25500000920E-02 0.  1.
        2   -1    0    0  501    0  0.00000000000E+00  0.00000000000E+00 -0.56622862498E+03  0.56622862499E+03  0.25500000920E-02 0. -1.
    10030    2    1    2    0    0  0.00000000000E+00  0.00000000000E+00 -0.40702494593E+03  0.72543230406E+03  0.60048540462E+03 0.  0.
        3    1    3    3  502    0  0.16532734267E+03  0.18515474121E+03  0.54256075183E+00  0.24822512564E+03  0.10100000352E+00 0. -1.
       -3    1    3    3    0  502 -0.16532734267E+03 -0.18515474121E+03 -0.40756750669E+03  0.47720717842E+03  0.10100000352E+00 0.  1.
</event>
<event>
 5   0  0.1337051E-02  0.5994035E+03  0.7818609E-02  0.9906644E-01
        1   -1    0    0  501    0  0.00000000000E+00  0.00000000000E+00  0.38017803685E+03  0.38017803688E+03  0.50400001928E-02 0. -1.
       -1   -1    0    0    0  501  0.00000000000E+00  0.00000000000E+00 -0.23626074040E+03  0.23626074046E+03  0.50400001928E-02 0.  1.
    10030    2    1    2    0    0  0.00000000000E+00  0.00000000000E+00  0.14391729645E+03  0.61643877734E+03  0.59940351850E+03 0.  0.
        5    1    3    3  502    0 -0.56955442574E+02  0.25001089520E+03 -0.87528375217E+02  0.27098464278E+03  0.46999998093E+01 0.  1.
       -5    1    3    3    0  502  0.56955442574E+02 -0.25001089520E+03  0.23144567166E+03  0.34545413456E+03  0.46999998093E+01 0. -1.
</event>
<event>
 5   0  0.2179625E-02  0.5886778E+03  0.7818609E-02  0.9929179E-01
       -2   -1    0    0    0  501  0.00000000000E+00  0.00000000000E+00  0.27324959168E+03  0.27324959169E+03  0.25500000920E-02 0.  1.
        2   -1    0    0  501    0  0.00000000000E+00  0.00000000000E+00 -0.31705583850E+03  0.31705583851E+03  0.25500000920E-02 0. -1.
    10030    2    1    2    0    0  0.00000000000E+00  0.00000000000E+00 -0.43806246819E+02  0.59030543020E+03  0.58867776725E+03 0.  0.
        1    1    3    3  502    0  0.23322622256E+03  0.52290456583E+02  0.15034672331E+03  0.28237014710E+03  0.50400001928E-02 0.  1.
       -1    1    3    3    0  502 -0.23322622256E+03 -0.52290456583E+02 -0.19415297013E+03  0.30793528309E+03  0.50400001928E-02 0. -1.
</event>
<event>
 5   0  0.1332555E-02  0.5981519E+03  0.7818609E-02  0.9909248E-01
       -1   -1    0    0    0  501  0.00000000000E+00  0.00000000000E+00  0.11206727412E+03  0.11206727423E+03  0.50400001928E-02 0.  1.
        1   -1    0    0  501    0  0.00000000000E+00  0.00000000000E+00 -0.79814948770E+03  0.79814948771E+03  0.50400001928E-02 0. -1.
    10030    2    1    2    0    0  0.00000000000E+00  0.00000000000E+00 -0.68608221358E+03  0.91021676195E+03  0.59815194553E+03 0.  0.
        2    1    3    3  502    0  0.21568102781E+00 -0.13370425382E+03 -0.75013772384E+03  0.76196028685E+03  0.25500000920E-02 0. -1.
       -2    1    3    3    0  502 -0.21568102781E+00  0.13370425382E+03  0.64055510258E+02  0.14825647510E+03  0.25500000920E-02 0.  1.
</event>
<event>
 5   0  0.2092587E-02  0.5978510E+03  0.7818609E-02  0.9909875E-01
       -2   -1    0    0    0  501  0.00000000000E+00  0.00000000000E+00  0.11438813820E+03  0.11438813823E+03  0.25500000920E-02 0. -1.
        2   -1    0    0  501    0  0.00000000000E+00  0.00000000000E+00 -0.78116883102E+03  0.78116883103E+03  0.25500000920E-02 0.  1.
    10030    2    1    2    0    0  0.00000000000E+00  0.00000000000E+00 -0.66678069282E+03  0.89555696926E+03  0.59785097881E+03 0.  0.
        3    1    3    3  502    0 -0.12840164674E+03 -0.57361354881E+01 -0.73766355584E+03  0.74877728194E+03  0.10100000352E+00 0.  1.
       -3    1    3    3    0  502  0.12840164674E+03  0.57361354881E+01  0.70882863021E+02  0.14677968731E+03  0.10100000352E+00 0. -1.
</event>
<event>
 5   0  0.2142838E-02  0.6010062E+03  0.7818609E-02  0.9903321E-01
       -2   -1    0    0    0  501  0.00000000000E+00  0.00000000000E+00  0.60045524042E+02  0.60045524096E+02  0.25500000920E-02 0. -1.
        2   -1    0    0  501    0  0.00000000000E+00  0.00000000000E+00 -0.15038941348E+04  0.15038941348E+04  0.25500000920E-02 0.  1.
    10030    2    1    2    0    0  0.00000000000E+00  0.00000000000E+00 -0.14438486108E+04  0.15639396589E+04  0.60100619456E+03 0.  0.
        4    1    3    3  502    0 -0.56003657233E+02  0.29353736241E+03 -0.80420929006E+03  0.85793635421E+03  0.12699999809E+01 0.  1.
       -4    1    3    3    0  502  0.56003657233E+02 -0.29353736241E+03 -0.63963932074E+03  0.70600330473E+03  0.12699999809E+01 0. -1.
</event>
<event>
 5   0  0.2126207E-02  0.6021310E+03  0.7818609E-02  0.9900995E-01
       -2   -1    0    0    0  501  0.00000000000E+00  0.00000000000E+00  0.36282822293E+03  0.36282822293E+03  0.25500000920E-02 0.  1.
        2   -1    0    0  501    0  0.00000000000E+00  0.00000000000E+00 -0.24981636437E+03  0.24981636438E+03  0.25500000920E-02 0. -1.
    10030    2    1    2    0    0  0.00000000000E+00  0.00000000000E+00  0.11301185856E+03  0.61264458731E+03  0.60213097428E+03 0.  0.
        5    1    3    3  502    0 -0.12366915344E+03  0.27329376998E+03  0.82140958047E+02  0.31105107492E+03  0.46999998093E+01 0.  1.
       -5    1    3    3    0  502  0.12366915344E+03 -0.27329376998E+03  0.30870900512E+02  0.30159351239E+03  0.46999998093E+01 0. -1.
</event>
<event>
 5   0  0.1276705E-02  0.5702811E+03  0.7818609E-02  0.9969057E-01
       -1   -1    0    0    0  501  0.00000000000E+00  0.00000000000E+00  0.83452275445E+02  0.83452275597E+02  0.50400001928E-02 0.  1.
        1   -1    0    0  501    0  0.00000000000E+00  0.00000000000E+00 -0.97427109889E+03  0.97427109891E+03  0.50400001928E-02 0. -1.
    10030    2    1    2    0    0  0.00000000000E+00  0.00000000000E+00 -0.89081882345E+03  0.10577233745E+04  0.57028112432E+03 0.  0.
        1    1    3    3  502    0 -0.94226536729E+02  0.20233726574E+02 -0.94314753732E+03  0.94805871184E+03  0.50400001928E-02 0. -1.
       -1    1    3    3    0  502  0.94226536729E+02 -0.20233726574E+02  0.52328713876E+02  0.10966466266E+03  0.50400001928E-02 0.  1.
</event>
<event>
 5   0  0.8551000E-03  0.5976725E+03  0.7818609E-02  0.9910247E-01
        3   -1    0    0  501    0  0.00000000000E+00  0.00000000000E+00  0.56499648564E+03  0.56499649467E+03  0.10100000352E+00 0.  1.
       -3   -1    0    0    0  501  0.00000000000E+00  0.00000000000E+00 -0.15805952797E+03  0.15805956024E+03  0.10100000352E+00 0. -1.
    10030    2    1    2    0    0  0.00000000000E+00  0.00000000000E+00  0.40693695767E+03  0.72305605490E+03  0.59767246131E+03 0.  0.
        3    1    3    3  502    0 -0.19695844868E+03 -0.16240515928E+03  0.15522724355E+02  0.25575189430E+03  0.10100000352E+00 0. -1.
       -3    1    3    3    0  502  0.19695844868E+03  0.16240515928E+03  0.39141423332E+03  0.46730416060E+03  0.10100000352E+00 0.  1.
</event>
<event>
 5   0  0.1276705E-02  0.6056941E+03  0.7818609E-02  0.9893663E-01
       -1   -1    0    0    0  501  0.00000000000E+00  0.00000000000E+00  0.95368742606E+02  0.95368742739E+02  0.50400001928E-02 0.  1.
        1   -1    0    0  501    0  0.00000000000E+00  0.00000000000E+00 -0.96170220480E+03  0.96170220481E+03  0.50400001928E-02 0. -1.
    10030    2    1    2    0    0  0.00000000000E+00  0.00000000000E+00 -0.86633346219E+03  0.10570709475E+04  0.60569408156E+03 0.  0.
        1    1    3    3  502    0 -0.12891909461E+03 -0.20144021760E+03 -0.75741214684E+03  0.79427416830E+03  0.50400001928E-02 0. -1.
       -1    1    3    3    0  502  0.12891909461E+03  0.20144021760E+03 -0.10892131535E+03  0.26279677925E+03  0.50400001928E-02 0.  1.
</event>
<event>
 5   0  0.1303808E-02  0.5996491E+03  0.7818609E-02  0.9906134E-01
        1   -1    0    0  501    0  0.00000000000E+00  0.00000000000E+00  0.60136455714E+03  0.60136455716E+03  0.50400001928E-02 0.  1.
       -1   -1    0    0    0  501  0.00000000000E+00  0.00000000000E+00 -0.14948464018E+03  0.14948464026E+03  0.50400001928E-02 0. -1.
    10030    2    1    2    0    0  0.00000000000E+00  0.00000000000E+00  0.45187991696E+03  0.75084919742E+03  0.59964911233E+03 0.  0.
        4    1    3    3  502    0 -0.28746063628E+03 -0.76455871543E+02  0.27302526832E+03  0.40376172149E+03  0.12699999809E+01 0. -1.
       -4    1    3    3    0  502  0.28746063628E+03  0.76455871543E+02  0.17885464865E+03  0.34708747593E+03  0.12699999809E+01 0.  1.
</event>
<event>
 5   0  0.1337051E-02  0.5994368E+03  0.7818609E-02  0.9906575E-01
        1   -1    0    0  501    0  0.00000000000E+00  0.00000000000E+00  0.22649567744E+03  0.22649567750E+03  0.50400001928E-02 0.  1.
       -1   -1    0    0    0  501  0.00000000000E+00  0.00000000000E+00 -0.39661293842E+03  0.39661293845E+03  0.50400001928E-02 0. -1.
    10030    2    1    2    0    0  0.00000000000E+00  0.00000000000E+00 -0.17011726097E+03  0.62310861595E+03  0.59943678965E+03 0.  0.
        5    1    3    3  502    0 -0.11975134318E+02  0.23922131906E+03  0.10216154074E+03  0.26044061461E+03  0.46999998093E+01 0.  1.
       -5    1    3    3    0  502  0.11975134318E+02 -0.23922131906E+03 -0.27227880171E+03  0.36266800134E+03  0.46999998093E+01 0. -1.
</event>
<event>
 5   0  0.2092587E-02  0.6023170E+03  0.7818609E-02  0.9900611E-01
       -2   -1    0    0    0  501  0.00000000000E+00  0.00000000000E+00  0.59444787688E+02  0.59444787743E+02  0.25500000920E-02 0. -1.
        2   -1    0    0  501    0  0.00000000000E+00  0.00000000000E+00 -0.15257257751E+04  0.15257257751E+04  0.25500000920E-02 0.  1.
    10030    2    1    2    0    0  0.00000000000E+00  0.00000000000E+00 -0.14662809874E+04  0.15851705628E+04  0.60231700894E+03 0.  0.
        3    1    3    3  502    0  0.23161181125E+03 -0.22936592496E+02 -0.23015691257E+03  0.32732603470E+03  0.10100000352E+00 0. -1.
       -3    1    3    3    0  502 -0.23161181125E+03  0.22936592496E+02 -0.12361240748E+04  0.12578445281E+04  0.10100000352E+00 0.  1.
</event>
<event>
 5   0  0.1332555E-02  0.6004031E+03  0.7818609E-02  0.9904570E-01
       -1   -1    0    0    0  501  0.00000000000E+00  0.00000000000E+00  0.71233258272E+03  0.71233258274E+03  0.50400001928E-02 0.  1.
        1   -1    0    0  501    0  0.00000000000E+00  0.00000000000E+00 -0.12651531871E+03  0.12651531881E+03  0.50400001928E-02 0. -1.
    10030    2    1    2    0    0  0.00000000000E+00  0.00000000000E+00  0.58581726402E+03  0.83884790155E+03  0.60040314382E+03 0.  0.
        2    1    3    3  502    0 -0.42347635090E+02  0.29124084057E+03  0.21017670855E+03  0.36164733959E+03  0.25500000920E-02 0.  1.
       -2    1    3    3    0  502  0.42347635090E+02 -0.29124084057E+03  0.37564055547E+03  0.47720056196E+03  0.25500000920E-02 0. -1.
</event>
<event>
 5   0  0.1303808E-02  0.6010437E+03  0.7818609E-02  0.9903243E-01
       -1   -1    0    0    0  501  0.00000000000E+00  0.00000000000E+00  0.15926164971E+03  0.15926164979E+03  0.50400001928E-02 0. -1.
        1   -1    0    0  501    0  0.00000000000E+00  0.00000000000E+00 -0.56707560464E+03  0.56707560466E+03  0.50400001928E-02 0.  1.
    10030    2    1    2    0    0  0.00000000000E+00  0.00000000000E+00 -0.40781395493E+03  0.72633725445E+03  0.60104374664E+03 0.  0.
        4    1    3    3  502    0  0.18818013697E+03 -0.21843177600E+03 -0.30635970959E+03  0.42069239270E+03  0.12699999809E+01 0.  1.
       -4    1    3    3    0  502 -0.18818013697E+03  0.21843177600E+03 -0.10145424534E+03  0.30564486175E+03  0.12699999809E+01 0. -1.
</event>
<event>
 5   0  0.1250390E-02  0.5989837E+03  0.7818609E-02  0.9907517E-01
        1   -1    0    0  501    0  0.00000000000E+00  0.00000000000E+00  0.68631486585E+03  0.68631486587E+03  0.50400001928E-02 0.  1.
       -1   -1    0    0    0  501  0.00000000000E+00  0.00000000000E+00 -0.13069126125E+03  0.13069126134E+03  0.50400001928E-02 0. -1.
    10030    2    1    2    0    0  0.00000000000E+00  0.00000000000E+00  0.55562360460E+03  0.81700612721E+03  0.59898365746E+03 0.  0.
        3    1    3    3  502    0 -0.11976683582E+03  0.13981932093E+03 -0.44394829268E+02  0.18937911325E+03  0.10100000352E+00 0. -1.
       -3    1    3    3    0  502  0.11976683582E+03 -0.13981932093E+03  0.60001843387E+03  0.62762701396E+03  0.10100000352E+00 0.  1.
</event>
<event>
 5   0  0.1303808E-02  0.6005347E+03  0.7818609E-02  0.9904297E-01
       -1   -1    0    0    0  501  0.00000000000E+00  0.00000000000E+00  0.29865888591E+03  0.29865888595E+03  0.50400001928E-02 0. -1.
        1   -1    0    0  501    0  0.00000000000E+00  0.00000000000E+00 -0.30188444136E+03  0.30188444141E+03  0.50400001928E-02 0.  1.
    10030    2    1    2    0    0  0.00000000000E+00  0.00000000000E+00 -0.32255554569E+01  0.60054332735E+03  0.60053466496E+03 0.  0.
        4    1    3    3  502    0  0.93895624253E+02  0.81206442554E+02  0.27179194042E+03  0.29880318998E+03  0.12699999809E+01 0. -1.
       -4    1    3    3    0  502 -0.93895624253E+02 -0.81206442554E+02 -0.27501749587E+03  0.30174013737E+03  0.12699999809E+01 0.  1.
</event>
<event>
 5   0  0.2141800E-02  0.5968996E+03  0.7818609E-02  0.9911859E-01
        2   -1    0    0  501    0  0.00000000000E+00  0.00000000000E+00  0.32531252354E+03  0.32531252355E+03  0.25500000920E-02 0. -1.
       -2   -1    0    0    0  501  0.00000000000E+00  0.00000000000E+00 -0.27380529143E+03  0.27380529144E+03  0.25500000920E-02 0.  1.
    10030    2    1    2    0    0  0.00000000000E+00  0.00000000000E+00  0.51507232111E+02  0.59911781499E+03  0.59689962412E+03 0.  0.
        2    1    3    3  502    0 -0.21291305148E+03 -0.19235424463E+03 -0.56649999933E+02  0.29247452097E+03  0.25500000920E-02 0.  1.
       -2    1    3    3    0  502  0.21291305148E+03  0.19235424463E+03  0.10815723204E+03  0.30664329402E+03  0.25500000920E-02 0. -1.
</event>
<event>
 5   0  0.2126207E-02  0.6008360E+03  0.7818609E-02  0.9903673E-01
       -2   -1    0    0    0  501  0.00000000000E+00  0.00000000000E+00  0.12108200738E+03  0.12108200741E+03  0.25500000920E-02 0.  1.
        2   -1    0    0  501    0  0.00000000000E+00  0.00000000000E+00 -0.74537063626E+03  0.74537063626E+03  0.25500000920E-02 0. -1.
    10030    2    1    2    0    0  0.00000000000E+00  0.00000000000E+00 -0.62428862888E+03  0.86645264367E+03  0.60083599391E+03 0.  0.
        5    1    3    3  502    0  0.22870106622E+03  0.16331494191E+03 -0.46511978353E+03  0.54344682442E+03  0.46999998093E+01 0. -1.
       -5    1    3    3    0  502 -0.22870106622E+03 -0.16331494191E+03 -0.15916884534E+03  0.32300581925E+03  0.46999998093E+01 0.  1.
</event>
<event>
 5   0  0.2092587E-02  0.6016965E+03  0.7818609E-02  0.9901893E-01
        2   -1    0    0  501    0  0.00000000000E+00  0.00000000000E+00  0.53067009296E+03  0.53067009297E+03  0.25500000920E-02 0.  1.
       -2   -1    0    0    0  501  0.00000000000E+00  0.00000000000E+00 -0.17055731398E+03  0.17055731400E+03  0.25500000920E-02 0. -1.
    10030    2    1    2    0    0  0.00000000000E+00  0.00000000000E+00  0.36011277898E+03  0.70122740697E+03  0.60169648719E+03 0.  0.
        3    1    3    3  502    0 -0.23557444161E+02  0.23032129745E+03  0.40394634740E+03  0.46559157532E+03  0.10100000352E+00 0.  1.
       -3    1    3    3    0  502  0.23557444161E+02 -0.23032129745E+03 -0.43833568415E+02  0.23563583165E+03  0.10100000352E+00 0. -1.
</event>
<event>
 5   0  0.2126207E-02  0.6009602E+03  0.7818609E-02  0.9903416E-01
        2   -1    0    0  501    0  0.00000000000E+00  0.00000000000E+00  0.12931419515E+04  0.12931419515E+04  0.25500000920E-02 0.  1.
       -2   -1    0    0    0  501  0.00000000000E+00  0.00000000000E+00 -0.69820870216E+02  0.69820870263E+02  0.25500000920E-02 0. -1.
    10030    2    1    2    0    0  0.00000000000E+00  0.00000000000E+00  0.12233210812E+04  0.13629628217E+04  0.60096021964E+03 0.  0.
        5    1    3    3  502    0  0.23714527338E+03 -0.17989854038E+03  0.70419950828E+03  0.76453934038E+03  0.46999998093E+01 0.  1.
       -5    1    3    3    0  502 -0.23714527338E+03  0.17989854038E+03  0.51912157295E+03  0.59842348134E+03  0.46999998093E+01 0. -1.
</event>
<event>
 5   0  0.1303808E-02  0.6265747E+03  0.7818609E-02  0.9851756E-01
       -1   -1    0    0    0  501  0.00000000000E+00  0.00000000000E+00  0.39300586886E+03  0.39300586889E+03  0.50400001928E-02 0. -1.
        1   -1    0    0  501    0  0.00000000000E+00  0.00000000000E+00 -0.24973914760E+03  0.24973914765E+03  0.50400001928E-02 0.  1.
    10030    2    1    2    0    0  0.00000000000E+00  0.00000000000E+00  0.14326672126E+03  0.64274501654E+03  0.62657465865E+03 0.  0.
        4    1    3    3  502    0 -0.78223083437E+02 -0.54823323484E+02 -0.23443380162E+03  0.25315068205E+03  0.12699999809E+01 0.  1.
       -4    1    3    3    0  502  0.78223083437E+02  0.54823323484E+02  0.37770052288E+03  0.38959433449E+03  0.12699999809E+01 0. -1.
</event>
<event>
 5   0  0.1250390E-02  0.6001669E+03  0.7818609E-02  0.9905060E-01
       -1   -1    0    0    0  501  0.00000000000E+00  0.00000000000E+00  0.20064321388E+03  0.20064321395E+03  0.50400001928E-02 0.  1.
        1   -1    0    0  501    0  0.00000000000E+00  0.00000000000E+00 -0.44880696392E+03  0.44880696395E+03  0.50400001928E-02 0. -1.
    10030    2    1    2    0    0  0.00000000000E+00  0.00000000000E+00 -0.24816375004E+03  0.64945017790E+03  0.60016688241E+03 0.  0.
        3    1    3    3  502    0 -0.67534126563E+02 -0.19264410986E+03  0.11392817747E+03  0.23377820929E+03  0.10100000352E+00 0.  1.
       -3    1    3    3    0  502  0.67534126563E+02  0.19264410986E+03 -0.36209192751E+03  0.41567196861E+03  0.10100000352E+00 0. -1.
</event>
<event>
 5   0  0.1250390E-02  0.6000199E+03  0.7818609E-02  0.9905365E-01
        1   -1    0    0  501    0  0.00000000000E+00  0.00000000000E+00  0.22387323967E+03  0.22387323973E+03  0.50400001928E-02 0.  1.
       -1   -1    0    0    0  501  0.00000000000E+00  0.00000000000E+00 -0.40203981455E+03  0.40203981458E+03  0.50400001928E-02 0. -1.
    10030    2    1    2    0    0  0.00000000000E+00  0.00000000000E+00 -0.17816657488E+03  0.62591305431E+03  0.60001985230E+03 0.  0.
        3    1    3    3  502    0  0.16241238292E+03 -0.98305149255E+02 -0.33141012082E+03  0.38193502442E+03  0.10100000352E+00 0. -1.
       -3    1    3    3    0  502 -0.16241238292E+03  0.98305149255E+02  0.15324354594E+03  0.24397802989E+03  0.10100000352E+00 0.  1.
</event>
<event>
 5   0  0.1337051E-02  0.5976970E+03  0.7818609E-02  0.9910196E-01
        1   -1    0    0  501    0  0.00000000000E+00  0.00000000000E+00  0.30058531462E+03  0.30058531466E+03  0.50400001928E-02 0.  1.
       -1   -1    0    0    0  501  0.00000000000E+00  0.00000000000E+00 -0.29712167838E+03  0.29712167843E+03  0.50400001928E-02 0. -1.
    10030    2    1    2    0    0  0.00000000000E+00  0.00000000000E+00  0.34636362337E+01  0.59770699309E+03  0.59769695734E+03 0.  0.
        5    1    3    3  502    0  0.27826401727E+03  0.10788383653E+03  0.16515087414E+02  0.29893916371E+03  0.46999998093E+01 0.  1.
       -5    1    3    3    0  502 -0.27826401727E+03 -0.10788383653E+03 -0.13051451180E+02  0.29876782937E+03  0.46999998093E+01 0. -1.
</event>
<event>
 5   0  0.2141800E-02  0.6000173E+03  0.7818609E-02  0.9905370E-01
       -2   -1    0    0    0  501  0.00000000000E+00  0.00000000000E+00  0.56003133928E+02  0.56003133987E+02  0.25500000920E-02 0. -1.
        2   -1    0    0  501    0  0.00000000000E+00  0.00000000000E+00 -0.16071458629E+04  0.16071458629E+04  0.25500000920E-02 0.  1.
    10030    2    1    2    0    0  0.00000000000E+00  0.00000000000E+00 -0.15511427290E+04  0.16631489969E+04  0.60001734992E+03 0.  0.
        2    1    3    3  502    0 -0.10661018291E+03 -0.19546287802E+03 -0.21820687970E+03  0.31174622715E+03  0.25500000920E-02 0. -1.
       -2    1    3    3    0  502  0.10661018291E+03  0.19546287802E+03 -0.13329358493E+04  0.13514027697E+04  0.25500000920E-02 0.  1.
</event>
<event>
 5   0  0.2092587E-02  0.6005525E+03  0.7818609E-02  0.9904261E-01
       -2   -1    0    0    0  501  0.00000000000E+00  0.00000000000E+00  0.90728546282E+02  0.90728546317E+02  0.25500000920E-02 0. -1.
        2   -1    0    0  501    0  0.00000000000E+00  0.00000000000E+00 -0.99379767522E+03  0.99379767522E+03  0.25500000920E-02 0.  1.
    10030    2    1    2    0    0  0.00000000000E+00  0.00000000000E+00 -0.90306912894E+03  0.10845262215E+04  0.60055247362E+03 0.  0.
        3    1    3    3  502    0 -0.67998524586E+02  0.46503523566E+02 -0.97299163507E+03  0.97647278978E+03  0.10100000352E+00 0.  1.
       -3    1    3    3    0  502  0.67998524586E+02 -0.46503523566E+02  0.69922506138E+02  0.10805343176E+03  0.10100000352E+00 0. -1.
</event>
<event>
 5   0  0.2092587E-02  0.6127332E+03  0.7818609E-02  0.9879335E-01
        2   -1    0    0  501    0  0.00000000000E+00  0.00000000000E+00  0.12819949791E+04  0.12819949791E+04  0.25500000920E-02 0.  1.
       -2   -1    0    0    0  501  0.00000000000E+00  0.00000000000E+00 -0.73214388576E+02  0.73214388620E+02  0.25500000920E-02 0. -1.
    10030    2    1    2    0    0  0.00000000000E+00  0.00000000000E+00  0.12087805905E+04  0.13552093677E+04  0.61273315099E+03 0.  0.
        3    1    3    3  502    0 -0.25200319463E+03 -0.15722260516E+03  0.43834863435E+03  0.52950362899E+03  0.10100000352E+00 0.  1.
       -3    1    3    3    0  502  0.25200319463E+03  0.15722260516E+03  0.77043195612E+03  0.82570573868E+03  0.10100000352E+00 0. -1.
</event>
<event>
 5   0  0.1332555E-02  0.5973150E+03  0.7818609E-02  0.9910992E-01
        1   -1    0    0  501    0  0.00000000000E+00  0.00000000000E+00  0.57042448330E+03  0.57042448332E+03  0.50400001928E-02 0.  1.
       -1   -1    0    0    0  501  0.00000000000E+00  0.00000000000E+00 -0.15636829408E+03  0.15636829416E+03  0.50400001928E-02 0. -1.
    10030    2    1    2    0    0  0.00000000000E+00  0.00000000000E+00  0.41405618922E+03  0.72679277748E+03  0.59731500364E+03 0.  0.
        2    1    3    3  502    0  0.10323974250E+03  0.54198982399E+02  0.54158424839E+03  0.55399410848E+03  0.25500000920E-02 0.  1.
       -2    1    3    3    0  502 -0.10323974250E+03 -0.54198982399E+02 -0.12752805917E+03  0.17279866900E+03  0.25500000920E-02 0. -1.
</event>
<event>
 5   0  0.2142838E-02  0.6210287E+03  0.7818609E-02  0.9862714E-01
        2   -1    0    0  501    0  0.00000000000E+00  0.00000000000E+00  0.40386477533E+03  0.40386477533E+03  0.25500000920E-02 0. -1.
       -2   -1    0    0    0  501  0.00000000000E+00  0.00000000000E+00 -0.23874119482E+03  0.23874119484E+03  0.25500000920E-02 0.  1.
    10030    2    1    2    0    0  0.00000000000E+00  0.00000000000E+00  0.16512358050E+03  0.64260597017E+03  0.62102869182E+03 0.  0.
        4    1    3    3  502    0 -0.23286973540E+03 -0.12458051364E+03  0.25154201011E+03  0.36472402416E+03  0.12699999809E+01 0. -1.
       -4    1    3    3    0  502  0.23286973540E+03  0.12458051364E+03 -0.86418429610E+02  0.27788194601E+03  0.12699999809E+01 0.  1.
</event>
<event>
 5   0  0.2092587E-02  0.6009253E+03  0.7818609E-02  0.9903488E-01
       -2   -1    0    0    0  501  0.00000000000E+00  0.00000000000E+00  0.16461625588E+03  0.16461625590E+03  0.25500000920E-02 0. -1.
        2   -1    0    0  501    0  0.00000000000E+00  0.00000000000E+00 -0.54841357366E+03  0.54841357367E+03  0.25500000920E-02 0.  1.
    10030    2    1    2    0    0  0.00000000000E+00  0.00000000000E+00 -0.38379731778E+03  0.71302982957E+03  0.60092525053E+03 0.  0.
        3    1    3    3  502    0 -0.11301216237E+03  0.38398982901E+02 -0.51907671128E+03  0.53262263670E+03  0.10100000352E+00 0.  1.
       -3    1    3    3    0  502  0.11301216237E+03 -0.38398982901E+02  0.13527939350E+03  0.18040719287E+03  0.10100000352E+00 0. -1.
</event>
<event>
 5   0  0.2092587E-02  0.5975501E+03  0.7818609E-02  0.9910502E-01
       -2   -1    0    0    0  501  0.00000000000E+00  0.00000000000E+00  0.41836579227E+03  0.41836579228E+03  0.25500000920E-02 0.  1.
        2   -1    0    0  501    0  0.00000000000E+00  0.00000000000E+00 -0.21336955507E+03  0.21336955508E+03  0.25500000920E-02 0. -1.
    10030    2    1    2    0    0  0.00000000000E+00  0.00000000000E+00  0.20499623721E+03  0.63173534736E+03  0.59755007475E+03 0.  0.
        3    1    3    3  502    0  0.12140467229E+03 -0.17484661882E+03 -0.11915321117E+03  0.24394247785E+03  0.10100000352E+00 0.  1.
       -3    1    3    3    0  502 -0.12140467229E+03  0.17484661882E+03  0.32414944837E+03  0.38779286952E+03  0.10100000352E+00 0. -1.
</event>
<event>
 5   0  0.8551000E-03  0.5956203E+03  0.7818609E-02  0.9914535E-01
       -3   -1    0    0    0  501  0.00000000000E+00  0.00000000000E+00  0.54371694801E+03  0.54371695739E+03  0.10100000352E+00 0. -1.
        3   -1    0    0  501    0  0.00000000000E+00  0.00000000000E+00 -0.16311954118E+03  0.16311957245E+03  0.10100000352E+00 0.  1.
    10030    2    1    2    0    0  0.00000000000E+00  0.00000000000E+00  0.38059740682E+03  0.70683652984E+03  0.59562025976E+03 0.  0.
        4    1    3    3  502    0 -0.21468157290E+03  0.20637185369E+03  0.19436499724E+03  0.35560776818E+03  0.12699999809E+01 0.  1.
       -4    1    3    3    0  502  0.21468157290E+03 -0.20637185369E+03  0.18623240959E+03  0.35122876166E+03  0.12699999809E+01 0. -1.
</event>
<event>
 5   0  0.2092587E-02  0.5991991E+03  0.7818609E-02  0.9907069E-01
       -2   -1    0    0    0  501  0.00000000000E+00  0.00000000000E+00  0.85407997179E+02  0.85407997217E+02  0.25500000920E-02 0. -1.
        2   -1    0    0  501    0  0.00000000000E+00  0.00000000000E+00 -0.10509541811E+04  0.10509541811E+04  0.25500000920E-02 0.  1.
    10030    2    1    2    0    0  0.00000000000E+00  0.00000000000E+00 -0.96554618390E+03  0.11363621783E+04  0.59919910466E+03 0.  0.
        3    1    3    3  502    0  0.33560736901E+02  0.12192668048E+03 -0.99785699746E+03  0.10058384741E+04  0.10100000352E+00 0.  1.
       -3    1    3    3    0  502 -0.33560736901E+02 -0.12192668048E+03  0.32310813557E+02  0.13052370416E+03  0.10100000352E+00 0. -1.
</event>
<event>
 5   0  0.2126207E-02  0.5989888E+03  0.7818609E-02  0.9907506E-01
        2   -1    0    0  501    0  0.00000000000E+00  0.00000000000E+00  0.20802911929E+03  0.20802911930E+03  0.25500000920E-02 0. -1.
       -2   -1    0    0    0  501  0.00000000000E+00  0.00000000000E+00 -0.43117466975E+03  0.43117466976E+03  0.25500000920E-02 0.  1.
    10030    2    1    2    0    0  0.00000000000E+00  0.00000000000E+00 -0.22314555047E+03  0.63920378906E+03  0.59898877056E+03 0.  0.
        5    1    3    3  502    0  0.33959483381E+02 -0.60721514444E+02  0.19924566681E+03  0.21109541580E+03  0.46999998093E+01 0. -1.
       -5    1    3    3    0  502 -0.33959483381E+02  0.60721514444E+02 -0.42239121728E+03  0.42810837327E+03  0.46999998093E+01 0.  1.
</event>
<event>
 5   0  0.1250390E-02  0.5988247E+03  0.7818609E-02  0.9907847E-01
        1   -1    0    0  501    0  0.00000000000E+00  0.00000000000E+00  0.17086379507E+03  0.17086379514E+03  0.50400001928E-02 0.  1.
       -1   -1    0    0    0  501  0.00000000000E+00  0.00000000000E+00 -0.52467386996E+03  0.52467386998E+03  0.50400001928E-02 0. -1.
    10030    2    1    2    0    0  0.00000000000E+00  0.00000000000E+00 -0.35381007489E+03  0.69553766513E+03  0.59882474441E+03 0.  0.
        3    1    3    3  502    0 -0.69916408953E+02 -0.19122200868E+03  0.78080523765E+02  0.21806131990E+03  0.10100000352E+00 0.  1.
       -3    1    3    3    0  502  0.69916408953E+02  0.19122200868E+03 -0.43189059866E+03  0.47747634523E+03  0.10100000352E+00 0. -1.
</event>
<event>
 5   0  0.8551000E-03  0.6022410E+03  0.7818609E-02  0.9900768E-01
       -3   -1    0    0    0  501  0.00000000000E+00  0.00000000000E+00  0.83407419144E+02  0.83407480296E+02  0.10100000352E+00 0.  1.
        3   -1    0    0  501    0  0.00000000000E+00  0.00000000000E+00 -0.10871156832E+04  0.10871156879E+04  0.10100000352E+00 0. -1.
    10030    2    1    2    0    0  0.00000000000E+00  0.00000000000E+00 -0.10037082640E+04  0.11705231682E+04  0.60224098825E+03 0.  0.
        4    1    3    3  502    0 -0.12219355535E+03 -0.43030148985E+02 -0.10301775178E+04  0.10382919578E+04  0.12699999809E+01 0. -1.
       -4    1    3    3    0  502  0.12219355535E+03  0.43030148985E+02  0.26469253737E+02  0.13223121033E+03  0.12699999809E+01 0.  1.
</event>
<event>
 5   0  0.1332555E-02  0.6017218E+03  0.7818609E-02  0.9901840E-01
       -1   -1    0    0    0  501  0.00000000000E+00  0.00000000000E+00  0.18765168841E+03  0.18765168848E+03  0.50400001928E-02 0. -1.
        1   -1    0    0  501    0  0.00000000000E+00  0.00000000000E+00 -0.48236856537E+03  0.48236856540E+03  0.50400001928E-02 0.  1.
    10030    2    1    2    0    0  0.00000000000E+00  0.00000000000E+00 -0.29471687696E+03  0.67002025388E+03  0.60172178209E+03 0.  0.
        2    1    3    3  502    0 -0.19268426048E+03 -0.15093667436E+02  0.10938171953E+03  0.22207972354E+03  0.25500000920E-02 0. -1.
       -2    1    3    3    0  502  0.19268426048E+03  0.15093667436E+02 -0.40409859649E+03  0.44794053034E+03  0.25500000920E-02 0.  1.
</event>
<event>
 5   0  0.1303808E-02  0.5997572E+03  0.7818609E-02  0.9905910E-01
        1   -1    0    0  501    0  0.00000000000E+00  0.00000000000E+00  0.27230078663E+03  0.27230078668E+03  0.50400001928E-02 0. -1.
       -1   -1    0    0    0  501  0.00000000000E+00  0.00000000000E+00 -0.33024939950E+03  0.33024939954E+03  0.50400001928E-02 0.  1.
    10030    2    1    2    0    0  0.00000000000E+00  0.00000000000E+00 -0.57948612866E+02  0.60255018622E+03  0.59975718852E+03 0.  0.
        4    1    3    3  502    0  0.36227900645E+02 -0.26749557030E+02  0.26888156794E+03  0.27262962067E+03  0.12699999809E+01 0. -1.
       -4    1    3    3    0  502 -0.36227900645E+02  0.26749557030E+02 -0.32683018081E+03  0.32992056555E+03  0.12699999809E+01 0.  1.
</event>
<event>
 5   0  0.2092587E-02  0.6002080E+03  0.7818609E-02  0.9904975E-01
        2   -1    0    0  501    0  0.00000000000E+00  0.00000000000E+00  0.21631954105E+04  0.21631954105E+04  0.25500000920E-02 0. -1.
       -2   -1    0    0    0  501  0.00000000000E+00  0.00000000000E+00 -0.41633967908E+02  0.41633967986E+02  0.25500000920E-02 0.  1.
    10030    2    1    2    0    0  0.00000000000E+00  0.00000000000E+00  0.21215614426E+04  0.22048293785E+04  0.60020799190E+03 0.  0.
        3    1    3    3  502    0 -0.12313973015E+03 -0.22492150858E+03  0.16335234954E+04  0.16535271689E+04  0.10100000352E+00 0. -1.
       -3    1    3    3    0  502  0.12313973015E+03  0.22492150858E+03  0.48803794717E+03  0.55130220953E+03  0.10100000352E+00 0.  1.
</event>
<event>
 5   0  0.2092587E-02  0.5996899E+03  0.7818609E-02  0.9906050E-01
       -2   -1    0    0    0  501  0.00000000000E+00  0.00000000000E+00  0.41058245381E+02  0.41058245461E+02  0.25500000920E-02 0.  1.
        2   -1    0    0  501    0  0.00000000000E+00  0.00000000000E+00 -0.21897425661E+04  0.21897425661E+04  0.25500000920E-02 0. -1.
    10030    2    1    2    0    0  0.00000000000E+00  0.00000000000E+00 -0.21486843207E+04  0.22308008116E+04  0.59968987883E+03 0.  0.
        3    1    3    3  502    0 -0.11019684746E+03 -0.27779316386E+03 -0.98363469638E+03  0.10280319125E+04  0.10100000352E+00 0.  1.
       -3    1    3    3    0  502  0.11019684746E+03  0.27779316386E+03 -0.11650496244E+04  0.12027688990E+04  0.10100000352E+00 0. -1.
</event>
<event>
 5   0  0.2179625E-02  0.5960103E+03  0.7818609E-02  0.9913718E-01
       -2   -1    0    0    0  501  0.00000000000E+00  0.00000000000E+00  0.16604894174E+03  0.16604894176E+03  0.25500000920E-02 0. -1.
        2   -1    0    0  501    0  0.00000000000E+00  0.00000000000E+00 -0.53482458144E+03  0.53482458145E+03  0.25500000920E-02 0.  1.
    10030    2    1    2    0    0  0.00000000000E+00  0.00000000000E+00 -0.36877563970E+03  0.70087352321E+03  0.59601025419E+03 0.  0.
        1    1    3    3  502    0 -0.65202440686E+01 -0.27514015969E+03 -0.49988216068E+02  0.27972029391E+03  0.50400001928E-02 0. -1.
       -1    1    3    3    0  502  0.65202440686E+01  0.27514015969E+03 -0.31878742363E+03  0.42115322930E+03  0.50400001928E-02 0.  1.
</event>
<event>
 5   0  0.1276705E-02  0.5986289E+03  0.7818609E-02  0.9908255E-01
       -1   -1    0    0    0  501  0.00000000000E+00  0.00000000000E+00  0.12986998201E+03  0.12986998211E+03  0.50400001928E-02 0.  1.
        1   -1    0    0  501    0  0.00000000000E+00  0.00000000000E+00 -0.68983713473E+03  0.68983713475E+03  0.50400001928E-02 0. -1.
    10030    2    1    2    0    0  0.00000000000E+00  0.00000000000E+00 -0.55996715272E+03  0.81970711686E+03  0.59862888780E+03 0.  0.
        1    1    3    3  502    0  0.66165254816E+02 -0.12251436174E+03 -0.64278945305E+03  0.65769741581E+03  0.50400001928E-02 0. -1.
       -1    1    3    3    0  502 -0.66165254816E+02  0.12251436174E+03  0.82822300335E+02  0.16200970105E+03  0.50400001928E-02 0.  1.
</event>
<event>
 5   0  0.2141800E-02  0.5969758E+03  0.7818609E-02  0.9911700E-01
        2   -1    0    0  501    0  0.00000000000E+00  0.00000000000E+00  0.15630729347E+03  0.15630729349E+03  0.25500000920E-02 0.  1.
       -2   -1    0    0    0  501  0.00000000000E+00  0.00000000000E+00 -0.56999921521E+03  0.56999921522E+03  0.25500000920E-02 0. -1.
    10030    2    1    2    0    0  0.00000000000E+00  0.00000000000E+00 -0.41369192174E+03  0.72630650871E+03  0.59697582739E+03 0.  0.
        2    1    3    3  502    0  0.18086564362E+03  0.59107522044E+02 -0.48664465329E+03  0.52252186441E+03  0.25500000920E-02 0. -1.
       -2    1    3    3    0  502 -0.18086564362E+03 -0.59107522044E+02  0.72952731552E+02  0.20378464430E+03  0.25500000920E-02 0.  1.
</event>
<event>
 5   0  0.2092587E-02  0.5998248E+03  0.7818609E-02  0.9905770E-01
        2   -1    0    0  501    0  0.00000000000E+00  0.00000000000E+00  0.58278775423E+03  0.58278775423E+03  0.25500000920E-02 0.  1.
       -2   -1    0    0    0  501  0.00000000000E+00  0.00000000000E+00 -0.15433997042E+03  0.15433997044E+03  0.25500000920E-02 0. -1.
    10030    2    1    2    0    0  0.00000000000E+00  0.00000000000E+00  0.42844778381E+03  0.73712772467E+03  0.59982479027E+03 0.  0.
        3    1    3    3  502    0  0.66564416860E+02 -0.10077802709E+03  0.55158105746E+03  0.56464918798E+03  0.10100000352E+00 0.  1.
       -3    1    3    3    0  502 -0.66564416860E+02  0.10077802709E+03 -0.12313327365E+03  0.17247853669E+03  0.10100000352E+00 0. -1.
</event>
<event>
 5   0  0.1276705E-02  0.6003989E+03  0.7818609E-02  0.9904579E-01
        1   -1    0    0  501    0  0.00000000000E+00  0.00000000000E+00  0.11188793979E+04  0.11188793979E+04  0.50400001928E-02 0. -1.
       -1   -1    0    0    0  501  0.00000000000E+00  0.00000000000E+00 -0.80544625727E+02  0.80544625884E+02  0.50400001928E-02 0.  1.
    10030    2    1    2    0    0  0.00000000000E+00  0.00000000000E+00  0.10383347722E+04  0.11994240238E+04  0.60039894216E+03 0.  0.
        1    1    3    3  502    0 -0.20590415885E+03 -0.23079327255E+02  0.95313799626E+03  0.97539797925E+03  0.50400001928E-02 0. -1.
       -1    1    3    3    0  502  0.20590415885E+03  0.23079327255E+02  0.85196775895E+02  0.22402604453E+03  0.50400001928E-02 0.  1.
</event>
<event>
 5   0  0.2142838E-02  0.6069464E+03  0.7818609E-02  0.9891098E-01
        2   -1    0    0  501    0  0.00000000000E+00  0.00000000000E+00  0.38100601405E+03  0.38100601406E+03  0.25500000920E-02 0. -1.
       -2   -1    0    0    0  501  0.00000000000E+00  0.00000000000E+00 -0.24171795220E+03  0.24171795221E+03  0.25500000920E-02 0.  1.
    10030    2    1    2    0    0  0.00000000000E+00  0.00000000000E+00  0.13928806185E+03  0.62272396627E+03  0.60694643420E+03 0.  0.
        4    1    3    3  502    0  0.96428814924E+02  0.41145838015E+02 -0.22254463514E+03  0.24600655248E+03  0.12699999809E+01 0.  1.
       -4    1    3    3    0  502 -0.96428814924E+02 -0.41145838015E+02  0.36183269699E+03  0.37671741378E+03  0.12699999809E+01 0. -1.
</event>
<event>
 5   0  0.1337051E-02  0.5975926E+03  0.7818609E-02  0.9910413E-01
        1   -1    0    0  501    0  0.00000000000E+00  0.00000000000E+00  0.27446496889E+03  0.27446496893E+03  0.50400001928E-02 0. -1.
       -1   -1    0    0    0  501  0.00000000000E+00  0.00000000000E+00 -0.32528459290E+03  0.32528459294E+03  0.50400001928E-02 0.  1.
    10030    2    1    2    0    0  0.00000000000E+00  0.00000000000E+00 -0.50819624017E+02  0.59974956188E+03  0.59759258930E+03 0.  0.
        5    1    3    3  502    0 -0.11917755142E+03 -0.98018888398E+02 -0.28215763480E+03  0.32163024130E+03  0.46999998093E+01 0.  1.
       -5    1    3    3    0  502  0.11917755142E+03  0.98018888398E+02  0.23133801079E+03  0.27811932058E+03  0.46999998093E+01 0. -1.
</event>
<event>
 5   0  0.2126207E-02  0.5979040E+03  0.7818609E-02  0.9909764E-01
       -2   -1    0    0    0  501  0.00000000000E+00  0.00000000000E+00  0.13888404071E+03  0.13888404074E+03  0.25500000920E-02 0. -1.
        2   -1    0    0  501    0  0.00000000000E+00  0.00000000000E+00 -0.64350309801E+03  0.64350309802E+03  0.25500000920E-02 0.  1.
    10030    2    1    2    0    0  0.00000000000E+00  0.00000000000E+00 -0.50461905730E+03  0.78238713875E+03  0.59790404071E+03 0.  0.
        5    1    3    3  502    0  0.21336901524E+02  0.21955151240E+03 -0.51627384124E+03  0.56144358498E+03  0.46999998093E+01 0.  1.
       -5    1    3    3    0  502 -0.21336901524E+02 -0.21955151240E+03  0.11654783947E+02  0.22094355377E+03  0.46999998093E+01 0. -1.
</event>
<event>
 5   0  0.2142838E-02  0.6009192E+03  0.7818609E-02  0.9903501E-01
        2   -1    0    0  501    0  0.00000000000E+00  0.00000000000E+00  0.38079792547E+03  0.38079792548E+03  0.25500000920E-02 0. -1.
       -2   -1    0    0    0  501  0.00000000000E+00  0.00000000000E+00 -0.23707057752E+03  0.23707057754E+03  0.25500000920E-02 0.  1.
    10030    2    1    2    0    0  0.00000000000E+00  0.00000000000E+00  0.14372734795E+03  0.61786850302E+03  0.60091924289E+03 0.  0.
        4    1    3    3  502    0  0.58188649193E+02  0.17784410244E+03 -0.16984102913E+03  0.25270938198E+03  0.12699999809E+01 0.  1.
       -4    1    3    3    0  502 -0.58188649193E+02 -0.17784410244E+03  0.31356837708E+03  0.36515912103E+03  0.12699999809E+01 0. -1.
</event>
<event>
 5   0  0.2092587E-02  0.6135639E+03  0.7818609E-02  0.9877658E-01
       -2   -1    0    0    0  501  0.00000000000E+00  0.00000000000E+00  0.16384111658E+03  0.16384111660E+03  0.25500000920E-02 0.  1.
        2   -1    0    0  501    0  0.00000000000E+00  0.00000000000E+00 -0.57442937695E+03  0.57442937695E+03  0.25500000920E-02 0. -1.
    10030    2    1    2    0    0  0.00000000000E+00  0.00000000000E+00 -0.41058826037E+03  0.73827049355E+03  0.61356385331E+03 0.  0.
        3    1    3    3  502    0  0.13665190005E+03  0.54023362495E+01  0.12513367731E+03  0.18536821309E+03  0.10100000352E+00 0.  1.
       -3    1    3    3    0  502 -0.13665190005E+03 -0.54023362495E+01 -0.53572193768E+03  0.55290228046E+03  0.10100000352E+00 0. -1.
</event>
<event>
 5   0  0.2092587E-02  0.5988861E+03  0.7818609E-02  0.9907720E-01
        2   -1    0    0  501    0  0.00000000000E+00  0.00000000000E+00  0.16941508125E+03  0.16941508127E+03  0.25500000920E-02 0. -1.
       -2   -1    0    0    0  501  0.00000000000E+00  0.00000000000E+00 -0.52926886852E+03  0.52926886852E+03  0.25500000920E-02 0.  1.
    10030    2    1    2    0    0  0.00000000000E+00  0.00000000000E+00 -0.35985378727E+03  0.69868394979E+03  0.59888606052E+03 0.  0.
        3    1    3    3  502    0 -0.60395466310E+02  0.22518668484E+03  0.39294087489E+02  0.23643326942E+03  0.10100000352E+00 0. -1.
       -3    1    3    3    0  502  0.60395466310E+02 -0.22518668484E+03 -0.39914787475E+03  0.46225068037E+03  0.10100000352E+00 0.  1.
</event>
<event>
 5   0  0.2142838E-02  0.6013744E+03  0.7818609E-02  0.9902559E-01
       -2   -1    0    0    0  501  0.00000000000E+00  0.00000000000E+00  0.58526398510E+02  0.58526398566E+02  0.25500000920E-02 0. -1.
        2   -1    0    0  501    0  0.00000000000E+00  0.00000000000E+00 -0.15448206495E+04  0.15448206495E+04  0.25500000920E-02 0.  1.
    10030    2    1    2    0    0  0.00000000000E+00  0.00000000000E+00 -0.14862942510E+04  0.16033470481E+04  0.60137438923E+03 0.  0.
        4    1    3    3  502    0 -0.27517388039E+03  0.94170747844E+02 -0.53970871587E+03  0.61308719207E+03  0.12699999809E+01 0. -1.
       -4    1    3    3    0  502  0.27517388039E+03 -0.94170747844E+02 -0.94658553514E+03  0.99025985601E+03  0.12699999809E+01 0.  1.
</event>
<event>
 5   0  0.2092587E-02  0.6008192E+03  0.7818609E-02  0.9903708E-01
       -2   -1    0    0    0  501  0.00000000000E+00  0.00000000000E+00  0.26077880873E+03  0.26077880874E+03  0.25500000920E-02 0. -1.
        2   -1    0    0  501    0  0.00000000000E+00  0.00000000000E+00 -0.34606308461E+03  0.34606308462E+03  0.25500000920E-02 0.  1.
    10030    2    1    2    0    0  0.00000000000E+00  0.00000000000E+00 -0.85284275884E+02  0.60684189336E+03  0.60081917066E+03 0.  0.
        3    1    3    3  502    0  0.19940528948E+03  0.18419352795E+03  0.87318516421E+02  0.28515655126E+03  0.10100000352E+00 0. -1.
       -3    1    3    3    0  502 -0.19940528948E+03 -0.18419352795E+03 -0.17260279231E+03  0.32168534211E+03  0.10100000352E+00 0.  1.
</event>
<event>
 5   0  0.8551000E-03  0.5987523E+03  0.7818609E-02  0.9907998E-01
       -3   -1    0    0    0  501  0.00000000000E+00  0.00000000000E+00  0.38699904794E+03  0.38699906112E+03  0.10100000352E+00 0.  1.
        3   -1    0    0  501    0  0.00000000000E+00  0.00000000000E+00 -0.23159247029E+03  0.23159249232E+03  0.10100000352E+00 0. -1.
    10030    2    1    2    0    0  0.00000000000E+00  0.00000000000E+00  0.15540657765E+03  0.61859155344E+03  0.59875229069E+03 0.  0.
        4    1    3    3  502    0  0.24010224933E+03  0.17758721567E+03  0.99328994451E+02  0.31472872659E+03  0.12699999809E+01 0.  1.
       -4    1    3    3    0  502 -0.24010224933E+03 -0.17758721567E+03  0.56077583198E+02  0.30386282685E+03  0.12699999809E+01 0. -1.
</event>
<event>
 5   0  0.1337051E-02  0.6005038E+03  0.7818609E-02  0.9904361E-01
       -1   -1    0    0    0  501  0.00000000000E+00  0.00000000000E+00  0.50377750773E+02  0.50377751025E+02  0.50400001928E-02 0. -1.
        1   -1    0    0  501    0  0.00000000000E+00  0.00000000000E+00 -0.17895043224E+04  0.17895043224E+04  0.50400001928E-02 0.  1.
    10030    2    1    2    0    0  0.00000000000E+00  0.00000000000E+00 -0.17391265717E+04  0.18398820735E+04  0.60050379849E+03 0.  0.
        5    1    3    3  502    0  0.84360762604E+02  0.27950699246E+03 -0.10837780592E+04  0.11224249947E+04  0.46999998093E+01 0. -1.
       -5    1    3    3    0  502 -0.84360762604E+02 -0.27950699246E+03 -0.65534851244E+03  0.71745707876E+03  0.46999998093E+01 0.  1.
</event>
<event>
 5   0  0.2179625E-02  0.6050441E+03  0.7818609E-02  0.9894996E-01
       -2   -1    0    0    0  501  0.00000000000E+00  0.00000000000E+00  0.68238373850E+03  0.68238373850E+03  0.25500000920E-02 0.  1.
        2   -1    0    0  501    0  0.00000000000E+00  0.00000000000E+00 -0.13411747892E+03  0.13411747895E+03  0.25500000920E-02 0. -1.
    10030    2    1    2    0    0  0.00000000000E+00  0.00000000000E+00  0.54826625957E+03  0.81650121745E+03  0.60504408658E+03 0.  0.
        1    1    3    3  502    0  0.78152880595E+02  0.17362669831E+03 -0.43113343589E+02  0.19522516111E+03  0.50400001928E-02 0. -1.
       -1    1    3    3    0  502 -0.78152880595E+02 -0.17362669831E+03  0.59137960316E+03  0.62127605633E+03  0.50400001928E-02 0.  1.
</event>
<event>
 5   0  0.1276705E-02  0.6042380E+03  0.7818609E-02  0.9896652E-01
        1   -1    0    0  501    0  0.00000000000E+00  0.00000000000E+00  0.99456649466E+03  0.99456649467E+03  0.50400001928E-02 0.  1.
       -1   -1    0    0    0  501  0.00000000000E+00  0.00000000000E+00 -0.91774543767E+02  0.91774543905E+02  0.50400001928E-02 0. -1.
    10030    2    1    2    0    0  0.00000000000E+00  0.00000000000E+00  0.90279195089E+03  0.10863410386E+04  0.60423798747E+03 0.  0.
        1    1    3    3  502    0 -0.83718151963E+02  0.12896601700E+03  0.91896277275E+03  0.93173684066E+03  0.50400001928E-02 0.  1.
       -1    1    3    3    0  502  0.83718151963E+02 -0.12896601700E+03 -0.16170821857E+02  0.15460419792E+03  0.50400001928E-02 0. -1.
</event>
<event>
 5   0  0.2142838E-02  0.5903003E+03  0.7818609E-02  0.9925737E-01
        2   -1    0    0  501    0  0.00000000000E+00  0.00000000000E+00  0.41994439626E+03  0.41994439626E+03  0.25500000920E-02 0.  1.
       -2   -1    0    0    0  501  0.00000000000E+00  0.00000000000E+00 -0.20744079466E+03  0.20744079467E+03  0.25500000920E-02 0. -1.
    10030    2    1    2    0    0  0.00000000000E+00  0.00000000000E+00  0.21250360160E+03  0.62738519094E+03  0.59030026014E+03 0.  0.
        4    1    3    3  502    0  0.10483631439E+03 -0.27543781799E+03  0.12323511347E+03  0.31944506646E+03  0.12699999809E+01 0.  1.
       -4    1    3    3    0  502 -0.10483631439E+03  0.27543781799E+03  0.89268488124E+02  0.30794012448E+03  0.12699999809E+01 0. -1.
</event>
<event>
 5   0  0.2142838E-02  0.6033584E+03  0.7818609E-02  0.9898463E-01
       -2   -1    0    0    0  501  0.00000000000E+00  0.00000000000E+00  0.53806776511E+02  0.53806776571E+02  0.25500000920E-02 0.  1.
        2   -1    0    0  501    0  0.00000000000E+00  0.00000000000E+00 -0.16914291329E+04  0.16914291329E+04  0.25500000920E-02 0. -1.
    10030    2    1    2    0    0  0.00000000000E+00  0.00000000000E+00 -0.16376223564E+04  0.17452359095E+04  0.60335843209E+03 0.  0.
        4    1    3    3  502    0 -0.28590955327E+03  0.88458022801E+02 -0.70906080264E+03  0.76963493241E+03  0.12699999809E+01 0.  1.
       -4    1    3    3    0  502  0.28590955327E+03 -0.88458022801E+02 -0.92856155379E+03  0.97560097710E+03  0.12699999809E+01 0. -1.
</event>
<event>
 5   0  0.1337051E-02  0.6043824E+03  0.7818609E-02  0.9896356E-01
       -1   -1    0    0    0  501  0.00000000000E+00  0.00000000000E+00  0.99764980150E+02  0.99764980277E+02  0.50400001928E-02 0. -1.
        1   -1    0    0  501    0  0.00000000000E+00  0.00000000000E+00 -0.91534631491E+03  0.91534631493E+03  0.50400001928E-02 0.  1.
    10030    2    1    2    0    0  0.00000000000E+00  0.00000000000E+00 -0.81558133476E+03  0.10151112952E+04  0.60438235252E+03 0.  0.
        5    1    3    3  502    0  0.80252110017E+02  0.24033607203E+03 -0.13131865220E+03  0.28542688573E+03  0.46999998093E+01 0. -1.
       -5    1    3    3    0  502 -0.80252110017E+02 -0.24033607203E+03 -0.68426268256E+03  0.72968440948E+03  0.46999998093E+01 0.  1.
</event>
<event>
 5   0  0.2142838E-02  0.5998215E+03  0.7818609E-02  0.9905776E-01
       -2   -1    0    0    0  501  0.00000000000E+00  0.00000000000E+00  0.32869558196E+03  0.32869558197E+03  0.25500000920E-02 0. -1.
        2   -1    0    0  501    0  0.00000000000E+00  0.00000000000E+00 -0.27364672888E+03  0.27364672890E+03  0.25500000920E-02 0.  1.
    10030    2    1    2    0    0  0.00000000000E+00  0.00000000000E+00  0.55048853077E+02  0.60234231087E+03  0.59982154282E+03 0.  0.
        4    1    3    3  502    0 -0.24292939439E+03 -0.15896751211E+03  0.10307021208E+03  0.30807538377E+03  0.12699999809E+01 0. -1.
       -4    1    3    3    0  502  0.24292939439E+03  0.15896751211E+03 -0.48021359007E+02  0.29426692710E+03  0.12699999809E+01 0.  1.
</event>
<event>
 5   0  0.2179625E-02  0.5990371E+03  0.7818609E-02  0.9907406E-01
       -2   -1    0    0    0  501  0.00000000000E+00  0.00000000000E+00  0.16883603235E+03  0.16883603237E+03  0.25500000920E-02 0.  1.
        2   -1    0    0  501    0  0.00000000000E+00  0.00000000000E+00 -0.53135200159E+03  0.53135200159E+03  0.25500000920E-02 0. -1.
    10030    2    1    2    0    0  0.00000000000E+00  0.00000000000E+00 -0.36251596924E+03  0.70018803396E+03  0.59903710649E+03 0.  0.
        1    1    3    3  502    0  0.25567357233E+02 -0.28044562938E+03 -0.30050375760E+03  0.41183242848E+03  0.50400001928E-02 0. -1.
       -1    1    3    3    0  502 -0.25567357233E+02  0.28044562938E+03 -0.62012211642E+02  0.28835560548E+03  0.50400001928E-02 0.  1.
</event>
<event>
 5   0  0.1303808E-02  0.6003344E+03  0.7818609E-02  0.9904713E-01
       -1   -1    0    0    0  501  0.00000000000E+00  0.00000000000E+00  0.45221842363E+03  0.45221842366E+03  0.50400001928E-02 0. -1.
        1   -1    0    0  501    0  0.00000000000E+00  0.00000000000E+00 -0.19924077069E+03  0.19924077075E+03  0.50400001928E-02 0.  1.
    10030    2    1    2    0    0  0.00000000000E+00  0.00000000000E+00  0.25297765294E+03  0.65145919441E+03  0.60033439773E+03 0.  0.
        4    1    3    3  502    0  0.13877340124E+03 -0.66593149642E+02  0.40612783143E+03  0.43432031133E+03  0.12699999809E+01 0. -1.
       -4    1    3    3    0  502 -0.13877340124E+03  0.66593149642E+02 -0.15315017849E+03  0.21713888308E+03  0.12699999809E+01 0.  1.
</event>
<event>
 5   0  0.8551000E-03  0.6002729E+03  0.7818609E-02  0.9904840E-01
       -3   -1    0    0    0  501  0.00000000000E+00  0.00000000000E+00  0.20371293462E+03  0.20371295966E+03  0.10100000352E+00 0.  1.
        3   -1    0    0  501    0  0.00000000000E+00  0.00000000000E+00 -0.44220013219E+03  0.44220014372E+03  0.10100000352E+00 0. -1.
    10030    2    1    2    0    0  0.00000000000E+00  0.00000000000E+00 -0.23848719757E+03  0.64591310338E+03  0.60027293268E+03 0.  0.
        2    1    3    3  502    0 -0.12811433439E+03  0.26836803591E+03 -0.75571886452E+02  0.30683186830E+03  0.25500000920E-02 0.  1.
       -2    1    3    3    0  502  0.12811433439E+03 -0.26836803591E+03 -0.16291531112E+03  0.33908123508E+03  0.25500000920E-02 0. -1.
</event>
<event>
 5   0  0.1250390E-02  0.5988515E+03  0.7818609E-02  0.9907792E-01
        1   -1    0    0  501    0  0.00000000000E+00  0.00000000000E+00  0.69519362416E+03  0.69519362418E+03  0.50400001928E-02 0.  1.
       -1   -1    0    0    0  501  0.00000000000E+00  0.00000000000E+00 -0.12896520986E+03  0.12896520996E+03  0.50400001928E-02 0. -1.
    10030    2    1    2    0    0  0.00000000000E+00  0.00000000000E+00  0.56622841430E+03  0.82415883413E+03  0.59885153980E+03 0.  0.
        3    1    3    3  502    0  0.17259390809E+03  0.59891990874E+01  0.61974651908E+03  0.64335859809E+03  0.10100000352E+00 0.  1.
       -3    1    3    3    0  502 -0.17259390809E+03 -0.59891990874E+01 -0.53518104786E+02  0.18080023605E+03  0.10100000352E+00 0. -1.
</event>
<event>
 5   0  0.2142838E-02  0.6004855E+03  0.7818609E-02  0.9904399E-01
       -2   -1    0    0    0  501  0.00000000000E+00  0.00000000000E+00  0.64076190086E+02  0.64076190137E+02  0.25500000920E-02 0. -1.
        2   -1    0    0  501    0  0.00000000000E+00  0.00000000000E+00 -0.14068519268E+04  0.14068519268E+04  0.25500000920E-02 0.  1.
    10030    2    1    2    0    0  0.00000000000E+00  0.00000000000E+00 -0.13427757367E+04  0.14709281169E+04  0.60048550865E+03 0.  0.
        4    1    3    3  502    0  0.10409445808E+03 -0.25939380234E+03 -0.93998459720E+03  0.98065970488E+03  0.12699999809E+01 0. -1.
       -4    1    3    3    0  502 -0.10409445808E+03  0.25939380234E+03 -0.40279113951E+03  0.49026841206E+03  0.12699999809E+01 0.  1.
</event>
<event>
 5   0  0.2179625E-02  0.5992539E+03  0.7818609E-02  0.9906955E-01
       -2   -1    0    0    0  501  0.00000000000E+00  0.00000000000E+00  0.38486267653E+03  0.38486267654E+03  0.25500000920E-02 0. -1.
        2   -1    0    0  501    0  0.00000000000E+00  0.00000000000E+00 -0.23326839004E+03  0.23326839005E+03  0.25500000920E-02 0.  1.
    10030    2    1    2    0    0  0.00000000000E+00  0.00000000000E+00  0.15159428649E+03  0.61813106659E+03  0.59925385922E+03 0.  0.
        1    1    3    3  502    0 -0.23563314731E+03 -0.14751061120E+02 -0.11450217044E+03  0.26239535243E+03  0.50400001928E-02 0.  1.
       -1    1    3    3    0  502  0.23563314731E+03  0.14751061120E+02  0.26609645693E+03  0.35573571416E+03  0.50400001928E-02 0. -1.
</event>
<event>
 5   0  0.2141800E-02  0.6005669E+03  0.7818609E-02  0.9904231E-01
       -2   -1    0    0    0  501  0.00000000000E+00  0.00000000000E+00  0.22519882634E+03  0.22519882635E+03  0.25500000920E-02 0. -1.
        2   -1    0    0  501    0  0.00000000000E+00  0.00000000000E+00 -0.40040234241E+03  0.40040234242E+03  0.25500000920E-02 0.  1.
    10030    2    1    2    0    0  0.00000000000E+00  0.00000000000E+00 -0.17520351607E+03  0.62560116877E+03  0.60056685749E+03 0.  0.
        2    1    3    3  502    0 -0.26540622851E+03 -0.10077084207E+03  0.14328591451E+02  0.28425435315E+03  0.25500000920E-02 0. -1.
       -2    1    3    3    0  502  0.26540622851E+03  0.10077084207E+03 -0.18953210752E+03  0.34134681562E+03  0.25500000920E-02 0.  1.
</event>
<event>
 5   0  0.2126207E-02  0.5869918E+03  0.7818609E-02  0.9932767E-01
        2   -1    0    0  501    0  0.00000000000E+00  0.00000000000E+00  0.51176167421E+03  0.51176167422E+03  0.25500000920E-02 0.  1.
       -2   -1    0    0    0  501  0.00000000000E+00  0.00000000000E+00 -0.16832025765E+03  0.16832025767E+03  0.25500000920E-02 0. -1.
    10030    2    1    2    0    0  0.00000000000E+00  0.00000000000E+00  0.34344141656E+03  0.68008193189E+03  0.58699184618E+03 0.  0.
        5    1    3    3  502    0 -0.14963391480E+03  0.24709682538E+02 -0.11935231985E+03  0.19304906921E+03  0.46999998093E+01 0. -1.
       -5    1    3    3    0  502  0.14963391480E+03 -0.24709682538E+02  0.46279373641E+03  0.48703286268E+03  0.46999998093E+01 0.  1.
</event>
<event>
 5   0  0.2141800E-02  0.6000163E+03  0.7818609E-02  0.9905372E-01
       -2   -1    0    0    0  501  0.00000000000E+00  0.00000000000E+00  0.57476719385E+03  0.57476719385E+03  0.25500000920E-02 0. -1.
        2   -1    0    0  501    0  0.00000000000E+00  0.00000000000E+00 -0.15659366508E+03  0.15659366510E+03  0.25500000920E-02 0.  1.
    10030    2    1    2    0    0  0.00000000000E+00  0.00000000000E+00  0.41817352877E+03  0.73136085896E+03  0.60001633799E+03 0.  0.
        2    1    3    3  502    0  0.11888995961E+03 -0.49222357867E+02 -0.12124959156E+03  0.17680250697E+03  0.25500000920E-02 0.  1.
       -2    1    3    3    0  502 -0.11888995961E+03  0.49222357867E+02  0.53942312033E+03  0.55455835199E+03  0.25500000920E-02 0. -1.
</event>
<event>
 5   0  0.1250390E-02  0.5997113E+03  0.7818609E-02  0.9906005E-01
       -1   -1    0    0    0  501  0.00000000000E+00  0.00000000000E+00  0.36444157949E+03  0.36444157953E+03  0.50400001928E-02 0.  1.
        1   -1    0    0  501    0  0.00000000000E+00  0.00000000000E+00 -0.24671555989E+03  0.24671555994E+03  0.50400001928E-02 0. -1.
    10030    2    1    2    0    0  0.00000000000E+00  0.00000000000E+00  0.11772601960E+03  0.61115713946E+03  0.59971129173E+03 0.  0.
        3    1    3    3  502    0  0.20356618102E+03 -0.21953980427E+03  0.75808121804E+02  0.30884267393E+03  0.10100000352E+00 0.  1.
       -3    1    3    3    0  502 -0.20356618102E+03  0.21953980427E+03  0.41917897800E+02  0.30231446553E+03  0.10100000352E+00 0. -1.
</event>
<event>
 5   0  0.2179625E-02  0.5963210E+03  0.7818609E-02  0.9913068E-01
        2   -1    0    0  501    0  0.00000000000E+00  0.00000000000E+00  0.11934313323E+04  0.11934313323E+04  0.25500000920E-02 0. -1.
       -2   -1    0    0    0  501  0.00000000000E+00  0.00000000000E+00 -0.74490826781E+02  0.74490826825E+02  0.25500000920E-02 0.  1.
    10030    2    1    2    0    0  0.00000000000E+00  0.00000000000E+00  0.11189405055E+04  0.12679221591E+04  0.59632100978E+03 0.  0.
        1    1    3    3  502    0  0.29615101681E+03 -0.12942781638E+02  0.49133936414E+03  0.57383561333E+03  0.50400001928E-02 0.  1.
       -1    1    3    3    0  502 -0.29615101681E+03  0.12942781638E+02  0.62760114134E+03  0.69408654575E+03  0.50400001928E-02 0. -1.
</event>
<event>
 5   0  0.1332555E-02  0.6012619E+03  0.7818609E-02  0.9902791E-01
        1   -1    0    0  501    0  0.00000000000E+00  0.00000000000E+00  0.15586383762E+04  0.15586383762E+04  0.50400001928E-02 0.  1.
       -1   -1    0    0    0  501  0.00000000000E+00  0.00000000000E+00 -0.57985851522E+02  0.57985851741E+02  0.50400001928E-02 0. -1.
    10030    2    1    2    0    0  0.00000000000E+00  0.00000000000E+00  0.15006525246E+04  0.16166242279E+04  0.60126191843E+03 0.  0.
        2    1    3    3  502    0  0.21567054494E+03 -0.11916928009E+03  0.28724276255E+03  0.37844881546E+03  0.25500000920E-02 0. -1.
       -2    1    3    3    0  502 -0.21567054494E+03  0.11916928009E+03  0.12134097621E+04  0.12381754124E+04  0.25500000920E-02 0.  1.
</event>
<event>
 5   0  0.1303808E-02  0.5899795E+03  0.7818609E-02  0.9926416E-01
       -1   -1    0    0    0  501  0.00000000000E+00  0.00000000000E+00  0.37256334118E+03  0.37256334121E+03  0.50400001928E-02 0. -1.
        1   -1    0    0  501    0  0.00000000000E+00  0.00000000000E+00 -0.23356819113E+03  0.23356819119E+03  0.50400001928E-02 0.  1.
    10030    2    1    2    0    0  0.00000000000E+00  0.00000000000E+00  0.13899515005E+03  0.60613153240E+03  0.58997947662E+03 0.  0.
        4    1    3    3  502    0  0.24470487695E+03  0.15927529174E+03  0.26295931892E+02  0.29315897444E+03  0.12699999809E+01 0.  1.
       -4    1    3    3    0  502 -0.24470487695E+03 -0.15927529174E+03  0.11269921815E+03  0.31297255796E+03  0.12699999809E+01 0. -1.
</event>
<event>
 5   0  0.2092587E-02  0.6119970E+03  0.7818609E-02  0.9880824E-01
        2   -1    0    0  501    0  0.00000000000E+00  0.00000000000E+00  0.82677693696E+03  0.82677693696E+03  0.25500000920E-02 0. -1.
       -2   -1    0    0    0  501  0.00000000000E+00  0.00000000000E+00 -0.11325312565E+03  0.11325312568E+03  0.25500000920E-02 0.  1.
    10030    2    1    2    0    0  0.00000000000E+00  0.00000000000E+00  0.71352381131E+03  0.94003006264E+03  0.61199696842E+03 0.  0.
        3    1    3    3  502    0  0.29300658169E+03 -0.88028457730E+02  0.34791208695E+03  0.46329763299E+03  0.10100000352E+00 0.  1.
       -3    1    3    3    0  502 -0.29300658169E+03  0.88028457730E+02  0.36561172436E+03  0.47673242965E+03  0.10100000352E+00 0. -1.
</event>
<event>
 5   0  0.2126207E-02  0.6230621E+03  0.7818609E-02  0.9858682E-01
        2   -1    0    0  501    0  0.00000000000E+00  0.00000000000E+00  0.15613650225E+04  0.15613650225E+04  0.25500000920E-02 0.  1.
       -2   -1    0    0    0  501  0.00000000000E+00  0.00000000000E+00 -0.62158164235E+02  0.62158164287E+02  0.25500000920E-02 0. -1.
    10030    2    1    2    0    0  0.00000000000E+00  0.00000000000E+00  0.14992068583E+04  0.16235231868E+04  0.62306206286E+03 0.  0.
        5    1    3    3  502    0 -0.21761787239E+03 -0.11597677530E+00  0.16886207157E+03  0.27548873125E+03  0.46999998093E+01 0. -1.
       -5    1    3    3    0  502  0.21761787239E+03  0.11597677530E+00  0.13303447867E+04  0.13480344556E+04  0.46999998093E+01 0.  1.
</event>
<event>
 5   0  0.8551000E-03  0.5993739E+03  0.7818609E-02  0.9906706E-01
       -3   -1    0    0    0  501  0.00000000000E+00  0.00000000000E+00  0.20407264091E+03  0.20407266590E+03  0.10100000352E+00 0. -1.
        3   -1    0    0  501    0  0.00000000000E+00  0.00000000000E+00 -0.44009945495E+03  0.44009946654E+03  0.10100000352E+00 0.  1.
    10030    2    1    2    0    0  0.00000000000E+00  0.00000000000E+00 -0.23602681404E+03  0.64417213244E+03  0.59937390606E+03 0.  0.
        4    1    3    3  502    0  0.15317354019E+03 -0.14696379385E+03 -0.34536679491E+03  0.40538910450E+03  0.12699999809E+01 0.  1.
       -4    1    3    3    0  502 -0.15317354019E+03  0.14696379385E+03  0.10933998087E+03  0.23878302794E+03  0.12699999809E+01 0. -1.
</event>
<event>
 5   0  0.1337051E-02  0.5963669E+03  0.7818609E-02  0.9912972E-01
       -1   -1    0    0    0  501  0.00000000000E+00  0.00000000000E+00  0.24756744438E+03  0.24756744443E+03  0.50400001928E-02 0.  1.
        1   -1    0    0  501    0  0.00000000000E+00  0.00000000000E+00 -0.35914812607E+03  0.35914812610E+03  0.50400001928E-02 0. -1.
    10030    2    1    2    0    0  0.00000000000E+00  0.00000000000E+00 -0.11158068169E+03  0.60671557053E+03  0.59636694660E+03 0.  0.
        5    1    3    3  502    0  0.25558310631E+03  0.12945260405E+03  0.28168036046E+02  0.28791705260E+03  0.46999998093E+01 0.  1.
       -5    1    3    3    0  502 -0.25558310631E+03 -0.12945260405E+03 -0.13974871774E+03  0.31879851793E+03  0.46999998093E+01 0. -1.
</event>
<event>
 5   0  0.2126207E-02  0.6012629E+03  0.7818609E-02  0.9902789E-01
        2   -1    0    0  501    0  0.00000000000E+00  0.00000000000E+00  0.69250964740E+03  0.69250964741E+03  0.25500000920E-02 0.  1.
       -2   -1    0    0    0  501  0.00000000000E+00  0.00000000000E+00 -0.13050976120E+03  0.13050976122E+03  0.25500000920E-02 0. -1.
    10030    2    1    2    0    0  0.00000000000E+00  0.00000000000E+00  0.56199988620E+03  0.82301940863E+03  0.60126289998E+03 0.  0.
        5    1    3    3  502    0  0.17924099892E+03  0.77082047066E+01 -0.49139028571E+02  0.18607387308E+03  0.46999998093E+01 0. -1.
       -5    1    3    3    0  502 -0.17924099892E+03 -0.77082047066E+01  0.61113891478E+03  0.63694553556E+03  0.46999998093E+01 0.  1.
</event>
<event>
 5   0  0.2179625E-02  0.5998330E+03  0.7818609E-02  0.9905753E-01
        2   -1    0    0  501    0  0.00000000000E+00  0.00000000000E+00  0.35855742836E+03  0.35855742837E+03  0.25500000920E-02 0. -1.
       -2   -1    0    0    0  501  0.00000000000E+00  0.00000000000E+00 -0.25086609171E+03  0.25086609172E+03  0.25500000920E-02 0.  1.
    10030    2    1    2    0    0  0.00000000000E+00  0.00000000000E+00  0.10769133665E+03  0.60942352009E+03  0.59983297913E+03 0.  0.
        1    1    3    3  502    0 -0.43325134415E+02  0.19841197775E+02 -0.24699535861E+03  0.25155008964E+03  0.50400001928E-02 0.  1.
       -1    1    3    3    0  502  0.43325134415E+02 -0.19841197775E+02  0.35468669526E+03  0.35787343044E+03  0.50400001928E-02 0. -1.
</event>
<event>
 5   0  0.1303808E-02  0.5997471E+03  0.7818609E-02  0.9905931E-01
        1   -1    0    0  501    0  0.00000000000E+00  0.00000000000E+00  0.22596216848E+03  0.22596216854E+03  0.50400001928E-02 0.  1.
       -1   -1    0    0    0  501  0.00000000000E+00  0.00000000000E+00 -0.39796105419E+03  0.39796105422E+03  0.50400001928E-02 0. -1.
    10030    2    1    2    0    0  0.00000000000E+00  0.00000000000E+00 -0.17199888570E+03  0.62392322276E+03  0.59974708938E+03 0.  0.
        4    1    3    3  502    0  0.20082306108E+03  0.19646419224E+03  0.23081715275E+02  0.28189086395E+03  0.12699999809E+01 0.  1.
       -4    1    3    3    0  502 -0.20082306108E+03 -0.19646419224E+03 -0.19508060098E+03  0.34203235881E+03  0.12699999809E+01 0. -1.
</event>
<event>
 5   0  0.8551000E-03  0.5900651E+03  0.7818609E-02  0.9926235E-01
        3   -1    0    0  501    0  0.00000000000E+00  0.00000000000E+00  0.19110034545E+03  0.19110037214E+03  0.10100000352E+00 0. -1.
       -3   -1    0    0    0  501  0.00000000000E+00  0.00000000000E+00 -0.45548941091E+03  0.45548942211E+03  0.10100000352E+00 0.  1.
    10030    2    1    2    0    0  0.00000000000E+00  0.00000000000E+00 -0.26438906545E+03  0.64658979425E+03  0.59006506768E+03 0.  0.
        3    1    3    3  502    0 -0.12617836562E+03  0.23183496543E+03 -0.27663895585E+03  0.38235788633E+03  0.10100000352E+00 0.  1.
       -3    1    3    3    0  502  0.12617836562E+03 -0.23183496543E+03  0.12249890393E+02  0.26423190792E+03  0.10100000352E+00 0. -1.
</event>
<event>
 5   0  0.1337051E-02  0.5990889E+03  0.7818609E-02  0.9907298E-01
        1   -1    0    0  501    0  0.00000000000E+00  0.00000000000E+00  0.10428070323E+04  0.10428070323E+04  0.50400001928E-02 0.  1.
       -1   -1    0    0    0  501  0.00000000000E+00  0.00000000000E+00 -0.86043591829E+02  0.86043591976E+02  0.50400001928E-02 0. -1.
    10030    2    1    2    0    0  0.00000000000E+00  0.00000000000E+00  0.95676344044E+03  0.11288506243E+04  0.59908885061E+03 0.  0.
        5    1    3    3  502    0  0.56813011405E+02 -0.97501439204E+02 -0.44384433218E+02  0.12135203674E+03  0.46999998093E+01 0. -1.
       -5    1    3    3    0  502 -0.56813011405E+02  0.97501439204E+02  0.10011478737E+04  0.10074985875E+04  0.46999998093E+01 0.  1.
</event>
<event>
 5   0  0.2126207E-02  0.6014301E+03  0.7818609E-02  0.9902444E-01
       -2   -1    0    0    0  501  0.00000000000E+00  0.00000000000E+00  0.80423346845E+03  0.80423346845E+03  0.25500000920E-02 0. -1.
        2   -1    0    0  501    0  0.00000000000E+00  0.00000000000E+00 -0.11244190026E+03  0.11244190029E+03  0.25500000920E-02 0.  1.
    10030    2    1    2    0    0  0.00000000000E+00  0.00000000000E+00  0.69179156819E+03  0.91667536875E+03  0.60143009390E+03 0.  0.
        5    1    3    3  502    0 -0.18807682144E+03 -0.50053470376E+02 -0.34301559933E+01  0.19471028896E+03  0.46999998093E+01 0.  1.
       -5    1    3    3    0  502  0.18807682144E+03  0.50053470376E+02  0.69522172418E+03  0.72196507979E+03  0.46999998093E+01 0. -1.
</event>
<event>
 5   0  0.2141800E-02  0.6000753E+03  0.7818609E-02  0.9905250E-01
       -2   -1    0    0    0  501  0.00000000000E+00  0.00000000000E+00  0.24503621768E+03  0.24503621769E+03  0.25500000920E-02 0.  1.
        2   -1    0    0  501    0  0.00000000000E+00  0.00000000000E+00 -0.36738481295E+03  0.36738481296E+03  0.25500000920E-02 0. -1.
    10030    2    1    2    0    0  0.00000000000E+00  0.00000000000E+00 -0.12234859527E+03  0.61242103065E+03  0.60007527862E+03 0.  0.
        2    1    3    3  502    0  0.83561667493E+01 -0.14939086552E+03 -0.32659238862E+03  0.35923536092E+03  0.25500000920E-02 0. -1.
       -2    1    3    3    0  502 -0.83561667493E+01  0.14939086552E+03  0.20424379335E+03  0.25318566972E+03  0.25500000920E-02 0.  1.
</event>
<event>
 5   0  0.2092587E-02  0.5973519E+03  0.7818609E-02  0.9910915E-01
       -2   -1    0    0    0  501  0.00000000000E+00  0.00000000000E+00  0.43361683156E+02  0.43361683231E+02  0.25500000920E-02 0.  1.
        2   -1    0    0  501    0  0.00000000000E+00  0.00000000000E+00 -0.20572847995E+04  0.20572847995E+04  0.25500000920E-02 0. -1.
    10030    2    1    2    0    0  0.00000000000E+00  0.00000000000E+00 -0.20139231163E+04  0.21006464827E+04  0.59735192882E+03 0.  0.
        3    1    3    3  502    0 -0.28060362556E+03 -0.10156995188E+03 -0.10503843101E+04  0.10919533226E+04  0.10100000352E+00 0. -1.
       -3    1    3    3    0  502  0.28060362556E+03  0.10156995188E+03 -0.96353880625E+03  0.10086931601E+04  0.10100000352E+00 0.  1.
</event>
<event>
 5   0  0.1276705E-02  0.6021735E+03  0.7818609E-02  0.9900907E-01
        1   -1    0    0  501    0  0.00000000000E+00  0.00000000000E+00  0.95265625007E+03  0.95265625009E+03  0.50400001928E-02 0. -1.
       -1   -1    0    0    0  501  0.00000000000E+00  0.00000000000E+00 -0.95158378008E+02  0.95158378141E+02  0.50400001928E-02 0.  1.
    10030    2    1    2    0    0  0.00000000000E+00  0.00000000000E+00  0.85749787207E+03  0.10478146282E+04  0.60217347545E+03 0.  0.
        1    1    3    3  502    0 -0.13603087777E+02 -0.22843134230E+03  0.76922784479E+03  0.80254432860E+03  0.50400001928E-02 0. -1.
       -1    1    3    3    0  502  0.13603087777E+02  0.22843134230E+03  0.88270027275E+02  0.24527029963E+03  0.50400001928E-02 0.  1.
</event>
<event>
 5   0  0.2092587E-02  0.5673700E+03  0.7818609E-02  0.9975515E-01
        2   -1    0    0  501    0  0.00000000000E+00  0.00000000000E+00  0.77488894639E+03  0.77488894639E+03  0.25500000920E-02 0.  1.
       -2   -1    0    0    0  501  0.00000000000E+00  0.00000000000E+00 -0.10385642069E+03  0.10385642072E+03  0.25500000920E-02 0. -1.
    10030    2    1    2    0    0  0.00000000000E+00  0.00000000000E+00  0.67103252570E+03  0.87874536712E+03  0.56737004652E+03 0.  0.
        3    1    3    3  502    0 -0.16034858436E+03  0.10738172687E+03  0.13474080576E+02  0.19345300416E+03  0.10100000352E+00 0. -1.
       -3    1    3    3    0  502  0.16034858436E+03 -0.10738172687E+03  0.65755844512E+03  0.68529236295E+03  0.10100000352E+00 0.  1.
</event>
<event>
 5   0  0.2126207E-02  0.6022822E+03  0.7818609E-02  0.9900682E-01
       -2   -1    0    0    0  501  0.00000000000E+00  0.00000000000E+00  0.37083463526E+03  0.37083463527E+03  0.25500000920E-02 0. -1.
        2   -1    0    0  501    0  0.00000000000E+00  0.00000000000E+00 -0.24454557442E+03  0.24454557444E+03  0.25500000920E-02 0.  1.
    10030    2    1    2    0    0  0.00000000000E+00  0.00000000000E+00  0.12628906084E+03  0.61538020971E+03  0.60228222256E+03 0.  0.
        5    1    3    3  502    0 -0.42801715947E+02  0.15689512609E+03 -0.19577479593E+03  0.25455437179E+03  0.46999998093E+01 0.  1.
       -5    1    3    3    0  502  0.42801715947E+02 -0.15689512609E+03  0.32206385677E+03  0.36082583792E+03  0.46999998093E+01 0. -1.
</event>
<event>
 5   0  0.1303808E-02  0.5998520E+03  0.7818609E-02  0.9905713E-01
        1   -1    0    0  501    0  0.00000000000E+00  0.00000000000E+00  0.43053386243E+03  0.43053386246E+03  0.50400001928E-02 0.  1.
       -1   -1    0    0    0  501  0.00000000000E+00  0.00000000000E+00 -0.20893969545E+03  0.20893969551E+03  0.50400001928E-02 0. -1.
    10030    2    1    2    0    0  0.00000000000E+00  0.00000000000E+00  0.22159416699E+03  0.63947355797E+03  0.59985202884E+03 0.  0.
        4    1    3    3  502    0  0.12720904118E+02  0.29618474104E+03  0.15926177797E+03  0.33653105213E+03  0.12699999809E+01 0. -1.
       -4    1    3    3    0  502 -0.12720904118E+02 -0.29618474104E+03  0.62332389022E+02  0.30294250584E+03  0.12699999809E+01 0.  1.
</event>
<event>
 5   0  0.1332555E-02  0.6009196E+03  0.7818609E-02  0.9903500E-01
        1   -1    0    0  501    0  0.00000000000E+00  0.00000000000E+00  0.37378482995E+03  0.37378482998E+03  0.50400001928E-02 0.  1.
       -1   -1    0    0    0  501  0.00000000000E+00  0.00000000000E+00 -0.24151887829E+03  0.24151887834E+03  0.50400001928E-02 0. -1.
    10030    2    1    2    0    0  0.00000000000E+00  0.00000000000E+00  0.13226595166E+03  0.61530370832E+03  0.60091960486E+03 0.  0.
        2    1    3    3  502    0  0.56615419184E+02 -0.26913433237E+03  0.19001451385E+03  0.33428148323E+03  0.25500000920E-02 0.  1.
       -2    1    3    3    0  502 -0.56615419184E+02  0.26913433237E+03 -0.57748562196E+02  0.28102222509E+03  0.25500000920E-02 0. -1.
</event>
<event>
 5   0  0.2142838E-02  0.5992227E+03  0.7818609E-02  0.9907020E-01
        2   -1    0    0  501    0  0.00000000000E+00  0.00000000000E+00  0.27938621733E+03  0.27938621734E+03  0.25500000920E-02 0.  1.
       -2   -1    0    0    0  501  0.00000000000E+00  0.00000000000E+00 -0.32130061295E+03  0.32130061296E+03  0.25500000920E-02 0. -1.
    10030    2    1    2    0    0  0.00000000000E+00  0.00000000000E+00 -0.41914395621E+02  0.60068683030E+03  0.59922270612E+03 0.  0.
        4    1    3    3  502    0 -0.79393414066E+02 -0.90086112550E+02 -0.29612110747E+03  0.31954365126E+03  0.12699999809E+01 0. -1.
       -4    1    3    3    0  502  0.79393414066E+02  0.90086112550E+02  0.25420671185E+03  0.28114317904E+03  0.12699999809E+01 0.  1.
</event>
<event>
 5   0  0.2142838E-02  0.6014407E+03  0.7818609E-02  0.9902422E-01
        2   -1    0    0  501    0  0.00000000000E+00  0.00000000000E+00  0.50980710410E+03  0.50980710411E+03  0.25500000920E-02 0.  1.
       -2   -1    0    0    0  501  0.00000000000E+00  0.00000000000E+00 -0.17738614619E+03  0.17738614621E+03  0.25500000920E-02 0. -1.
    10030    2    1    2    0    0  0.00000000000E+00  0.00000000000E+00  0.33242095791E+03  0.68719325032E+03  0.60144066210E+03 0.  0.
        4    1    3    3  502    0 -0.21319903711E+03  0.15740070726E+03  0.38103287840E+01  0.26503762671E+03  0.12699999809E+01 0. -1.
       -4    1    3    3    0  502  0.21319903711E+03 -0.15740070726E+03  0.32861062913E+03  0.42215562361E+03  0.12699999809E+01 0.  1.
</event>
<event>
 5   0  0.2141800E-02  0.5996927E+03  0.7818609E-02  0.9906044E-01
       -2   -1    0    0    0  501  0.00000000000E+00  0.00000000000E+00  0.40275271826E+02  0.40275271906E+02  0.25500000920E-02 0. -1.
        2   -1    0    0  501    0  0.00000000000E+00  0.00000000000E+00 -0.22323332673E+04  0.22323332673E+04  0.25500000920E-02 0.  1.
    10030    2    1    2    0    0  0.00000000000E+00  0.00000000000E+00 -0.21920579954E+04  0.22726085392E+04  0.59969268542E+03 0.  0.
        2    1    3    3  502    0 -0.29184836837E+03  0.68322742963E+02 -0.10656264261E+04  0.11069792895E+04  0.25500000920E-02 0. -1.
       -2    1    3    3    0  502  0.29184836837E+03 -0.68322742963E+02 -0.11264315693E+04  0.11656292497E+04  0.25500000920E-02 0.  1.
</event>
<event>
 5   0  0.2179625E-02  0.5977690E+03  0.7818609E-02  0.9910045E-01
       -2   -1    0    0    0  501  0.00000000000E+00  0.00000000000E+00  0.13887478185E+03  0.13887478187E+03  0.25500000920E-02 0. -1.
        2   -1    0    0  501    0  0.00000000000E+00  0.00000000000E+00 -0.64325539901E+03  0.64325539902E+03  0.25500000920E-02 0.  1.
    10030    2    1    2    0    0  0.00000000000E+00  0.00000000000E+00 -0.50438061717E+03  0.78213018089E+03  0.59776902971E+03 0.  0.
        1    1    3    3  502    0  0.70571785801E+02  0.23724256934E+03 -0.32986646294E+02  0.24970489086E+03  0.50400001928E-02 0. -1.
       -1    1    3    3    0  502 -0.70571785801E+02 -0.23724256934E+03 -0.47139397087E+03  0.53242529003E+03  0.50400001928E-02 0.  1.
</event>
<event>
 5   0  0.2142838E-02  0.6024343E+03  0.7818609E-02  0.9900368E-01
        2   -1    0    0  501    0  0.00000000000E+00  0.00000000000E+00  0.80579035945E+03  0.80579035945E+03  0.25500000920E-02 0. -1.
       -2   -1    0    0    0  501  0.00000000000E+00  0.00000000000E+00 -0.11259973423E+03  0.11259973426E+03  0.25500000920E-02 0.  1.
    10030    2    1    2    0    0  0.00000000000E+00  0.00000000000E+00  0.69319062522E+03  0.91839009371E+03  0.60243432947E+03 0.  0.
        4    1    3    3  502    0 -0.23974928986E+03  0.53618550650E+02  0.61228773660E+03  0.65973673253E+03  0.12699999809E+01 0. -1.
       -4    1    3    3    0  502  0.23974928986E+03 -0.53618550650E+02  0.80902888623E+02  0.25865336118E+03  0.12699999809E+01 0.  1.
</event>
<event>
 5   0  0.2092587E-02  0.6052813E+03  0.7818609E-02  0.9894509E-01
        2   -1    0    0  501    0  0.00000000000E+00  0.00000000000E+00  0.11710745903E+03  0.11710745905E+03  0.25500000920E-02 0. -1.
       -2   -1    0    0    0  501  0.00000000000E+00  0.00000000000E+00 -0.78211384447E+03  0.78211384448E+03  0.25500000920E-02 0.  1.
    10030    2    1    2    0    0  0.00000000000E+00  0.00000000000E+00 -0.66500638545E+03  0.89922130353E+03  0.60528130653E+03 0.  0.
        3    1    3    3  502    0 -0.12660566072E+03  0.99562046661E+02 -0.71315324904E+03  0.73111501235E+03  0.10100000352E+00 0.  1.
       -3    1    3    3    0  502  0.12660566072E+03 -0.99562046661E+02  0.48146863592E+02  0.16810629118E+03  0.10100000352E+00 0. -1.
</event>
<event>
 5   0  0.8551000E-03  0.6002058E+03  0.7818609E-02  0.9904979E-01
       -3   -1    0    0    0  501  0.00000000000E+00  0.00000000000E+00  0.45753889561E+03  0.45753890676E+03  0.10100000352E+00 0.  1.
        3   -1    0    0  501    0  0.00000000000E+00  0.00000000000E+00 -0.19683950094E+03  0.19683952685E+03  0.10100000352E+00 0. -1.
    10030    2    1    2    0    0  0.00000000000E+00  0.00000000000E+00  0.26069939467E+03  0.65437843361E+03  0.60020576471E+03 0.  0.
        3    1    3    3  502    0 -0.24254817290E+03 -0.17028440306E+03  0.18189631722E+03  0.34772499841E+03  0.10100000352E+00 0.  1.
       -3    1    3    3    0  502  0.24254817290E+03  0.17028440306E+03  0.78803077448E+02  0.30665343520E+03  0.10100000352E+00 0. -1.
</event>
<event>
 5   0  0.1276705E-02  0.6012305E+03  0.7818609E-02  0.9902856E-01
        1   -1    0    0  501    0  0.00000000000E+00  0.00000000000E+00  0.96138936910E+03  0.96138936911E+03  0.50400001928E-02 0.  1.
       -1   -1    0    0    0  501  0.00000000000E+00  0.00000000000E+00 -0.93998878245E+02  0.93998878380E+02  0.50400001928E-02 0. -1.
    10030    2    1    2    0    0  0.00000000000E+00  0.00000000000E+00  0.86739049086E+03  0.10553882475E+04  0.60123047937E+03 0.  0.
        1    1    3    3  502    0 -0.17978459380E+03  0.23618173851E+03  0.35014930363E+03  0.45903033520E+03  0.50400001928E-02 0. -1.
       -1    1    3    3    0  502  0.17978459380E+03 -0.23618173851E+03  0.51724118722E+03  0.59635791229E+03  0.50400001928E-02 0.  1.
</event>
<event>
 5   0  0.1276705E-02  0.5984444E+03  0.7818609E-02  0.9908639E-01
        1   -1    0    0  501    0  0.00000000000E+00  0.00000000000E+00  0.61530192740E+03  0.61530192742E+03  0.50400001928E-02 0. -1.
       -1   -1    0    0    0  501  0.00000000000E+00  0.00000000000E+00 -0.14551217203E+03  0.14551217212E+03  0.50400001928E-02 0.  1.
    10030    2    1    2    0    0  0.00000000000E+00  0.00000000000E+00  0.46978975537E+03  0.76081409954E+03  0.59844438322E+03 0.  0.
        1    1    3    3  502    0  0.29413298195E+02 -0.17316191204E+03  0.54286856478E+03  0.57057555901E+03  0.50400001928E-02 0. -1.
       -1    1    3    3    0  502 -0.29413298195E+02  0.17316191204E+03 -0.73078809407E+02  0.19023854053E+03  0.50400001928E-02 0.  1.
</event>
<event>
 5   0  0.1303808E-02  0.6006147E+03  0.7818609E-02  0.9904132E-01
        1   -1    0    0  501    0  0.00000000000E+00  0.00000000000E+00  0.15562878816E+03  0.15562878824E+03  0.50400001928E-02 0.  1.
       -1   -1    0    0    0  501  0.00000000000E+00  0.00000000000E+00 -0.57948475717E+03  0.57948475719E+03  0.50400001928E-02 0. -1.
    10030    2    1    2    0    0  0.00000000000E+00  0.00000000000E+00 -0.42385596901E+03  0.73511354544E+03  0.60061472028E+03 0.  0.
        4    1    3    3  502    0  0.11381888013E+03 -0.66722681246E+02 -0.54210989199E+03  0.55793494384E+03  0.12699999809E+01 0. -1.
       -4    1    3    3    0  502 -0.11381888013E+03  0.66722681246E+02  0.11825392297E+03  0.17717860160E+03  0.12699999809E+01 0.  1.
</event>
<event>
 5   0  0.1276705E-02  0.6002877E+03  0.7818609E-02  0.9904809E-01
        1   -1    0    0  501    0  0.00000000000E+00  0.00000000000E+00  0.59384426865E+03  0.59384426867E+03  0.50400001928E-02 0. -1.
       -1   -1    0    0    0  501  0.00000000000E+00  0.00000000000E+00 -0.15170025492E+03  0.15170025501E+03  0.50400001928E-02 0.  1.
    10030    2    1    2    0    0  0.00000000000E+00  0.00000000000E+00  0.44214401373E+03  0.74554452368E+03  0.60028768762E+03 0.  0.
        1    1    3    3  502    0  0.16917781984E+03  0.11324331173E+03 -0.52843135752E+02  0.21032731492E+03  0.50400001928E-02 0.  1.
       -1    1    3    3    0  502 -0.16917781984E+03 -0.11324331173E+03  0.49498714948E+03  0.53521720876E+03  0.50400001928E-02 0. -1.
</event>
<event>
 5   0  0.2179625E-02  0.6003911E+03  0.7818609E-02  0.9904595E-01
       -2   -1    0    0    0  501  0.00000000000E+00  0.00000000000E+00  0.46945681429E+03  0.46945681430E+03  0.25500000920E-02 0.  1.
        2   -1    0    0  501    0  0.00000000000E+00  0.00000000000E+00 -0.19196094684E+03  0.19196094686E+03  0.25500000920E-02 0. -1.
    10030    2    1    2    0    0  0.00000000000E+00  0.00000000000E+00  0.27749586745E+03  0.66141776115E+03  0.60039112112E+03 0.  0.
        1    1    3    3  502    0  0.65662920356E+02  0.98689180483E+02 -0.16508682485E+03  0.20323590534E+03  0.50400001928E-02 0. -1.
       -1    1    3    3    0  502 -0.65662920356E+02 -0.98689180483E+02  0.44258269230E+03  0.45818185582E+03  0.50400001928E-02 0.  1.
</event>
<event>
 5   0  0.2142838E-02  0.6033895E+03  0.7818609E-02  0.9898399E-01
        2   -1    0    0  501    0  0.00000000000E+00  0.00000000000E+00  0.53177757948E+03  0.53177757948E+03  0.25500000920E-02 0. -1.
       -2   -1    0    0    0  501  0.00000000000E+00  0.00000000000E+00 -0.17116128541E+03  0.17116128543E+03  0.25500000920E-02 0.  1.
    10030    2    1    2    0    0  0.00000000000E+00  0.00000000000E+00  0.36061629407E+03  0.70293886491E+03  0.60338953940E+03 0.  0.
        4    1    3    3  502    0 -0.19980364015E+02 -0.68026979440E+02 -0.16131467455E+03  0.17621271805E+03  0.12699999809E+01 0.  1.
       -4    1    3    3    0  502  0.19980364015E+02  0.68026979440E+02  0.52193096862E+03  0.52672614686E+03  0.12699999809E+01 0. -1.
</event>
<event>
 5   0  0.2141800E-02  0.5995377E+03  0.7818609E-02  0.9906366E-01
        2   -1    0    0  501    0  0.00000000000E+00  0.00000000000E+00  0.44456824817E+03  0.44456824818E+03  0.25500000920E-02 0.  1.
       -2   -1    0    0    0  501  0.00000000000E+00  0.00000000000E+00 -0.20213177186E+03  0.20213177187E+03  0.25500000920E-02 0. -1.
    10030    2    1    2    0    0  0.00000000000E+00  0.00000000000E+00  0.24243647631E+03  0.64670002005E+03  0.59953771432E+03 0.  0.
        2    1    3    3  502    0 -0.16110021071E+03 -0.22889040198E+03  0.54575205151E+01  0.27995335066E+03  0.25500000920E-02 0. -1.
       -2    1    3    3    0  502  0.16110021071E+03  0.22889040198E+03  0.23697895580E+03  0.36674666939E+03  0.25500000920E-02 0.  1.
</event>
<event>
 5   0  0.1337051E-02  0.6014775E+03  0.7818609E-02  0.9902345E-01
        1   -1    0    0  501    0  0.00000000000E+00  0.00000000000E+00  0.73507092493E+03  0.73507092494E+03  0.50400001928E-02 0.  1.
       -1   -1    0    0    0  501  0.00000000000E+00  0.00000000000E+00 -0.12304090690E+03  0.12304090700E+03  0.50400001928E-02 0. -1.
    10030    2    1    2    0    0  0.00000000000E+00  0.00000000000E+00  0.61203001803E+03  0.85811183195E+03  0.60147749182E+03 0.  0.
        5    1    3    3  502    0  0.18809156571E+03 -0.11243102555E+02 -0.28316535284E+02  0.19060105093E+03  0.46999998093E+01 0. -1.
       -5    1    3    3    0  502 -0.18809156571E+03  0.11243102555E+02  0.64034655331E+03  0.66751078102E+03  0.46999998093E+01 0.  1.
</event>
<event>
 5   0  0.1250390E-02  0.5975794E+03  0.7818609E-02  0.9910441E-01
        1   -1    0    0  501    0  0.00000000000E+00  0.00000000000E+00  0.24122446426E+03  0.24122446432E+03  0.50400001928E-02 0.  1.
       -1   -1    0    0    0  501  0.00000000000E+00  0.00000000000E+00 -0.37009218090E+03  0.37009218093E+03  0.50400001928E-02 0. -1.
    10030    2    1    2    0    0  0.00000000000E+00  0.00000000000E+00 -0.12886771664E+03  0.61131664525E+03  0.59757941093E+03 0.  0.
        3    1    3    3  502    0 -0.17643048275E+03  0.12497577394E+03  0.14653154166E+03  0.26118606819E+03  0.10100000352E+00 0.  1.
       -3    1    3    3    0  502  0.17643048275E+03 -0.12497577394E+03 -0.27539925830E+03  0.35013057706E+03  0.10100000352E+00 0. -1.
</event>
<event>
 5   0  0.2179625E-02  0.6004744E+03  0.7818609E-02  0.9904422E-01
       -2   -1    0    0    0  501  0.00000000000E+00  0.00000000000E+00  0.35764687094E+02  0.35764687185E+02  0.25500000920E-02 0.  1.
        2   -1    0    0  501    0  0.00000000000E+00  0.00000000000E+00 -0.25204292043E+04  0.25204292043E+04  0.25500000920E-02 0. -1.
    10030    2    1    2    0    0  0.00000000000E+00  0.00000000000E+00 -0.24846645172E+04  0.25561938915E+04  0.60047435233E+03 0.  0.
        1    1    3    3  502    0 -0.27101586701E+03 -0.12795980021E+03 -0.13183700653E+04  0.13520070044E+04  0.50400001928E-02 0. -1.
       -1    1    3    3    0  502  0.27101586701E+03  0.12795980021E+03 -0.11662944519E+04  0.12041868871E+04  0.50400001928E-02 0.  1.
</event>
<event>
 5   0  0.1303808E-02  0.5981291E+03  0.7818609E-02  0.9909295E-01
        1   -1    0    0  501    0  0.00000000000E+00  0.00000000000E+00  0.10012766687E+04  0.10012766687E+04  0.50400001928E-02 0. -1.
       -1   -1    0    0    0  501  0.00000000000E+00  0.00000000000E+00 -0.89325566714E+02  0.89325566856E+02  0.50400001928E-02 0.  1.
    10030    2    1    2    0    0  0.00000000000E+00  0.00000000000E+00  0.91195110196E+03  0.10906022355E+04  0.59812910296E+03 0.  0.
        4    1    3    3  502    0  0.26662086201E+02  0.25110134070E+03  0.16381018663E+03  0.30099524961E+03  0.12699999809E+01 0.  1.
       -4    1    3    3    0  502 -0.26662086201E+02 -0.25110134070E+03  0.74814091533E+03  0.78960698594E+03  0.12699999809E+01 0. -1.
</event>
<event>
 5   0  0.1276705E-02  0.6016361E+03  0.7818609E-02  0.9902018E-01
        1   -1    0    0  501    0  0.00000000000E+00  0.00000000000E+00  0.39164923118E+03  0.39164923121E+03  0.50400001928E-02 0.  1.
       -1   -1    0    0    0  501  0.00000000000E+00  0.00000000000E+00 -0.23105239772E+03  0.23105239778E+03  0.50400001928E-02 0. -1.
    10030    2    1    2    0    0  0.00000000000E+00  0.00000000000E+00  0.16059683346E+03  0.62270162899E+03  0.60163608255E+03 0.  0.
        1    1    3    3  502    0  0.10313667159E+03  0.63736839661E+02  0.36524117757E+03  0.38483850583E+03  0.50400001928E-02 0.  1.
       -1    1    3    3    0  502 -0.10313667159E+03 -0.63736839661E+02 -0.20464434411E+03  0.23786312316E+03  0.50400001928E-02 0. -1.
</event>
<event>
 5   0  0.1276705E-02  0.5995118E+03  0.7818609E-02  0.9906419E-01
       -1   -1    0    0    0  501  0.00000000000E+00  0.00000000000E+00  0.19356205899E+03  0.19356205905E+03  0.50400001928E-02 0.  1.
        1   -1    0    0  501    0  0.00000000000E+00  0.00000000000E+00 -0.46421086405E+03  0.46421086408E+03  0.50400001928E-02 0. -1.
    10030    2    1    2    0    0  0.00000000000E+00  0.00000000000E+00 -0.27064880506E+03  0.65777292313E+03  0.59951183701E+03 0.  0.
        1    1    3    3  502    0 -0.10949808243E+03 -0.12157771691E+03 -0.41089517744E+03  0.44227346537E+03  0.50400001928E-02 0. -1.
       -1    1    3    3    0  502  0.10949808243E+03  0.12157771691E+03  0.14024637237E+03  0.21549945776E+03  0.50400001928E-02 0.  1.
</event>
<event>
 5   0  0.8551000E-03  0.6014998E+03  0.7818609E-02  0.9902299E-01
        3   -1    0    0  501    0  0.00000000000E+00  0.00000000000E+00  0.28753041275E+03  0.28753043049E+03  0.10100000352E+00 0.  1.
       -3   -1    0    0    0  501  0.00000000000E+00  0.00000000000E+00 -0.31457716412E+03  0.31457718033E+03  0.10100000352E+00 0. -1.
    10030    2    1    2    0    0  0.00000000000E+00  0.00000000000E+00 -0.27046751361E+02  0.60210761082E+03  0.60149983230E+03 0.  0.
        4    1    3    3  502    0  0.17852065696E+03 -0.23974137155E+03  0.19726884926E+02  0.29956019943E+03  0.12699999809E+01 0. -1.
       -4    1    3    3    0  502 -0.17852065696E+03  0.23974137155E+03 -0.46773636287E+02  0.30254741140E+03  0.12699999809E+01 0.  1.
</event>
<event>
 5   0  0.1337051E-02  0.5964896E+03  0.7818609E-02  0.9912716E-01
       -1   -1    0    0    0  501  0.00000000000E+00  0.00000000000E+00  0.40285801810E+03  0.40285801814E+03  0.50400001928E-02 0.  1.
        1   -1    0    0  501    0  0.00000000000E+00  0.00000000000E+00 -0.22079728312E+03  0.22079728318E+03  0.50400001928E-02 0. -1.
    10030    2    1    2    0    0  0.00000000000E+00  0.00000000000E+00  0.18206073498E+03  0.62365530131E+03  0.59648958384E+03 0.  0.
        5    1    3    3  502    0  0.28911647083E+03  0.61473394005E+02  0.49727409150E+02  0.29977027387E+03  0.46999998093E+01 0. -1.
       -5    1    3    3    0  502 -0.28911647083E+03 -0.61473394005E+02  0.13233332583E+03  0.32388502744E+03  0.46999998093E+01 0.  1.
</event>
<event>
 5   0  0.1250390E-02  0.6007504E+03  0.7818609E-02  0.9903850E-01
       -1   -1    0    0    0  501  0.00000000000E+00  0.00000000000E+00  0.37361997653E+03  0.37361997657E+03  0.50400001928E-02 0.  1.
        1   -1    0    0  501    0  0.00000000000E+00  0.00000000000E+00 -0.24148937899E+03  0.24148937904E+03  0.50400001928E-02 0. -1.
    10030    2    1    2    0    0  0.00000000000E+00  0.00000000000E+00  0.13213059754E+03  0.61510935561E+03  0.60075038457E+03 0.  0.
        3    1    3    3  502    0  0.11620416668E+03 -0.64687071122E+02  0.34183041546E+03  0.36679131487E+03  0.10100000352E+00 0.  1.
       -3    1    3    3    0  502 -0.11620416668E+03  0.64687071122E+02 -0.20969981792E+03  0.24831804075E+03  0.10100000352E+00 0. -1.
</event>
<event>
 5   0  0.2142838E-02  0.6003040E+03  0.7818609E-02  0.9904776E-01
       -2   -1    0    0    0  501  0.00000000000E+00  0.00000000000E+00  0.10540313947E+03  0.10540313950E+03  0.25500000920E-02 0. -1.
        2   -1    0    0  501    0  0.00000000000E+00  0.00000000000E+00 -0.85472999584E+03  0.85472999585E+03  0.25500000920E-02 0.  1.
    10030    2    1    2    0    0  0.00000000000E+00  0.00000000000E+00 -0.74932685638E+03  0.96013313534E+03  0.60030400624E+03 0.  0.
        4    1    3    3  502    0  0.95811476839E+02 -0.80404811167E+01 -0.82942853111E+03  0.83498370616E+03  0.12699999809E+01 0.  1.
       -4    1    3    3    0  502 -0.95811476839E+02  0.80404811167E+01  0.80101674734E+02  0.12514942919E+03  0.12699999809E+01 0. -1.
</event>
<event>
 5   0  0.2179625E-02  0.5987700E+03  0.7818609E-02  0.9907961E-01
       -2   -1    0    0    0  501  0.00000000000E+00  0.00000000000E+00  0.80774078838E+02  0.80774078878E+02  0.25500000920E-02 0. -1.
        2   -1    0    0  501    0  0.00000000000E+00  0.00000000000E+00 -0.11096551647E+04  0.11096551647E+04  0.25500000920E-02 0.  1.
    10030    2    1    2    0    0  0.00000000000E+00  0.00000000000E+00 -0.10288810859E+04  0.11904292436E+04  0.59876998516E+03 0.  0.
        1    1    3    3  502    0 -0.78618147406E+02  0.18822639932E+03 -0.78767290563E+02  0.21866475846E+03  0.50400001928E-02 0. -1.
       -1    1    3    3    0  502  0.78618147406E+02 -0.18822639932E+03 -0.95011379532E+03  0.97176448514E+03  0.50400001928E-02 0.  1.
</event>
<event>
 5   0  0.1303808E-02  0.6014708E+03  0.7818609E-02  0.9902359E-01
       -1   -1    0    0    0  501  0.00000000000E+00  0.00000000000E+00  0.92762906296E+03  0.92762906298E+03  0.50400001928E-02 0. -1.
        1   -1    0    0  501    0  0.00000000000E+00  0.00000000000E+00 -0.97497791894E+02  0.97497792024E+02  0.50400001928E-02 0.  1.
    10030    2    1    2    0    0  0.00000000000E+00  0.00000000000E+00  0.83013127107E+03  0.10251268550E+04  0.60147081528E+03 0.  0.
        4    1    3    3  502    0  0.11024417289E+03  0.11484845343E+03 -0.19785854207E+02  0.16042767167E+03  0.12699999809E+01 0.  1.
       -4    1    3    3    0  502 -0.11024417289E+03 -0.11484845343E+03  0.84991712528E+03  0.86469918333E+03  0.12699999809E+01 0. -1.
</event>
<event>
 5   0  0.2126207E-02  0.6001540E+03  0.7818609E-02  0.9905087E-01
       -2   -1    0    0    0  501  0.00000000000E+00  0.00000000000E+00  0.24738575702E+03  0.24738575703E+03  0.25500000920E-02 0. -1.
        2   -1    0    0  501    0  0.00000000000E+00  0.00000000000E+00 -0.36399101739E+03  0.36399101740E+03  0.25500000920E-02 0.  1.
    10030    2    1    2    0    0  0.00000000000E+00  0.00000000000E+00 -0.11660526037E+03  0.61137677444E+03  0.60015395823E+03 0.  0.
        5    1    3    3  502    0  0.23446870485E+03  0.11843401090E+03 -0.20600327742E+03  0.33385869585E+03  0.46999998093E+01 0.  1.
       -5    1    3    3    0  502 -0.23446870485E+03 -0.11843401090E+03  0.89398017051E+02  0.27751807858E+03  0.46999998093E+01 0. -1.
</event>
<event>
 5   0  0.1303808E-02  0.6002979E+03  0.7818609E-02  0.9904788E-01
        1   -1    0    0  501    0  0.00000000000E+00  0.00000000000E+00  0.78826003126E+03  0.78826003128E+03  0.50400001928E-02 0. -1.
       -1   -1    0    0    0  501  0.00000000000E+00  0.00000000000E+00 -0.11428893822E+03  0.11428893833E+03  0.50400001928E-02 0.  1.
    10030    2    1    2    0    0  0.00000000000E+00  0.00000000000E+00  0.67397109304E+03  0.90254896961E+03  0.60029793294E+03 0.  0.
        4    1    3    3  502    0 -0.23985119654E+03 -0.94732040031E+02  0.56788461112E+03  0.62369648094E+03  0.12699999809E+01 0. -1.
       -4    1    3    3    0  502  0.23985119654E+03  0.94732040031E+02  0.10608648193E+03  0.27885248867E+03  0.12699999809E+01 0.  1.
</event>
<event>
 5   0  0.1276705E-02  0.5961434E+03  0.7818609E-02  0.9913440E-01
        1   -1    0    0  501    0  0.00000000000E+00  0.00000000000E+00  0.11170904495E+04  0.11170904495E+04  0.50400001928E-02 0. -1.
       -1   -1    0    0    0  501  0.00000000000E+00  0.00000000000E+00 -0.79534067974E+02  0.79534068134E+02  0.50400001928E-02 0.  1.
    10030    2    1    2    0    0  0.00000000000E+00  0.00000000000E+00  0.10375563815E+04  0.11966245176E+04  0.59614343189E+03 0.  0.
        1    1    3    3  502    0 -0.12245306223E+03 -0.18940812282E+03  0.12760873517E+03  0.25914123323E+03  0.50400001928E-02 0.  1.
       -1    1    3    3    0  502  0.12245306223E+03  0.18940812282E+03  0.90994764635E+03  0.93748328442E+03  0.50400001928E-02 0. -1.
</event>
<event>
 5   0  0.1276705E-02  0.6021547E+03  0.7818609E-02  0.9900946E-01
        1   -1    0    0  501    0  0.00000000000E+00  0.00000000000E+00  0.29981497853E+03  0.29981497858E+03  0.50400001928E-02 0.  1.
       -1   -1    0    0    0  501  0.00000000000E+00  0.00000000000E+00 -0.30234501460E+03  0.30234501464E+03  0.50400001928E-02 0. -1.
    10030    2    1    2    0    0  0.00000000000E+00  0.00000000000E+00 -0.25300360683E+01  0.60215999322E+03  0.60215467809E+03 0.  0.
        1    1    3    3  502    0  0.20421982626E+03  0.19325260880E+03  0.10641720203E+03  0.30062755888E+03  0.50400001928E-02 0.  1.
       -1    1    3    3    0  502 -0.20421982626E+03 -0.19325260880E+03 -0.10894723810E+03  0.30153243434E+03  0.50400001928E-02 0. -1.
</event>
<event>
 5   0  0.1250390E-02  0.5820153E+03  0.7818609E-02  0.9943438E-01
       -1   -1    0    0    0  501  0.00000000000E+00  0.00000000000E+00  0.71999631944E+03  0.71999631946E+03  0.50400001928E-02 0.  1.
        1   -1    0    0  501    0  0.00000000000E+00  0.00000000000E+00 -0.11761927094E+03  0.11761927105E+03  0.50400001928E-02 0. -1.
    10030    2    1    2    0    0  0.00000000000E+00  0.00000000000E+00  0.60237704850E+03  0.83761559051E+03  0.58201526519E+03 0.  0.
        3    1    3    3  502    0  0.19044338359E+02 -0.25688462279E+03  0.10632633850E+03  0.27867130586E+03  0.10100000352E+00 0. -1.
       -3    1    3    3    0  502 -0.19044338359E+02  0.25688462279E+03  0.49605071000E+03  0.55894428465E+03  0.10100000352E+00 0.  1.
</event>
<event>
 5   0  0.2126207E-02  0.6003084E+03  0.7818609E-02  0.9904766E-01
        2   -1    0    0  501    0  0.00000000000E+00  0.00000000000E+00  0.14370304822E+04  0.14370304822E+04  0.25500000920E-02 0. -1.
       -2   -1    0    0    0  501  0.00000000000E+00  0.00000000000E+00 -0.62693547714E+02  0.62693547766E+02  0.25500000920E-02 0.  1.
    10030    2    1    2    0    0  0.00000000000E+00  0.00000000000E+00  0.13743369344E+04  0.14997240299E+04  0.60030838455E+03 0.  0.
        5    1    3    3  502    0 -0.27912028422E+03  0.48941477867E+02  0.44026988384E+03  0.52360582687E+03  0.46999998093E+01 0.  1.
       -5    1    3    3    0  502  0.27912028422E+03 -0.48941477867E+02  0.93406705060E+03  0.97611820306E+03  0.46999998093E+01 0. -1.
</event>
<event>
 5   0  0.2179625E-02  0.5997611E+03  0.7818609E-02  0.9905902E-01
       -2   -1    0    0    0  501  0.00000000000E+00  0.00000000000E+00  0.23303020475E+03  0.23303020476E+03  0.25500000920E-02 0. -1.
        2   -1    0    0  501    0  0.00000000000E+00  0.00000000000E+00 -0.38590857294E+03  0.38590857295E+03  0.25500000920E-02 0.  1.
    10030    2    1    2    0    0  0.00000000000E+00  0.00000000000E+00 -0.15287836819E+03  0.61893877772E+03  0.59976113170E+03 0.  0.
        1    1    3    3  502    0  0.15117791635E+03  0.25803482312E+03 -0.99320698885E+02  0.31512114113E+03  0.50400001928E-02 0.  1.
       -1    1    3    3    0  502 -0.15117791635E+03 -0.25803482312E+03 -0.53557669306E+02  0.30381763659E+03  0.50400001928E-02 0. -1.
</event>
<event>
 5   0  0.1303808E-02  0.6017020E+03  0.7818609E-02  0.9901881E-01
        1   -1    0    0  501    0  0.00000000000E+00  0.00000000000E+00  0.43011377197E+03  0.43011377200E+03  0.50400001928E-02 0. -1.
       -1   -1    0    0    0  501  0.00000000000E+00  0.00000000000E+00 -0.21043580335E+03  0.21043580341E+03  0.50400001928E-02 0.  1.
    10030    2    1    2    0    0  0.00000000000E+00  0.00000000000E+00  0.21967796862E+03  0.64054957540E+03  0.60170204308E+03 0.  0.
        4    1    3    3  502    0  0.18811516769E+03 -0.11105469746E+03 -0.11037183877E+03  0.24475297309E+03  0.12699999809E+01 0.  1.
       -4    1    3    3    0  502 -0.18811516769E+03  0.11105469746E+03  0.33004980739E+03  0.39579660231E+03  0.12699999809E+01 0. -1.
</event>
<event>
 5   0  0.1250390E-02  0.5992818E+03  0.7818609E-02  0.9906897E-01
       -1   -1    0    0    0  501  0.00000000000E+00  0.00000000000E+00  0.63206787561E+02  0.63206787762E+02  0.50400001928E-02 0. -1.
        1   -1    0    0  501    0  0.00000000000E+00  0.00000000000E+00 -0.14204909618E+04  0.14204909619E+04  0.50400001928E-02 0.  1.
    10030    2    1    2    0    0  0.00000000000E+00  0.00000000000E+00 -0.13572841743E+04  0.14836977496E+04  0.59928180554E+03 0.  0.
        3    1    3    3  502    0 -0.13523432236E+03 -0.15303290715E+03 -0.13578659632E+03  0.24524559641E+03  0.10100000352E+00 0. -1.
       -3    1    3    3    0  502  0.13523432236E+03  0.15303290715E+03 -0.12214975780E+04  0.12384521532E+04  0.10100000352E+00 0.  1.
</event>
<event>
 5   0  0.2126207E-02  0.5996270E+03  0.7818609E-02  0.9906180E-01
       -2   -1    0    0    0  501  0.00000000000E+00  0.00000000000E+00  0.10777918312E+03  0.10777918315E+03  0.25500000920E-02 0. -1.
        2   -1    0    0  501    0  0.00000000000E+00  0.00000000000E+00 -0.83400268563E+03  0.83400268564E+03  0.25500000920E-02 0.  1.
    10030    2    1    2    0    0  0.00000000000E+00  0.00000000000E+00 -0.72622350251E+03  0.94178186879E+03  0.59962697803E+03 0.  0.
        5    1    3    3  502    0  0.15271565359E+03  0.11677577375E+03 -0.72437793673E+03  0.74946923713E+03  0.46999998093E+01 0.  1.
       -5    1    3    3    0  502 -0.15271565359E+03 -0.11677577375E+03 -0.18455657879E+01  0.19231263166E+03  0.46999998093E+01 0. -1.
</event>
<event>
 5   0  0.1250390E-02  0.5980741E+03  0.7818609E-02  0.9909410E-01
        1   -1    0    0  501    0  0.00000000000E+00  0.00000000000E+00  0.12425803901E+04  0.12425803901E+04  0.50400001928E-02 0.  1.
       -1   -1    0    0    0  501  0.00000000000E+00  0.00000000000E+00 -0.71965693581E+02  0.71965693757E+02  0.50400001928E-02 0. -1.
    10030    2    1    2    0    0  0.00000000000E+00  0.00000000000E+00  0.11706146965E+04  0.13145460839E+04  0.59807410820E+03 0.  0.
        3    1    3    3  502    0  0.80019520113E+02  0.14757817293E+03  0.41379970850E+02  0.17290099165E+03  0.10100000352E+00 0. -1.
       -3    1    3    3    0  502 -0.80019520113E+02 -0.14757817293E+03  0.11292347257E+04  0.11416450922E+04  0.10100000352E+00 0.  1.
</event>
<event>
 5   0  0.1276705E-02  0.6101636E+03  0.7818609E-02  0.9884541E-01
       -1   -1    0    0    0  501  0.00000000000E+00  0.00000000000E+00  0.12951777466E+03  0.12951777476E+03  0.50400001928E-02 0.  1.
        1   -1    0    0  501    0  0.00000000000E+00  0.00000000000E+00 -0.71862659247E+03  0.71862659249E+03  0.50400001928E-02 0. -1.
    10030    2    1    2    0    0  0.00000000000E+00  0.00000000000E+00 -0.58910881781E+03  0.84814436724E+03  0.61016364073E+03 0.  0.
        1    1    3    3  502    0  0.15198814182E+03  0.26452286726E+03 -0.29250463329E+03  0.42264843911E+03  0.50400001928E-02 0.  1.
       -1    1    3    3    0  502 -0.15198814182E+03 -0.26452286726E+03 -0.29660418452E+03  0.42549592813E+03  0.50400001928E-02 0. -1.
</event>
<event>
 5   0  0.2142838E-02  0.6022045E+03  0.7818609E-02  0.9900843E-01
       -2   -1    0    0    0  501  0.00000000000E+00  0.00000000000E+00  0.91113575586E+02  0.91113575621E+02  0.25500000920E-02 0. -1.
        2   -1    0    0  501    0  0.00000000000E+00  0.00000000000E+00 -0.99504991909E+03  0.99504991910E+03  0.25500000920E-02 0.  1.
    10030    2    1    2    0    0  0.00000000000E+00  0.00000000000E+00 -0.90393634351E+03  0.10861634947E+04  0.60220447038E+03 0.  0.
        4    1    3    3  502    0  0.22932393599E+02  0.97830438854E+02  0.59975785792E+02  0.11702733537E+03  0.12699999809E+01 0. -1.
       -4    1    3    3    0  502 -0.22932393599E+02 -0.97830438854E+02 -0.96391212930E+03  0.96913615935E+03  0.12699999809E+01 0.  1.
</event>
<event>
 5   0  0.2141800E-02  0.5730332E+03  0.7818609E-02  0.9962989E-01
       -2   -1    0    0    0  501  0.00000000000E+00  0.00000000000E+00  0.31408656138E+03  0.31408656140E+03  0.25500000920E-02 0.  1.
        2   -1    0    0  501    0  0.00000000000E+00  0.00000000000E+00 -0.26136667541E+03  0.26136667542E+03  0.25500000920E-02 0. -1.
    10030    2    1    2    0    0  0.00000000000E+00  0.00000000000E+00  0.52719885974E+02  0.57545323682E+03  0.57303319397E+03 0.  0.
        2    1    3    3  502    0 -0.24036788354E+03  0.15549944482E+03  0.38026387668E+02  0.28879543442E+03  0.25500000920E-02 0.  1.
       -2    1    3    3    0  502  0.24036788354E+03 -0.15549944482E+03  0.14693498306E+02  0.28665780240E+03  0.25500000920E-02 0. -1.
</event>
<event>
 5   0  0.1332555E-02  0.6002819E+03  0.7818609E-02  0.9904821E-01
        1   -1    0    0  501    0  0.00000000000E+00  0.00000000000E+00  0.47186956503E+03  0.47186956506E+03  0.50400001928E-02 0. -1.
       -1   -1    0    0    0  501  0.00000000000E+00  0.00000000000E+00 -0.19090994856E+03  0.19090994862E+03  0.50400001928E-02 0.  1.
    10030    2    1    2    0    0  0.00000000000E+00  0.00000000000E+00  0.28095961648E+03  0.66277951368E+03  0.60028191516E+03 0.  0.
        2    1    3    3  502    0 -0.27593154554E+03  0.11206167254E+03  0.18162279818E+03  0.34883072844E+03  0.25500000920E-02 0.  1.
       -2    1    3    3    0  502  0.27593154554E+03 -0.11206167254E+03  0.99336818298E+02  0.31394878524E+03  0.25500000920E-02 0. -1.
</event>
<event>
 5   0  0.2141800E-02  0.6322515E+03  0.7818609E-02  0.9840665E-01
        2   -1    0    0  501    0  0.00000000000E+00  0.00000000000E+00  0.41850641036E+03  0.41850641037E+03  0.25500000920E-02 0.  1.
       -2   -1    0    0    0  501  0.00000000000E+00  0.00000000000E+00 -0.23879084637E+03  0.23879084639E+03  0.25500000920E-02 0. -1.
    10030    2    1    2    0    0  0.00000000000E+00  0.00000000000E+00  0.17971556399E+03  0.65729725676E+03  0.63225153207E+03 0.  0.
        2    1    3    3  502    0 -0.45541879820E+02 -0.30560762835E+03  0.20386898118E+02  0.30965417960E+03  0.25500000920E-02 0. -1.
       -2    1    3    3    0  502  0.45541879820E+02  0.30560762835E+03  0.15932866587E+03  0.34764307716E+03  0.25500000920E-02 0.  1.
</event>
<event>
 5   0  0.1332555E-02  0.6131432E+03  0.7818609E-02  0.9878507E-01
       -1   -1    0    0    0  501  0.00000000000E+00  0.00000000000E+00  0.69643040189E+02  0.69643040372E+02  0.50400001928E-02 0.  1.
        1   -1    0    0  501    0  0.00000000000E+00  0.00000000000E+00 -0.13495412773E+04  0.13495412773E+04  0.50400001928E-02 0. -1.
    10030    2    1    2    0    0  0.00000000000E+00  0.00000000000E+00 -0.12798982371E+04  0.14191843177E+04  0.61314323791E+03 0.  0.
        2    1    3    3  502    0 -0.25608059497E+03  0.82159562318E+02 -0.29931120767E+03  0.40238621229E+03  0.25500000920E-02 0.  1.
       -2    1    3    3    0  502  0.25608059497E+03 -0.82159562318E+02 -0.98058702944E+03  0.10167981054E+04  0.25500000920E-02 0. -1.
</event>
<event>
 5   0  0.1337051E-02  0.5999142E+03  0.7818609E-02  0.9905584E-01
       -1   -1    0    0    0  501  0.00000000000E+00  0.00000000000E+00  0.17576183392E+03  0.17576183399E+03  0.50400001928E-02 0.  1.
        1   -1    0    0  501    0  0.00000000000E+00  0.00000000000E+00 -0.51191014993E+03  0.51191014995E+03  0.50400001928E-02 0. -1.
    10030    2    1    2    0    0  0.00000000000E+00  0.00000000000E+00 -0.33614831601E+03  0.68767198394E+03  0.59991421649E+03 0.  0.
        5    1    3    3  502    0 -0.61972945551E+02 -0.27769657047E+03 -0.27679690441E+03  0.39698192342E+03  0.46999998093E+01 0. -1.
       -5    1    3    3    0  502  0.61972945551E+02  0.27769657047E+03 -0.59351411591E+02  0.29069006052E+03  0.46999998093E+01 0.  1.
</event>
<event>
 5   0  0.1276705E-02  0.6022509E+03  0.7818609E-02  0.9900747E-01
        1   -1    0    0  501    0  0.00000000000E+00  0.00000000000E+00  0.13332422366E+03  0.13332422376E+03  0.50400001928E-02 0. -1.
       -1   -1    0    0    0  501  0.00000000000E+00  0.00000000000E+00 -0.68012054779E+03  0.68012054781E+03  0.50400001928E-02 0.  1.
    10030    2    1    2    0    0  0.00000000000E+00  0.00000000000E+00 -0.54679632413E+03  0.81344477156E+03  0.60225092470E+03 0.  0.
        1    1    3    3  502    0  0.83219219795E+02  0.12043654501E+02 -0.66394170756E+03  0.66924515629E+03  0.50400001928E-02 0.  1.
       -1    1    3    3    0  502 -0.83219219795E+02 -0.12043654501E+02  0.11714538344E+03  0.14419961527E+03  0.50400001928E-02 0. -1.
</event>
<event>
 5   0  0.2141800E-02  0.5970154E+03  0.7818609E-02  0.9911617E-01
       -2   -1    0    0    0  501  0.00000000000E+00  0.00000000000E+00  0.11039196792E+03  0.11039196795E+03  0.25500000920E-02 0.  1.
        2   -1    0    0  501    0  0.00000000000E+00  0.00000000000E+00 -0.80718607479E+03  0.80718607480E+03  0.25500000920E-02 0. -1.
    10030    2    1    2    0    0  0.00000000000E+00  0.00000000000E+00 -0.69679410687E+03  0.91757804275E+03  0.59701544131E+03 0.  0.
        2    1    3    3  502    0  0.17291178049E+03 -0.10590437419E+03 -0.11695775927E+02  0.20310345021E+03  0.25500000920E-02 0.  1.
       -2    1    3    3    0  502 -0.17291178049E+03  0.10590437419E+03 -0.68509833095E+03  0.71447459254E+03  0.25500000920E-02 0. -1.
</event>
<event>
 5   0  0.2142838E-02  0.5993503E+03  0.7818609E-02  0.9906755E-01
        2   -1    0    0  501    0  0.00000000000E+00  0.00000000000E+00  0.10637228301E+04  0.10637228301E+04  0.25500000920E-02 0. -1.
       -2   -1    0    0    0  501  0.00000000000E+00  0.00000000000E+00 -0.84425364622E+02  0.84425364660E+02  0.25500000920E-02 0.  1.
    10030    2    1    2    0    0  0.00000000000E+00  0.00000000000E+00  0.97929746545E+03  0.11481481947E+04  0.59935027425E+03 0.  0.
        4    1    3    3  502    0  0.22742621699E+03 -0.78226843704E+02  0.14717246095E+03  0.28196359590E+03  0.12699999809E+01 0.  1.
       -4    1    3    3    0  502 -0.22742621699E+03  0.78226843704E+02  0.83212500450E+03  0.86618459884E+03  0.12699999809E+01 0. -1.
</event>
<event>
 5   0  0.2179625E-02  0.5996397E+03  0.7818609E-02  0.9906154E-01
       -2   -1    0    0    0  501  0.00000000000E+00  0.00000000000E+00  0.10132185513E+03  0.10132185517E+03  0.25500000920E-02 0.  1.
        2   -1    0    0  501    0  0.00000000000E+00  0.00000000000E+00 -0.88719210181E+03  0.88719210182E+03  0.25500000920E-02 0. -1.
    10030    2    1    2    0    0  0.00000000000E+00  0.00000000000E+00 -0.78587024668E+03  0.98851395698E+03  0.59963972395E+03 0.  0.
        1    1    3    3  502    0  0.15478902232E+02 -0.60528304589E+02 -0.87634224573E+03  0.87856644811E+03  0.50400001928E-02 0. -1.
       -1    1    3    3    0  502 -0.15478902232E+02  0.60528304589E+02  0.90471999047E+02  0.10994750887E+03  0.50400001928E-02 0.  1.
</event>
<event>
 5   0  0.2179625E-02  0.6003442E+03  0.7818609E-02  0.9904692E-01
       -2   -1    0    0    0  501  0.00000000000E+00  0.00000000000E+00  0.13815558773E+03  0.13815558776E+03  0.25500000920E-02 0.  1.
        2   -1    0    0  501    0  0.00000000000E+00  0.00000000000E+00 -0.65218716300E+03  0.65218716301E+03  0.25500000920E-02 0. -1.
    10030    2    1    2    0    0  0.00000000000E+00  0.00000000000E+00 -0.51403157527E+03  0.79034275076E+03  0.60034423734E+03 0.  0.
        1    1    3    3  502    0  0.70624412036E+02 -0.74372766906E+02 -0.62840434079E+03  0.63671903661E+03  0.50400001928E-02 0. -1.
       -1    1    3    3    0  502 -0.70624412036E+02  0.74372766906E+02  0.11437276552E+03  0.15362371415E+03  0.50400001928E-02 0.  1.
</event>
<event>
 5   0  0.1332555E-02  0.6238655E+03  0.7818609E-02  0.9857093E-01
       -1   -1    0    0    0  501  0.00000000000E+00  0.00000000000E+00  0.66603640438E+02  0.66603640628E+02  0.50400001928E-02 0. -1.
        1   -1    0    0  501    0  0.00000000000E+00  0.00000000000E+00 -0.14609118527E+04  0.14609118527E+04  0.50400001928E-02 0.  1.
    10030    2    1    2    0    0  0.00000000000E+00  0.00000000000E+00 -0.13943082123E+04  0.15275154934E+04  0.62386552366E+03 0.  0.
        2    1    3    3  502    0 -0.19982190651E+03  0.17855294639E+03 -0.10880826981E+04  0.11205953359E+04  0.25500000920E-02 0.  1.
       -2    1    3    3    0  502  0.19982190651E+03 -0.17855294639E+03 -0.30622551421E+03  0.40692015746E+03  0.25500000920E-02 0. -1.
</event>
<event>
 5   0  0.8551000E-03  0.6010346E+03  0.7818609E-02  0.9903262E-01
       -4   -1    0    0    0  501  0.00000000000E+00  0.00000000000E+00  0.11954516917E+03  0.11955191497E+03  0.12699999809E+01 0. -1.
        4   -1    0    0  501    0  0.00000000000E+00  0.00000000000E+00 -0.75542344975E+03  0.75542451729E+03  0.12699999809E+01 0.  1.
    10030    2    1    2    0    0  0.00000000000E+00  0.00000000000E+00 -0.63587828058E+03  0.87497643226E+03  0.60103458245E+03 0.  0.
        4    1    3    3  502    0  0.16439151327E+03 -0.14221711405E+03 -0.62002306462E+03  0.65702396511E+03  0.12699999809E+01 0.  1.
       -4    1    3    3    0  502 -0.16439151327E+03  0.14221711405E+03 -0.15855215953E+02  0.21795246715E+03  0.12699999809E+01 0. -1.
</event>
<event>
 5   0  0.2179625E-02  0.6009812E+03  0.7818609E-02  0.9903373E-01
        2   -1    0    0  501    0  0.00000000000E+00  0.00000000000E+00  0.13402391091E+04  0.13402391091E+04  0.25500000920E-02 0.  1.
       -2   -1    0    0    0  501  0.00000000000E+00  0.00000000000E+00 -0.67372005070E+02  0.67372005118E+02  0.25500000920E-02 0. -1.
    10030    2    1    2    0    0  0.00000000000E+00  0.00000000000E+00  0.12728671040E+04  0.14076111142E+04  0.60098118470E+03 0.  0.
        1    1    3    3  502    0 -0.12145070684E+03 -0.25139568625E+03  0.89666459704E+03  0.93912590470E+03  0.50400001928E-02 0.  1.
       -1    1    3    3    0  502  0.12145070684E+03  0.25139568625E+03  0.37620250700E+03  0.46848520954E+03  0.50400001928E-02 0. -1.
</event>
<event>
 5   0  0.2126207E-02  0.5910369E+03  0.7818609E-02  0.9924178E-01
       -2   -1    0    0    0  501  0.00000000000E+00  0.00000000000E+00  0.18648044488E+03  0.18648044490E+03  0.25500000920E-02 0.  1.
        2   -1    0    0  501    0  0.00000000000E+00  0.00000000000E+00 -0.46831274295E+03  0.46831274296E+03  0.25500000920E-02 0. -1.
    10030    2    1    2    0    0  0.00000000000E+00  0.00000000000E+00 -0.28183229807E+03  0.65479318786E+03  0.59103694861E+03 0.  0.
        5    1    3    3  502    0 -0.10088732056E+03 -0.21609117101E+03  0.52360444878E+02  0.24420759985E+03  0.46999998093E+01 0.  1.
       -5    1    3    3    0  502  0.10088732056E+03  0.21609117101E+03 -0.33419274295E+03  0.41058558801E+03  0.46999998093E+01 0. -1.
</event>
<event>
 5   0  0.2142838E-02  0.5928104E+03  0.7818609E-02  0.9920436E-01
        2   -1    0    0  501    0  0.00000000000E+00  0.00000000000E+00  0.38733579836E+03  0.38733579837E+03  0.25500000920E-02 0. -1.
       -2   -1    0    0    0  501  0.00000000000E+00  0.00000000000E+00 -0.22682136626E+03  0.22682136627E+03  0.25500000920E-02 0.  1.
    10030    2    1    2    0    0  0.00000000000E+00  0.00000000000E+00  0.16051443210E+03  0.61415716464E+03  0.59281037438E+03 0.  0.
        4    1    3    3  502    0  0.13798501585E+03 -0.25440790330E+03  0.14652276821E+03  0.32439756529E+03  0.12699999809E+01 0.  1.
       -4    1    3    3    0  502 -0.13798501585E+03  0.25440790330E+03  0.13991663889E+02  0.28975959935E+03  0.12699999809E+01 0. -1.
</event>
<event>
 5   0  0.1276705E-02  0.6011614E+03  0.7818609E-02  0.9902999E-01
        1   -1    0    0  501    0  0.00000000000E+00  0.00000000000E+00  0.51705854041E+03  0.51705854044E+03  0.50400001928E-02 0. -1.
       -1   -1    0    0    0  501  0.00000000000E+00  0.00000000000E+00 -0.17473605866E+03  0.17473605873E+03  0.50400001928E-02 0.  1.
    10030    2    1    2    0    0  0.00000000000E+00  0.00000000000E+00  0.34232248175E+03  0.69179459917E+03  0.60116144748E+03 0.  0.
        1    1    3    3  502    0  0.12654650307E+03 -0.34366563842E+02 -0.14008504259E+03  0.19188250919E+03  0.50400001928E-02 0.  1.
       -1    1    3    3    0  502 -0.12654650307E+03  0.34366563842E+02  0.48240752434E+03  0.49991208998E+03  0.50400001928E-02 0. -1.
</event>
<event>
 5   0  0.2092587E-02  0.6011472E+03  0.7818609E-02  0.9903029E-01
        2   -1    0    0  501    0  0.00000000000E+00  0.00000000000E+00  0.35349784729E+03  0.35349784730E+03  0.25500000920E-02 0. -1.
       -2   -1    0    0    0  501  0.00000000000E+00  0.00000000000E+00 -0.25557292609E+03  0.25557292610E+03  0.25500000920E-02 0.  1.
    10030    2    1    2    0    0  0.00000000000E+00  0.00000000000E+00  0.97924921205E+02  0.60907077340E+03  0.60114716736E+03 0.  0.
        3    1    3    3  502    0  0.88004763317E+02 -0.10271802003E+03 -0.22299429145E+03  0.26081083993E+03  0.10100000352E+00 0.  1.
       -3    1    3    3    0  502 -0.88004763317E+02  0.10271802003E+03  0.32091921266E+03  0.34825993347E+03  0.10100000352E+00 0. -1.
</event>
<event>
 5   0  0.2179625E-02  0.5997978E+03  0.7818609E-02  0.9905826E-01
        2   -1    0    0  501    0  0.00000000000E+00  0.00000000000E+00  0.98910131700E+03  0.98910131700E+03  0.25500000920E-02 0.  1.
       -2   -1    0    0    0  501  0.00000000000E+00  0.00000000000E+00 -0.90930376011E+02  0.90930376046E+02  0.25500000920E-02 0. -1.
    10030    2    1    2    0    0  0.00000000000E+00  0.00000000000E+00  0.89817094099E+03  0.10800316930E+04  0.59979781489E+03 0.  0.
        1    1    3    3  502    0 -0.19941503780E+03  0.22380652047E+03  0.46555326368E+03  0.55371071622E+03  0.50400001928E-02 0. -1.
       -1    1    3    3    0  502  0.19941503780E+03 -0.22380652047E+03  0.43261767730E+03  0.52632097683E+03  0.50400001928E-02 0.  1.
</event>
<event>
 5   0  0.1303808E-02  0.6010574E+03  0.7818609E-02  0.9903215E-01
        1   -1    0    0  501    0  0.00000000000E+00  0.00000000000E+00  0.42795135271E+03  0.42795135274E+03  0.50400001928E-02 0. -1.
       -1   -1    0    0    0  501  0.00000000000E+00  0.00000000000E+00 -0.21104619965E+03  0.21104619971E+03  0.50400001928E-02 0.  1.
    10030    2    1    2    0    0  0.00000000000E+00  0.00000000000E+00  0.21690515307E+03  0.63899755245E+03  0.60105742372E+03 0.  0.
        4    1    3    3  502    0 -0.21062556314E+03  0.52861394118E+02  0.32931208071E+03  0.39446864798E+03  0.12699999809E+01 0. -1.
       -4    1    3    3    0  502  0.21062556314E+03 -0.52861394118E+02 -0.11240692764E+03  0.24452890447E+03  0.12699999809E+01 0.  1.
</event>
<event>
 5   0  0.2092587E-02  0.6002797E+03  0.7818609E-02  0.9904826E-01
        2   -1    0    0  501    0  0.00000000000E+00  0.00000000000E+00  0.58112504545E+03  0.58112504546E+03  0.25500000920E-02 0.  1.
       -2   -1    0    0    0  501  0.00000000000E+00  0.00000000000E+00 -0.15501642338E+03  0.15501642340E+03  0.25500000920E-02 0. -1.
    10030    2    1    2    0    0  0.00000000000E+00  0.00000000000E+00  0.42610862208E+03  0.73614146886E+03  0.60027968845E+03 0.  0.
        3    1    3    3  502    0  0.15386155408E+03  0.22497524664E+03  0.58923133404E+02  0.27885334008E+03  0.10100000352E+00 0. -1.
       -3    1    3    3    0  502 -0.15386155408E+03 -0.22497524664E+03  0.36718548867E+03  0.45728812877E+03  0.10100000352E+00 0.  1.
</event>
<event>
 5   0  0.2179625E-02  0.5985263E+03  0.7818609E-02  0.9908468E-01
        2   -1    0    0  501    0  0.00000000000E+00  0.00000000000E+00  0.85072479716E+03  0.85072479716E+03  0.25500000920E-02 0.  1.
       -2   -1    0    0    0  501  0.00000000000E+00  0.00000000000E+00 -0.10527308199E+03  0.10527308202E+03  0.25500000920E-02 0. -1.
    10030    2    1    2    0    0  0.00000000000E+00  0.00000000000E+00  0.74545171517E+03  0.95599787919E+03  0.59852626121E+03 0.  0.
        1    1    3    3  502    0  0.53446977343E+02  0.28684465127E+03  0.47894003657E+03  0.56082081988E+03  0.50400001928E-02 0.  1.
       -1    1    3    3    0  502 -0.53446977343E+02 -0.28684465127E+03  0.26651167860E+03  0.39517705931E+03  0.50400001928E-02 0. -1.
</event>
<event>
 5   0  0.1332555E-02  0.6039392E+03  0.7818609E-02  0.9897267E-01
       -1   -1    0    0    0  501  0.00000000000E+00  0.00000000000E+00  0.44124770791E+03  0.44124770794E+03  0.50400001928E-02 0.  1.
        1   -1    0    0  501    0  0.00000000000E+00  0.00000000000E+00 -0.20665404767E+03  0.20665404773E+03  0.50400001928E-02 0. -1.
    10030    2    1    2    0    0  0.00000000000E+00  0.00000000000E+00  0.23459366025E+03  0.64790175567E+03  0.60393915221E+03 0.  0.
        2    1    3    3  502    0 -0.21500526017E+03 -0.20914366396E+03  0.79867406140E+02  0.31039835155E+03  0.25500000920E-02 0. -1.
       -2    1    3    3    0  502  0.21500526017E+03  0.20914366396E+03  0.15472625411E+03  0.33750340412E+03  0.25500000920E-02 0.  1.
</event>
<event>
 5   0  0.2126207E-02  0.6033928E+03  0.7818609E-02  0.9898392E-01
        2   -1    0    0  501    0  0.00000000000E+00  0.00000000000E+00  0.13665231871E+03  0.13665231873E+03  0.25500000920E-02 0.  1.
       -2   -1    0    0    0  501  0.00000000000E+00  0.00000000000E+00 -0.66607520683E+03  0.66607520684E+03  0.25500000920E-02 0. -1.
    10030    2    1    2    0    0  0.00000000000E+00  0.00000000000E+00 -0.52942288812E+03  0.80272752557E+03  0.60339281222E+03 0.  0.
        5    1    3    3  502    0 -0.81412810653E+02  0.16431564415E+03  0.53938657819E+02  0.19120445983E+03  0.46999998093E+01 0.  1.
       -5    1    3    3    0  502  0.81412810653E+02 -0.16431564415E+03 -0.58336154594E+03  0.61152306574E+03  0.46999998093E+01 0. -1.
</event>
<event>
 5   0  0.1276705E-02  0.5992957E+03  0.7818609E-02  0.9906868E-01
       -1   -1    0    0    0  501  0.00000000000E+00  0.00000000000E+00  0.25092681407E+03  0.25092681412E+03  0.50400001928E-02 0.  1.
        1   -1    0    0  501    0  0.00000000000E+00  0.00000000000E+00 -0.35782871539E+03  0.35782871543E+03  0.50400001928E-02 0. -1.
    10030    2    1    2    0    0  0.00000000000E+00  0.00000000000E+00 -0.10690190133E+03  0.60875552954E+03  0.59929565178E+03 0.  0.
        1    1    3    3  502    0  0.27697237283E+03 -0.73892194328E+02  0.35190872693E+02  0.28881161548E+03  0.50400001928E-02 0.  1.
       -1    1    3    3    0  502 -0.27697237283E+03  0.73892194328E+02 -0.14209277402E+03  0.31994391406E+03  0.50400001928E-02 0. -1.
</event>
<event>
 5   0  0.2179625E-02  0.5963198E+03  0.7818609E-02  0.9913071E-01
       -2   -1    0    0    0  501  0.00000000000E+00  0.00000000000E+00  0.50002217176E+02  0.50002217241E+02  0.25500000920E-02 0.  1.
        2   -1    0    0  501    0  0.00000000000E+00  0.00000000000E+00 -0.17779076287E+04  0.17779076287E+04  0.25500000920E-02 0. -1.
    10030    2    1    2    0    0  0.00000000000E+00  0.00000000000E+00 -0.17279054115E+04  0.18279098459E+04  0.59631979148E+03 0.  0.
        1    1    3    3  502    0  0.21714853694E+03  0.18075951596E+03 -0.57199288475E+03  0.63796814179E+03  0.50400001928E-02 0. -1.
       -1    1    3    3    0  502 -0.21714853694E+03 -0.18075951596E+03 -0.11559125267E+04  0.11899417041E+04  0.50400001928E-02 0.  1.
</event>
<event>
 5   0  0.2141800E-02  0.5995692E+03  0.7818609E-02  0.9906300E-01
       -2   -1    0    0    0  501  0.00000000000E+00  0.00000000000E+00  0.10623118154E+04  0.10623118154E+04  0.25500000920E-02 0.  1.
        2   -1    0    0  501    0  0.00000000000E+00  0.00000000000E+00 -0.84599271093E+02  0.84599271131E+02  0.25500000920E-02 0. -1.
    10030    2    1    2    0    0  0.00000000000E+00  0.00000000000E+00  0.97771254428E+03  0.11469110865E+04  0.59956919627E+03 0.  0.
        2    1    3    3  502    0 -0.15477429101E+03  0.15554113441E+03  0.98126472113E+02  0.24036832193E+03  0.25500000920E-02 0. -1.
       -2    1    3    3    0  502  0.15477429101E+03 -0.15554113441E+03  0.87958607217E+03  0.90654276458E+03  0.25500000920E-02 0.  1.
</event>
<event>
 5   0  0.1337051E-02  0.5999061E+03  0.7818609E-02  0.9905601E-01
       -1   -1    0    0    0  501  0.00000000000E+00  0.00000000000E+00  0.11599032930E+03  0.11599032941E+03  0.50400001928E-02 0.  1.
        1   -1    0    0  501    0  0.00000000000E+00  0.00000000000E+00 -0.77568396927E+03  0.77568396929E+03  0.50400001928E-02 0. -1.
    10030    2    1    2    0    0  0.00000000000E+00  0.00000000000E+00 -0.65969363997E+03  0.89167429870E+03  0.59990612295E+03 0.  0.
        5    1    3    3  502    0 -0.18748648940E+02  0.26130343140E+02 -0.77305886155E+03  0.77374181746E+03  0.46999998093E+01 0. -1.
       -5    1    3    3    0  502  0.18748648940E+02 -0.26130343140E+02  0.11336522158E+03  0.11793248124E+03  0.46999998093E+01 0.  1.
</event>
<event>
 5   0  0.1250390E-02  0.6002401E+03  0.7818609E-02  0.9904908E-01
       -1   -1    0    0    0  501  0.00000000000E+00  0.00000000000E+00  0.11566002769E+03  0.11566002780E+03  0.50400001928E-02 0. -1.
        1   -1    0    0  501    0  0.00000000000E+00  0.00000000000E+00 -0.77876549808E+03  0.77876549809E+03  0.50400001928E-02 0.  1.
    10030    2    1    2    0    0  0.00000000000E+00  0.00000000000E+00 -0.66310547039E+03  0.89442552590E+03  0.60024008240E+03 0.  0.
        3    1    3    3  502    0  0.29728662834E+03 -0.40425550994E+02 -0.32015903408E+03  0.43876574828E+03  0.10100000352E+00 0. -1.
       -3    1    3    3    0  502 -0.29728662834E+03  0.40425550994E+02 -0.34294643630E+03  0.45565977761E+03  0.10100000352E+00 0.  1.
</event>
<event>
 5   0  0.2092587E-02  0.6002096E+03  0.7818609E-02  0.9904971E-01
        2   -1    0    0  501    0  0.00000000000E+00  0.00000000000E+00  0.67526705319E+03  0.67526705320E+03  0.25500000920E-02 0.  1.
       -2   -1    0    0    0  501  0.00000000000E+00  0.00000000000E+00 -0.13337373493E+03  0.13337373495E+03  0.25500000920E-02 0. -1.
    10030    2    1    2    0    0  0.00000000000E+00  0.00000000000E+00  0.54189331827E+03  0.80864078815E+03  0.60020959329E+03 0.  0.
        3    1    3    3  502    0  0.29401722979E+02 -0.24489254196E+02 -0.13007365306E+03  0.13558521419E+03  0.10100000352E+00 0. -1.
       -3    1    3    3    0  502 -0.29401722979E+02  0.24489254196E+02  0.67196697133E+03  0.67305557396E+03  0.10100000352E+00 0.  1.
</event>
<event>
 5   0  0.2126207E-02  0.6023778E+03  0.7818609E-02  0.9900485E-01
        2   -1    0    0  501    0  0.00000000000E+00  0.00000000000E+00  0.15450876699E+03  0.15450876701E+03  0.25500000920E-02 0. -1.
       -2   -1    0    0    0  501  0.00000000000E+00  0.00000000000E+00 -0.58711724925E+03  0.58711724926E+03  0.25500000920E-02 0.  1.
    10030    2    1    2    0    0  0.00000000000E+00  0.00000000000E+00 -0.43260848227E+03  0.74162601627E+03  0.60237782917E+03 0.  0.
        5    1    3    3  502    0 -0.26994611461E+03 -0.10334904519E+03 -0.32034120238E+03  0.43150029649E+03  0.46999998093E+01 0. -1.
       -5    1    3    3    0  502  0.26994611461E+03  0.10334904519E+03 -0.11226727989E+03  0.31012571977E+03  0.46999998093E+01 0.  1.
</event>
<event>
 5   0  0.1337051E-02  0.5939925E+03  0.7818609E-02  0.9917949E-01
       -1   -1    0    0    0  501  0.00000000000E+00  0.00000000000E+00  0.57657377870E+03  0.57657377872E+03  0.50400001928E-02 0.  1.
        1   -1    0    0  501    0  0.00000000000E+00  0.00000000000E+00 -0.15298438866E+03  0.15298438875E+03  0.50400001928E-02 0. -1.
    10030    2    1    2    0    0  0.00000000000E+00  0.00000000000E+00  0.42358939004E+03  0.72955816747E+03  0.59399254909E+03 0.  0.
        5    1    3    3  502    0  0.18197877405E+03 -0.22993381402E+03  0.15420057900E+03  0.33133931489E+03  0.46999998093E+01 0. -1.
       -5    1    3    3    0  502 -0.18197877405E+03  0.22993381402E+03  0.26938881104E+03  0.39821885257E+03  0.46999998093E+01 0.  1.
</event>
<event>
 5   0  0.2179625E-02  0.6017663E+03  0.7818609E-02  0.9901748E-01
       -2   -1    0    0    0  501  0.00000000000E+00  0.00000000000E+00  0.24447748721E+03  0.24447748723E+03  0.25500000920E-02 0.  1.
        2   -1    0    0  501    0  0.00000000000E+00  0.00000000000E+00 -0.37030273573E+03  0.37030273574E+03  0.25500000920E-02 0. -1.
    10030    2    1    2    0    0  0.00000000000E+00  0.00000000000E+00 -0.12582524851E+03  0.61478022296E+03  0.60176634119E+03 0.  0.
        1    1    3    3  502    0 -0.42966687194E+02 -0.12659549494E+03  0.21246845272E+03  0.25102868157E+03  0.50400001928E-02 0.  1.
       -1    1    3    3    0  502  0.42966687194E+02  0.12659549494E+03 -0.33829370123E+03  0.36375154139E+03  0.50400001928E-02 0. -1.
</event>
<event>
 5   0  0.1303808E-02  0.6019857E+03  0.7818609E-02  0.9901295E-01
       -1   -1    0    0    0  501  0.00000000000E+00  0.00000000000E+00  0.78761566276E+02  0.78761566437E+02  0.50400001928E-02 0. -1.
        1   -1    0    0  501    0  0.00000000000E+00  0.00000000000E+00 -0.11502653854E+04  0.11502653855E+04  0.50400001928E-02 0.  1.
    10030    2    1    2    0    0  0.00000000000E+00  0.00000000000E+00 -0.10715038192E+04  0.12290269519E+04  0.60198572573E+03 0.  0.
        4    1    3    3  502    0  0.24425921382E+02  0.15540416594E+03 -0.11854149892E+02  0.15776315855E+03  0.12699999809E+01 0. -1.
       -4    1    3    3    0  502 -0.24425921382E+02 -0.15540416594E+03 -0.10596496693E+04  0.10712637933E+04  0.12699999809E+01 0.  1.
</event>
<event>
 5   0  0.2092587E-02  0.5987357E+03  0.7818609E-02  0.9908032E-01
       -2   -1    0    0    0  501  0.00000000000E+00  0.00000000000E+00  0.42574947520E+02  0.42574947597E+02  0.25500000920E-02 0.  1.
        2   -1    0    0  501    0  0.00000000000E+00  0.00000000000E+00 -0.21050200264E+04  0.21050200264E+04  0.25500000920E-02 0. -1.
    10030    2    1    2    0    0  0.00000000000E+00  0.00000000000E+00 -0.20624450789E+04  0.21475949740E+04  0.59873572547E+03 0.  0.
        3    1    3    3  502    0 -0.25251253435E+03  0.33457993915E+02 -0.15953913382E+04  0.16155975828E+04  0.10100000352E+00 0. -1.
       -3    1    3    3    0  502  0.25251253435E+03 -0.33457993915E+02 -0.46705374077E+03  0.53199739128E+03  0.10100000352E+00 0.  1.
</event>
<event>
 5   0  0.8551000E-03  0.6051075E+03  0.7818609E-02  0.9894866E-01
        3   -1    0    0  501    0  0.00000000000E+00  0.00000000000E+00  0.59044415732E+03  0.59044416596E+03  0.10100000352E+00 0.  1.
       -3   -1    0    0    0  501  0.00000000000E+00  0.00000000000E+00 -0.15503373992E+03  0.15503377282E+03  0.10100000352E+00 0. -1.
    10030    2    1    2    0    0  0.00000000000E+00  0.00000000000E+00  0.43541041741E+03  0.74547793878E+03  0.60510753228E+03 0.  0.
        3    1    3    3  502    0  0.19246564527E+03 -0.79222775238E+02  0.48823405553E+03  0.53074643277E+03  0.10100000352E+00 0.  1.
       -3    1    3    3    0  502 -0.19246564527E+03  0.79222775238E+02 -0.52823638121E+02  0.21473150600E+03  0.10100000352E+00 0. -1.
</event>
<event>
 5   0  0.2142838E-02  0.6012781E+03  0.7818609E-02  0.9902758E-01
       -2   -1    0    0    0  501  0.00000000000E+00  0.00000000000E+00  0.19883998664E+03  0.19883998666E+03  0.25500000920E-02 0.  1.
        2   -1    0    0  501    0  0.00000000000E+00  0.00000000000E+00 -0.45455562682E+03  0.45455562683E+03  0.25500000920E-02 0. -1.
    10030    2    1    2    0    0  0.00000000000E+00  0.00000000000E+00 -0.25571564018E+03  0.65339561348E+03  0.60127808798E+03 0.  0.
        4    1    3    3  502    0 -0.47544227407E+02 -0.20455792031E+03  0.10591139005E+03  0.23520891090E+03  0.12699999809E+01 0.  1.
       -4    1    3    3    0  502  0.47544227407E+02  0.20455792031E+03 -0.36162703024E+03  0.41818670259E+03  0.12699999809E+01 0. -1.
</event>
<event>
 5   0  0.2141800E-02  0.5998555E+03  0.7818609E-02  0.9905706E-01
        2   -1    0    0  501    0  0.00000000000E+00  0.00000000000E+00  0.30653753263E+03  0.30653753265E+03  0.25500000920E-02 0. -1.
       -2   -1    0    0    0  501  0.00000000000E+00  0.00000000000E+00 -0.29346050909E+03  0.29346050910E+03  0.25500000920E-02 0.  1.
    10030    2    1    2    0    0  0.00000000000E+00  0.00000000000E+00  0.13077023549E+02  0.59999804174E+03  0.59985551723E+03 0.  0.
        2    1    3    3  502    0 -0.16771591353E+03  0.12151184726E+03  0.22352991822E+03  0.30472837253E+03  0.25500000920E-02 0. -1.
       -2    1    3    3    0  502  0.16771591353E+03 -0.12151184726E+03 -0.21045289467E+03  0.29526966922E+03  0.25500000920E-02 0.  1.
</event>
<event>
 5   0  0.2141800E-02  0.6018513E+03  0.7818609E-02  0.9901573E-01
        2   -1    0    0  501    0  0.00000000000E+00  0.00000000000E+00  0.13225605178E+03  0.13225605181E+03  0.25500000920E-02 0.  1.
       -2   -1    0    0    0  501  0.00000000000E+00  0.00000000000E+00 -0.68470407429E+03  0.68470407430E+03  0.25500000920E-02 0. -1.
    10030    2    1    2    0    0  0.00000000000E+00  0.00000000000E+00 -0.55244802251E+03  0.81696012611E+03  0.60185133552E+03 0.  0.
        2    1    3    3  502    0 -0.52744469852E+01 -0.27753235617E+03 -0.43396571546E+03  0.51514878503E+03  0.25500000920E-02 0.  1.
       -2    1    3    3    0  502  0.52744469852E+01  0.27753235617E+03 -0.11848230705E+03  0.30181134108E+03  0.25500000920E-02 0. -1.
</event>
<event>
 5   0  0.2179625E-02  0.6042644E+03  0.7818609E-02  0.9896598E-01
        2   -1    0    0  501    0  0.00000000000E+00  0.00000000000E+00  0.76610148833E+03  0.76610148833E+03  0.25500000920E-02 0. -1.
       -2   -1    0    0    0  501  0.00000000000E+00  0.00000000000E+00 -0.11915375114E+03  0.11915375116E+03  0.25500000920E-02 0.  1.
    10030    2    1    2    0    0  0.00000000000E+00  0.00000000000E+00  0.64694773719E+03  0.88525523950E+03  0.60426439941E+03 0.  0.
        1    1    3    3  502    0  0.59063290733E+02 -0.21870442516E+03  0.61634375118E+03  0.65665799130E+03  0.50400001928E-02 0. -1.
       -1    1    3    3    0  502 -0.59063290733E+02  0.21870442516E+03  0.30603986012E+02  0.22859724819E+03  0.50400001928E-02 0.  1.
</event>
<event>
 5   0  0.1337051E-02  0.5959805E+03  0.7818609E-02  0.9913781E-01
       -1   -1    0    0    0  501  0.00000000000E+00  0.00000000000E+00  0.18589811047E+03  0.18589811054E+03  0.50400001928E-02 0. -1.
        1   -1    0    0  501    0  0.00000000000E+00  0.00000000000E+00 -0.47767127581E+03  0.47767127583E+03  0.50400001928E-02 0.  1.
    10030    2    1    2    0    0  0.00000000000E+00  0.00000000000E+00 -0.29177316534E+03  0.66356938637E+03  0.59598049508E+03 0.  0.
        5    1    3    3  502    0 -0.83791697692E+02 -0.12083895949E+03  0.14264076815E+03  0.20491847518E+03  0.46999998093E+01 0. -1.
       -5    1    3    3    0  502  0.83791697692E+02  0.12083895949E+03 -0.43441393349E+03  0.45865091119E+03  0.46999998093E+01 0.  1.
</event>
<event>
 5   0  0.1276705E-02  0.5998643E+03  0.7818609E-02  0.9905688E-01
       -1   -1    0    0    0  501  0.00000000000E+00  0.00000000000E+00  0.11167958642E+03  0.11167958653E+03  0.50400001928E-02 0.  1.
        1   -1    0    0  501    0  0.00000000000E+00  0.00000000000E+00 -0.80551235780E+03  0.80551235782E+03  0.50400001928E-02 0. -1.
    10030    2    1    2    0    0  0.00000000000E+00  0.00000000000E+00 -0.69383277139E+03  0.91719194435E+03  0.59986427476E+03 0.  0.
        1    1    3    3  502    0  0.12331049581E+03  0.10340521003E+03  0.40078005493E+02  0.16584439209E+03  0.50400001928E-02 0.  1.
       -1    1    3    3    0  502 -0.12331049581E+03 -0.10340521003E+03 -0.73391077688E+03  0.75134755226E+03  0.50400001928E-02 0. -1.
</event>
<event>
 5   0  0.2179625E-02  0.6080153E+03  0.7818609E-02  0.9888915E-01
        2   -1    0    0  501    0  0.00000000000E+00  0.00000000000E+00  0.12879312082E+03  0.12879312085E+03  0.25500000920E-02 0. -1.
       -2   -1    0    0    0  501  0.00000000000E+00  0.00000000000E+00 -0.71759000722E+03  0.71759000722E+03  0.25500000920E-02 0.  1.
    10030    2    1    2    0    0  0.00000000000E+00  0.00000000000E+00 -0.58879688640E+03  0.84638312807E+03  0.60801531728E+03 0.  0.
        1    1    3    3  502    0 -0.10599609430E+03 -0.20588646007E+02  0.10120030915E+03  0.14798840140E+03  0.50400001928E-02 0. -1.
       -1    1    3    3    0  502  0.10599609430E+03  0.20588646007E+02 -0.68999719555E+03  0.69839472667E+03  0.50400001928E-02 0.  1.
</event>
<event>
 5   0  0.1332555E-02  0.5959929E+03  0.7818609E-02  0.9913755E-01
       -1   -1    0    0    0  501  0.00000000000E+00  0.00000000000E+00  0.56941801621E+02  0.56941801844E+02  0.50400001928E-02 0. -1.
        1   -1    0    0  501    0  0.00000000000E+00  0.00000000000E+00 -0.15595201941E+04  0.15595201942E+04  0.50400001928E-02 0.  1.
    10030    2    1    2    0    0  0.00000000000E+00  0.00000000000E+00 -0.15025783925E+04  0.16164619960E+04  0.59599291844E+03 0.  0.
        2    1    3    3  502    0  0.24894851035E+02  0.20323885117E+03 -0.13385082791E+04  0.13540790957E+04  0.25500000920E-02 0.  1.
       -2    1    3    3    0  502 -0.24894851035E+02 -0.20323885117E+03 -0.16407011341E+03  0.26238290026E+03  0.25500000920E-02 0. -1.
</event>
<event>
 5   0  0.1250390E-02  0.5991357E+03  0.7818609E-02  0.9907201E-01
        1   -1    0    0  501    0  0.00000000000E+00  0.00000000000E+00  0.93859836024E+03  0.93859836026E+03  0.50400001928E-02 0. -1.
       -1   -1    0    0    0  501  0.00000000000E+00  0.00000000000E+00 -0.95611596725E+02  0.95611596858E+02  0.50400001928E-02 0.  1.
    10030    2    1    2    0    0  0.00000000000E+00  0.00000000000E+00  0.84298676352E+03  0.10342099571E+04  0.59913567072E+03 0.  0.
        3    1    3    3  502    0 -0.17604673031E+03 -0.94748637016E+02  0.36394502446E+02  0.20321005261E+03  0.10100000352E+00 0.  1.
       -3    1    3    3    0  502  0.17604673031E+03  0.94748637016E+02  0.80659226107E+03  0.83099990451E+03  0.10100000352E+00 0. -1.
</event>
<event>
 5   0  0.1303808E-02  0.6005001E+03  0.7818609E-02  0.9904369E-01
        1   -1    0    0  501    0  0.00000000000E+00  0.00000000000E+00  0.24149505493E+03  0.24149505498E+03  0.50400001928E-02 0. -1.
       -1   -1    0    0    0  501  0.00000000000E+00  0.00000000000E+00 -0.37329999837E+03  0.37329999841E+03  0.50400001928E-02 0.  1.
    10030    2    1    2    0    0  0.00000000000E+00  0.00000000000E+00 -0.13180494345E+03  0.61479505339E+03  0.60050013701E+03 0.  0.
        4    1    3    3  502    0 -0.73450636423E+02  0.21819229940E+03 -0.26322243757E+03  0.34970064347E+03  0.12699999809E+01 0.  1.
       -4    1    3    3    0  502  0.73450636423E+02 -0.21819229940E+03  0.13141749412E+03  0.26509440991E+03  0.12699999809E+01 0. -1.
</event>
<event>
 5   0  0.2179625E-02  0.5932694E+03  0.7818609E-02  0.9919469E-01
        2   -1    0    0  501    0  0.00000000000E+00  0.00000000000E+00  0.14526034555E+04  0.14526034555E+04  0.25500000920E-02 0.  1.
       -2   -1    0    0    0  501  0.00000000000E+00  0.00000000000E+00 -0.60575480737E+02  0.60575480790E+02  0.25500000920E-02 0. -1.
    10030    2    1    2    0    0  0.00000000000E+00  0.00000000000E+00  0.13920279748E+04  0.15131789363E+04  0.59326942507E+03 0.  0.
        1    1    3    3  502    0 -0.11453387268E+03 -0.13868952018E+03  0.12976438566E+04  0.13100505218E+04  0.50400001928E-02 0.  1.
       -1    1    3    3    0  502  0.11453387268E+03  0.13868952018E+03  0.94384118157E+02  0.20312841451E+03  0.50400001928E-02 0. -1.
</event>
<event>
 5   0  0.1332555E-02  0.6012425E+03  0.7818609E-02  0.9902832E-01
       -1   -1    0    0    0  501  0.00000000000E+00  0.00000000000E+00  0.14591092867E+03  0.14591092876E+03  0.50400001928E-02 0. -1.
        1   -1    0    0  501    0  0.00000000000E+00  0.00000000000E+00 -0.61937200595E+03  0.61937200597E+03  0.50400001928E-02 0.  1.
    10030    2    1    2    0    0  0.00000000000E+00  0.00000000000E+00 -0.47346107727E+03  0.76528293473E+03  0.60124252885E+03 0.  0.
        2    1    3    3  502    0  0.17976439926E+02 -0.27016705621E+03 -0.40297941469E+03  0.48549541638E+03  0.25500000920E-02 0. -1.
       -2    1    3    3    0  502 -0.17976439926E+02  0.27016705621E+03 -0.70481662581E+02  0.27978751835E+03  0.25500000920E-02 0.  1.
</event>
<event>
 5   0  0.1250390E-02  0.5992929E+03  0.7818609E-02  0.9906874E-01
       -1   -1    0    0    0  501  0.00000000000E+00  0.00000000000E+00  0.10712675263E+04  0.10712675264E+04  0.50400001928E-02 0.  1.
        1   -1    0    0  501    0  0.00000000000E+00  0.00000000000E+00 -0.83814730215E+02  0.83814730367E+02  0.50400001928E-02 0. -1.
    10030    2    1    2    0    0  0.00000000000E+00  0.00000000000E+00  0.98745279613E+03  0.11550822567E+04  0.59929291270E+03 0.  0.
        3    1    3    3  502    0  0.20057347225E+03 -0.22126384887E+03  0.44649191039E+03  0.53716146998E+03  0.10100000352E+00 0. -1.
       -3    1    3    3    0  502 -0.20057347225E+03  0.22126384887E+03  0.54096088575E+03  0.61792078675E+03  0.10100000352E+00 0.  1.
</event>
<event>
 5   0  0.1337051E-02  0.5916276E+03  0.7818609E-02  0.9922930E-01
       -1   -1    0    0    0  501  0.00000000000E+00  0.00000000000E+00  0.53560501323E+03  0.53560501326E+03  0.50400001928E-02 0.  1.
        1   -1    0    0  501    0  0.00000000000E+00  0.00000000000E+00 -0.16337746987E+03  0.16337746995E+03  0.50400001928E-02 0. -1.
    10030    2    1    2    0    0  0.00000000000E+00  0.00000000000E+00  0.37222754336E+03  0.69898248320E+03  0.59162755834E+03 0.  0.
        5    1    3    3  502    0 -0.75335931305E+01 -0.34623982770E+02  0.53304418419E+03  0.53424130082E+03  0.46999998093E+01 0.  1.
       -5    1    3    3    0  502  0.75335931305E+01  0.34623982770E+02 -0.16081664082E+03  0.16474118238E+03  0.46999998093E+01 0. -1.
</event>
<event>
 5   0  0.2179625E-02  0.6232422E+03  0.7818609E-02  0.9858326E-01
        2   -1    0    0  501    0  0.00000000000E+00  0.00000000000E+00  0.57388553103E+03  0.57388553104E+03  0.25500000920E-02 0. -1.
       -2   -1    0    0    0  501  0.00000000000E+00  0.00000000000E+00 -0.16921095484E+03  0.16921095486E+03  0.25500000920E-02 0.  1.
    10030    2    1    2    0    0  0.00000000000E+00  0.00000000000E+00  0.40467457619E+03  0.74309648590E+03  0.62324222798E+03 0.  0.
        1    1    3    3  502    0 -0.26299206197E+03  0.11860158265E+03  0.61884869232E+02  0.29506083632E+03  0.50400001928E-02 0.  1.
       -1    1    3    3    0  502  0.26299206197E+03 -0.11860158265E+03  0.34278970696E+03  0.44803564957E+03  0.50400001928E-02 0. -1.
</event>
<event>
 5   0  0.8551000E-03  0.6000115E+03  0.7818609E-02  0.9905382E-01
        3   -1    0    0  501    0  0.00000000000E+00  0.00000000000E+00  0.60455000158E+03  0.60455001002E+03  0.10100000352E+00 0. -1.
       -3   -1    0    0    0  501  0.00000000000E+00  0.00000000000E+00 -0.14887672752E+03  0.14887676178E+03  0.10100000352E+00 0.  1.
    10030    2    1    2    0    0  0.00000000000E+00  0.00000000000E+00  0.45567327406E+03  0.75342677180E+03  0.60001147303E+03 0.  0.
        4    1    3    3  502    0 -0.96774230758E+02 -0.64919781671E+02 -0.11929219799E+03  0.16676951518E+03  0.12699999809E+01 0.  1.
       -4    1    3    3    0  502  0.96774230758E+02  0.64919781671E+02  0.57496547206E+03  0.58665725662E+03  0.12699999809E+01 0. -1.
</event>
<event>
 5   0  0.1250390E-02  0.5990668E+03  0.7818609E-02  0.9907344E-01
       -1   -1    0    0    0  501  0.00000000000E+00  0.00000000000E+00  0.13846759033E+03  0.13846759042E+03  0.50400001928E-02 0.  1.
        1   -1    0    0  501    0  0.00000000000E+00  0.00000000000E+00 -0.64795137414E+03  0.64795137416E+03  0.50400001928E-02 0. -1.
    10030    2    1    2    0    0  0.00000000000E+00  0.00000000000E+00 -0.50948378381E+03  0.78641896459E+03  0.59906682590E+03 0.  0.
        3    1    3    3  502    0 -0.19665594696E+03 -0.18981396755E+03 -0.93871773778E+02  0.28898931445E+03  0.10100000352E+00 0.  1.
       -3    1    3    3    0  502  0.19665594696E+03  0.18981396755E+03 -0.41561201003E+03  0.49742965014E+03  0.10100000352E+00 0. -1.
</event>
<event>
 5   0  0.8551000E-03  0.6006489E+03  0.7818609E-02  0.9904061E-01
       -3   -1    0    0    0  501  0.00000000000E+00  0.00000000000E+00  0.79571082464E+02  0.79571146564E+02  0.10100000352E+00 0.  1.
        3   -1    0    0  501    0  0.00000000000E+00  0.00000000000E+00 -0.11335113711E+04  0.11335113756E+04  0.10100000352E+00 0. -1.
    10030    2    1    2    0    0  0.00000000000E+00  0.00000000000E+00 -0.10539402886E+04  0.12130825221E+04  0.60064887709E+03 0.  0.
        3    1    3    3  502    0 -0.32951040852E+02 -0.29531959127E+03 -0.43904529178E+03  0.53015112045E+03  0.10100000352E+00 0.  1.
       -3    1    3    3    0  502  0.32951040852E+02  0.29531959127E+03 -0.61489499680E+03  0.68293140166E+03  0.10100000352E+00 0. -1.
</event>
<event>
 5   0  0.2141800E-02  0.5996906E+03  0.7818609E-02  0.9906048E-01
        2   -1    0    0  501    0  0.00000000000E+00  0.00000000000E+00  0.36924735980E+03  0.36924735981E+03  0.25500000920E-02 0.  1.
       -2   -1    0    0    0  501  0.00000000000E+00  0.00000000000E+00 -0.24348776645E+03  0.24348776647E+03  0.25500000920E-02 0. -1.
    10030    2    1    2    0    0  0.00000000000E+00  0.00000000000E+00  0.12575959335E+03  0.61273512628E+03  0.59969063663E+03 0.  0.
        2    1    3    3  502    0 -0.28315200022E+01 -0.11088360162E+03 -0.22175476391E+03  0.24794831303E+03  0.25500000920E-02 0. -1.
       -2    1    3    3    0  502  0.28315200022E+01  0.11088360162E+03  0.34751435726E+03  0.36478681325E+03  0.25500000920E-02 0.  1.
</event>
<event>
 5   0  0.1332555E-02  0.5966726E+03  0.7818609E-02  0.9912333E-01
       -1   -1    0    0    0  501  0.00000000000E+00  0.00000000000E+00  0.33824136010E+02  0.33824136385E+02  0.50400001928E-02 0.  1.
        1   -1    0    0  501    0  0.00000000000E+00  0.00000000000E+00 -0.26313916930E+04  0.26313916930E+04  0.50400001928E-02 0. -1.
    10030    2    1    2    0    0  0.00000000000E+00  0.00000000000E+00 -0.25975675570E+04  0.26652158294E+04  0.59667261048E+03 0.  0.
        2    1    3    3  502    0 -0.26627847992E+03 -0.12259228594E+02 -0.18972352135E+04  0.19158695083E+04  0.25500000920E-02 0. -1.
       -2    1    3    3    0  502  0.26627847992E+03  0.12259228594E+02 -0.70033234347E+03  0.74934632106E+03  0.25500000920E-02 0.  1.
</event>
<event>
 5   0  0.2126207E-02  0.6001066E+03  0.7818609E-02  0.9905185E-01
       -2   -1    0    0    0  501  0.00000000000E+00  0.00000000000E+00  0.55184966440E+02  0.55184966499E+02  0.25500000920E-02 0. -1.
        2   -1    0    0  501    0  0.00000000000E+00  0.00000000000E+00 -0.16314583085E+04  0.16314583085E+04  0.25500000920E-02 0.  1.
    10030    2    1    2    0    0  0.00000000000E+00  0.00000000000E+00 -0.15762733421E+04  0.16866432750E+04  0.60010656405E+03 0.  0.
        5    1    3    3  502    0 -0.11676146971E+03 -0.13079253412E+03 -0.14723824988E+04  0.14827920422E+04  0.46999998093E+01 0. -1.
       -5    1    3    3    0  502  0.11676146971E+03  0.13079253412E+03 -0.10389084330E+03  0.20385123279E+03  0.46999998093E+01 0.  1.
</event>
<event>
 5   0  0.2142838E-02  0.5995936E+03  0.7818609E-02  0.9906250E-01
       -2   -1    0    0    0  501  0.00000000000E+00  0.00000000000E+00  0.95057042343E+02  0.95057042377E+02  0.25500000920E-02 0. -1.
        2   -1    0    0  501    0  0.00000000000E+00  0.00000000000E+00 -0.94551767480E+03  0.94551767480E+03  0.25500000920E-02 0.  1.
    10030    2    1    2    0    0  0.00000000000E+00  0.00000000000E+00 -0.85046063246E+03  0.10405747172E+04  0.59959357458E+03 0.  0.
        4    1    3    3  502    0 -0.88871914748E+01 -0.18095223646E+03 -0.83976284213E+03  0.85908436022E+03  0.12699999809E+01 0.  1.
       -4    1    3    3    0  502  0.88871914748E+01  0.18095223646E+03 -0.10697790329E+02  0.18149035696E+03  0.12699999809E+01 0. -1.
</event>
<event>
 5   0  0.2142838E-02  0.5979803E+03  0.7818609E-02  0.9909605E-01
        2   -1    0    0  501    0  0.00000000000E+00  0.00000000000E+00  0.83127284296E+03  0.83127284296E+03  0.25500000920E-02 0. -1.
       -2   -1    0    0    0  501  0.00000000000E+00  0.00000000000E+00 -0.10754002167E+03  0.10754002170E+03  0.25500000920E-02 0.  1.
    10030    2    1    2    0    0  0.00000000000E+00  0.00000000000E+00  0.72373282129E+03  0.93881286466E+03  0.59798026577E+03 0.  0.
        4    1    3    3  502    0 -0.87019064282E+02 -0.22430543913E+03  0.83187408738E+02  0.25457220085E+03  0.12699999809E+01 0.  1.
       -4    1    3    3    0  502  0.87019064282E+02  0.22430543913E+03  0.64054541255E+03  0.68424066381E+03  0.12699999809E+01 0. -1.
</event>
<event>
 5   0  0.1337051E-02  0.5996955E+03  0.7818609E-02  0.9906038E-01
        1   -1    0    0  501    0  0.00000000000E+00  0.00000000000E+00  0.76041739723E+03  0.76041739724E+03  0.50400001928E-02 0.  1.
       -1   -1    0    0    0  501  0.00000000000E+00  0.00000000000E+00 -0.11823596940E+03  0.11823596951E+03  0.50400001928E-02 0. -1.
    10030    2    1    2    0    0  0.00000000000E+00  0.00000000000E+00  0.64218142782E+03  0.87865336676E+03  0.59969554998E+03 0.  0.
        5    1    3    3  502    0 -0.28732342255E+03 -0.74168358833E+02  0.25839765115E+03  0.39350620162E+03  0.46999998093E+01 0. -1.
       -5    1    3    3    0  502  0.28732342255E+03  0.74168358833E+02  0.38378377668E+03  0.48514716513E+03  0.46999998093E+01 0.  1.
</event>
<event>
 5   0  0.1337051E-02  0.6006443E+03  0.7818609E-02  0.9904070E-01
       -1   -1    0    0    0  501  0.00000000000E+00  0.00000000000E+00  0.11276130899E+03  0.11276130910E+03  0.50400001928E-02 0.  1.
        1   -1    0    0  501    0  0.00000000000E+00  0.00000000000E+00 -0.79986129620E+03  0.79986129622E+03  0.50400001928E-02 0. -1.
    10030    2    1    2    0    0  0.00000000000E+00  0.00000000000E+00 -0.68709998721E+03  0.91262260532E+03  0.60064434345E+03 0.  0.
        5    1    3    3  502    0 -0.15913704051E+03 -0.75316963746E+02  0.26056477408E+02  0.17804008734E+03  0.46999998093E+01 0.  1.
       -5    1    3    3    0  502  0.15913704051E+03  0.75316963746E+02 -0.71315646462E+03  0.73458251797E+03  0.46999998093E+01 0. -1.
</event>
<event>
 5   0  0.1337051E-02  0.5915860E+03  0.7818609E-02  0.9923018E-01
        1   -1    0    0  501    0  0.00000000000E+00  0.00000000000E+00  0.18758645433E+03  0.18758645440E+03  0.50400001928E-02 0. -1.
       -1   -1    0    0    0  501  0.00000000000E+00  0.00000000000E+00 -0.46641685577E+03  0.46641685580E+03  0.50400001928E-02 0.  1.
    10030    2    1    2    0    0  0.00000000000E+00  0.00000000000E+00 -0.27883040144E+03  0.65400331020E+03  0.59158595063E+03 0.  0.
        5    1    3    3  502    0 -0.11245976657E+03  0.21855644908E+03 -0.32126135146E+03  0.40453067433E+03  0.46999998093E+01 0.  1.
       -5    1    3    3    0  502  0.11245976657E+03 -0.21855644908E+03  0.42430950022E+02  0.24947263587E+03  0.46999998093E+01 0. -1.
</event>
<event>
 5   0  0.2142838E-02  0.6059197E+03  0.7818609E-02  0.9893200E-01
       -2   -1    0    0    0  501  0.00000000000E+00  0.00000000000E+00  0.12357058414E+03  0.12357058416E+03  0.25500000920E-02 0. -1.
        2   -1    0    0  501    0  0.00000000000E+00  0.00000000000E+00 -0.74277114079E+03  0.74277114079E+03  0.25500000920E-02 0.  1.
    10030    2    1    2    0    0  0.00000000000E+00  0.00000000000E+00 -0.61920055665E+03  0.86634172496E+03  0.60591967705E+03 0.  0.
        4    1    3    3  502    0 -0.25799848420E+03 -0.72743117484E+02 -0.51144109507E+03  0.57743258102E+03  0.12699999809E+01 0.  1.
       -4    1    3    3    0  502  0.25799848420E+03  0.72743117484E+02 -0.10775946158E+03  0.28890914394E+03  0.12699999809E+01 0. -1.
</event>
<event>
 5   0  0.2126207E-02  0.6005840E+03  0.7818609E-02  0.9904195E-01
       -2   -1    0    0    0  501  0.00000000000E+00  0.00000000000E+00  0.12417980719E+03  0.12417980721E+03  0.25500000920E-02 0. -1.
        2   -1    0    0  501    0  0.00000000000E+00  0.00000000000E+00 -0.72616706950E+03  0.72616706950E+03  0.25500000920E-02 0.  1.
    10030    2    1    2    0    0  0.00000000000E+00  0.00000000000E+00 -0.60198726231E+03  0.85034687671E+03  0.60058400475E+03 0.  0.
        5    1    3    3  502    0  0.16952710821E+03 -0.13837654360E+03 -0.99109723932E+01  0.21910688169E+03  0.46999998093E+01 0. -1.
       -5    1    3    3    0  502 -0.16952710821E+03  0.13837654360E+03 -0.59207628992E+03  0.63123999502E+03  0.46999998093E+01 0.  1.
</event>
<event>
 5   0  0.1250390E-02  0.5976340E+03  0.7818609E-02  0.9910327E-01
        1   -1    0    0  501    0  0.00000000000E+00  0.00000000000E+00  0.44875652233E+03  0.44875652235E+03  0.50400001928E-02 0. -1.
       -1   -1    0    0    0  501  0.00000000000E+00  0.00000000000E+00 -0.19897558061E+03  0.19897558067E+03  0.50400001928E-02 0.  1.
    10030    2    1    2    0    0  0.00000000000E+00  0.00000000000E+00  0.24978094172E+03  0.64773210303E+03  0.59763396695E+03 0.  0.
        3    1    3    3  502    0 -0.11434782204E+03  0.18364920574E+03 -0.98517692944E+02  0.23771453721E+03  0.10100000352E+00 0.  1.
       -3    1    3    3    0  502  0.11434782204E+03 -0.18364920574E+03  0.34829863466E+03  0.41001756582E+03  0.10100000352E+00 0. -1.
</event>
<event>
 5   0  0.2142838E-02  0.5932652E+03  0.7818609E-02  0.9919478E-01
        2   -1    0    0  501    0  0.00000000000E+00  0.00000000000E+00  0.22070135267E+03  0.22070135269E+03  0.25500000920E-02 0. -1.
       -2   -1    0    0    0  501  0.00000000000E+00  0.00000000000E+00 -0.39868766042E+03  0.39868766042E+03  0.25500000920E-02 0.  1.
    10030    2    1    2    0    0  0.00000000000E+00  0.00000000000E+00 -0.17798630774E+03  0.61938901311E+03  0.59326522215E+03 0.  0.
        4    1    3    3  502    0  0.18107225060E+03  0.17734427358E+03 -0.24989345354E+03  0.35593047401E+03  0.12699999809E+01 0.  1.
       -4    1    3    3    0  502 -0.18107225060E+03 -0.17734427358E+03  0.71907145792E+02  0.26345853910E+03  0.12699999809E+01 0. -1.
</event>
<event>
 5   0  0.2179625E-02  0.6003005E+03  0.7818609E-02  0.9904783E-01
        2   -1    0    0  501    0  0.00000000000E+00  0.00000000000E+00  0.33525688366E+03  0.33525688366E+03  0.25500000920E-02 0. -1.
       -2   -1    0    0    0  501  0.00000000000E+00  0.00000000000E+00 -0.26871978845E+03  0.26871978846E+03  0.25500000920E-02 0.  1.
    10030    2    1    2    0    0  0.00000000000E+00  0.00000000000E+00  0.66537095207E+02  0.60397667212E+03  0.60030045430E+03 0.  0.
        1    1    3    3  502    0  0.18956353996E+03  0.22987432404E+03 -0.31972810803E+01  0.29797107774E+03  0.50400001928E-02 0. -1.
       -1    1    3    3    0  502 -0.18956353996E+03 -0.22987432404E+03  0.69734376287E+02  0.30600559439E+03  0.50400001928E-02 0.  1.
</event>
<event>
 5   0  0.8551000E-03  0.6007371E+03  0.7818609E-02  0.9903878E-01
        3   -1    0    0  501    0  0.00000000000E+00  0.00000000000E+00  0.78495640793E+03  0.78495641443E+03  0.10100000352E+00 0. -1.
       -3   -1    0    0    0  501  0.00000000000E+00  0.00000000000E+00 -0.11493788901E+03  0.11493793338E+03  0.10100000352E+00 0.  1.
    10030    2    1    2    0    0  0.00000000000E+00  0.00000000000E+00  0.67001851892E+03  0.89989434781E+03  0.60073706522E+03 0.  0.
        3    1    3    3  502    0  0.76549087118E+02 -0.26480403162E+03  0.51376778997E+03  0.58304227129E+03  0.10100000352E+00 0. -1.
       -3    1    3    3    0  502 -0.76549087118E+02  0.26480403162E+03  0.15625072895E+03  0.31685207652E+03  0.10100000352E+00 0.  1.
</event>
<event>
 5   0  0.1276705E-02  0.6002362E+03  0.7818609E-02  0.9904916E-01
       -1   -1    0    0    0  501  0.00000000000E+00  0.00000000000E+00  0.61300720100E+02  0.61300720308E+02  0.50400001928E-02 0. -1.
        1   -1    0    0  501    0  0.00000000000E+00  0.00000000000E+00 -0.14693282357E+04  0.14693282357E+04  0.50400001928E-02 0.  1.
    10030    2    1    2    0    0  0.00000000000E+00  0.00000000000E+00 -0.14080275156E+04  0.15306289560E+04  0.60023621709E+03 0.  0.
        1    1    3    3  502    0 -0.10131474109E+03  0.10980546133E+03 -0.13677553831E+04  0.13758912399E+04  0.50400001928E-02 0.  1.
       -1    1    3    3    0  502  0.10131474109E+03 -0.10980546133E+03 -0.40272132508E+02  0.15473771609E+03  0.50400001928E-02 0. -1.
</event>
<event>
 5   0  0.2092587E-02  0.6105052E+03  0.7818609E-02  0.9883848E-01
        2   -1    0    0  501    0  0.00000000000E+00  0.00000000000E+00  0.38278117835E+03  0.38278117836E+03  0.25500000920E-02 0.  1.
       -2   -1    0    0    0  501  0.00000000000E+00  0.00000000000E+00 -0.24342666082E+03  0.24342666083E+03  0.25500000920E-02 0. -1.
    10030    2    1    2    0    0  0.00000000000E+00  0.00000000000E+00  0.13935451753E+03  0.62620783919E+03  0.61050518122E+03 0.  0.
        3    1    3    3  502    0  0.22032599091E+03 -0.12671409111E+03 -0.10372456202E+03  0.27451556991E+03  0.10100000352E+00 0. -1.
       -3    1    3    3    0  502 -0.22032599091E+03  0.12671409111E+03  0.24307907955E+03  0.35169226928E+03  0.10100000352E+00 0.  1.
</event>
<event>
 5   0  0.1250390E-02  0.5973555E+03  0.7818609E-02  0.9910908E-01
        1   -1    0    0  501    0  0.00000000000E+00  0.00000000000E+00  0.10939254278E+04  0.10939254279E+04  0.50400001928E-02 0. -1.
       -1   -1    0    0    0  501  0.00000000000E+00  0.00000000000E+00 -0.81548894378E+02  0.81548894534E+02  0.50400001928E-02 0.  1.
    10030    2    1    2    0    0  0.00000000000E+00  0.00000000000E+00  0.10123765335E+04  0.11754743224E+04  0.59735553658E+03 0.  0.
        3    1    3    3  502    0 -0.27189324238E+03  0.75940093783E+02  0.31423409029E+03  0.42241674540E+03  0.10100000352E+00 0.  1.
       -3    1    3    3    0  502  0.27189324238E+03 -0.75940093783E+02  0.69814244318E+03  0.75305757699E+03  0.10100000352E+00 0. -1.
</event>
<event>
 5   0  0.1337051E-02  0.5978971E+03  0.7818609E-02  0.9909779E-01
        1   -1    0    0  501    0  0.00000000000E+00  0.00000000000E+00  0.10567343050E+03  0.10567343062E+03  0.50400001928E-02 0.  1.
       -1   -1    0    0    0  501  0.00000000000E+00  0.00000000000E+00 -0.84572097792E+03  0.84572097793E+03  0.50400001928E-02 0. -1.
    10030    2    1    2    0    0  0.00000000000E+00  0.00000000000E+00 -0.74004754742E+03  0.95139440855E+03  0.59789710501E+03 0.  0.
        5    1    3    3  502    0  0.57801584219E+02  0.15043530764E+03  0.30564035745E+02  0.16409770017E+03  0.46999998093E+01 0.  1.
       -5    1    3    3    0  502 -0.57801584219E+02 -0.15043530764E+03 -0.77061158316E+03  0.78729670838E+03  0.46999998093E+01 0. -1.
</event>
<event>
 5   0  0.8551000E-03  0.5998757E+03  0.7818609E-02  0.9905664E-01
        3   -1    0    0  501    0  0.00000000000E+00  0.00000000000E+00  0.56206293097E+03  0.56206294005E+03  0.10100000352E+00 0. -1.
       -3   -1    0    0    0  501  0.00000000000E+00  0.00000000000E+00 -0.16005804984E+03  0.16005808170E+03  0.10100000352E+00 0.  1.
    10030    2    1    2    0    0  0.00000000000E+00  0.00000000000E+00  0.40200488114E+03  0.72212102175E+03  0.59987569178E+03 0.  0.
        1    1    3    3  502    0 -0.14439673950E+03 -0.11920857966E+03 -0.81057399054E+02  0.20403775584E+03  0.50400001928E-02 0.  1.
       -1    1    3    3    0  502  0.14439673950E+03  0.11920857966E+03  0.48306228019E+03  0.51808326590E+03  0.50400001928E-02 0. -1.
</event>
<event>
 5   0  0.1276705E-02  0.5970467E+03  0.7818609E-02  0.9911552E-01
        1   -1    0    0  501    0  0.00000000000E+00  0.00000000000E+00  0.23382459346E+03  0.23382459351E+03  0.50400001928E-02 0. -1.
       -1   -1    0    0    0  501  0.00000000000E+00  0.00000000000E+00 -0.38112412094E+03  0.38112412098E+03  0.50400001928E-02 0.  1.
    10030    2    1    2    0    0  0.00000000000E+00  0.00000000000E+00 -0.14729952749E+03  0.61494871449E+03  0.59704670727E+03 0.  0.
        1    1    3    3  502    0 -0.35475008168E+02 -0.20370975552E+03  0.14812010906E+03  0.25435350878E+03  0.50400001928E-02 0. -1.
       -1    1    3    3    0  502  0.35475008168E+02  0.20370975552E+03 -0.29541963655E+03  0.36059520571E+03  0.50400001928E-02 0.  1.
</event>
<event>
 5   0  0.1276705E-02  0.6018172E+03  0.7818609E-02  0.9901643E-01
        1   -1    0    0  501    0  0.00000000000E+00  0.00000000000E+00  0.96930346246E+02  0.96930346377E+02  0.50400001928E-02 0.  1.
       -1   -1    0    0    0  501  0.00000000000E+00  0.00000000000E+00 -0.93413469588E+03  0.93413469589E+03  0.50400001928E-02 0. -1.
    10030    2    1    2    0    0  0.00000000000E+00  0.00000000000E+00 -0.83720434963E+03  0.10310650423E+04  0.60181724663E+03 0.  0.
        1    1    3    3  502    0 -0.72573768354E+02 -0.10844156174E+03  0.45937308848E+02  0.13833568063E+03  0.50400001928E-02 0.  1.
       -1    1    3    3    0  502  0.72573768354E+02  0.10844156174E+03 -0.88314165848E+03  0.89272936164E+03  0.50400001928E-02 0. -1.
</event>
<event>
 5   0  0.8551000E-03  0.5992666E+03  0.7818609E-02  0.9906929E-01
       -3   -1    0    0    0  501  0.00000000000E+00  0.00000000000E+00  0.11062675157E+04  0.11062675203E+04  0.10100000352E+00 0. -1.
        3   -1    0    0  501    0  0.00000000000E+00  0.00000000000E+00 -0.81155833475E+02  0.81155896324E+02  0.10100000352E+00 0.  1.
    10030    2    1    2    0    0  0.00000000000E+00  0.00000000000E+00  0.10251116822E+04  0.11874234166E+04  0.59926655950E+03 0.  0.
        1    1    3    3  502    0  0.43084028878E+02 -0.13850428905E+03  0.10320631834E+04  0.10422063549E+04  0.50400001928E-02 0. -1.
       -1    1    3    3    0  502 -0.43084028878E+02  0.13850428905E+03 -0.69515011645E+01  0.14521706175E+03  0.50400001928E-02 0.  1.
</event>
<event>
 5   0  0.2092587E-02  0.5988597E+03  0.7818609E-02  0.9907775E-01
        2   -1    0    0  501    0  0.00000000000E+00  0.00000000000E+00  0.60318137898E+03  0.60318137899E+03  0.25500000920E-02 0.  1.
       -2   -1    0    0    0  501  0.00000000000E+00  0.00000000000E+00 -0.14864223464E+03  0.14864223466E+03  0.25500000920E-02 0. -1.
    10030    2    1    2    0    0  0.00000000000E+00  0.00000000000E+00  0.45453914434E+03  0.75182361365E+03  0.59885967664E+03 0.  0.
        3    1    3    3  502    0 -0.54674974511E+02 -0.28369405326E+03  0.12852456955E+03  0.31621233984E+03  0.10100000352E+00 0. -1.
       -3    1    3    3    0  502  0.54674974511E+02  0.28369405326E+03  0.32601457479E+03  0.43561127381E+03  0.10100000352E+00 0.  1.
</event>
<event>
 5   0  0.8551000E-03  0.6017766E+03  0.7818609E-02  0.9901727E-01
        3   -1    0    0  501    0  0.00000000000E+00  0.00000000000E+00  0.19374073311E+03  0.19374075944E+03  0.10100000352E+00 0.  1.
       -3   -1    0    0    0  501  0.00000000000E+00  0.00000000000E+00 -0.46729335010E+03  0.46729336102E+03  0.10100000352E+00 0. -1.
    10030    2    1    2    0    0  0.00000000000E+00  0.00000000000E+00 -0.27355261699E+03  0.66103412045E+03  0.60177659820E+03 0.  0.
        3    1    3    3  502    0 -0.26186251788E+03 -0.14778361567E+03 -0.12465409519E+03  0.32550058215E+03  0.10100000352E+00 0. -1.
       -3    1    3    3    0  502  0.26186251788E+03  0.14778361567E+03 -0.14889852180E+03  0.33553353830E+03  0.10100000352E+00 0.  1.
</event>
<event>
 5   0  0.1276705E-02  0.5958048E+03  0.7818609E-02  0.9914148E-01
       -1   -1    0    0    0  501  0.00000000000E+00  0.00000000000E+00  0.34990765923E+03  0.34990765927E+03  0.50400001928E-02 0. -1.
        1   -1    0    0  501    0  0.00000000000E+00  0.00000000000E+00 -0.25362644372E+03  0.25362644377E+03  0.50400001928E-02 0.  1.
    10030    2    1    2    0    0  0.00000000000E+00  0.00000000000E+00  0.96281215513E+02  0.60353410304E+03  0.59580478437E+03 0.  0.
        1    1    3    3  502    0  0.78743392901E+02  0.25189870045E+03 -0.91827023806E+02  0.27943814976E+03  0.50400001928E-02 0.  1.
       -1    1    3    3    0  502 -0.78743392901E+02 -0.25189870045E+03  0.18810823932E+03  0.32409595329E+03  0.50400001928E-02 0. -1.
</event>
<event>
 5   0  0.1332555E-02  0.5986497E+03  0.7818609E-02  0.9908212E-01
       -1   -1    0    0    0  501  0.00000000000E+00  0.00000000000E+00  0.12340704555E+03  0.12340704565E+03  0.50400001928E-02 0. -1.
        1   -1    0    0  501    0  0.00000000000E+00  0.00000000000E+00 -0.72601494556E+03  0.72601494558E+03  0.50400001928E-02 0.  1.
    10030    2    1    2    0    0  0.00000000000E+00  0.00000000000E+00 -0.60260790001E+03  0.84942199123E+03  0.59864967889E+03 0.  0.
        2    1    3    3  502    0  0.17127203535E+03 -0.16076288901E+03 -0.56453333477E+03  0.61145457939E+03  0.25500000920E-02 0.  1.
       -2    1    3    3    0  502 -0.17127203535E+03  0.16076288901E+03 -0.38074565235E+02  0.23796741184E+03  0.25500000920E-02 0. -1.
</event>
<event>
 5   0  0.1250390E-02  0.5921122E+03  0.7818609E-02  0.9921907E-01
       -1   -1    0    0    0  501  0.00000000000E+00  0.00000000000E+00  0.18877289365E+03  0.18877289372E+03  0.50400001928E-02 0. -1.
        1   -1    0    0  501    0  0.00000000000E+00  0.00000000000E+00 -0.46431030718E+03  0.46431030720E+03  0.50400001928E-02 0.  1.
    10030    2    1    2    0    0  0.00000000000E+00  0.00000000000E+00 -0.27553741352E+03  0.65308320092E+03  0.59211215245E+03 0.  0.
        3    1    3    3  502    0 -0.21442933454E+03 -0.87863881423E+02  0.65457279308E+02  0.24080005561E+03  0.10100000352E+00 0. -1.
       -3    1    3    3    0  502  0.21442933454E+03  0.87863881423E+02 -0.34099469283E+03  0.41228314531E+03  0.10100000352E+00 0.  1.
</event>
<event>
 5   0  0.2179625E-02  0.5989254E+03  0.7818609E-02  0.9907638E-01
       -2   -1    0    0    0  501  0.00000000000E+00  0.00000000000E+00  0.30825087066E+03  0.30825087067E+03  0.25500000920E-02 0.  1.
        2   -1    0    0  501    0  0.00000000000E+00  0.00000000000E+00 -0.29092509132E+03  0.29092509133E+03  0.25500000920E-02 0. -1.
    10030    2    1    2    0    0  0.00000000000E+00  0.00000000000E+00  0.17325779338E+02  0.59917596200E+03  0.59892541340E+03 0.  0.
        1    1    3    3  502    0  0.93025554958E+02 -0.22691676651E+03  0.18058628567E+03  0.30455931999E+03  0.50400001928E-02 0.  1.
       -1    1    3    3    0  502 -0.93025554958E+02  0.22691676651E+03 -0.16326050633E+03  0.29461664201E+03  0.50400001928E-02 0. -1.
</event>
<event>
 5   0  0.2092587E-02  0.6000118E+03  0.7818609E-02  0.9905382E-01
        2   -1    0    0  501    0  0.00000000000E+00  0.00000000000E+00  0.87723965515E+03  0.87723965515E+03  0.25500000920E-02 0.  1.
       -2   -1    0    0    0  501  0.00000000000E+00  0.00000000000E+00 -0.10259857796E+03  0.10259857799E+03  0.25500000920E-02 0. -1.
    10030    2    1    2    0    0  0.00000000000E+00  0.00000000000E+00  0.77464107719E+03  0.97983823314E+03  0.60001180376E+03 0.  0.
        3    1    3    3  502    0 -0.15297525152E+03  0.20258672700E+03  0.12623600763E+03  0.28351075704E+03  0.10100000352E+00 0. -1.
       -3    1    3    3    0  502  0.15297525152E+03 -0.20258672700E+03  0.64840506956E+03  0.69632747610E+03  0.10100000352E+00 0.  1.
</event>
<event>
 5   0  0.1303808E-02  0.5994913E+03  0.7818609E-02  0.9906462E-01
        1   -1    0    0  501    0  0.00000000000E+00  0.00000000000E+00  0.18757896687E+03  0.18757896694E+03  0.50400001928E-02 0. -1.
       -1   -1    0    0    0  501  0.00000000000E+00  0.00000000000E+00 -0.47898468690E+03  0.47898468692E+03  0.50400001928E-02 0.  1.
    10030    2    1    2    0    0  0.00000000000E+00  0.00000000000E+00 -0.29140572002E+03  0.66656365386E+03  0.59949129350E+03 0.  0.
        4    1    3    3  502    0  0.23989128119E+03 -0.17921909129E+03 -0.16055930189E+03  0.33977670873E+03  0.12699999809E+01 0. -1.
       -4    1    3    3    0  502 -0.23989128119E+03  0.17921909129E+03 -0.13084641814E+03  0.32678694513E+03  0.12699999809E+01 0.  1.
</event>
<event>
 5   0  0.1332555E-02  0.5988944E+03  0.7818609E-02  0.9907702E-01
       -1   -1    0    0    0  501  0.00000000000E+00  0.00000000000E+00  0.77974478932E+02  0.77974479095E+02  0.50400001928E-02 0. -1.
        1   -1    0    0  501    0  0.00000000000E+00  0.00000000000E+00 -0.11499739975E+04  0.11499739975E+04  0.50400001928E-02 0.  1.
    10030    2    1    2    0    0  0.00000000000E+00  0.00000000000E+00 -0.10719995185E+04  0.12279484766E+04  0.59889439251E+03 0.  0.
        2    1    3    3  502    0 -0.13939510097E+03 -0.26243959327E+03 -0.61169908511E+03  0.68005978048E+03  0.25500000920E-02 0.  1.
       -2    1    3    3    0  502  0.13939510097E+03  0.26243959327E+03 -0.46030043343E+03  0.54788869610E+03  0.25500000920E-02 0. -1.
</event>
<event>
 5   0  0.1303808E-02  0.6017845E+03  0.7818609E-02  0.9901711E-01
        1   -1    0    0  501    0  0.00000000000E+00  0.00000000000E+00  0.13582216091E+03  0.13582216100E+03  0.50400001928E-02 0.  1.
       -1   -1    0    0    0  501  0.00000000000E+00  0.00000000000E+00 -0.66657859318E+03  0.66657859320E+03  0.50400001928E-02 0. -1.
    10030    2    1    2    0    0  0.00000000000E+00  0.00000000000E+00 -0.53075643227E+03  0.80240075420E+03  0.60178449626E+03 0.  0.
        4    1    3    3  502    0  0.57457537855E+02  0.25231070984E+03 -0.47009472712E+03  0.53661227001E+03  0.12699999809E+01 0. -1.
       -4    1    3    3    0  502 -0.57457537855E+02 -0.25231070984E+03 -0.60661705150E+02  0.26578848419E+03  0.12699999809E+01 0.  1.
</event>
<event>
 5   0  0.1276705E-02  0.6007008E+03  0.7818609E-02  0.9903953E-01
       -1   -1    0    0    0  501  0.00000000000E+00  0.00000000000E+00  0.11747498976E+03  0.11747498987E+03  0.50400001928E-02 0. -1.
        1   -1    0    0  501    0  0.00000000000E+00  0.00000000000E+00 -0.76791131597E+03  0.76791131598E+03  0.50400001928E-02 0.  1.
    10030    2    1    2    0    0  0.00000000000E+00  0.00000000000E+00 -0.65043632621E+03  0.88538630585E+03  0.60070083747E+03 0.  0.
        1    1    3    3  502    0  0.12398026012E+03 -0.10273036426E+03 -0.69892572988E+03  0.71723204652E+03  0.50400001928E-02 0.  1.
       -1    1    3    3    0  502 -0.12398026012E+03  0.10273036426E+03  0.48489403669E+02  0.16815425933E+03  0.50400001928E-02 0. -1.
</event>
<event>
 5   0  0.1337051E-02  0.6037572E+03  0.7818609E-02  0.9897642E-01
       -1   -1    0    0    0  501  0.00000000000E+00  0.00000000000E+00  0.19376399972E+03  0.19376399978E+03  0.50400001928E-02 0. -1.
        1   -1    0    0  501    0  0.00000000000E+00  0.00000000000E+00 -0.47031792464E+03  0.47031792466E+03  0.50400001928E-02 0.  1.
    10030    2    1    2    0    0  0.00000000000E+00  0.00000000000E+00 -0.27655392492E+03  0.66408192444E+03  0.60375717717E+03 0.  0.
        5    1    3    3  502    0  0.60067503743E+02 -0.15446437062E+03  0.13920112217E+03  0.21648646426E+03  0.46999998093E+01 0. -1.
       -5    1    3    3    0  502 -0.60067503743E+02  0.15446437062E+03 -0.41575504709E+03  0.44759546018E+03  0.46999998093E+01 0.  1.
</event>
<event>
 5   0  0.1303808E-02  0.6014571E+03  0.7818609E-02  0.9902388E-01
       -1   -1    0    0    0  501  0.00000000000E+00  0.00000000000E+00  0.41751292804E+03  0.41751292807E+03  0.50400001928E-02 0.  1.
        1   -1    0    0  501    0  0.00000000000E+00  0.00000000000E+00 -0.21661043868E+03  0.21661043874E+03  0.50400001928E-02 0. -1.
    10030    2    1    2    0    0  0.00000000000E+00  0.00000000000E+00  0.20090248936E+03  0.63412336681E+03  0.60145709248E+03 0.  0.
        4    1    3    3  502    0 -0.18465519298E+03 -0.23392828578E+03  0.14283487717E+03  0.33048963405E+03  0.12699999809E+01 0.  1.
       -4    1    3    3    0  502  0.18465519298E+03  0.23392828578E+03  0.58067612187E+02  0.30363373275E+03  0.12699999809E+01 0. -1.
</event>
<event>
 5   0  0.2142838E-02  0.5995817E+03  0.7818609E-02  0.9906274E-01
        2   -1    0    0  501    0  0.00000000000E+00  0.00000000000E+00  0.65066364722E+03  0.65066364723E+03  0.25500000920E-02 0.  1.
       -2   -1    0    0    0  501  0.00000000000E+00  0.00000000000E+00 -0.13812751705E+03  0.13812751707E+03  0.25500000920E-02 0. -1.
    10030    2    1    2    0    0  0.00000000000E+00  0.00000000000E+00  0.51253613017E+03  0.78879116430E+03  0.59958170098E+03 0.  0.
        4    1    3    3  502    0 -0.28191918544E+03 -0.84824264172E+02  0.18185570101E+03  0.34604434947E+03  0.12699999809E+01 0. -1.
       -4    1    3    3    0  502  0.28191918544E+03  0.84824264172E+02  0.33068042916E+03  0.44274681483E+03  0.12699999809E+01 0.  1.
</event>
<event>
 5   0  0.8551000E-03  0.6041808E+03  0.7818609E-02  0.9896770E-01
       -3   -1    0    0    0  501  0.00000000000E+00  0.00000000000E+00  0.27314933363E+03  0.27314935230E+03  0.10100000352E+00 0.  1.
        3   -1    0    0  501    0  0.00000000000E+00  0.00000000000E+00 -0.33409780915E+03  0.33409782441E+03  0.10100000352E+00 0. -1.
    10030    2    1    2    0    0  0.00000000000E+00  0.00000000000E+00 -0.60948475522E+02  0.60724717671E+03  0.60418078169E+03 0.  0.
        4    1    3    3  502    0 -0.28516064190E+03  0.55114349812E+02 -0.11397904878E+03  0.31200483923E+03  0.12699999809E+01 0. -1.
       -4    1    3    3    0  502  0.28516064190E+03 -0.55114349812E+02  0.53030573262E+02  0.29524233748E+03  0.12699999809E+01 0.  1.
</event>
<event>
 5   0  0.2142838E-02  0.5999946E+03  0.7818609E-02  0.9905417E-01
        2   -1    0    0  501    0  0.00000000000E+00  0.00000000000E+00  0.11831238805E+03  0.11831238808E+03  0.25500000920E-02 0.  1.
       -2   -1    0    0    0  501  0.00000000000E+00  0.00000000000E+00 -0.76068438282E+03  0.76068438282E+03  0.25500000920E-02 0. -1.
    10030    2    1    2    0    0  0.00000000000E+00  0.00000000000E+00 -0.64237199477E+03  0.87899677090E+03  0.59999461964E+03 0.  0.
        4    1    3    3  502    0 -0.16293889491E+03  0.18240211192E+02 -0.68923543859E+03  0.70846940053E+03  0.12699999809E+01 0. -1.
       -4    1    3    3    0  502  0.16293889491E+03 -0.18240211192E+02  0.46863443825E+02  0.17052737037E+03  0.12699999809E+01 0.  1.
</event>
<event>
 5   0  0.1276705E-02  0.6005516E+03  0.7818609E-02  0.9904262E-01
       -1   -1    0    0    0  501  0.00000000000E+00  0.00000000000E+00  0.14234705044E+03  0.14234705053E+03  0.50400001928E-02 0.  1.
        1   -1    0    0  501    0  0.00000000000E+00  0.00000000000E+00 -0.63342065646E+03  0.63342065648E+03  0.50400001928E-02 0. -1.
    10030    2    1    2    0    0  0.00000000000E+00  0.00000000000E+00 -0.49107360601E+03  0.77576770701E+03  0.60055162036E+03 0.  0.
        1    1    3    3  502    0  0.96253214801E+02  0.26347108395E+03 -0.38396528728E+03  0.47551134087E+03  0.50400001928E-02 0. -1.
       -1    1    3    3    0  502 -0.96253214801E+02 -0.26347108395E+03 -0.10710831874E+03  0.30025636614E+03  0.50400001928E-02 0.  1.
</event>
<event>
 5   0  0.1303808E-02  0.6005222E+03  0.7818609E-02  0.9904323E-01
       -1   -1    0    0    0  501  0.00000000000E+00  0.00000000000E+00  0.54240321291E+03  0.54240321293E+03  0.50400001928E-02 0.  1.
        1   -1    0    0  501    0  0.00000000000E+00  0.00000000000E+00 -0.16621717900E+03  0.16621717907E+03  0.50400001928E-02 0. -1.
    10030    2    1    2    0    0  0.00000000000E+00  0.00000000000E+00  0.37618603391E+03  0.70862039201E+03  0.60052221263E+03 0.  0.
        4    1    3    3  502    0  0.12994318328E+03  0.23559150838E+02  0.50629006023E+03  0.52323178655E+03  0.12699999809E+01 0.  1.
       -4    1    3    3    0  502 -0.12994318328E+03 -0.23559150838E+02 -0.13010402632E+03  0.18538860546E+03  0.12699999809E+01 0. -1.
</event>
<event>
 5   0  0.2142838E-02  0.6006721E+03  0.7818609E-02  0.9904013E-01
       -2   -1    0    0    0  501  0.00000000000E+00  0.00000000000E+00  0.93413540263E+02  0.93413540298E+02  0.25500000920E-02 0. -1.
        2   -1    0    0  501    0  0.00000000000E+00  0.00000000000E+00 -0.96561758833E+03  0.96561758834E+03  0.25500000920E-02 0.  1.
    10030    2    1    2    0    0  0.00000000000E+00  0.00000000000E+00 -0.87220404807E+03  0.10590311286E+04  0.60067214847E+03 0.  0.
        4    1    3    3  502    0  0.21446631422E+03  0.89560856327E+02 -0.77147240385E+03  0.80572217899E+03  0.12699999809E+01 0.  1.
       -4    1    3    3    0  502 -0.21446631422E+03 -0.89560856327E+02 -0.10073164422E+03  0.25330894964E+03  0.12699999809E+01 0. -1.
</event>
<event>
 5   0  0.2142838E-02  0.5975933E+03  0.7818609E-02  0.9910412E-01
       -2   -1    0    0    0  501  0.00000000000E+00  0.00000000000E+00  0.11447045628E+03  0.11447045631E+03  0.25500000920E-02 0. -1.
        2   -1    0    0  501    0  0.00000000000E+00  0.00000000000E+00 -0.77993431543E+03  0.77993431544E+03  0.25500000920E-02 0.  1.
    10030    2    1    2    0    0  0.00000000000E+00  0.00000000000E+00 -0.66546385916E+03  0.89440477174E+03  0.59759329638E+03 0.  0.
        4    1    3    3  502    0  0.22864525083E+03  0.24159005559E+02 -0.61834075512E+03  0.65970388101E+03  0.12699999809E+01 0.  1.
       -4    1    3    3    0  502 -0.22864525083E+03 -0.24159005559E+02 -0.47123104035E+02  0.23470089073E+03  0.12699999809E+01 0. -1.
</event>
<event>
 5   0  0.2126207E-02  0.6339888E+03  0.7818609E-02  0.9837296E-01
       -2   -1    0    0    0  501  0.00000000000E+00  0.00000000000E+00  0.40494735568E+03  0.40494735568E+03  0.25500000920E-02 0.  1.
        2   -1    0    0  501    0  0.00000000000E+00  0.00000000000E+00 -0.24814445070E+03  0.24814445071E+03  0.25500000920E-02 0. -1.
    10030    2    1    2    0    0  0.00000000000E+00  0.00000000000E+00  0.15680290498E+03  0.65309180639E+03  0.63398876691E+03 0.  0.
        5    1    3    3  502    0 -0.30307341526E+03 -0.90670781082E+02  0.98710033843E+02  0.33142185558E+03  0.46999998093E+01 0.  1.
       -5    1    3    3    0  502  0.30307341526E+03  0.90670781082E+02  0.58092871137E+02  0.32166995081E+03  0.46999998093E+01 0. -1.
</event>
<event>
 5   0  0.2179625E-02  0.5966930E+03  0.7818609E-02  0.9912291E-01
       -2   -1    0    0    0  501  0.00000000000E+00  0.00000000000E+00  0.43712350892E+03  0.43712350893E+03  0.25500000920E-02 0. -1.
        2   -1    0    0  501    0  0.00000000000E+00  0.00000000000E+00 -0.20362810838E+03  0.20362810839E+03  0.25500000920E-02 0.  1.
    10030    2    1    2    0    0  0.00000000000E+00  0.00000000000E+00  0.23349540054E+03  0.64075161732E+03  0.59669299730E+03 0.  0.
        1    1    3    3  502    0 -0.23192980125E+02  0.18131057202E+03 -0.13645773462E+03  0.22810557033E+03  0.50400001928E-02 0.  1.
       -1    1    3    3    0  502  0.23192980125E+02 -0.18131057202E+03  0.36995313516E+03  0.41264604699E+03  0.50400001928E-02 0. -1.
</event>
<event>
 5   0  0.1337051E-02  0.6001144E+03  0.7818609E-02  0.9905169E-01
       -1   -1    0    0    0  501  0.00000000000E+00  0.00000000000E+00  0.17204827711E+03  0.17204827718E+03  0.50400001928E-02 0. -1.
        1   -1    0    0  501    0  0.00000000000E+00  0.00000000000E+00 -0.52330847368E+03  0.52330847370E+03  0.50400001928E-02 0.  1.
    10030    2    1    2    0    0  0.00000000000E+00  0.00000000000E+00 -0.35126019657E+03  0.69535675089E+03  0.60011439352E+03 0.  0.
        5    1    3    3  502    0 -0.13700961747E+03 -0.13422629500E+03  0.91687142822E+02  0.21264278898E+03  0.46999998093E+01 0. -1.
       -5    1    3    3    0  502  0.13700961747E+03  0.13422629500E+03 -0.44294733939E+03  0.48271396191E+03  0.46999998093E+01 0.  1.
</event>
<event>
 5   0  0.2126207E-02  0.5998924E+03  0.7818609E-02  0.9905629E-01
        2   -1    0    0  501    0  0.00000000000E+00  0.00000000000E+00  0.10499119800E+04  0.10499119800E+04  0.25500000920E-02 0. -1.
       -2   -1    0    0    0  501  0.00000000000E+00  0.00000000000E+00 -0.85690724079E+02  0.85690724117E+02  0.25500000920E-02 0.  1.
    10030    2    1    2    0    0  0.00000000000E+00  0.00000000000E+00  0.96422125591E+03  0.11356027041E+04  0.59989238304E+03 0.  0.
        5    1    3    3  502    0 -0.20499044801E+03  0.19954322330E+03  0.65255567705E+03  0.71252339147E+03  0.46999998093E+01 0. -1.
       -5    1    3    3    0  502  0.20499044801E+03 -0.19954322330E+03  0.31166557886E+03  0.42307931264E+03  0.46999998093E+01 0.  1.
</event>
<event>
 5   0  0.8551000E-03  0.5982279E+03  0.7818609E-02  0.9909090E-01
       -4   -1    0    0    0  501  0.00000000000E+00  0.00000000000E+00  0.46282267942E+03  0.46282442188E+03  0.12699999809E+01 0. -1.
        4   -1    0    0  501    0  0.00000000000E+00  0.00000000000E+00 -0.19330772774E+03  0.19331189954E+03  0.12699999809E+01 0.  1.
    10030    2    1    2    0    0  0.00000000000E+00  0.00000000000E+00  0.26951495168E+03  0.65613632142E+03  0.59822785217E+03 0.  0.
        1    1    3    3  502    0  0.27342947990E+03 -0.11039158304E+03  0.18980720817E+03  0.35068042201E+03  0.50400001928E-02 0. -1.
       -1    1    3    3    0  502 -0.27342947990E+03  0.11039158304E+03  0.79707743511E+02  0.30545589941E+03  0.50400001928E-02 0.  1.
</event>
<event>
 5   0  0.2126207E-02  0.6021798E+03  0.7818609E-02  0.9900894E-01
        2   -1    0    0  501    0  0.00000000000E+00  0.00000000000E+00  0.29418090423E+03  0.29418090424E+03  0.25500000920E-02 0.  1.
       -2   -1    0    0    0  501  0.00000000000E+00  0.00000000000E+00 -0.30816113062E+03  0.30816113063E+03  0.25500000920E-02 0. -1.
    10030    2    1    2    0    0  0.00000000000E+00  0.00000000000E+00 -0.13980226393E+02  0.60234203486E+03  0.60217977402E+03 0.  0.
        5    1    3    3  502    0 -0.76582409874E+02  0.14257222198E+03 -0.26091147688E+03  0.30706447654E+03  0.46999998093E+01 0. -1.
       -5    1    3    3    0  502  0.76582409874E+02 -0.14257222198E+03  0.24693125049E+03  0.29527755833E+03  0.46999998093E+01 0.  1.
</event>
<event>
 5   0  0.1250390E-02  0.5989295E+03  0.7818609E-02  0.9907629E-01
       -1   -1    0    0    0  501  0.00000000000E+00  0.00000000000E+00  0.20296680546E+03  0.20296680553E+03  0.50400001928E-02 0. -1.
        1   -1    0    0  501    0  0.00000000000E+00  0.00000000000E+00 -0.44184141717E+03  0.44184141720E+03  0.50400001928E-02 0.  1.
    10030    2    1    2    0    0  0.00000000000E+00  0.00000000000E+00 -0.23887461170E+03  0.64480822272E+03  0.59892951503E+03 0.  0.
        3    1    3    3  502    0  0.96092524339E+02 -0.42469766302E+01 -0.42475828907E+03  0.43551282918E+03  0.10100000352E+00 0.  1.
       -3    1    3    3    0  502 -0.96092524339E+02  0.42469766302E+01  0.18588367737E+03  0.20929539354E+03  0.10100000352E+00 0. -1.
</event>
<event>
 5   0  0.1332555E-02  0.5996539E+03  0.7818609E-02  0.9906124E-01
       -1   -1    0    0    0  501  0.00000000000E+00  0.00000000000E+00  0.40001466611E+03  0.40001466615E+03  0.50400001928E-02 0.  1.
        1   -1    0    0  501    0  0.00000000000E+00  0.00000000000E+00 -0.22473229568E+03  0.22473229574E+03  0.50400001928E-02 0. -1.
    10030    2    1    2    0    0  0.00000000000E+00  0.00000000000E+00  0.17528237043E+03  0.62474696189E+03  0.59965394771E+03 0.  0.
        2    1    3    3  502    0 -0.13886913218E+03  0.10373546691E+03  0.34252218421E+03  0.38388426596E+03  0.25500000920E-02 0.  1.
       -2    1    3    3    0  502  0.13886913218E+03 -0.10373546691E+03 -0.16723981378E+03  0.24086269593E+03  0.25500000920E-02 0. -1.
</event>
<event>
 5   0  0.1250390E-02  0.5986132E+03  0.7818609E-02  0.9908287E-01
       -1   -1    0    0    0  501  0.00000000000E+00  0.00000000000E+00  0.25440652278E+03  0.25440652283E+03  0.50400001928E-02 0. -1.
        1   -1    0    0  501    0  0.00000000000E+00  0.00000000000E+00 -0.35213101844E+03  0.35213101847E+03  0.50400001928E-02 0.  1.
    10030    2    1    2    0    0  0.00000000000E+00  0.00000000000E+00 -0.97724495653E+02  0.60653754131E+03  0.59861315719E+03 0.  0.
        3    1    3    3  502    0 -0.90405376392E+02 -0.71125900183E+02  0.23111500770E+03  0.25815921976E+03  0.10100000352E+00 0. -1.
       -3    1    3    3    0  502  0.90405376392E+02  0.71125900183E+02 -0.32883950336E+03  0.34837832155E+03  0.10100000352E+00 0.  1.
</event>
<event>
 5   0  0.1250390E-02  0.6012099E+03  0.7818609E-02  0.9902899E-01
        1   -1    0    0  501    0  0.00000000000E+00  0.00000000000E+00  0.18961894824E+03  0.18961894830E+03  0.50400001928E-02 0. -1.
       -1   -1    0    0    0  501  0.00000000000E+00  0.00000000000E+00 -0.47655224956E+03  0.47655224958E+03  0.50400001928E-02 0.  1.
    10030    2    1    2    0    0  0.00000000000E+00  0.00000000000E+00 -0.28693330132E+03  0.66617119789E+03  0.60120990135E+03 0.  0.
        3    1    3    3  502    0  0.22928933039E+03 -0.13238693996E+03  0.14264030373E+02  0.26514782984E+03  0.10100000352E+00 0. -1.
       -3    1    3    3    0  502 -0.22928933039E+03  0.13238693996E+03 -0.30119733169E+03  0.40102336805E+03  0.10100000352E+00 0.  1.
</event>
<event>
 5   0  0.2141800E-02  0.5976779E+03  0.7818609E-02  0.9910235E-01
        2   -1    0    0  501    0  0.00000000000E+00  0.00000000000E+00  0.85708675919E+03  0.85708675919E+03  0.25500000920E-02 0. -1.
       -2   -1    0    0    0  501  0.00000000000E+00  0.00000000000E+00 -0.10419566693E+03  0.10419566696E+03  0.25500000920E-02 0.  1.
    10030    2    1    2    0    0  0.00000000000E+00  0.00000000000E+00  0.75289109226E+03  0.96128242616E+03  0.59767792835E+03 0.  0.
        2    1    3    3  502    0  0.15337420388E+03  0.12303993241E+03  0.73838864723E+03  0.76412058325E+03  0.25500000920E-02 0. -1.
       -2    1    3    3    0  502 -0.15337420388E+03 -0.12303993241E+03  0.14502445033E+02  0.19716184291E+03  0.25500000920E-02 0.  1.
</event>
<event>
 5   0  0.1250390E-02  0.5986880E+03  0.7818609E-02  0.9908132E-01
       -1   -1    0    0    0  501  0.00000000000E+00  0.00000000000E+00  0.24734171449E+03  0.24734171454E+03  0.50400001928E-02 0.  1.
        1   -1    0    0  501    0  0.00000000000E+00  0.00000000000E+00 -0.36227949441E+03  0.36227949445E+03  0.50400001928E-02 0. -1.
    10030    2    1    2    0    0  0.00000000000E+00  0.00000000000E+00 -0.11493777992E+03  0.60962120898E+03  0.59868800321E+03 0.  0.
        3    1    3    3  502    0  0.59869717287E+02 -0.83903986551E+02  0.22870177508E+03  0.25085608251E+03  0.10100000352E+00 0.  1.
       -3    1    3    3    0  502 -0.59869717287E+02  0.83903986551E+02 -0.34363955501E+03  0.35876512647E+03  0.10100000352E+00 0. -1.
</event>
<event>
 5   0  0.1332555E-02  0.5967785E+03  0.7818609E-02  0.9912112E-01
       -1   -1    0    0    0  501  0.00000000000E+00  0.00000000000E+00  0.26442204778E+03  0.26442204783E+03  0.50400001928E-02 0. -1.
        1   -1    0    0  501    0  0.00000000000E+00  0.00000000000E+00 -0.33671982896E+03  0.33671982900E+03  0.50400001928E-02 0.  1.
    10030    2    1    2    0    0  0.00000000000E+00  0.00000000000E+00 -0.72297781177E+02  0.60114187682E+03  0.59677850741E+03 0.  0.
        2    1    3    3  502    0 -0.87254277304E+02 -0.13042810549E+03 -0.29179842144E+03  0.33131724731E+03  0.25500000920E-02 0.  1.
       -2    1    3    3    0  502  0.87254277304E+02  0.13042810549E+03  0.21950064026E+03  0.26982462951E+03  0.25500000920E-02 0. -1.
</event>
<event>
 5   0  0.1276705E-02  0.5979949E+03  0.7818609E-02  0.9909575E-01
        1   -1    0    0  501    0  0.00000000000E+00  0.00000000000E+00  0.28533483604E+03  0.28533483609E+03  0.50400001928E-02 0.  1.
       -1   -1    0    0    0  501  0.00000000000E+00  0.00000000000E+00 -0.31331427158E+03  0.31331427162E+03  0.50400001928E-02 0. -1.
    10030    2    1    2    0    0  0.00000000000E+00  0.00000000000E+00 -0.27979435533E+02  0.59864910771E+03  0.59799490411E+03 0.  0.
        1    1    3    3  502    0  0.41987561735E+02  0.41503610517E+02  0.27944179565E+03  0.28561026278E+03  0.50400001928E-02 0.  1.
       -1    1    3    3    0  502 -0.41987561735E+02 -0.41503610517E+02 -0.30742123118E+03  0.31303884493E+03  0.50400001928E-02 0. -1.
</event>
<event>
 5   0  0.2179625E-02  0.6061302E+03  0.7818609E-02  0.9892769E-01
       -2   -1    0    0    0  501  0.00000000000E+00  0.00000000000E+00  0.35136807565E+03  0.35136807566E+03  0.25500000920E-02 0. -1.
        2   -1    0    0  501    0  0.00000000000E+00  0.00000000000E+00 -0.26140242665E+03  0.26140242666E+03  0.25500000920E-02 0.  1.
    10030    2    1    2    0    0  0.00000000000E+00  0.00000000000E+00  0.89965649004E+02  0.61277050232E+03  0.60613024220E+03 0.  0.
        1    1    3    3  502    0 -0.29624596524E+03  0.62707926608E+02  0.57549270605E+02  0.30823022978E+03  0.50400001928E-02 0. -1.
       -1    1    3    3    0  502  0.29624596524E+03 -0.62707926608E+02  0.32416378398E+02  0.30454027253E+03  0.50400001928E-02 0.  1.
</event>
<event>
 5   0  0.2141800E-02  0.6027956E+03  0.7818609E-02  0.9899623E-01
        2   -1    0    0  501    0  0.00000000000E+00  0.00000000000E+00  0.61932723911E+03  0.61932723912E+03  0.25500000920E-02 0. -1.
       -2   -1    0    0    0  501  0.00000000000E+00  0.00000000000E+00 -0.14667629170E+03  0.14667629172E+03  0.25500000920E-02 0.  1.
    10030    2    1    2    0    0  0.00000000000E+00  0.00000000000E+00  0.47265094742E+03  0.76600353084E+03  0.60279556332E+03 0.  0.
        2    1    3    3  502    0  0.26396085386E+03  0.14654673842E+02  0.42025787520E+03  0.49649448487E+03  0.25500000920E-02 0. -1.
       -2    1    3    3    0  502 -0.26396085386E+03 -0.14654673842E+02  0.52393072215E+02  0.26950904596E+03  0.25500000920E-02 0.  1.
</event>
<event>
 5   0  0.1250390E-02  0.5773556E+03  0.7818609E-02  0.9953532E-01
        1   -1    0    0  501    0  0.00000000000E+00  0.00000000000E+00  0.10968499049E+04  0.10968499049E+04  0.50400001928E-02 0. -1.
       -1   -1    0    0    0  501  0.00000000000E+00  0.00000000000E+00 -0.75976557687E+02  0.75976557854E+02  0.50400001928E-02 0.  1.
    10030    2    1    2    0    0  0.00000000000E+00  0.00000000000E+00  0.10208733472E+04  0.11728264628E+04  0.57735562759E+03 0.  0.
        3    1    3    3  502    0  0.15422151705E+03  0.66978324396E+02  0.98711586527E+03  0.10013331683E+04  0.10100000352E+00 0. -1.
       -3    1    3    3    0  502 -0.15422151705E+03 -0.66978324396E+02  0.33757481947E+02  0.17149329447E+03  0.10100000352E+00 0.  1.
</event>
<event>
 5   0  0.2179625E-02  0.5978149E+03  0.7818609E-02  0.9909950E-01
        2   -1    0    0  501    0  0.00000000000E+00  0.00000000000E+00  0.69582641111E+03  0.69582641112E+03  0.25500000920E-02 0. -1.
       -2   -1    0    0    0  501  0.00000000000E+00  0.00000000000E+00 -0.12840221084E+03  0.12840221086E+03  0.25500000920E-02 0.  1.
    10030    2    1    2    0    0  0.00000000000E+00  0.00000000000E+00  0.56742420028E+03  0.82422862198E+03  0.59781485280E+03 0.  0.
        1    1    3    3  502    0 -0.10559670642E+01 -0.26242416356E+03  0.86412709214E+02  0.27628737399E+03  0.50400001928E-02 0.  1.
       -1    1    3    3    0  502  0.10559670642E+01  0.26242416356E+03  0.48101149106E+03  0.54794124799E+03  0.50400001928E-02 0. -1.
</event>
<event>
 5   0  0.1276705E-02  0.5981066E+03  0.7818609E-02  0.9909342E-01
        1   -1    0    0  501    0  0.00000000000E+00  0.00000000000E+00  0.18231852458E+03  0.18231852465E+03  0.50400001928E-02 0. -1.
       -1   -1    0    0    0  501  0.00000000000E+00  0.00000000000E+00 -0.49053086441E+03  0.49053086444E+03  0.50400001928E-02 0.  1.
    10030    2    1    2    0    0  0.00000000000E+00  0.00000000000E+00 -0.30821233983E+03  0.67284938909E+03  0.59810655738E+03 0.  0.
        1    1    3    3  502    0 -0.15392200118E+03  0.24580917928E+03 -0.23614948597E+03  0.37400630318E+03  0.50400001928E-02 0. -1.
       -1    1    3    3    0  502  0.15392200118E+03 -0.24580917928E+03 -0.72062853855E+02  0.29884308591E+03  0.50400001928E-02 0.  1.
</event>
<event>
 5   0  0.1250390E-02  0.5764724E+03  0.7818609E-02  0.9955458E-01
       -1   -1    0    0    0  501  0.00000000000E+00  0.00000000000E+00  0.18591835071E+03  0.18591835078E+03  0.50400001928E-02 0. -1.
        1   -1    0    0  501    0  0.00000000000E+00  0.00000000000E+00 -0.44686340977E+03  0.44686340980E+03  0.50400001928E-02 0.  1.
    10030    2    1    2    0    0  0.00000000000E+00  0.00000000000E+00 -0.26094505905E+03  0.63278176058E+03  0.57647240409E+03 0.  0.
        3    1    3    3  502    0  0.19517499570E+03  0.10951776166E+03 -0.32985373632E+03  0.39861123495E+03  0.10100000352E+00 0.  1.
       -3    1    3    3    0  502 -0.19517499570E+03 -0.10951776166E+03  0.68908677267E+02  0.23417052562E+03  0.10100000352E+00 0. -1.
</event>
<event>
 5   0  0.2142838E-02  0.5980351E+03  0.7818609E-02  0.9909491E-01
       -2   -1    0    0    0  501  0.00000000000E+00  0.00000000000E+00  0.12414115913E+03  0.12414115915E+03  0.25500000920E-02 0. -1.
        2   -1    0    0  501    0  0.00000000000E+00  0.00000000000E+00 -0.72024052045E+03  0.72024052046E+03  0.25500000920E-02 0.  1.
    10030    2    1    2    0    0  0.00000000000E+00  0.00000000000E+00 -0.59609936132E+03  0.84438167961E+03  0.59803509286E+03 0.  0.
        4    1    3    3  502    0  0.28089219457E+03 -0.73556156409E+02 -0.19722835956E+03  0.35101505927E+03  0.12699999809E+01 0. -1.
       -4    1    3    3    0  502 -0.28089219457E+03  0.73556156409E+02 -0.39887100176E+03  0.49336662034E+03  0.12699999809E+01 0.  1.
</event>
<event>
 5   0  0.8551000E-03  0.6003342E+03  0.7818609E-02  0.9904713E-01
        4   -1    0    0  501    0  0.00000000000E+00  0.00000000000E+00  0.28665844128E+03  0.28666125455E+03  0.12699999809E+01 0.  1.
       -4   -1    0    0    0  501  0.00000000000E+00  0.00000000000E+00 -0.31430666086E+03  0.31430922666E+03  0.12699999809E+01 0. -1.
    10030    2    1    2    0    0  0.00000000000E+00  0.00000000000E+00 -0.27648219578E+02  0.60097048120E+03  0.60033415298E+03 0.  0.
        2    1    3    3  502    0  0.91220427272E+02 -0.24100758370E+03 -0.16791729217E+03  0.30757444427E+03  0.25500000920E-02 0.  1.
       -2    1    3    3    0  502 -0.91220427272E+02  0.24100758370E+03  0.14026907259E+03  0.29339603693E+03  0.25500000920E-02 0. -1.
</event>
<event>
 5   0  0.8551000E-03  0.6008830E+03  0.7818609E-02  0.9903576E-01
       -3   -1    0    0    0  501  0.00000000000E+00  0.00000000000E+00  0.57227560950E+03  0.57227561841E+03  0.10100000352E+00 0.  1.
        3   -1    0    0  501    0  0.00000000000E+00  0.00000000000E+00 -0.15773007370E+03  0.15773010604E+03  0.10100000352E+00 0. -1.
    10030    2    1    2    0    0  0.00000000000E+00  0.00000000000E+00  0.41454553580E+03  0.73000572445E+03  0.60088298068E+03 0.  0.
        2    1    3    3  502    0  0.27486774830E+03  0.62675303919E+02  0.81107820133E+02  0.29335805983E+03  0.25500000920E-02 0. -1.
       -2    1    3    3    0  502 -0.27486774830E+03 -0.62675303919E+02  0.33343771566E+03  0.43664766461E+03  0.25500000920E-02 0.  1.
</event>
<event>
 5   0  0.2179625E-02  0.5841281E+03  0.7818609E-02  0.9938893E-01
       -2   -1    0    0    0  501  0.00000000000E+00  0.00000000000E+00  0.18644348167E+03  0.18644348168E+03  0.25500000920E-02 0. -1.
        2   -1    0    0  501    0  0.00000000000E+00  0.00000000000E+00 -0.45751893705E+03  0.45751893706E+03  0.25500000920E-02 0.  1.
    10030    2    1    2    0    0  0.00000000000E+00  0.00000000000E+00 -0.27107545538E+03  0.64396241874E+03  0.58412814882E+03 0.  0.
        1    1    3    3  502    0 -0.90491517992E+02 -0.71896158501E+02 -0.43123588959E+03  0.44645510965E+03  0.50400001928E-02 0.  1.
       -1    1    3    3    0  502  0.90491517992E+02  0.71896158501E+02  0.16016043421E+03  0.19750730909E+03  0.50400001928E-02 0. -1.
</event>
<event>
 5   0  0.2126207E-02  0.6005405E+03  0.7818609E-02  0.9904285E-01
        2   -1    0    0  501    0  0.00000000000E+00  0.00000000000E+00  0.22391186299E+03  0.22391186301E+03  0.25500000920E-02 0. -1.
       -2   -1    0    0    0  501  0.00000000000E+00  0.00000000000E+00 -0.40266840508E+03  0.40266840509E+03  0.25500000920E-02 0.  1.
    10030    2    1    2    0    0  0.00000000000E+00  0.00000000000E+00 -0.17875654209E+03  0.62658026809E+03  0.60054053237E+03 0.  0.
        5    1    3    3  502    0  0.13438701092E+02  0.23951973547E+03  0.98976014665E+02  0.25955470299E+03  0.46999998093E+01 0. -1.
       -5    1    3    3    0  502 -0.13438701092E+02 -0.23951973547E+03 -0.27773255675E+03  0.36702556511E+03  0.46999998093E+01 0.  1.
</event>
<event>
 5   0  0.2142838E-02  0.5977403E+03  0.7818609E-02  0.9910105E-01
       -2   -1    0    0    0  501  0.00000000000E+00  0.00000000000E+00  0.39879436320E+02  0.39879436401E+02  0.25500000920E-02 0. -1.
        2   -1    0    0  501    0  0.00000000000E+00  0.00000000000E+00 -0.22398354272E+04  0.22398354272E+04  0.25500000920E-02 0.  1.
    10030    2    1    2    0    0  0.00000000000E+00  0.00000000000E+00 -0.21999559909E+04  0.22797148636E+04  0.59774032617E+03 0.  0.
        4    1    3    3  502    0  0.29280864854E+03  0.58610984799E+02 -0.10533284688E+04  0.10948400012E+04  0.12699999809E+01 0. -1.
       -4    1    3    3    0  502 -0.29280864854E+03 -0.58610984799E+02 -0.11466275222E+04  0.11848748624E+04  0.12699999809E+01 0.  1.
</event>
<event>
 5   0  0.1250390E-02  0.6008750E+03  0.7818609E-02  0.9903592E-01
        1   -1    0    0  501    0  0.00000000000E+00  0.00000000000E+00  0.65824213987E+03  0.65824213989E+03  0.50400001928E-02 0. -1.
       -1   -1    0    0    0  501  0.00000000000E+00  0.00000000000E+00 -0.13712687116E+03  0.13712687125E+03  0.50400001928E-02 0.  1.
    10030    2    1    2    0    0  0.00000000000E+00  0.00000000000E+00  0.52111526872E+03  0.79536901114E+03  0.60087497917E+03 0.  0.
        3    1    3    3  502    0  0.11399042791E+02  0.22233333505E+03  0.52760302407E+03  0.57264911705E+03  0.10100000352E+00 0. -1.
       -3    1    3    3    0  502 -0.11399042791E+02 -0.22233333505E+03 -0.64877553510E+01  0.22271989409E+03  0.10100000352E+00 0.  1.
</event>
<event>
 5   0  0.1250390E-02  0.5987644E+03  0.7818609E-02  0.9907973E-01
       -1   -1    0    0    0  501  0.00000000000E+00  0.00000000000E+00  0.11303209739E+03  0.11303209750E+03  0.50400001928E-02 0.  1.
        1   -1    0    0  501    0  0.00000000000E+00  0.00000000000E+00 -0.79295807068E+03  0.79295807070E+03  0.50400001928E-02 0. -1.
    10030    2    1    2    0    0  0.00000000000E+00  0.00000000000E+00 -0.67992597329E+03  0.90599016820E+03  0.59876444093E+03 0.  0.
        3    1    3    3  502    0  0.39854143336E+02 -0.18717843807E+03 -0.68832299556E+03  0.71443171601E+03  0.10100000352E+00 0. -1.
       -3    1    3    3    0  502 -0.39854143336E+02  0.18717843807E+03  0.83970222706E+01  0.19155845219E+03  0.10100000352E+00 0.  1.
</event>
<event>
 5   0  0.2092587E-02  0.5966594E+03  0.7818609E-02  0.9912361E-01
       -2   -1    0    0    0  501  0.00000000000E+00  0.00000000000E+00  0.58902760657E+03  0.58902760657E+03  0.25500000920E-02 0.  1.
        2   -1    0    0  501    0  0.00000000000E+00  0.00000000000E+00 -0.15109754283E+03  0.15109754286E+03  0.25500000920E-02 0. -1.
    10030    2    1    2    0    0  0.00000000000E+00  0.00000000000E+00  0.43793006373E+03  0.74012514943E+03  0.59665944734E+03 0.  0.
        3    1    3    3  502    0  0.13408027041E+02  0.29715518163E+03  0.19068834427E+03  0.35333133458E+03  0.10100000352E+00 0.  1.
       -3    1    3    3    0  502 -0.13408027041E+02 -0.29715518163E+03  0.24724171946E+03  0.38679381484E+03  0.10100000352E+00 0. -1.
</event>
<event>
 5   0  0.2142838E-02  0.5994649E+03  0.7818609E-02  0.9906517E-01
       -2   -1    0    0    0  501  0.00000000000E+00  0.00000000000E+00  0.18743338798E+03  0.18743338800E+03  0.25500000920E-02 0.  1.
        2   -1    0    0  501    0  0.00000000000E+00  0.00000000000E+00 -0.47931448008E+03  0.47931448008E+03  0.25500000920E-02 0. -1.
    10030    2    1    2    0    0  0.00000000000E+00  0.00000000000E+00 -0.29188109209E+03  0.66674786808E+03  0.59946488444E+03 0.  0.
        4    1    3    3  502    0  0.20470701404E+03  0.21774252357E+03 -0.17133165654E+03  0.34448935775E+03  0.12699999809E+01 0. -1.
       -4    1    3    3    0  502 -0.20470701404E+03 -0.21774252357E+03 -0.12054943555E+03  0.32225851033E+03  0.12699999809E+01 0.  1.
</event>
<event>
 5   0  0.1332555E-02  0.6024710E+03  0.7818609E-02  0.9900293E-01
        1   -1    0    0  501    0  0.00000000000E+00  0.00000000000E+00  0.53405538281E+03  0.53405538283E+03  0.50400001928E-02 0. -1.
       -1   -1    0    0    0  501  0.00000000000E+00  0.00000000000E+00 -0.16991276908E+03  0.16991276916E+03  0.50400001928E-02 0.  1.
    10030    2    1    2    0    0  0.00000000000E+00  0.00000000000E+00  0.36414261372E+03  0.70396815199E+03  0.60247100833E+03 0.  0.
        2    1    3    3  502    0  0.29257204299E+03  0.25041029657E+02  0.10353690272E+03  0.31136047234E+03  0.25500000920E-02 0. -1.
       -2    1    3    3    0  502 -0.29257204299E+03 -0.25041029657E+02  0.26060571100E+03  0.39260767965E+03  0.25500000920E-02 0.  1.
</event>
<event>
 5   0  0.1276705E-02  0.5949155E+03  0.7818609E-02  0.9916011E-01
        1   -1    0    0  501    0  0.00000000000E+00  0.00000000000E+00  0.30500508425E+03  0.30500508429E+03  0.50400001928E-02 0.  1.
       -1   -1    0    0    0  501  0.00000000000E+00  0.00000000000E+00 -0.29009715054E+03  0.29009715059E+03  0.50400001928E-02 0. -1.
    10030    2    1    2    0    0  0.00000000000E+00  0.00000000000E+00  0.14907933708E+02  0.59510223488E+03  0.59491547590E+03 0.  0.
        1    1    3    3  502    0  0.16492185978E+03 -0.83313920164E+02 -0.22573008039E+03  0.29170961305E+03  0.50400001928E-02 0. -1.
       -1    1    3    3    0  502 -0.16492185978E+03  0.83313920164E+02  0.24063801409E+03  0.30339262183E+03  0.50400001928E-02 0.  1.
</event>
<event>
 5   0  0.1332555E-02  0.5993157E+03  0.7818609E-02  0.9906827E-01
        1   -1    0    0  501    0  0.00000000000E+00  0.00000000000E+00  0.34375655776E+03  0.34375655780E+03  0.50400001928E-02 0.  1.
       -1   -1    0    0    0  501  0.00000000000E+00  0.00000000000E+00 -0.26121636869E+03  0.26121636873E+03  0.50400001928E-02 0. -1.
    10030    2    1    2    0    0  0.00000000000E+00  0.00000000000E+00  0.82540189072E+02  0.60497292653E+03  0.59931574234E+03 0.  0.
        2    1    3    3  502    0  0.12100927618E+03  0.51888282347E+02 -0.23045329569E+03  0.26541356459E+03  0.25500000920E-02 0. -1.
       -2    1    3    3    0  502 -0.12100927618E+03 -0.51888282347E+02  0.31299348477E+03  0.33955936194E+03  0.25500000920E-02 0.  1.
</event>
<event>
 5   0  0.8551000E-03  0.5848601E+03  0.7818609E-02  0.9937324E-01
       -3   -1    0    0    0  501  0.00000000000E+00  0.00000000000E+00  0.88793851271E+03  0.88793851845E+03  0.10100000352E+00 0.  1.
        3   -1    0    0  501    0  0.00000000000E+00  0.00000000000E+00 -0.96307676725E+02  0.96307729685E+02  0.10100000352E+00 0. -1.
    10030    2    1    2    0    0  0.00000000000E+00  0.00000000000E+00  0.79163083598E+03  0.98424624814E+03  0.58486006574E+03 0.  0.
        4    1    3    3  502    0 -0.20063795011E+03 -0.13577762183E+03  0.67142983106E+03  0.71380023855E+03  0.12699999809E+01 0. -1.
       -4    1    3    3    0  502  0.20063795011E+03  0.13577762183E+03  0.12020100492E+03  0.27044600958E+03  0.12699999809E+01 0.  1.
</event>
<event>
 5   0  0.2142838E-02  0.5986598E+03  0.7818609E-02  0.9908190E-01
       -2   -1    0    0    0  501  0.00000000000E+00  0.00000000000E+00  0.95638739066E+02  0.95638739100E+02  0.25500000920E-02 0. -1.
        2   -1    0    0  501    0  0.00000000000E+00  0.00000000000E+00 -0.93684212884E+03  0.93684212885E+03  0.25500000920E-02 0.  1.
    10030    2    1    2    0    0  0.00000000000E+00  0.00000000000E+00 -0.84120338978E+03  0.10324808679E+04  0.59865983639E+03 0.  0.
        4    1    3    3  502    0  0.17559270012E+03  0.15467426540E+03 -0.98687516481E+02  0.25396409888E+03  0.12699999809E+01 0. -1.
       -4    1    3    3    0  502 -0.17559270012E+03 -0.15467426540E+03 -0.74251587330E+03  0.77851676906E+03  0.12699999809E+01 0.  1.
</event>
<event>
 5   0  0.2142838E-02  0.6012290E+03  0.7818609E-02  0.9902860E-01
       -2   -1    0    0    0  501  0.00000000000E+00  0.00000000000E+00  0.24775568307E+03  0.24775568308E+03  0.25500000920E-02 0.  1.
        2   -1    0    0  501    0  0.00000000000E+00  0.00000000000E+00 -0.36475073021E+03  0.36475073022E+03  0.25500000920E-02 0. -1.
    10030    2    1    2    0    0  0.00000000000E+00  0.00000000000E+00 -0.11699504714E+03  0.61250641331E+03  0.60122896245E+03 0.  0.
        4    1    3    3  502    0  0.59752844500E+02 -0.28545227919E+03  0.15767351551E+02  0.29206784895E+03  0.12699999809E+01 0. -1.
       -4    1    3    3    0  502 -0.59752844500E+02  0.28545227919E+03 -0.13276239869E+03  0.32043856435E+03  0.12699999809E+01 0.  1.
</event>
<event>
 5   0  0.2126207E-02  0.5997834E+03  0.7818609E-02  0.9905856E-01
        2   -1    0    0  501    0  0.00000000000E+00  0.00000000000E+00  0.15478187660E+03  0.15478187662E+03  0.25500000920E-02 0.  1.
       -2   -1    0    0    0  501  0.00000000000E+00  0.00000000000E+00 -0.58104361949E+03  0.58104361950E+03  0.25500000920E-02 0. -1.
    10030    2    1    2    0    0  0.00000000000E+00  0.00000000000E+00 -0.42626174290E+03  0.73582549612E+03  0.59978336696E+03 0.  0.
        5    1    3    3  502    0 -0.15013050502E+03  0.86271515219E+02  0.87204259852E+02  0.19392940935E+03  0.46999998093E+01 0.  1.
       -5    1    3    3    0  502  0.15013050502E+03 -0.86271515219E+02 -0.51346600275E+03  0.54189608677E+03  0.46999998093E+01 0. -1.
</event>
<event>
 5   0  0.8551000E-03  0.6024207E+03  0.7818609E-02  0.9900397E-01
       -3   -1    0    0    0  501  0.00000000000E+00  0.00000000000E+00  0.45973622497E+02  0.45973733440E+02  0.10100000352E+00 0. -1.
        3   -1    0    0  501    0  0.00000000000E+00  0.00000000000E+00 -0.19734699761E+04  0.19734699787E+04  0.10100000352E+00 0.  1.
    10030    2    1    2    0    0  0.00000000000E+00  0.00000000000E+00 -0.19274963536E+04  0.20194437122E+04  0.60242071121E+03 0.  0.
        1    1    3    3  502    0 -0.17789432700E+03  0.19102470435E+03 -0.14675945479E+04  0.14906275813E+04  0.50400001928E-02 0.  1.
       -1    1    3    3    0  502  0.17789432700E+03 -0.19102470435E+03 -0.45990180576E+03  0.52881613083E+03  0.50400001928E-02 0. -1.
</event>
<event>
 5   0  0.1250390E-02  0.5983571E+03  0.7818609E-02  0.9908820E-01
       -1   -1    0    0    0  501  0.00000000000E+00  0.00000000000E+00  0.45819288252E+02  0.45819288529E+02  0.50400001928E-02 0. -1.
        1   -1    0    0  501    0  0.00000000000E+00  0.00000000000E+00 -0.19534964090E+04  0.19534964090E+04  0.50400001928E-02 0.  1.
    10030    2    1    2    0    0  0.00000000000E+00  0.00000000000E+00 -0.19076771207E+04  0.19993156975E+04  0.59835713532E+03 0.  0.
        3    1    3    3  502    0 -0.16754811368E+03  0.23126943563E+03 -0.65591745741E+03  0.71539195088E+03  0.10100000352E+00 0. -1.
       -3    1    3    3    0  502  0.16754811368E+03 -0.23126943563E+03 -0.12517596633E+04  0.12839237466E+04  0.10100000352E+00 0.  1.
</event>
<event>
 5   0  0.1332555E-02  0.5978137E+03  0.7818609E-02  0.9909952E-01
       -1   -1    0    0    0  501  0.00000000000E+00  0.00000000000E+00  0.20925329885E+03  0.20925329891E+03  0.50400001928E-02 0. -1.
        1   -1    0    0  501    0  0.00000000000E+00  0.00000000000E+00 -0.42697195570E+03  0.42697195573E+03  0.50400001928E-02 0.  1.
    10030    2    1    2    0    0  0.00000000000E+00  0.00000000000E+00 -0.21771865686E+03  0.63622525464E+03  0.59781365081E+03 0.  0.
        2    1    3    3  502    0  0.49788528023E+02  0.28560861866E+03 -0.18629508468E+03  0.34461143214E+03  0.25500000920E-02 0.  1.
       -2    1    3    3    0  502 -0.49788528023E+02 -0.28560861866E+03 -0.31423572173E+02  0.29161382250E+03  0.25500000920E-02 0. -1.
</event>
<event>
 5   0  0.2179625E-02  0.6035426E+03  0.7818609E-02  0.9898084E-01
        2   -1    0    0  501    0  0.00000000000E+00  0.00000000000E+00  0.12427894769E+04  0.12427894769E+04  0.25500000920E-02 0.  1.
       -2   -1    0    0    0  501  0.00000000000E+00  0.00000000000E+00 -0.73275408436E+02  0.73275408480E+02  0.25500000920E-02 0. -1.
    10030    2    1    2    0    0  0.00000000000E+00  0.00000000000E+00  0.11695140685E+04  0.13160648854E+04  0.60354256371E+03 0.  0.
        1    1    3    3  502    0 -0.18848799607E+03 -0.22375432558E+03  0.74606274031E+03  0.80137590143E+03  0.50400001928E-02 0.  1.
       -1    1    3    3    0  502  0.18848799607E+03  0.22375432558E+03  0.42345132820E+03  0.51468898400E+03  0.50400001928E-02 0. -1.
</event>
<event>
 5   0  0.1332555E-02  0.5960725E+03  0.7818609E-02  0.9913588E-01
       -1   -1    0    0    0  501  0.00000000000E+00  0.00000000000E+00  0.18407562121E+03  0.18407562128E+03  0.50400001928E-02 0. -1.
        1   -1    0    0  501    0  0.00000000000E+00  0.00000000000E+00 -0.48254949501E+03  0.48254949504E+03  0.50400001928E-02 0.  1.
    10030    2    1    2    0    0  0.00000000000E+00  0.00000000000E+00 -0.29847387381E+03  0.66662511632E+03  0.59607247240E+03 0.  0.
        2    1    3    3  502    0 -0.16272809324E+03 -0.22311458883E+03 -0.27459857203E+03  0.38944181574E+03  0.25500000920E-02 0.  1.
       -2    1    3    3    0  502  0.16272809324E+03  0.22311458883E+03 -0.23875301779E+02  0.27718330058E+03  0.25500000920E-02 0. -1.
</event>
<event>
 5   0  0.2142838E-02  0.5993682E+03  0.7818609E-02  0.9906718E-01
        2   -1    0    0  501    0  0.00000000000E+00  0.00000000000E+00  0.45544929198E+03  0.45544929198E+03  0.25500000920E-02 0.  1.
       -2   -1    0    0    0  501  0.00000000000E+00  0.00000000000E+00 -0.19719110357E+03  0.19719110358E+03  0.25500000920E-02 0. -1.
    10030    2    1    2    0    0  0.00000000000E+00  0.00000000000E+00  0.25825818841E+03  0.65264039557E+03  0.59936816235E+03 0.  0.
        4    1    3    3  502    0 -0.23316047941E+03  0.12484925243E+03  0.28257162211E+03  0.38703937721E+03  0.12699999809E+01 0.  1.
       -4    1    3    3    0  502  0.23316047941E+03 -0.12484925243E+03 -0.24313433695E+02  0.26560101835E+03  0.12699999809E+01 0. -1.
</event>
<event>
 5   0  0.8551000E-03  0.5996814E+03  0.7818609E-02  0.9906067E-01
       -3   -1    0    0    0  501  0.00000000000E+00  0.00000000000E+00  0.13748685697E+03  0.13748689407E+03  0.10100000352E+00 0. -1.
        3   -1    0    0  501    0  0.00000000000E+00  0.00000000000E+00 -0.65391288827E+03  0.65391289607E+03  0.10100000352E+00 0.  1.
    10030    2    1    2    0    0  0.00000000000E+00  0.00000000000E+00 -0.51642603130E+03  0.79139979014E+03  0.59968140044E+03 0.  0.
        2    1    3    3  502    0  0.23769221263E+03  0.17821954198E+03 -0.20469347036E+03  0.36077584440E+03  0.25500000920E-02 0. -1.
       -2    1    3    3    0  502 -0.23769221263E+03 -0.17821954198E+03 -0.31173256094E+03  0.43062394574E+03  0.25500000920E-02 0.  1.
</event>
<event>
 5   0  0.2141800E-02  0.6022989E+03  0.7818609E-02  0.9900648E-01
       -2   -1    0    0    0  501  0.00000000000E+00  0.00000000000E+00  0.51455855712E+02  0.51455855775E+02  0.25500000920E-02 0.  1.
        2   -1    0    0  501    0  0.00000000000E+00  0.00000000000E+00 -0.17625010739E+04  0.17625010739E+04  0.25500000920E-02 0. -1.
    10030    2    1    2    0    0  0.00000000000E+00  0.00000000000E+00 -0.17110452182E+04  0.18139569297E+04  0.60229893246E+03 0.  0.
        2    1    3    3  502    0 -0.24838777820E+03  0.11748377538E+03 -0.12267358236E+04  0.12571315392E+04  0.25500000920E-02 0. -1.
       -2    1    3    3    0  502  0.24838777820E+03 -0.11748377538E+03 -0.48430939461E+03  0.55682539054E+03  0.25500000920E-02 0.  1.
</event>
<event>
 5   0  0.1303808E-02  0.6018708E+03  0.7818609E-02  0.9901532E-01
        1   -1    0    0  501    0  0.00000000000E+00  0.00000000000E+00  0.12509939222E+04  0.12509939222E+04  0.50400001928E-02 0. -1.
       -1   -1    0    0    0  501  0.00000000000E+00  0.00000000000E+00 -0.72392120409E+02  0.72392120584E+02  0.50400001928E-02 0.  1.
    10030    2    1    2    0    0  0.00000000000E+00  0.00000000000E+00  0.11786018018E+04  0.13233860428E+04  0.60187075944E+03 0.  0.
        4    1    3    3  502    0  0.19282503228E+03  0.33189625397E+01  0.10972540920E+04  0.11140739042E+04  0.12699999809E+01 0. -1.
       -4    1    3    3    0  502 -0.19282503228E+03 -0.33189625397E+01  0.81347709754E+02  0.20931213861E+03  0.12699999809E+01 0.  1.
</event>
<event>
 5   0  0.2142838E-02  0.5995991E+03  0.7818609E-02  0.9906238E-01
       -2   -1    0    0    0  501  0.00000000000E+00  0.00000000000E+00  0.83336939118E+02  0.83336939157E+02  0.25500000920E-02 0. -1.
        2   -1    0    0  501    0  0.00000000000E+00  0.00000000000E+00 -0.10785106757E+04  0.10785106757E+04  0.25500000920E-02 0.  1.
    10030    2    1    2    0    0  0.00000000000E+00  0.00000000000E+00 -0.99517373654E+03  0.11618476148E+04  0.59959912788E+03 0.  0.
        4    1    3    3  502    0 -0.27022355062E+03  0.65172672611E+02 -0.71517958895E+03  0.76730157169E+03  0.12699999809E+01 0.  1.
       -4    1    3    3    0  502  0.27022355062E+03 -0.65172672611E+02 -0.27999414758E+03  0.39454604312E+03  0.12699999809E+01 0. -1.
</event>
<event>
 5   0  0.1250390E-02  0.5989310E+03  0.7818609E-02  0.9907626E-01
       -1   -1    0    0    0  501  0.00000000000E+00  0.00000000000E+00  0.34202759600E+03  0.34202759604E+03  0.50400001928E-02 0. -1.
        1   -1    0    0  501    0  0.00000000000E+00  0.00000000000E+00 -0.26219987331E+03  0.26219987336E+03  0.50400001928E-02 0.  1.
    10030    2    1    2    0    0  0.00000000000E+00  0.00000000000E+00  0.79827722693E+02  0.60422746940E+03  0.59893102229E+03 0.  0.
        3    1    3    3  502    0  0.19574628557E+03  0.78420963283E+02  0.25442800207E+03  0.33045434516E+03  0.10100000352E+00 0. -1.
       -3    1    3    3    0  502 -0.19574628557E+03 -0.78420963283E+02 -0.17460027937E+03  0.27377312424E+03  0.10100000352E+00 0.  1.
</event>
<event>
 5   0  0.2126207E-02  0.5996789E+03  0.7818609E-02  0.9906073E-01
        2   -1    0    0  501    0  0.00000000000E+00  0.00000000000E+00  0.71511088291E+03  0.71511088292E+03  0.25500000920E-02 0.  1.
       -2   -1    0    0    0  501  0.00000000000E+00  0.00000000000E+00 -0.12571992510E+03  0.12571992513E+03  0.25500000920E-02 0. -1.
    10030    2    1    2    0    0  0.00000000000E+00  0.00000000000E+00  0.58939095781E+03  0.84083080804E+03  0.59967886957E+03 0.  0.
        5    1    3    3  502    0 -0.16132236534E+03 -0.70458075980E+02  0.63496207312E+03  0.65892956402E+03  0.46999998093E+01 0.  1.
       -5    1    3    3    0  502  0.16132236534E+03  0.70458075980E+02 -0.45571115312E+02  0.18190124403E+03  0.46999998093E+01 0. -1.
</event>
<event>
 5   0  0.2126207E-02  0.5976990E+03  0.7818609E-02  0.9910191E-01
       -2   -1    0    0    0  501  0.00000000000E+00  0.00000000000E+00  0.28474531481E+03  0.28474531482E+03  0.25500000920E-02 0.  1.
        2   -1    0    0  501    0  0.00000000000E+00  0.00000000000E+00 -0.31365232378E+03  0.31365232379E+03  0.25500000920E-02 0. -1.
    10030    2    1    2    0    0  0.00000000000E+00  0.00000000000E+00 -0.28907008973E+02  0.59839763861E+03  0.59769902018E+03 0.  0.
        5    1    3    3  502    0 -0.24462326028E+02 -0.19521300039E+03 -0.23962173946E+03  0.31007610185E+03  0.46999998093E+01 0. -1.
       -5    1    3    3    0  502  0.24462326028E+02  0.19521300039E+03  0.21071473049E+03  0.28832153676E+03  0.46999998093E+01 0.  1.
</event>
<event>
 5   0  0.2179625E-02  0.5969524E+03  0.7818609E-02  0.9911749E-01
        2   -1    0    0  501    0  0.00000000000E+00  0.00000000000E+00  0.22319471369E+03  0.22319471371E+03  0.25500000920E-02 0. -1.
       -2   -1    0    0    0  501  0.00000000000E+00  0.00000000000E+00 -0.39914944597E+03  0.39914944598E+03  0.25500000920E-02 0.  1.
    10030    2    1    2    0    0  0.00000000000E+00  0.00000000000E+00 -0.17595473228E+03  0.62234415969E+03  0.59695241459E+03 0.  0.
        1    1    3    3  502    0  0.33760187967E+01  0.78090384784E+02  0.21233540488E+03  0.22626495506E+03  0.50400001928E-02 0. -1.
       -1    1    3    3    0  502 -0.33760187967E+01 -0.78090384784E+02 -0.38829013716E+03  0.39607920463E+03  0.50400001928E-02 0.  1.
</event>
<event>
 5   0  0.1332555E-02  0.6013789E+03  0.7818609E-02  0.9902549E-01
        1   -1    0    0  501    0  0.00000000000E+00  0.00000000000E+00  0.72375842963E+02  0.72375843139E+02  0.50400001928E-02 0. -1.
       -1   -1    0    0    0  501  0.00000000000E+00  0.00000000000E+00 -0.12492307932E+04  0.12492307932E+04  0.50400001928E-02 0.  1.
    10030    2    1    2    0    0  0.00000000000E+00  0.00000000000E+00 -0.11768549502E+04  0.13216066364E+04  0.60137885509E+03 0.  0.
        2    1    3    3  502    0  0.29281936123E+03  0.66762164766E+02 -0.62055847631E+03  0.68941510535E+03  0.25500000920E-02 0. -1.
       -2    1    3    3    0  502 -0.29281936123E+03 -0.66762164766E+02 -0.55629647393E+03  0.63219153100E+03  0.25500000920E-02 0.  1.
</event>
<event>
 5   0  0.1250390E-02  0.6003872E+03  0.7818609E-02  0.9904603E-01
        1   -1    0    0  501    0  0.00000000000E+00  0.00000000000E+00  0.31167290309E+03  0.31167290313E+03  0.50400001928E-02 0. -1.
       -1   -1    0    0    0  501  0.00000000000E+00  0.00000000000E+00 -0.28913709406E+03  0.28913709410E+03  0.50400001928E-02 0.  1.
    10030    2    1    2    0    0  0.00000000000E+00  0.00000000000E+00  0.22535809033E+02  0.60080999723E+03  0.60038720013E+03 0.  0.
        3    1    3    3  502    0  0.23033002299E+03 -0.98035400690E+02 -0.15453923444E+03  0.29418573123E+03  0.10100000352E+00 0.  1.
       -3    1    3    3    0  502 -0.23033002299E+03  0.98035400690E+02  0.17707504347E+03  0.30662426600E+03  0.10100000352E+00 0. -1.
</event>
<event>
 5   0  0.1276705E-02  0.6035000E+03  0.7818609E-02  0.9898171E-01
       -1   -1    0    0    0  501  0.00000000000E+00  0.00000000000E+00  0.38639185850E+03  0.38639185853E+03  0.50400001928E-02 0.  1.
        1   -1    0    0  501    0  0.00000000000E+00  0.00000000000E+00 -0.23564950789E+03  0.23564950794E+03  0.50400001928E-02 0. -1.
    10030    2    1    2    0    0  0.00000000000E+00  0.00000000000E+00  0.15074235061E+03  0.62204136648E+03  0.60349996300E+03 0.  0.
        1    1    3    3  502    0 -0.96584543899E+02 -0.28246966843E+03  0.12071553816E+03  0.32200920621E+03  0.50400001928E-02 0. -1.
       -1    1    3    3    0  502  0.96584543899E+02  0.28246966843E+03  0.30026812455E+02  0.30003216027E+03  0.50400001928E-02 0.  1.
</event>
<event>
 5   0  0.2142838E-02  0.5982761E+03  0.7818609E-02  0.9908989E-01
       -2   -1    0    0    0  501  0.00000000000E+00  0.00000000000E+00  0.23977062618E+03  0.23977062620E+03  0.25500000920E-02 0.  1.
        2   -1    0    0  501    0  0.00000000000E+00  0.00000000000E+00 -0.37320487662E+03  0.37320487663E+03  0.25500000920E-02 0. -1.
    10030    2    1    2    0    0  0.00000000000E+00  0.00000000000E+00 -0.13343425044E+03  0.61297550283E+03  0.59827607998E+03 0.  0.
        4    1    3    3  502    0  0.20268778660E+03 -0.21242418008E+03 -0.12535602055E+03  0.31925243289E+03  0.12699999809E+01 0. -1.
       -4    1    3    3    0  502 -0.20268778660E+03  0.21242418008E+03 -0.80782298922E+01  0.29372306994E+03  0.12699999809E+01 0.  1.
</event>
<event>
 5   0  0.1337051E-02  0.5766549E+03  0.7818609E-02  0.9955059E-01
       -1   -1    0    0    0  501  0.00000000000E+00  0.00000000000E+00  0.22425586781E+03  0.22425586787E+03  0.50400001928E-02 0.  1.
        1   -1    0    0  501    0  0.00000000000E+00  0.00000000000E+00 -0.37070474443E+03  0.37070474447E+03  0.50400001928E-02 0. -1.
    10030    2    1    2    0    0  0.00000000000E+00  0.00000000000E+00 -0.14644887662E+03  0.59496061234E+03  0.57665488533E+03 0.  0.
        5    1    3    3  502    0 -0.14725114331E+02  0.27008966334E+03  0.29667817675E+02  0.27215349463E+03  0.46999998093E+01 0.  1.
       -5    1    3    3    0  502  0.14725114331E+02 -0.27008966334E+03 -0.17611669429E+03  0.32280711771E+03  0.46999998093E+01 0. -1.
</event>
<event>
 5   0  0.1303808E-02  0.5985446E+03  0.7818609E-02  0.9908430E-01
       -1   -1    0    0    0  501  0.00000000000E+00  0.00000000000E+00  0.66492926418E+03  0.66492926420E+03  0.50400001928E-02 0. -1.
        1   -1    0    0  501    0  0.00000000000E+00  0.00000000000E+00 -0.13469689930E+03  0.13469689939E+03  0.50400001928E-02 0.  1.
    10030    2    1    2    0    0  0.00000000000E+00  0.00000000000E+00  0.53023236489E+03  0.79962616359E+03  0.59854460212E+03 0.  0.
        4    1    3    3  502    0  0.99687594387E+02  0.26610683159E+03  0.13970864062E+03  0.31665530069E+03  0.12699999809E+01 0.  1.
       -4    1    3    3    0  502 -0.99687594387E+02 -0.26610683159E+03  0.39052372427E+03  0.48297086290E+03  0.12699999809E+01 0. -1.
</event>
<event>
 5   0  0.1332555E-02  0.6002974E+03  0.7818609E-02  0.9904789E-01
       -1   -1    0    0    0  501  0.00000000000E+00  0.00000000000E+00  0.23666122297E+03  0.23666122302E+03  0.50400001928E-02 0.  1.
        1   -1    0    0  501    0  0.00000000000E+00  0.00000000000E+00 -0.38066755396E+03  0.38066755399E+03  0.50400001928E-02 0. -1.
    10030    2    1    2    0    0  0.00000000000E+00  0.00000000000E+00 -0.14400633099E+03  0.61732877701E+03  0.60029742259E+03 0.  0.
        2    1    3    3  502    0 -0.36023529869E+02  0.47374655248E+02 -0.37453880641E+03  0.37923788073E+03  0.25500000920E-02 0. -1.
       -2    1    3    3    0  502  0.36023529869E+02 -0.47374655248E+02  0.23053247542E+03  0.23809089628E+03  0.25500000920E-02 0.  1.
</event>
<event>
 5   0  0.2092587E-02  0.6012648E+03  0.7818609E-02  0.9902785E-01
       -2   -1    0    0    0  501  0.00000000000E+00  0.00000000000E+00  0.38469945351E+03  0.38469945352E+03  0.25500000920E-02 0.  1.
        2   -1    0    0  501    0  0.00000000000E+00  0.00000000000E+00 -0.23493622921E+03  0.23493622922E+03  0.25500000920E-02 0. -1.
    10030    2    1    2    0    0  0.00000000000E+00  0.00000000000E+00  0.14976322431E+03  0.61963568274E+03  0.60126479688E+03 0.  0.
        3    1    3    3  502    0  0.68270505964E+02 -0.28651629410E+03  0.13694952914E+03  0.32481938443E+03  0.10100000352E+00 0.  1.
       -3    1    3    3    0  502 -0.68270505964E+02  0.28651629410E+03  0.12813695162E+02  0.29481629831E+03  0.10100000352E+00 0. -1.
</event>
<event>
 5   0  0.2142838E-02  0.6006132E+03  0.7818609E-02  0.9904135E-01
        2   -1    0    0  501    0  0.00000000000E+00  0.00000000000E+00  0.55599775729E+03  0.55599775730E+03  0.25500000920E-02 0.  1.
       -2   -1    0    0    0  501  0.00000000000E+00  0.00000000000E+00 -0.16220219705E+03  0.16220219707E+03  0.25500000920E-02 0. -1.
    10030    2    1    2    0    0  0.00000000000E+00  0.00000000000E+00  0.39379556024E+03  0.71819995437E+03  0.60061321264E+03 0.  0.
        4    1    3    3  502    0 -0.11889066789E+03 -0.25132923289E+03  0.61183210738E+02  0.28468644575E+03  0.12699999809E+01 0. -1.
       -4    1    3    3    0  502  0.11889066789E+03  0.25132923289E+03  0.33261234950E+03  0.43351350862E+03  0.12699999809E+01 0.  1.
</event>
<event>
 5   0  0.2179625E-02  0.6050082E+03  0.7818609E-02  0.9895070E-01
       -2   -1    0    0    0  501  0.00000000000E+00  0.00000000000E+00  0.27815152900E+03  0.27815152901E+03  0.25500000920E-02 0. -1.
        2   -1    0    0  501    0  0.00000000000E+00  0.00000000000E+00 -0.32898877069E+03  0.32898877070E+03  0.25500000920E-02 0.  1.
    10030    2    1    2    0    0  0.00000000000E+00  0.00000000000E+00 -0.50837241684E+02  0.60714029971E+03  0.60500819696E+03 0.  0.
        1    1    3    3  502    0  0.20795603443E+03 -0.20471048890E+03 -0.10542808699E+03  0.31026952489E+03  0.50400001928E-02 0.  1.
       -1    1    3    3    0  502 -0.20795603443E+03  0.20471048890E+03  0.54590845309E+02  0.29687077482E+03  0.50400001928E-02 0. -1.
</event>
<event>
 5   0  0.2092587E-02  0.5999074E+03  0.7818609E-02  0.9905598E-01
        2   -1    0    0  501    0  0.00000000000E+00  0.00000000000E+00  0.11896544811E+04  0.11896544811E+04  0.25500000920E-02 0. -1.
       -2   -1    0    0    0  501  0.00000000000E+00  0.00000000000E+00 -0.75628880125E+02  0.75628880168E+02  0.25500000920E-02 0.  1.
    10030    2    1    2    0    0  0.00000000000E+00  0.00000000000E+00  0.11140256010E+04  0.12652833613E+04  0.59990744676E+03 0.  0.
        3    1    3    3  502    0  0.14441081089E+03  0.59172418899E+02  0.10972812912E+04  0.11083240048E+04  0.10100000352E+00 0. -1.
       -3    1    3    3    0  502 -0.14441081089E+03 -0.59172418899E+02  0.16744309763E+02  0.15695935643E+03  0.10100000352E+00 0.  1.
</event>
<event>
 5   0  0.1337051E-02  0.6003486E+03  0.7818609E-02  0.9904683E-01
       -1   -1    0    0    0  501  0.00000000000E+00  0.00000000000E+00  0.46217140370E+02  0.46217140645E+02  0.50400001928E-02 0.  1.
        1   -1    0    0  501    0  0.00000000000E+00  0.00000000000E+00 -0.19495928862E+04  0.19495928862E+04  0.50400001928E-02 0. -1.
    10030    2    1    2    0    0  0.00000000000E+00  0.00000000000E+00 -0.19033757458E+04  0.19958100269E+04  0.60034859330E+03 0.  0.
        5    1    3    3  502    0 -0.27204106127E+03  0.60224616149E+02 -0.13226127728E+04  0.13516508351E+04  0.46999998093E+01 0. -1.
       -5    1    3    3    0  502  0.27204106127E+03 -0.60224616149E+02 -0.58076297308E+03  0.64415919174E+03  0.46999998093E+01 0.  1.
</event>
<event>
 5   0  0.1303808E-02  0.6009195E+03  0.7818609E-02  0.9903500E-01
        1   -1    0    0  501    0  0.00000000000E+00  0.00000000000E+00  0.28785988590E+03  0.28785988594E+03  0.50400001928E-02 0. -1.
       -1   -1    0    0    0  501  0.00000000000E+00  0.00000000000E+00 -0.31361111843E+03  0.31361111847E+03  0.50400001928E-02 0.  1.
    10030    2    1    2    0    0  0.00000000000E+00  0.00000000000E+00 -0.25751232534E+02  0.60147100441E+03  0.60091949808E+03 0.  0.
        4    1    3    3  502    0  0.13130783984E+02 -0.27825159100E+03  0.99824713532E+02  0.29591037784E+03  0.12699999809E+01 0. -1.
       -4    1    3    3    0  502 -0.13130783984E+02  0.27825159100E+03 -0.12557594607E+03  0.30556062657E+03  0.12699999809E+01 0.  1.
</event>
<event>
 5   0  0.1250390E-02  0.5997678E+03  0.7818609E-02  0.9905888E-01
       -1   -1    0    0    0  501  0.00000000000E+00  0.00000000000E+00  0.28001899194E+03  0.28001899199E+03  0.50400001928E-02 0. -1.
        1   -1    0    0  501    0  0.00000000000E+00  0.00000000000E+00 -0.32115810183E+03  0.32115810187E+03  0.50400001928E-02 0.  1.
    10030    2    1    2    0    0  0.00000000000E+00  0.00000000000E+00 -0.41139109886E+02  0.60117709386E+03  0.59976784827E+03 0.  0.
        3    1    3    3  502    0 -0.22515975596E+03  0.14904868678E+03 -0.15132886588E+03  0.30953652867E+03  0.10100000352E+00 0.  1.
       -3    1    3    3    0  502  0.22515975596E+03 -0.14904868678E+03  0.11018975600E+03  0.29164056518E+03  0.10100000352E+00 0. -1.
</event>
<event>
 5   0  0.1276705E-02  0.5985560E+03  0.7818609E-02  0.9908406E-01
       -1   -1    0    0    0  501  0.00000000000E+00  0.00000000000E+00  0.11189047080E+03  0.11189047091E+03  0.50400001928E-02 0.  1.
        1   -1    0    0  501    0  0.00000000000E+00  0.00000000000E+00 -0.80049116880E+03  0.80049116881E+03  0.50400001928E-02 0. -1.
    10030    2    1    2    0    0  0.00000000000E+00  0.00000000000E+00 -0.68860069800E+03  0.91238163972E+03  0.59855604184E+03 0.  0.
        1    1    3    3  502    0  0.15790908550E+03  0.15462613323E+03 -0.65190337643E+03  0.68834768293E+03  0.50400001928E-02 0. -1.
       -1    1    3    3    0  502 -0.15790908550E+03 -0.15462613323E+03 -0.36697321564E+02  0.22403395679E+03  0.50400001928E-02 0.  1.
</event>
<event>
 5   0  0.2142838E-02  0.5958650E+03  0.7818609E-02  0.9914022E-01
        2   -1    0    0  501    0  0.00000000000E+00  0.00000000000E+00  0.60100127014E+03  0.60100127015E+03  0.25500000920E-02 0.  1.
       -2   -1    0    0    0  501  0.00000000000E+00  0.00000000000E+00 -0.14769314909E+03  0.14769314911E+03  0.25500000920E-02 0. -1.
    10030    2    1    2    0    0  0.00000000000E+00  0.00000000000E+00  0.45330812105E+03  0.74869441926E+03  0.59586498540E+03 0.  0.
        4    1    3    3  502    0 -0.19127813621E+03  0.18202102878E+03  0.40004501289E+03  0.47932932891E+03  0.12699999809E+01 0.  1.
       -4    1    3    3    0  502  0.19127813621E+03 -0.18202102878E+03  0.53263108158E+02  0.26936509035E+03  0.12699999809E+01 0. -1.
</event>
<event>
 5   0  0.2179625E-02  0.6005035E+03  0.7818609E-02  0.9904362E-01
       -2   -1    0    0    0  501  0.00000000000E+00  0.00000000000E+00  0.13410532362E+03  0.13410532364E+03  0.25500000920E-02 0. -1.
        2   -1    0    0  501    0  0.00000000000E+00  0.00000000000E+00 -0.67224106100E+03  0.67224106100E+03  0.25500000920E-02 0.  1.
    10030    2    1    2    0    0  0.00000000000E+00  0.00000000000E+00 -0.53813573738E+03  0.80634638465E+03  0.60050347225E+03 0.  0.
        1    1    3    3  502    0 -0.29095701663E+03  0.15406977156E+02 -0.17170219771E+03  0.33819373914E+03  0.50400001928E-02 0.  1.
       -1    1    3    3    0  502  0.29095701663E+03 -0.15406977156E+02 -0.36643353967E+03  0.46815264551E+03  0.50400001928E-02 0. -1.
</event>
<event>
 5   0  0.2141800E-02  0.5963725E+03  0.7818609E-02  0.9912961E-01
        2   -1    0    0  501    0  0.00000000000E+00  0.00000000000E+00  0.23099754408E+03  0.23099754409E+03  0.25500000920E-02 0.  1.
       -2   -1    0    0    0  501  0.00000000000E+00  0.00000000000E+00 -0.38491766871E+03  0.38491766872E+03  0.25500000920E-02 0. -1.
    10030    2    1    2    0    0  0.00000000000E+00  0.00000000000E+00 -0.15392012463E+03  0.61591521282E+03  0.59637248814E+03 0.  0.
        2    1    3    3  502    0 -0.93784829782E+02 -0.88999768552E+02 -0.35446286078E+03  0.37730686818E+03  0.25500000920E-02 0. -1.
       -2    1    3    3    0  502  0.93784829782E+02  0.88999768552E+02  0.20054273615E+03  0.23860834463E+03  0.25500000920E-02 0.  1.
</event>
<event>
 5   0  0.1250390E-02  0.6043658E+03  0.7818609E-02  0.9896390E-01
       -1   -1    0    0    0  501  0.00000000000E+00  0.00000000000E+00  0.43449245483E+03  0.43449245486E+03  0.50400001928E-02 0. -1.
        1   -1    0    0  501    0  0.00000000000E+00  0.00000000000E+00 -0.21016361001E+03  0.21016361007E+03  0.50400001928E-02 0.  1.
    10030    2    1    2    0    0  0.00000000000E+00  0.00000000000E+00  0.22432884481E+03  0.64465606493E+03  0.60436579274E+03 0.  0.
        3    1    3    3  502    0 -0.20952712343E+03  0.11018898370E+03 -0.88162221857E+02  0.25261792325E+03  0.10100000352E+00 0.  1.
       -3    1    3    3    0  502  0.20952712343E+03 -0.11018898370E+03  0.31249106667E+03  0.39203814168E+03  0.10100000352E+00 0. -1.
</event>
<event>
 5   0  0.2092587E-02  0.5996633E+03  0.7818609E-02  0.9906105E-01
        2   -1    0    0  501    0  0.00000000000E+00  0.00000000000E+00  0.85115654858E+03  0.85115654858E+03  0.25500000920E-02 0. -1.
       -2   -1    0    0    0  501  0.00000000000E+00  0.00000000000E+00 -0.10561983724E+03  0.10561983727E+03  0.25500000920E-02 0.  1.
    10030    2    1    2    0    0  0.00000000000E+00  0.00000000000E+00  0.74553671134E+03  0.95677638586E+03  0.59966329267E+03 0.  0.
        3    1    3    3  502    0 -0.18861060439E+03 -0.61556280335E+01  0.74451882072E+03  0.76806258629E+03  0.10100000352E+00 0. -1.
       -3    1    3    3    0  502  0.18861060439E+03  0.61556280335E+01  0.10178906173E+01  0.18871379957E+03  0.10100000352E+00 0.  1.
</event>
<event>
 5   0  0.2126207E-02  0.5994968E+03  0.7818609E-02  0.9906451E-01
       -2   -1    0    0    0  501  0.00000000000E+00  0.00000000000E+00  0.11396487668E+04  0.11396487668E+04  0.25500000920E-02 0. -1.
        2   -1    0    0  501    0  0.00000000000E+00  0.00000000000E+00 -0.78839283731E+02  0.78839283773E+02  0.25500000920E-02 0.  1.
    10030    2    1    2    0    0  0.00000000000E+00  0.00000000000E+00  0.10608094831E+04  0.12184880506E+04  0.59949676400E+03 0.  0.
        5    1    3    3  502    0 -0.13247380416E+03  0.25896026828E+03  0.67721493804E+03  0.73705623370E+03  0.46999998093E+01 0. -1.
       -5    1    3    3    0  502  0.13247380416E+03 -0.25896026828E+03  0.38359454507E+03  0.48143181692E+03  0.46999998093E+01 0.  1.
</event>
<event>
 5   0  0.2179625E-02  0.5997412E+03  0.7818609E-02  0.9905943E-01
       -2   -1    0    0    0  501  0.00000000000E+00  0.00000000000E+00  0.86364734514E+02  0.86364734552E+02  0.25500000920E-02 0. -1.
        2   -1    0    0  501    0  0.00000000000E+00  0.00000000000E+00 -0.10411931734E+04  0.10411931734E+04  0.25500000920E-02 0.  1.
    10030    2    1    2    0    0  0.00000000000E+00  0.00000000000E+00 -0.95482843892E+03  0.11275579080E+04  0.59974118426E+03 0.  0.
        1    1    3    3  502    0  0.71953492248E+02 -0.19621859011E+03 -0.88171030933E+03  0.90614132990E+03  0.50400001928E-02 0.  1.
       -1    1    3    3    0  502 -0.71953492248E+02  0.19621859011E+03 -0.73118129596E+02  0.22141657809E+03  0.50400001928E-02 0. -1.
</event>
<event>
 5   0  0.1276705E-02  0.5957042E+03  0.7818609E-02  0.9914359E-01
       -1   -1    0    0    0  501  0.00000000000E+00  0.00000000000E+00  0.68203167561E+02  0.68203167747E+02  0.50400001928E-02 0.  1.
        1   -1    0    0  501    0  0.00000000000E+00  0.00000000000E+00 -0.13007588479E+04  0.13007588479E+04  0.50400001928E-02 0. -1.
    10030    2    1    2    0    0  0.00000000000E+00  0.00000000000E+00 -0.12325556803E+04  0.13689620157E+04  0.59570420107E+03 0.  0.
        1    1    3    3  502    0 -0.70841347624E+02 -0.23830158665E+03 -0.99325532595E+03  0.10238956418E+04  0.50400001928E-02 0.  1.
       -1    1    3    3    0  502  0.70841347624E+02  0.23830158665E+03 -0.23930035440E+03  0.34506637387E+03  0.50400001928E-02 0. -1.
</event>
<event>
 5   0  0.1303808E-02  0.5980063E+03  0.7818609E-02  0.9909551E-01
       -1   -1    0    0    0  501  0.00000000000E+00  0.00000000000E+00  0.10020248504E+03  0.10020248517E+03  0.50400001928E-02 0.  1.
        1   -1    0    0  501    0  0.00000000000E+00  0.00000000000E+00 -0.89222210445E+03  0.89222210447E+03  0.50400001928E-02 0. -1.
    10030    2    1    2    0    0  0.00000000000E+00  0.00000000000E+00 -0.79201961941E+03  0.99242458964E+03  0.59800626133E+03 0.  0.
        4    1    3    3  502    0 -0.26796898341E+03 -0.77786727883E+02 -0.21770906079E+03  0.35391665566E+03  0.12699999809E+01 0.  1.
       -4    1    3    3    0  502  0.26796898341E+03  0.77786727883E+02 -0.57431055862E+03  0.63850793397E+03  0.12699999809E+01 0. -1.
</event>
<event>
 5   0  0.1250390E-02  0.5998803E+03  0.7818609E-02  0.9905654E-01
       -1   -1    0    0    0  501  0.00000000000E+00  0.00000000000E+00  0.12704753833E+03  0.12704753843E+03  0.50400001928E-02 0.  1.
        1   -1    0    0  501    0  0.00000000000E+00  0.00000000000E+00 -0.70811361332E+03  0.70811361334E+03  0.50400001928E-02 0. -1.
    10030    2    1    2    0    0  0.00000000000E+00  0.00000000000E+00 -0.58106607499E+03  0.83516115176E+03  0.59988029298E+03 0.  0.
        3    1    3    3  502    0  0.21126640506E+03  0.21279579003E+03 -0.30023258789E+03  0.42432906947E+03  0.10100000352E+00 0. -1.
       -3    1    3    3    0  502 -0.21126640506E+03 -0.21279579003E+03 -0.28083348710E+03  0.41083208229E+03  0.10100000352E+00 0.  1.
</event>
<event>
 5   0  0.2142838E-02  0.5992436E+03  0.7818609E-02  0.9906977E-01
       -2   -1    0    0    0  501  0.00000000000E+00  0.00000000000E+00  0.17662871071E+03  0.17662871073E+03  0.25500000920E-02 0. -1.
        2   -1    0    0  501    0  0.00000000000E+00  0.00000000000E+00 -0.50825947963E+03  0.50825947963E+03  0.25500000920E-02 0.  1.
    10030    2    1    2    0    0  0.00000000000E+00  0.00000000000E+00 -0.33163076892E+03  0.68488819036E+03  0.59924357852E+03 0.  0.
        4    1    3    3  502    0  0.44915782303E+02  0.22574172929E+03  0.53419567996E+02  0.23628800010E+03  0.12699999809E+01 0. -1.
       -4    1    3    3    0  502 -0.44915782303E+02 -0.22574172929E+03 -0.38505033691E+03  0.44860019026E+03  0.12699999809E+01 0.  1.
</event>
<event>
 5   0  0.2126207E-02  0.6022487E+03  0.7818609E-02  0.9900752E-01
        2   -1    0    0  501    0  0.00000000000E+00  0.00000000000E+00  0.59473369584E+03  0.59473369585E+03  0.25500000920E-02 0.  1.
       -2   -1    0    0    0  501  0.00000000000E+00  0.00000000000E+00 -0.15246464437E+03  0.15246464439E+03  0.25500000920E-02 0. -1.
    10030    2    1    2    0    0  0.00000000000E+00  0.00000000000E+00  0.44226905148E+03  0.74719834024E+03  0.60224865775E+03 0.  0.
        5    1    3    3  502    0  0.18043234586E+03  0.13730150875E+03 -0.24652560801E+02  0.22811701929E+03  0.46999998093E+01 0. -1.
       -5    1    3    3    0  502 -0.18043234586E+03 -0.13730150875E+03  0.46692161228E+03  0.51908132094E+03  0.46999998093E+01 0.  1.
</event>
<event>
 5   0  0.2141800E-02  0.6040123E+03  0.7818609E-02  0.9897117E-01
       -2   -1    0    0    0  501  0.00000000000E+00  0.00000000000E+00  0.41222575791E+02  0.41222575870E+02  0.25500000920E-02 0.  1.
        2   -1    0    0  501    0  0.00000000000E+00  0.00000000000E+00 -0.22125671362E+04  0.22125671362E+04  0.25500000920E-02 0. -1.
    10030    2    1    2    0    0  0.00000000000E+00  0.00000000000E+00 -0.21713445605E+04  0.22537897121E+04  0.60401230636E+03 0.  0.
        2    1    3    3  502    0 -0.64261705734E+02  0.17286142907E+03 -0.19328264186E+03  0.26714943409E+03  0.25500000920E-02 0.  1.
       -2    1    3    3    0  502  0.64261705734E+02 -0.17286142907E+03 -0.19780619186E+04  0.19866402780E+04  0.25500000920E-02 0. -1.
</event>
<event>
 5   0  0.2092587E-02  0.6012580E+03  0.7818609E-02  0.9902800E-01
       -2   -1    0    0    0  501  0.00000000000E+00  0.00000000000E+00  0.29579245096E+03  0.29579245097E+03  0.25500000920E-02 0. -1.
        2   -1    0    0  501    0  0.00000000000E+00  0.00000000000E+00 -0.30554459188E+03  0.30554459189E+03  0.25500000920E-02 0.  1.
    10030    2    1    2    0    0  0.00000000000E+00  0.00000000000E+00 -0.97521409194E+01  0.60133704287E+03  0.60125796034E+03 0.  0.
        3    1    3    3  502    0  0.19612545214E+03 -0.18369180760E+03  0.12993743180E+03  0.29848219300E+03  0.10100000352E+00 0. -1.
       -3    1    3    3    0  502 -0.19612545214E+03  0.18369180760E+03 -0.13968957272E+03  0.30285484986E+03  0.10100000352E+00 0.  1.
</event>
<event>
 5   0  0.2141800E-02  0.5990254E+03  0.7818609E-02  0.9907430E-01
       -2   -1    0    0    0  501  0.00000000000E+00  0.00000000000E+00  0.26253397058E+03  0.26253397059E+03  0.25500000920E-02 0. -1.
        2   -1    0    0  501    0  0.00000000000E+00  0.00000000000E+00 -0.34170002065E+03  0.34170002066E+03  0.25500000920E-02 0.  1.
    10030    2    1    2    0    0  0.00000000000E+00  0.00000000000E+00 -0.79166050071E+02  0.60423399125E+03  0.59902541907E+03 0.  0.
        2    1    3    3  502    0 -0.19798731379E+03 -0.20826987643E+02  0.18613742893E+03  0.27254335856E+03  0.25500000920E-02 0. -1.
       -2    1    3    3    0  502  0.19798731379E+03  0.20826987643E+02 -0.26530347900E+03  0.33169063269E+03  0.25500000920E-02 0.  1.
</event>
<event>
 5   0  0.2092587E-02  0.6023419E+03  0.7818609E-02  0.9900559E-01
        2   -1    0    0  501    0  0.00000000000E+00  0.00000000000E+00  0.96415506550E+03  0.96415506550E+03  0.25500000920E-02 0. -1.
       -2   -1    0    0    0  501  0.00000000000E+00  0.00000000000E+00 -0.94076105540E+02  0.94076105575E+02  0.25500000920E-02 0.  1.
    10030    2    1    2    0    0  0.00000000000E+00  0.00000000000E+00  0.87007895996E+03  0.10582311711E+04  0.60234194182E+03 0.  0.
        3    1    3    3  502    0  0.26548836961E+03 -0.14185021407E+03  0.45246572622E+03  0.54344346646E+03  0.10100000352E+00 0.  1.
       -3    1    3    3    0  502 -0.26548836961E+03  0.14185021407E+03  0.41761323374E+03  0.51478770462E+03  0.10100000352E+00 0. -1.
</event>
<event>
 5   0  0.2092587E-02  0.5999353E+03  0.7818609E-02  0.9905540E-01
       -2   -1    0    0    0  501  0.00000000000E+00  0.00000000000E+00  0.95209834953E+02  0.95209834987E+02  0.25500000920E-02 0.  1.
        2   -1    0    0  501    0  0.00000000000E+00  0.00000000000E+00 -0.94507669026E+03  0.94507669027E+03  0.25500000920E-02 0. -1.
    10030    2    1    2    0    0  0.00000000000E+00  0.00000000000E+00 -0.84986685531E+03  0.10402865253E+04  0.59993531557E+03 0.  0.
        3    1    3    3  502    0  0.88431881097E+02  0.96128765859E+01  0.71813762031E+02  0.11432336423E+03  0.10100000352E+00 0.  1.
       -3    1    3    3    0  502 -0.88431881097E+02 -0.96128765859E+01 -0.92168061734E+03  0.92596316102E+03  0.10100000352E+00 0. -1.
</event>
<event>
 5   0  0.2142838E-02  0.6008276E+03  0.7818609E-02  0.9903690E-01
        2   -1    0    0  501    0  0.00000000000E+00  0.00000000000E+00  0.10485406518E+04  0.10485406518E+04  0.25500000920E-02 0.  1.
       -2   -1    0    0    0  501  0.00000000000E+00  0.00000000000E+00 -0.86070543774E+02  0.86070543812E+02  0.25500000920E-02 0. -1.
    10030    2    1    2    0    0  0.00000000000E+00  0.00000000000E+00  0.96247010804E+03  0.11346111956E+04  0.60082764282E+03 0.  0.
        4    1    3    3  502    0 -0.18726788039E+03 -0.13817592509E+02  0.38416454228E+02  0.19167060741E+03  0.12699999809E+01 0. -1.
       -4    1    3    3    0  502  0.18726788039E+03  0.13817592509E+02  0.92405365381E+03  0.94294058822E+03  0.12699999809E+01 0.  1.
</event>
<event>
 5   0  0.1250390E-02  0.6001169E+03  0.7818609E-02  0.9905164E-01
       -1   -1    0    0    0  501  0.00000000000E+00  0.00000000000E+00  0.16608593952E+03  0.16608593959E+03  0.50400001928E-02 0. -1.
        1   -1    0    0  501    0  0.00000000000E+00  0.00000000000E+00 -0.54209934820E+03  0.54209934823E+03  0.50400001928E-02 0.  1.
    10030    2    1    2    0    0  0.00000000000E+00  0.00000000000E+00 -0.37601340869E+03  0.70818528782E+03  0.60011692059E+03 0.  0.
        3    1    3    3  502    0 -0.22317130810E+03 -0.30784769973E+02  0.45881038209E+02  0.22990914442E+03  0.10100000352E+00 0. -1.
       -3    1    3    3    0  502  0.22317130810E+03  0.30784769973E+02 -0.42189444690E+03  0.47827614340E+03  0.10100000352E+00 0.  1.
</event>
<event>
 5   0  0.1332555E-02  0.5984178E+03  0.7818609E-02  0.9908694E-01
        1   -1    0    0  501    0  0.00000000000E+00  0.00000000000E+00  0.24769827988E+03  0.24769827993E+03  0.50400001928E-02 0.  1.
       -1   -1    0    0    0  501  0.00000000000E+00  0.00000000000E+00 -0.36143148401E+03  0.36143148404E+03  0.50400001928E-02 0. -1.
    10030    2    1    2    0    0  0.00000000000E+00  0.00000000000E+00 -0.11373320412E+03  0.60912976397E+03  0.59841777016E+03 0.  0.
        2    1    3    3  502    0  0.68484288289E+02  0.17907965325E+03  0.17695455899E+03  0.26090714038E+03  0.25500000920E-02 0.  1.
       -2    1    3    3    0  502 -0.68484288289E+02 -0.17907965325E+03 -0.29068776311E+03  0.34822262359E+03  0.25500000920E-02 0. -1.
</event>
<event>
 5   0  0.1332555E-02  0.5942702E+03  0.7818609E-02  0.9917365E-01
        1   -1    0    0  501    0  0.00000000000E+00  0.00000000000E+00  0.32028992786E+03  0.32028992790E+03  0.50400001928E-02 0. -1.
       -1   -1    0    0    0  501  0.00000000000E+00  0.00000000000E+00 -0.27565419042E+03  0.27565419047E+03  0.50400001928E-02 0.  1.
    10030    2    1    2    0    0  0.00000000000E+00  0.00000000000E+00  0.44635737438E+02  0.59594411837E+03  0.59427017691E+03 0.  0.
        2    1    3    3  502    0 -0.11755285713E+02 -0.94926549196E+02 -0.25979291766E+03  0.27684218710E+03  0.25500000920E-02 0.  1.
       -2    1    3    3    0  502  0.11755285713E+02  0.94926549196E+02  0.30442865510E+03  0.31910193127E+03  0.25500000920E-02 0. -1.
</event>
<event>
 5   0  0.1250390E-02  0.6002647E+03  0.7818609E-02  0.9904857E-01
       -1   -1    0    0    0  501  0.00000000000E+00  0.00000000000E+00  0.14478389423E+03  0.14478389431E+03  0.50400001928E-02 0.  1.
        1   -1    0    0  501    0  0.00000000000E+00  0.00000000000E+00 -0.62216477544E+03  0.62216477546E+03  0.50400001928E-02 0. -1.
    10030    2    1    2    0    0  0.00000000000E+00  0.00000000000E+00 -0.47738088121E+03  0.76694866977E+03  0.60026473853E+03 0.  0.
        3    1    3    3  502    0  0.15968702563E+01 -0.85110107656E+02  0.12903658658E+03  0.15458567623E+03  0.10100000352E+00 0.  1.
       -3    1    3    3    0  502 -0.15968702563E+01  0.85110107656E+02 -0.60641746779E+03  0.61236299354E+03  0.10100000352E+00 0. -1.
</event>
<event>
 5   0  0.2179625E-02  0.6004022E+03  0.7818609E-02  0.9904572E-01
        2   -1    0    0  501    0  0.00000000000E+00  0.00000000000E+00  0.13552391702E+04  0.13552391702E+04  0.25500000920E-02 0.  1.
       -2   -1    0    0    0  501  0.00000000000E+00  0.00000000000E+00 -0.66497996283E+02  0.66497996332E+02  0.25500000920E-02 0. -1.
    10030    2    1    2    0    0  0.00000000000E+00  0.00000000000E+00  0.12887411739E+04  0.14217371665E+04  0.60040216302E+03 0.  0.
        1    1    3    3  502    0 -0.24444564929E+02 -0.72607016818E+02 -0.42959830507E+02  0.87834291188E+02  0.50400001928E-02 0. -1.
       -1    1    3    3    0  502  0.24444564929E+02  0.72607016818E+02  0.13317010044E+04  0.13339028753E+04  0.50400001928E-02 0.  1.
</event>
<event>
 5   0  0.1250390E-02  0.6004365E+03  0.7818609E-02  0.9904501E-01
        1   -1    0    0  501    0  0.00000000000E+00  0.00000000000E+00  0.17030776579E+03  0.17030776586E+03  0.50400001928E-02 0.  1.
       -1   -1    0    0    0  501  0.00000000000E+00  0.00000000000E+00 -0.52922429419E+03  0.52922429421E+03  0.50400001928E-02 0. -1.
    10030    2    1    2    0    0  0.00000000000E+00  0.00000000000E+00 -0.35891652840E+03  0.69953206007E+03  0.60043653179E+03 0.  0.
        3    1    3    3  502    0 -0.18743363296E+03 -0.22933012540E+03 -0.23662031082E+03  0.37909478350E+03  0.10100000352E+00 0.  1.
       -3    1    3    3    0  502  0.18743363296E+03  0.22933012540E+03 -0.12229621758E+03  0.32043727658E+03  0.10100000352E+00 0. -1.
</event>
<event>
 5   0  0.2092587E-02  0.6011403E+03  0.7818609E-02  0.9903043E-01
       -2   -1    0    0    0  501  0.00000000000E+00  0.00000000000E+00  0.61232658953E+02  0.61232659006E+02  0.25500000920E-02 0.  1.
        2   -1    0    0  501    0  0.00000000000E+00  0.00000000000E+00 -0.14753957554E+04  0.14753957554E+04  0.25500000920E-02 0. -1.
    10030    2    1    2    0    0  0.00000000000E+00  0.00000000000E+00 -0.14141630965E+04  0.15366284144E+04  0.60114026701E+03 0.  0.
        3    1    3    3  502    0 -0.59319720853E+02 -0.77301402334E+02 -0.14339031699E+04  0.14372100218E+04  0.10100000352E+00 0. -1.
       -3    1    3    3    0  502  0.59319720853E+02  0.77301402334E+02  0.19740073415E+02  0.99418392586E+02  0.10100000352E+00 0.  1.
</event>
<event>
 5   0  0.1276705E-02  0.6175010E+03  0.7818609E-02  0.9869748E-01
        1   -1    0    0  501    0  0.00000000000E+00  0.00000000000E+00  0.98670568167E+03  0.98670568168E+03  0.50400001928E-02 0. -1.
       -1   -1    0    0    0  501  0.00000000000E+00  0.00000000000E+00 -0.96611253272E+02  0.96611253404E+02  0.50400001928E-02 0.  1.
    10030    2    1    2    0    0  0.00000000000E+00  0.00000000000E+00  0.89009442840E+03  0.10833169351E+04  0.61750100436E+03 0.  0.
        1    1    3    3  502    0 -0.60103194506E+02 -0.25485781800E+03  0.73204392103E+03  0.77746588589E+03  0.50400001928E-02 0. -1.
       -1    1    3    3    0  502  0.60103194506E+02  0.25485781800E+03  0.15805050737E+03  0.30585104919E+03  0.50400001928E-02 0.  1.
</event>
<event>
 5   0  0.2142838E-02  0.5967173E+03  0.7818609E-02  0.9912240E-01
        2   -1    0    0  501    0  0.00000000000E+00  0.00000000000E+00  0.53278402171E+03  0.53278402172E+03  0.25500000920E-02 0. -1.
       -2   -1    0    0    0  501  0.00000000000E+00  0.00000000000E+00 -0.16708060109E+03  0.16708060111E+03  0.25500000920E-02 0.  1.
    10030    2    1    2    0    0  0.00000000000E+00  0.00000000000E+00  0.36570342062E+03  0.69986462283E+03  0.59671726842E+03 0.  0.
        4    1    3    3  502    0  0.55932390942E+02  0.29287619768E+03  0.19522867930E+03  0.35639970489E+03  0.12699999809E+01 0.  1.
       -4    1    3    3    0  502 -0.55932390942E+02 -0.29287619768E+03  0.17047474132E+03  0.34346491794E+03  0.12699999809E+01 0. -1.
</event>
<event>
 5   0  0.2142838E-02  0.5972763E+03  0.7818609E-02  0.9911073E-01
        2   -1    0    0  501    0  0.00000000000E+00  0.00000000000E+00  0.15098623496E+04  0.15098623496E+04  0.25500000920E-02 0.  1.
       -2   -1    0    0    0  501  0.00000000000E+00  0.00000000000E+00 -0.59068138120E+02  0.59068138176E+02  0.25500000920E-02 0. -1.
    10030    2    1    2    0    0  0.00000000000E+00  0.00000000000E+00  0.14507942115E+04  0.15689304878E+04  0.59727634427E+03 0.  0.
        4    1    3    3  502    0 -0.15477598810E+03  0.11828481199E+03  0.13199863118E+04  0.13342834704E+04  0.12699999809E+01 0.  1.
       -4    1    3    3    0  502  0.15477598810E+03 -0.11828481199E+03  0.13080789974E+03  0.23464701740E+03  0.12699999809E+01 0. -1.
</event>
<event>
 5   0  0.1337051E-02  0.5999543E+03  0.7818609E-02  0.9905501E-01
       -1   -1    0    0    0  501  0.00000000000E+00  0.00000000000E+00  0.61031620008E+02  0.61031620216E+02  0.50400001928E-02 0. -1.
        1   -1    0    0  501    0  0.00000000000E+00  0.00000000000E+00 -0.14744205626E+04  0.14744205626E+04  0.50400001928E-02 0.  1.
    10030    2    1    2    0    0  0.00000000000E+00  0.00000000000E+00 -0.14133889426E+04  0.15354521828E+04  0.59995425050E+03 0.  0.
        5    1    3    3  502    0  0.11302583066E+03  0.19098522870E+03 -0.12230989412E+04  0.12430781576E+04  0.46999998093E+01 0.  1.
       -5    1    3    3    0  502 -0.11302583066E+03 -0.19098522870E+03 -0.19029000135E+03  0.29237402516E+03  0.46999998093E+01 0. -1.
</event>
<event>
 5   0  0.1250390E-02  0.5958281E+03  0.7818609E-02  0.9914100E-01
       -1   -1    0    0    0  501  0.00000000000E+00  0.00000000000E+00  0.15065022988E+03  0.15065022996E+03  0.50400001928E-02 0.  1.
        1   -1    0    0  501    0  0.00000000000E+00  0.00000000000E+00 -0.58913130574E+03  0.58913130576E+03  0.50400001928E-02 0. -1.
    10030    2    1    2    0    0  0.00000000000E+00  0.00000000000E+00 -0.43848107586E+03  0.73978153573E+03  0.59582805130E+03 0.  0.
        3    1    3    3  502    0  0.83745138514E+02 -0.11575327509E+03  0.10533980420E+03  0.17750648852E+03  0.10100000352E+00 0.  1.
       -3    1    3    3    0  502 -0.83745138514E+02  0.11575327509E+03 -0.54382088006E+03  0.56227504720E+03  0.10100000352E+00 0. -1.
</event>
<event>
 5   0  0.1332555E-02  0.5967928E+03  0.7818609E-02  0.9912082E-01
       -1   -1    0    0    0  501  0.00000000000E+00  0.00000000000E+00  0.70313235311E+02  0.70313235492E+02  0.50400001928E-02 0. -1.
        1   -1    0    0  501    0  0.00000000000E+00  0.00000000000E+00 -0.12663394387E+04  0.12663394388E+04  0.50400001928E-02 0.  1.
    10030    2    1    2    0    0  0.00000000000E+00  0.00000000000E+00 -0.11960262034E+04  0.13366526742E+04  0.59679283866E+03 0.  0.
        2    1    3    3  502    0  0.44650723142E+02  0.20135593919E+03 -0.10809976320E+04  0.11004970612E+04  0.25500000920E-02 0. -1.
       -2    1    3    3    0  502 -0.44650723142E+02 -0.20135593919E+03 -0.11502857146E+03  0.23615561307E+03  0.25500000920E-02 0.  1.
</event>
<event>
 5   0  0.2142838E-02  0.6006153E+03  0.7818609E-02  0.9904130E-01
       -2   -1    0    0    0  501  0.00000000000E+00  0.00000000000E+00  0.92625336513E+02  0.92625336548E+02  0.25500000920E-02 0.  1.
        2   -1    0    0  501    0  0.00000000000E+00  0.00000000000E+00 -0.97365039960E+03  0.97365039961E+03  0.25500000920E-02 0. -1.
    10030    2    1    2    0    0  0.00000000000E+00  0.00000000000E+00 -0.88102506309E+03  0.10662757362E+04  0.60061533757E+03 0.  0.
        4    1    3    3  502    0  0.19346551744E+02  0.29360951838E+03 -0.33396099605E+03  0.44509818931E+03  0.12699999809E+01 0.  1.
       -4    1    3    3    0  502 -0.19346551744E+02 -0.29360951838E+03 -0.54706406704E+03  0.62117754684E+03  0.12699999809E+01 0. -1.
</event>
<event>
 5   0  0.1250390E-02  0.5997578E+03  0.7818609E-02  0.9905909E-01
        1   -1    0    0  501    0  0.00000000000E+00  0.00000000000E+00  0.55506294073E+03  0.55506294075E+03  0.50400001928E-02 0. -1.
       -1   -1    0    0    0  501  0.00000000000E+00  0.00000000000E+00 -0.16201289578E+03  0.16201289586E+03  0.50400001928E-02 0.  1.
    10030    2    1    2    0    0  0.00000000000E+00  0.00000000000E+00  0.39305004495E+03  0.71707583661E+03  0.59975779913E+03 0.  0.
        3    1    3    3  502    0 -0.11739663196E+03  0.17687132319E+03 -0.56712504789E+02  0.21973109148E+03  0.10100000352E+00 0.  1.
       -3    1    3    3    0  502  0.11739663196E+03 -0.17687132319E+03  0.44976254974E+03  0.49734474513E+03  0.10100000352E+00 0. -1.
</event>
<event>
 5   0  0.2141800E-02  0.6001554E+03  0.7818609E-02  0.9905084E-01
        2   -1    0    0  501    0  0.00000000000E+00  0.00000000000E+00  0.21530503472E+03  0.21530503473E+03  0.25500000920E-02 0.  1.
       -2   -1    0    0    0  501  0.00000000000E+00  0.00000000000E+00 -0.41822815195E+03  0.41822815195E+03  0.25500000920E-02 0. -1.
    10030    2    1    2    0    0  0.00000000000E+00  0.00000000000E+00 -0.20292311723E+03  0.63353318669E+03  0.60015540248E+03 0.  0.
        2    1    3    3  502    0  0.57200928212E+02 -0.25743393352E+03  0.49688574997E+02  0.26835262400E+03  0.25500000920E-02 0.  1.
       -2    1    3    3    0  502 -0.57200928212E+02  0.25743393352E+03 -0.25261169222E+03  0.36518056269E+03  0.25500000920E-02 0. -1.
</event>
<event>
 5   0  0.2142838E-02  0.6052638E+03  0.7818609E-02  0.9894545E-01
       -2   -1    0    0    0  501  0.00000000000E+00  0.00000000000E+00  0.83193188592E+02  0.83193188631E+02  0.25500000920E-02 0. -1.
        2   -1    0    0  501    0  0.00000000000E+00  0.00000000000E+00 -0.11008840973E+04  0.11008840974E+04  0.25500000920E-02 0.  1.
    10030    2    1    2    0    0  0.00000000000E+00  0.00000000000E+00 -0.10176909088E+04  0.11840772860E+04  0.60526377177E+03 0.  0.
        4    1    3    3  502    0  0.15103359614E+03  0.19597465122E+03 -0.84975408088E+03  0.88504283622E+03  0.12699999809E+01 0. -1.
       -4    1    3    3    0  502 -0.15103359614E+03 -0.19597465122E+03 -0.16793682788E+03  0.29903444976E+03  0.12699999809E+01 0.  1.
</event>
<event>
 5   0  0.1337051E-02  0.5983075E+03  0.7818609E-02  0.9908924E-01
        1   -1    0    0  501    0  0.00000000000E+00  0.00000000000E+00  0.65145779479E+03  0.65145779481E+03  0.50400001928E-02 0. -1.
       -1   -1    0    0    0  501  0.00000000000E+00  0.00000000000E+00 -0.13737341220E+03  0.13737341230E+03  0.50400001928E-02 0.  1.
    10030    2    1    2    0    0  0.00000000000E+00  0.00000000000E+00  0.51408438259E+03  0.78883120711E+03  0.59830754707E+03 0.  0.
        5    1    3    3  502    0 -0.42304825085E+02 -0.92664804089E+02 -0.11375167548E+03  0.15276779050E+03  0.46999998093E+01 0.  1.
       -5    1    3    3    0  502  0.42304825085E+02  0.92664804089E+02  0.62783605807E+03  0.63606341661E+03  0.46999998093E+01 0. -1.
</event>
<event>
 5   0  0.8551000E-03  0.5987459E+03  0.7818609E-02  0.9908011E-01
        4   -1    0    0  501    0  0.00000000000E+00  0.00000000000E+00  0.82815927689E+03  0.82816025068E+03  0.12699999809E+01 0. -1.
       -4   -1    0    0    0  501  0.00000000000E+00  0.00000000000E+00 -0.10821616958E+03  0.10822362154E+03  0.12699999809E+01 0.  1.
    10030    2    1    2    0    0  0.00000000000E+00  0.00000000000E+00  0.71994310732E+03  0.93638387222E+03  0.59874592138E+03 0.  0.
        1    1    3    3  502    0 -0.15575068110E+03 -0.84508262198E+02 -0.17394910812E+02  0.17805196992E+03  0.50400001928E-02 0.  1.
       -1    1    3    3    0  502  0.15575068110E+03  0.84508262198E+02  0.73733801813E+03  0.75833190230E+03  0.50400001928E-02 0. -1.
</event>
<event>
 5   0  0.2141800E-02  0.5952688E+03  0.7818609E-02  0.9915271E-01
       -2   -1    0    0    0  501  0.00000000000E+00  0.00000000000E+00  0.94997494423E+02  0.94997494457E+02  0.25500000920E-02 0. -1.
        2   -1    0    0  501    0  0.00000000000E+00  0.00000000000E+00 -0.93251142071E+03  0.93251142072E+03  0.25500000920E-02 0.  1.
    10030    2    1    2    0    0  0.00000000000E+00  0.00000000000E+00 -0.83751392629E+03  0.10275089152E+04  0.59526884181E+03 0.  0.
        2    1    3    3  502    0 -0.92795566926E+02  0.55161789260E+02  0.60013237769E+02  0.12351286957E+03  0.25500000920E-02 0. -1.
       -2    1    3    3    0  502  0.92795566926E+02 -0.55161789260E+02 -0.89752716406E+03  0.90399604560E+03  0.25500000920E-02 0.  1.
</event>
<event>
 5   0  0.2092587E-02  0.6202050E+03  0.7818609E-02  0.9864352E-01
        2   -1    0    0  501    0  0.00000000000E+00  0.00000000000E+00  0.33410709887E+03  0.33410709888E+03  0.25500000920E-02 0. -1.
       -2   -1    0    0    0  501  0.00000000000E+00  0.00000000000E+00 -0.28782253729E+03  0.28782253730E+03  0.25500000920E-02 0.  1.
    10030    2    1    2    0    0  0.00000000000E+00  0.00000000000E+00  0.46284561579E+02  0.62192963619E+03  0.62020497557E+03 0.  0.
        3    1    3    3  502    0 -0.13943384590E+02  0.30315745517E+03 -0.40789867841E+02  0.30620693023E+03  0.10100000352E+00 0. -1.
       -3    1    3    3    0  502  0.13943384590E+02 -0.30315745517E+03  0.87074429420E+02  0.31572270596E+03  0.10100000352E+00 0.  1.
</event>
<event>
 5   0  0.2126207E-02  0.6044113E+03  0.7818609E-02  0.9896296E-01
       -2   -1    0    0    0  501  0.00000000000E+00  0.00000000000E+00  0.23490998962E+03  0.23490998964E+03  0.25500000920E-02 0. -1.
        2   -1    0    0  501    0  0.00000000000E+00  0.00000000000E+00 -0.38877984355E+03  0.38877984356E+03  0.25500000920E-02 0.  1.
    10030    2    1    2    0    0  0.00000000000E+00  0.00000000000E+00 -0.15386985393E+03  0.62368983320E+03  0.60441134675E+03 0.  0.
        5    1    3    3  502    0 -0.27919462651E+03 -0.66573657177E+01 -0.19599366724E+03  0.34121777150E+03  0.46999998093E+01 0.  1.
       -5    1    3    3    0  502  0.27919462651E+03  0.66573657177E+01  0.42123813318E+02  0.28247206169E+03  0.46999998093E+01 0. -1.
</event>
<event>
 5   0  0.1332555E-02  0.5977468E+03  0.7818609E-02  0.9910092E-01
       -1   -1    0    0    0  501  0.00000000000E+00  0.00000000000E+00  0.16317093222E+03  0.16317093229E+03  0.50400001928E-02 0.  1.
        1   -1    0    0  501    0  0.00000000000E+00  0.00000000000E+00 -0.54743393643E+03  0.54743393646E+03  0.50400001928E-02 0. -1.
    10030    2    1    2    0    0  0.00000000000E+00  0.00000000000E+00 -0.38426300422E+03  0.71060486875E+03  0.59774678843E+03 0.  0.
        2    1    3    3  502    0 -0.24767336185E+03 -0.20523249060E+02 -0.38949478174E+03  0.46202757811E+03  0.25500000920E-02 0. -1.
       -2    1    3    3    0  502  0.24767336185E+03  0.20523249060E+02  0.52317775252E+01  0.24857729064E+03  0.25500000920E-02 0.  1.
</event>
<event>
 5   0  0.2141800E-02  0.5966321E+03  0.7818609E-02  0.9912418E-01
       -2   -1    0    0    0  501  0.00000000000E+00  0.00000000000E+00  0.25892894791E+03  0.25892894793E+03  0.25500000920E-02 0. -1.
        2   -1    0    0  501    0  0.00000000000E+00  0.00000000000E+00 -0.34369451484E+03  0.34369451485E+03  0.25500000920E-02 0.  1.
    10030    2    1    2    0    0  0.00000000000E+00  0.00000000000E+00 -0.84765566927E+02  0.60262346277E+03  0.59663207804E+03 0.  0.
        2    1    3    3  502    0 -0.22908086147E+03 -0.14155809039E+03  0.87263987770E+02  0.28307549808E+03  0.25500000920E-02 0. -1.
       -2    1    3    3    0  502  0.22908086147E+03  0.14155809039E+03 -0.17202955470E+03  0.31954796469E+03  0.25500000920E-02 0.  1.
</event>
<event>
 5   0  0.8551000E-03  0.5987454E+03  0.7818609E-02  0.9908012E-01
       -4   -1    0    0    0  501  0.00000000000E+00  0.00000000000E+00  0.27086552644E+03  0.27086850373E+03  0.12699999809E+01 0. -1.
        4   -1    0    0  501    0  0.00000000000E+00  0.00000000000E+00 -0.33087407807E+03  0.33087651539E+03  0.12699999809E+01 0.  1.
    10030    2    1    2    0    0  0.00000000000E+00  0.00000000000E+00 -0.60008551635E+02  0.60174501912E+03  0.59874538977E+03 0.  0.
        3    1    3    3  502    0 -0.66864504088E+02 -0.11255123113E+03  0.24057558429E+03  0.27388914453E+03  0.10100000352E+00 0. -1.
       -3    1    3    3    0  502  0.66864504088E+02  0.11255123113E+03 -0.30058413592E+03  0.32785587459E+03  0.10100000352E+00 0.  1.
</event>
<event>
 5   0  0.2126207E-02  0.5887703E+03  0.7818609E-02  0.9928982E-01
        2   -1    0    0  501    0  0.00000000000E+00  0.00000000000E+00  0.19580305287E+03  0.19580305288E+03  0.25500000920E-02 0. -1.
       -2   -1    0    0    0  501  0.00000000000E+00  0.00000000000E+00 -0.44260089019E+03  0.44260089020E+03  0.25500000920E-02 0.  1.
    10030    2    1    2    0    0  0.00000000000E+00  0.00000000000E+00 -0.24679783732E+03  0.63840394308E+03  0.58877026252E+03 0.  0.
        5    1    3    3  502    0 -0.13161513702E+03 -0.15163858871E+03  0.10997448456E+03  0.22898315032E+03  0.46999998093E+01 0. -1.
       -5    1    3    3    0  502  0.13161513702E+03  0.15163858871E+03 -0.35677232189E+03  0.40942079276E+03  0.46999998093E+01 0.  1.
</event>
<event>
 5   0  0.1303808E-02  0.5719246E+03  0.7818609E-02  0.9965429E-01
       -1   -1    0    0    0  501  0.00000000000E+00  0.00000000000E+00  0.64684911548E+03  0.64684911549E+03  0.50400001928E-02 0.  1.
        1   -1    0    0  501    0  0.00000000000E+00  0.00000000000E+00 -0.12641964543E+03  0.12641964553E+03  0.50400001928E-02 0. -1.
    10030    2    1    2    0    0  0.00000000000E+00  0.00000000000E+00  0.52042947004E+03  0.77326876103E+03  0.57192459598E+03 0.  0.
        4    1    3    3  502    0 -0.91243249543E+02 -0.25888155513E+03  0.15181605913E+03  0.31367932493E+03  0.12699999809E+01 0. -1.
       -4    1    3    3    0  502  0.91243249543E+02  0.25888155513E+03  0.36861341091E+03  0.45958943610E+03  0.12699999809E+01 0.  1.
</event>
<event>
 5   0  0.1332555E-02  0.6013540E+03  0.7818609E-02  0.9902601E-01
       -1   -1    0    0    0  501  0.00000000000E+00  0.00000000000E+00  0.24505256283E+03  0.24505256288E+03  0.50400001928E-02 0. -1.
        1   -1    0    0  501    0  0.00000000000E+00  0.00000000000E+00 -0.36892757849E+03  0.36892757852E+03  0.50400001928E-02 0.  1.
    10030    2    1    2    0    0  0.00000000000E+00  0.00000000000E+00 -0.12387501566E+03  0.61398014140E+03  0.60135396775E+03 0.  0.
        2    1    3    3  502    0 -0.57871897042E+02  0.17449548406E+03 -0.30485913859E+03  0.35600129889E+03  0.25500000920E-02 0.  1.
       -2    1    3    3    0  502  0.57871897042E+02 -0.17449548406E+03  0.18098412292E+03  0.25797884251E+03  0.25500000920E-02 0. -1.
</event>
<event>
 5   0  0.1276705E-02  0.6020829E+03  0.7818609E-02  0.9901094E-01
        1   -1    0    0  501    0  0.00000000000E+00  0.00000000000E+00  0.30950832892E+03  0.30950832896E+03  0.50400001928E-02 0.  1.
       -1   -1    0    0    0  501  0.00000000000E+00  0.00000000000E+00 -0.29280616810E+03  0.29280616814E+03  0.50400001928E-02 0. -1.
    10030    2    1    2    0    0  0.00000000000E+00  0.00000000000E+00  0.16702160822E+02  0.60231449710E+03  0.60208287738E+03 0.  0.
        1    1    3    3  502    0 -0.12120169535E+03  0.23856647570E+03  0.14632488897E+03  0.30498325764E+03  0.50400001928E-02 0.  1.
       -1    1    3    3    0  502  0.12120169535E+03 -0.23856647570E+03 -0.12962272815E+03  0.29733123946E+03  0.50400001928E-02 0. -1.
</event>
<event>
 5   0  0.2126207E-02  0.6031244E+03  0.7818609E-02  0.9898945E-01
       -2   -1    0    0    0  501  0.00000000000E+00  0.00000000000E+00  0.17023574824E+03  0.17023574826E+03  0.25500000920E-02 0.  1.
        2   -1    0    0  501    0  0.00000000000E+00  0.00000000000E+00 -0.53419888633E+03  0.53419888634E+03  0.25500000920E-02 0. -1.
    10030    2    1    2    0    0  0.00000000000E+00  0.00000000000E+00 -0.36396313809E+03  0.70443463460E+03  0.60312435578E+03 0.  0.
        5    1    3    3  502    0 -0.25600322146E+03  0.10485696291E+03 -0.41897371948E+02  0.27983943940E+03  0.46999998093E+01 0.  1.
       -5    1    3    3    0  502  0.25600322146E+03 -0.10485696291E+03 -0.32206576615E+03  0.42459519520E+03  0.46999998093E+01 0. -1.
</event>
<event>
 5   0  0.1337051E-02  0.6006602E+03  0.7818609E-02  0.9904037E-01
        1   -1    0    0  501    0  0.00000000000E+00  0.00000000000E+00  0.58445849848E+03  0.58445849850E+03  0.50400001928E-02 0.  1.
       -1   -1    0    0    0  501  0.00000000000E+00  0.00000000000E+00 -0.15432773320E+03  0.15432773328E+03  0.50400001928E-02 0. -1.
    10030    2    1    2    0    0  0.00000000000E+00  0.00000000000E+00  0.43013076529E+03  0.73878623178E+03  0.60066015435E+03 0.  0.
        5    1    3    3  502    0 -0.19954945458E+03  0.19867159164E+03  0.86738473570E+02  0.29467955298E+03  0.46999998093E+01 0. -1.
       -5    1    3    3    0  502  0.19954945458E+03 -0.19867159164E+03  0.34339229172E+03  0.44410667880E+03  0.46999998093E+01 0.  1.
</event>
<event>
 5   0  0.1250390E-02  0.5996828E+03  0.7818609E-02  0.9906064E-01
        1   -1    0    0  501    0  0.00000000000E+00  0.00000000000E+00  0.23131815686E+03  0.23131815691E+03  0.50400001928E-02 0.  1.
       -1   -1    0    0    0  501  0.00000000000E+00  0.00000000000E+00 -0.38866325106E+03  0.38866325109E+03  0.50400001928E-02 0. -1.
    10030    2    1    2    0    0  0.00000000000E+00  0.00000000000E+00 -0.15734509420E+03  0.61998140801E+03  0.59968280583E+03 0.  0.
        3    1    3    3  502    0  0.74273976068E+02  0.28776560828E+03 -0.37588428957E+02  0.29956396482E+03  0.10100000352E+00 0.  1.
       -3    1    3    3    0  502 -0.74273976068E+02 -0.28776560828E+03 -0.11975666525E+03  0.32041744319E+03  0.10100000352E+00 0. -1.
</event>
<event>
 5   0  0.2179625E-02  0.5958813E+03  0.7818609E-02  0.9913988E-01
       -2   -1    0    0    0  501  0.00000000000E+00  0.00000000000E+00  0.18089210744E+03  0.18089210746E+03  0.25500000920E-02 0.  1.
        2   -1    0    0  501    0  0.00000000000E+00  0.00000000000E+00 -0.49072698222E+03  0.49072698222E+03  0.25500000920E-02 0. -1.
    10030    2    1    2    0    0  0.00000000000E+00  0.00000000000E+00 -0.30983487478E+03  0.67161908968E+03  0.59588132375E+03 0.  0.
        1    1    3    3  502    0  0.16839051940E+02 -0.98804294303E+02 -0.47115504250E+03  0.48169795136E+03  0.50400001928E-02 0. -1.
       -1    1    3    3    0  502 -0.16839051940E+02  0.98804294303E+02  0.16132016772E+03  0.18992113832E+03  0.50400001928E-02 0.  1.
</event>
<event>
 5   0  0.1276705E-02  0.5960006E+03  0.7818609E-02  0.9913738E-01
       -1   -1    0    0    0  501  0.00000000000E+00  0.00000000000E+00  0.31701496177E+03  0.31701496181E+03  0.50400001928E-02 0.  1.
        1   -1    0    0  501    0  0.00000000000E+00  0.00000000000E+00 -0.28012615752E+03  0.28012615757E+03  0.50400001928E-02 0. -1.
    10030    2    1    2    0    0  0.00000000000E+00  0.00000000000E+00  0.36888804251E+02  0.59714111938E+03  0.59600061458E+03 0.  0.
        1    1    3    3  502    0 -0.63202546428E+02  0.13826990225E+03 -0.23834872142E+03  0.28270698748E+03  0.50400001928E-02 0. -1.
       -1    1    3    3    0  502  0.63202546428E+02 -0.13826990225E+03  0.27523752567E+03  0.31443413190E+03  0.50400001928E-02 0.  1.
</event>
<event>
 5   0  0.2092587E-02  0.5987499E+03  0.7818609E-02  0.9908003E-01
       -2   -1    0    0    0  501  0.00000000000E+00  0.00000000000E+00  0.47088707628E+02  0.47088707697E+02  0.25500000920E-02 0. -1.
        2   -1    0    0  501    0  0.00000000000E+00  0.00000000000E+00 -0.19033299896E+04  0.19033299896E+04  0.25500000920E-02 0.  1.
    10030    2    1    2    0    0  0.00000000000E+00  0.00000000000E+00 -0.18562412820E+04  0.19504186973E+04  0.59874986253E+03 0.  0.
        3    1    3    3  502    0 -0.19284256461E+03 -0.91811640026E+02 -0.16114763021E+04  0.16255686741E+04  0.10100000352E+00 0. -1.
       -3    1    3    3    0  502  0.19284256461E+03  0.91811640026E+02 -0.24476497993E+03  0.32485002320E+03  0.10100000352E+00 0.  1.
</event>
<event>
 5   0  0.1276705E-02  0.6012772E+03  0.7818609E-02  0.9902760E-01
        1   -1    0    0  501    0  0.00000000000E+00  0.00000000000E+00  0.64256272448E+03  0.64256272450E+03  0.50400001928E-02 0.  1.
       -1   -1    0    0    0  501  0.00000000000E+00  0.00000000000E+00 -0.14066107885E+03  0.14066107894E+03  0.50400001928E-02 0. -1.
    10030    2    1    2    0    0  0.00000000000E+00  0.00000000000E+00  0.50190164563E+03  0.78322380344E+03  0.60127719430E+03 0.  0.
        1    1    3    3  502    0  0.30149905861E+02  0.22382951334E+03 -0.75255603567E+01  0.22597633051E+03  0.50400001928E-02 0. -1.
       -1    1    3    3    0  502 -0.30149905861E+02 -0.22382951334E+03  0.50942720599E+03  0.55724747293E+03  0.50400001928E-02 0.  1.
</event>
<event>
 5   0  0.1303808E-02  0.5992188E+03  0.7818609E-02  0.9907028E-01
        1   -1    0    0  501    0  0.00000000000E+00  0.00000000000E+00  0.38070539621E+03  0.38070539624E+03  0.50400001928E-02 0. -1.
       -1   -1    0    0    0  501  0.00000000000E+00  0.00000000000E+00 -0.23578810378E+03  0.23578810384E+03  0.50400001928E-02 0.  1.
    10030    2    1    2    0    0  0.00000000000E+00  0.00000000000E+00  0.14491729243E+03  0.61649350008E+03  0.59921883648E+03 0.  0.
        4    1    3    3  502    0  0.16751102423E+03  0.16875496366E+03 -0.11507626974E+03  0.26416347544E+03  0.12699999809E+01 0.  1.
       -4    1    3    3    0  502 -0.16751102423E+03 -0.16875496366E+03  0.25999356217E+03  0.35233002464E+03  0.12699999809E+01 0. -1.
</event>
<event>
 5   0  0.2179625E-02  0.6001208E+03  0.7818609E-02  0.9905155E-01
        2   -1    0    0  501    0  0.00000000000E+00  0.00000000000E+00  0.85210746346E+03  0.85210746346E+03  0.25500000920E-02 0.  1.
       -2   -1    0    0    0  501  0.00000000000E+00  0.00000000000E+00 -0.10566301867E+03  0.10566301870E+03  0.25500000920E-02 0. -1.
    10030    2    1    2    0    0  0.00000000000E+00  0.00000000000E+00  0.74644444479E+03  0.95777048216E+03  0.60012081062E+03 0.  0.
        1    1    3    3  502    0  0.28693268096E+03 -0.25602229889E+02  0.50722997500E+03  0.58332502530E+03  0.50400001928E-02 0.  1.
       -1    1    3    3    0  502 -0.28693268096E+03  0.25602229889E+02  0.23921446979E+03  0.37444545686E+03  0.50400001928E-02 0. -1.
</event>
<event>
 5   0  0.1276705E-02  0.6002939E+03  0.7818609E-02  0.9904797E-01
       -1   -1    0    0    0  501  0.00000000000E+00  0.00000000000E+00  0.63143188697E+02  0.63143188898E+02  0.50400001928E-02 0. -1.
        1   -1    0    0  501    0  0.00000000000E+00  0.00000000000E+00 -0.14267284421E+04  0.14267284421E+04  0.50400001928E-02 0.  1.
    10030    2    1    2    0    0  0.00000000000E+00  0.00000000000E+00 -0.13635852534E+04  0.14898716310E+04  0.60029387268E+03 0.  0.
        1    1    3    3  502    0 -0.29070235856E+03 -0.35760184309E+02 -0.84457091780E+03  0.89391648786E+03  0.50400001928E-02 0.  1.
       -1    1    3    3    0  502  0.29070235856E+03  0.35760184309E+02 -0.51901433557E+03  0.59595514312E+03  0.50400001928E-02 0. -1.
</event>
<event>
 5   0  0.1276705E-02  0.6007314E+03  0.7818609E-02  0.9903890E-01
       -1   -1    0    0    0  501  0.00000000000E+00  0.00000000000E+00  0.11381760634E+03  0.11381760645E+03  0.50400001928E-02 0.  1.
        1   -1    0    0  501    0  0.00000000000E+00  0.00000000000E+00 -0.79266776004E+03  0.79266776005E+03  0.50400001928E-02 0. -1.
    10030    2    1    2    0    0  0.00000000000E+00  0.00000000000E+00 -0.67885015370E+03  0.90648536650E+03  0.60073137800E+03 0.  0.
        1    1    3    3  502    0 -0.18323583427E+03  0.19256941252E+03 -0.55047159891E+03  0.61129152688E+03  0.50400001928E-02 0. -1.
       -1    1    3    3    0  502  0.18323583427E+03 -0.19256941252E+03 -0.12837855478E+03  0.29519383962E+03  0.50400001928E-02 0.  1.
</event>
<event>
 5   0  0.2092587E-02  0.5979174E+03  0.7818609E-02  0.9909736E-01
        2   -1    0    0  501    0  0.00000000000E+00  0.00000000000E+00  0.12122836323E+03  0.12122836326E+03  0.25500000920E-02 0. -1.
       -2   -1    0    0    0  501  0.00000000000E+00  0.00000000000E+00 -0.73725582811E+03  0.73725582812E+03  0.25500000920E-02 0.  1.
    10030    2    1    2    0    0  0.00000000000E+00  0.00000000000E+00 -0.61602746488E+03  0.85848419137E+03  0.59791744358E+03 0.  0.
        3    1    3    3  502    0  0.24808437042E+03  0.55604506543E+02 -0.82185331160E+02  0.26719310406E+03  0.10100000352E+00 0. -1.
       -3    1    3    3    0  502 -0.24808437042E+03 -0.55604506543E+02 -0.53384213372E+03  0.59129108731E+03  0.10100000352E+00 0.  1.
</event>
<event>
 5   0  0.2126207E-02  0.5997077E+03  0.7818609E-02  0.9906013E-01
        2   -1    0    0  501    0  0.00000000000E+00  0.00000000000E+00  0.58084073383E+03  0.58084073384E+03  0.25500000920E-02 0. -1.
       -2   -1    0    0    0  501  0.00000000000E+00  0.00000000000E+00 -0.15479687180E+03  0.15479687182E+03  0.25500000920E-02 0.  1.
    10030    2    1    2    0    0  0.00000000000E+00  0.00000000000E+00  0.42604386204E+03  0.73563760566E+03  0.59970769086E+03 0.  0.
        5    1    3    3  502    0  0.24235505586E+01 -0.29446062442E+03  0.14387804184E+03  0.32777418119E+03  0.46999998093E+01 0.  1.
       -5    1    3    3    0  502 -0.24235505586E+01  0.29446062442E+03  0.28216582020E+03  0.40786342447E+03  0.46999998093E+01 0. -1.
</event>
<event>
 5   0  0.8551000E-03  0.6004367E+03  0.7818609E-02  0.9904501E-01
       -3   -1    0    0    0  501  0.00000000000E+00  0.00000000000E+00  0.28584529367E+03  0.28584531151E+03  0.10100000352E+00 0.  1.
        3   -1    0    0  501    0  0.00000000000E+00  0.00000000000E+00 -0.31531405449E+03  0.31531407067E+03  0.10100000352E+00 0. -1.
    10030    2    1    2    0    0  0.00000000000E+00  0.00000000000E+00 -0.29468760823E+02  0.60115938218E+03  0.60043667020E+03 0.  0.
        5    1    3    3  502    0 -0.28459805377E+03 -0.34364401576E+02 -0.10390332407E+03  0.30495074202E+03  0.46999998093E+01 0. -1.
       -5    1    3    3    0  502  0.28459805377E+03  0.34364401576E+02  0.74434563250E+02  0.29620864017E+03  0.46999998093E+01 0.  1.
</event>
<event>
 5   0  0.2141800E-02  0.5977843E+03  0.7818609E-02  0.9910014E-01
       -2   -1    0    0    0  501  0.00000000000E+00  0.00000000000E+00  0.75308755082E+02  0.75308755125E+02  0.25500000920E-02 0.  1.
        2   -1    0    0  501    0  0.00000000000E+00  0.00000000000E+00 -0.11862700420E+04  0.11862700420E+04  0.25500000920E-02 0. -1.
    10030    2    1    2    0    0  0.00000000000E+00  0.00000000000E+00 -0.11109612869E+04  0.12615787971E+04  0.59778430921E+03 0.  0.
        2    1    3    3  502    0 -0.10968801484E+03  0.20939714774E+03 -0.16945232022E+03  0.29084826785E+03  0.25500000920E-02 0.  1.
       -2    1    3    3    0  502  0.10968801484E+03 -0.20939714774E+03 -0.94150896672E+03  0.97073052929E+03  0.25500000920E-02 0. -1.
</event>
<event>
 5   0  0.2141800E-02  0.6008082E+03  0.7818609E-02  0.9903731E-01
       -2   -1    0    0    0  501  0.00000000000E+00  0.00000000000E+00  0.11713312277E+03  0.11713312280E+03  0.25500000920E-02 0.  1.
        2   -1    0    0  501    0  0.00000000000E+00  0.00000000000E+00 -0.77042780495E+03  0.77042780496E+03  0.25500000920E-02 0. -1.
    10030    2    1    2    0    0  0.00000000000E+00  0.00000000000E+00 -0.65329468219E+03  0.88756092775E+03  0.60080817130E+03 0.  0.
        2    1    3    3  502    0  0.25080139503E+02  0.24208023566E+03 -0.66500500931E+02  0.25229778145E+03  0.25500000920E-02 0. -1.
       -2    1    3    3    0  502 -0.25080139503E+02 -0.24208023566E+03 -0.58679418125E+03  0.63526314631E+03  0.25500000920E-02 0.  1.
</event>
<event>
 5   0  0.2092587E-02  0.6008781E+03  0.7818609E-02  0.9903586E-01
        2   -1    0    0  501    0  0.00000000000E+00  0.00000000000E+00  0.18911936127E+04  0.18911936127E+04  0.25500000920E-02 0. -1.
       -2   -1    0    0    0  501  0.00000000000E+00  0.00000000000E+00 -0.47728391266E+02  0.47728391334E+02  0.25500000920E-02 0.  1.
    10030    2    1    2    0    0  0.00000000000E+00  0.00000000000E+00  0.18434652214E+04  0.19389220040E+04  0.60087812000E+03 0.  0.
        3    1    3    3  502    0 -0.64894789965E+02 -0.21121202930E+03  0.15786232346E+04  0.15940116631E+04  0.10100000352E+00 0. -1.
       -3    1    3    3    0  502  0.64894789965E+02  0.21121202930E+03  0.26484198680E+03  0.34491034090E+03  0.10100000352E+00 0.  1.
</event>
<event>
 5   0  0.1332555E-02  0.5997786E+03  0.7818609E-02  0.9905865E-01
       -1   -1    0    0    0  501  0.00000000000E+00  0.00000000000E+00  0.63266799276E+02  0.63266799477E+02  0.50400001928E-02 0.  1.
        1   -1    0    0  501    0  0.00000000000E+00  0.00000000000E+00 -0.14214975915E+04  0.14214975916E+04  0.50400001928E-02 0. -1.
    10030    2    1    2    0    0  0.00000000000E+00  0.00000000000E+00 -0.13582307923E+04  0.14847643910E+04  0.59977863567E+03 0.  0.
        2    1    3    3  502    0  0.18775434480E+03  0.23279224355E+03 -0.73389550180E+03  0.79249386762E+03  0.25500000920E-02 0.  1.
       -2    1    3    3    0  502 -0.18775434480E+03 -0.23279224355E+03 -0.62433529047E+03  0.69227052341E+03  0.25500000920E-02 0. -1.
</event>
<event>
 5   0  0.2179625E-02  0.6023592E+03  0.7818609E-02  0.9900524E-01
        2   -1    0    0  501    0  0.00000000000E+00  0.00000000000E+00  0.12193247862E+03  0.12193247865E+03  0.25500000920E-02 0.  1.
       -2   -1    0    0    0  501  0.00000000000E+00  0.00000000000E+00 -0.74392933553E+03  0.74392933553E+03  0.25500000920E-02 0. -1.
    10030    2    1    2    0    0  0.00000000000E+00  0.00000000000E+00 -0.62199685691E+03  0.86586181418E+03  0.60235918791E+03 0.  0.
        1    1    3    3  502    0  0.27791335789E+03 -0.11413364216E+03 -0.28061324996E+03  0.41110353786E+03  0.50400001928E-02 0.  1.
       -1    1    3    3    0  502 -0.27791335789E+03  0.11413364216E+03 -0.34138360695E+03  0.45475827632E+03  0.50400001928E-02 0. -1.
</event>
<event>
 5   0  0.1276705E-02  0.6007841E+03  0.7818609E-02  0.9903781E-01
        1   -1    0    0  501    0  0.00000000000E+00  0.00000000000E+00  0.48055270332E+03  0.48055270335E+03  0.50400001928E-02 0. -1.
       -1   -1    0    0    0  501  0.00000000000E+00  0.00000000000E+00 -0.18777415224E+03  0.18777415231E+03  0.50400001928E-02 0.  1.
    10030    2    1    2    0    0  0.00000000000E+00  0.00000000000E+00  0.29277855108E+03  0.66832685565E+03  0.60078407603E+03 0.  0.
        1    1    3    3  502    0  0.20056801026E+01 -0.25694264207E+03 -0.26705647283E+02  0.25833454219E+03  0.50400001928E-02 0.  1.
       -1    1    3    3    0  502 -0.20056801026E+01  0.25694264207E+03  0.31948419837E+03  0.40999231346E+03  0.50400001928E-02 0. -1.
</event>
<event>
 5   0  0.1250390E-02  0.5974923E+03  0.7818609E-02  0.9910622E-01
        1   -1    0    0  501    0  0.00000000000E+00  0.00000000000E+00  0.24386874325E+03  0.24386874330E+03  0.50400001928E-02 0.  1.
       -1   -1    0    0    0  501  0.00000000000E+00  0.00000000000E+00 -0.36597250219E+03  0.36597250222E+03  0.50400001928E-02 0. -1.
    10030    2    1    2    0    0  0.00000000000E+00  0.00000000000E+00 -0.12210375894E+03  0.60984124552E+03  0.59749227342E+03 0.  0.
        3    1    3    3  502    0 -0.86212415545E+02 -0.13626189225E+03  0.19564025920E+03  0.25352515673E+03  0.10100000352E+00 0.  1.
       -3    1    3    3    0  502  0.86212415545E+02  0.13626189225E+03 -0.31774401813E+03  0.35631608880E+03  0.10100000352E+00 0. -1.
</event>
<event>
 5   0  0.1303808E-02  0.5995287E+03  0.7818609E-02  0.9906384E-01
       -1   -1    0    0    0  501  0.00000000000E+00  0.00000000000E+00  0.10219794644E+03  0.10219794656E+03  0.50400001928E-02 0. -1.
        1   -1    0    0  501    0  0.00000000000E+00  0.00000000000E+00 -0.87926095382E+03  0.87926095384E+03  0.50400001928E-02 0.  1.
    10030    2    1    2    0    0  0.00000000000E+00  0.00000000000E+00 -0.77706300738E+03  0.98145890040E+03  0.59952869466E+03 0.  0.
        4    1    3    3  502    0 -0.23341483679E+03  0.13120255514E+03 -0.16792134826E+03  0.31606295039E+03  0.12699999809E+01 0. -1.
       -4    1    3    3    0  502  0.23341483679E+03 -0.13120255514E+03 -0.60914165912E+03  0.66539595001E+03  0.12699999809E+01 0.  1.
</event>
<event>
 5   0  0.2142838E-02  0.6001198E+03  0.7818609E-02  0.9905158E-01
        2   -1    0    0  501    0  0.00000000000E+00  0.00000000000E+00  0.54720405101E+03  0.54720405101E+03  0.25500000920E-02 0.  1.
       -2   -1    0    0    0  501  0.00000000000E+00  0.00000000000E+00 -0.16453814589E+03  0.16453814591E+03  0.25500000920E-02 0. -1.
    10030    2    1    2    0    0  0.00000000000E+00  0.00000000000E+00  0.38266590512E+03  0.71174219692E+03  0.60011978799E+03 0.  0.
        4    1    3    3  502    0  0.24502841033E+02 -0.24443142772E+03 -0.13014626204E+02  0.24600427937E+03  0.12699999809E+01 0. -1.
       -4    1    3    3    0  502 -0.24502841033E+02  0.24443142772E+03  0.39568053133E+03  0.46573791755E+03  0.12699999809E+01 0.  1.
</event>
<event>
 5   0  0.1250390E-02  0.5964342E+03  0.7818609E-02  0.9912832E-01
       -1   -1    0    0    0  501  0.00000000000E+00  0.00000000000E+00  0.21090514390E+03  0.21090514396E+03  0.50400001928E-02 0. -1.
        1   -1    0    0  501    0  0.00000000000E+00  0.00000000000E+00 -0.42167504116E+03  0.42167504119E+03  0.50400001928E-02 0.  1.
    10030    2    1    2    0    0  0.00000000000E+00  0.00000000000E+00 -0.21076989726E+03  0.63258018514E+03  0.59643418836E+03 0.  0.
        3    1    3    3  502    0  0.22526701893E+03  0.19243256400E+03 -0.14147514527E+03  0.32831501402E+03  0.10100000352E+00 0.  1.
       -3    1    3    3    0  502 -0.22526701893E+03 -0.19243256400E+03 -0.69294751991E+02  0.30426517112E+03  0.10100000352E+00 0. -1.
</event>
<event>
 5   0  0.2126207E-02  0.6000850E+03  0.7818609E-02  0.9905230E-01
       -2   -1    0    0    0  501  0.00000000000E+00  0.00000000000E+00  0.19097733849E+03  0.19097733851E+03  0.25500000920E-02 0. -1.
        2   -1    0    0  501    0  0.00000000000E+00  0.00000000000E+00 -0.47139367671E+03  0.47139367671E+03  0.25500000920E-02 0.  1.
    10030    2    1    2    0    0  0.00000000000E+00  0.00000000000E+00 -0.28041633821E+03  0.66237101522E+03  0.60008502653E+03 0.  0.
        5    1    3    3  502    0  0.16914390392E+03  0.12091995638E+02 -0.41337808304E+03  0.44683263772E+03  0.46999998093E+01 0.  1.
       -5    1    3    3    0  502 -0.16914390392E+03 -0.12091995638E+02  0.13296174483E+03  0.21553837750E+03  0.46999998093E+01 0. -1.
</event>
<event>
 5   0  0.1250390E-02  0.6000959E+03  0.7818609E-02  0.9905207E-01
        1   -1    0    0  501    0  0.00000000000E+00  0.00000000000E+00  0.24418583712E+03  0.24418583717E+03  0.50400001928E-02 0. -1.
       -1   -1    0    0    0  501  0.00000000000E+00  0.00000000000E+00 -0.36868962404E+03  0.36868962408E+03  0.50400001928E-02 0.  1.
    10030    2    1    2    0    0  0.00000000000E+00  0.00000000000E+00 -0.12450378693E+03  0.61287546124E+03  0.60009594069E+03 0.  0.
        3    1    3    3  502    0 -0.75155151476E+02 -0.12169784358E+03  0.20712658561E+03  0.25171431146E+03  0.10100000352E+00 0. -1.
       -3    1    3    3    0  502  0.75155151476E+02  0.12169784358E+03 -0.33163037254E+03  0.36116114979E+03  0.10100000352E+00 0.  1.
</event>
<event>
 5   0  0.2179625E-02  0.5986763E+03  0.7818609E-02  0.9908156E-01
        2   -1    0    0  501    0  0.00000000000E+00  0.00000000000E+00  0.42517463323E+03  0.42517463323E+03  0.25500000920E-02 0. -1.
       -2   -1    0    0    0  501  0.00000000000E+00  0.00000000000E+00 -0.21074475512E+03  0.21074475513E+03  0.25500000920E-02 0.  1.
    10030    2    1    2    0    0  0.00000000000E+00  0.00000000000E+00  0.21442987811E+03  0.63591938836E+03  0.59867628638E+03 0.  0.
        1    1    3    3  502    0  0.24010396188E+03 -0.13504911381E+03 -0.17182163258E+02  0.27601340983E+03  0.50400001928E-02 0.  1.
       -1    1    3    3    0  502 -0.24010396188E+03  0.13504911381E+03  0.23161204137E+03  0.35990597853E+03  0.50400001928E-02 0. -1.
</event>
<event>
 5   0  0.1250390E-02  0.6003787E+03  0.7818609E-02  0.9904621E-01
       -1   -1    0    0    0  501  0.00000000000E+00  0.00000000000E+00  0.41085792369E+03  0.41085792372E+03  0.50400001928E-02 0.  1.
        1   -1    0    0  501    0  0.00000000000E+00  0.00000000000E+00 -0.21933043735E+03  0.21933043741E+03  0.50400001928E-02 0. -1.
    10030    2    1    2    0    0  0.00000000000E+00  0.00000000000E+00  0.19152748634E+03  0.63018836113E+03  0.60037870756E+03 0.  0.
        3    1    3    3  502    0 -0.17167494673E+03  0.23728831979E+03  0.26649127945E+02  0.29408879656E+03  0.10100000352E+00 0. -1.
       -3    1    3    3    0  502  0.17167494673E+03 -0.23728831979E+03  0.16487835839E+03  0.33609956457E+03  0.10100000352E+00 0.  1.
</event>
<event>
 5   0  0.2126207E-02  0.5953104E+03  0.7818609E-02  0.9915184E-01
       -2   -1    0    0    0  501  0.00000000000E+00  0.00000000000E+00  0.10624996439E+03  0.10624996442E+03  0.25500000920E-02 0.  1.
        2   -1    0    0  501    0  0.00000000000E+00  0.00000000000E+00 -0.83386952988E+03  0.83386952989E+03  0.25500000920E-02 0. -1.
    10030    2    1    2    0    0  0.00000000000E+00  0.00000000000E+00 -0.72761956549E+03  0.94011949431E+03  0.59531036569E+03 0.  0.
        5    1    3    3  502    0 -0.11136680575E+03 -0.24240514984E+03 -0.15541584060E+03  0.30877013392E+03  0.46999998093E+01 0.  1.
       -5    1    3    3    0  502  0.11136680575E+03  0.24240514984E+03 -0.57220372489E+03  0.63134936039E+03  0.46999998093E+01 0. -1.
</event>
<event>
 5   0  0.2092587E-02  0.6008152E+03  0.7818609E-02  0.9903716E-01
       -2   -1    0    0    0  501  0.00000000000E+00  0.00000000000E+00  0.16518477693E+03  0.16518477695E+03  0.25500000920E-02 0. -1.
        2   -1    0    0  501    0  0.00000000000E+00  0.00000000000E+00 -0.54632592962E+03  0.54632592963E+03  0.25500000920E-02 0.  1.
    10030    2    1    2    0    0  0.00000000000E+00  0.00000000000E+00 -0.38114115269E+03  0.71151070658E+03  0.60081520229E+03 0.  0.
        3    1    3    3  502    0  0.49466816997E+02 -0.26733665482E+03 -0.39242849782E+02  0.27469230870E+03  0.10100000352E+00 0.  1.
       -3    1    3    3    0  502 -0.49466816997E+02  0.26733665482E+03 -0.34189830291E+03  0.43681839788E+03  0.10100000352E+00 0. -1.
</event>
<event>
 5   0  0.8551000E-03  0.6010382E+03  0.7818609E-02  0.9903254E-01
       -3   -1    0    0    0  501  0.00000000000E+00  0.00000000000E+00  0.10416109063E+03  0.10416113960E+03  0.10100000352E+00 0. -1.
        3   -1    0    0  501    0  0.00000000000E+00  0.00000000000E+00 -0.86703873313E+03  0.86703873901E+03  0.10100000352E+00 0.  1.
    10030    2    1    2    0    0  0.00000000000E+00  0.00000000000E+00 -0.76287764250E+03  0.97119987861E+03  0.60103819078E+03 0.  0.
        1    1    3    3  502    0 -0.21657096993E+03  0.13983408571E+03 -0.13186570029E+03  0.28956021737E+03  0.50400001928E-02 0. -1.
       -1    1    3    3    0  502  0.21657096993E+03 -0.13983408571E+03 -0.63101194221E+03  0.68163966124E+03  0.50400001928E-02 0.  1.
</event>
<event>
 5   0  0.2092587E-02  0.6049433E+03  0.7818609E-02  0.9895203E-01
       -2   -1    0    0    0  501  0.00000000000E+00  0.00000000000E+00  0.45497364132E+02  0.45497364203E+02  0.25500000920E-02 0. -1.
        2   -1    0    0  501    0  0.00000000000E+00  0.00000000000E+00 -0.20108661007E+04  0.20108661007E+04  0.25500000920E-02 0.  1.
    10030    2    1    2    0    0  0.00000000000E+00  0.00000000000E+00 -0.19653687366E+04  0.20563634649E+04  0.60494332719E+03 0.  0.
        3    1    3    3  502    0  0.20743570873E+01  0.16024211276E+03 -0.11067311212E+03  0.19475724790E+03  0.10100000352E+00 0. -1.
       -3    1    3    3    0  502 -0.20743570873E+01 -0.16024211276E+03 -0.18546956244E+04  0.18616062170E+04  0.10100000352E+00 0.  1.
</event>
<event>
 5   0  0.1303808E-02  0.6124156E+03  0.7818609E-02  0.9879977E-01
       -1   -1    0    0    0  501  0.00000000000E+00  0.00000000000E+00  0.79753835515E+02  0.79753835675E+02  0.50400001928E-02 0.  1.
        1   -1    0    0  501    0  0.00000000000E+00  0.00000000000E+00 -0.11756578061E+04  0.11756578061E+04  0.50400001928E-02 0. -1.
    10030    2    1    2    0    0  0.00000000000E+00  0.00000000000E+00 -0.10959039706E+04  0.12554116418E+04  0.61241560855E+03 0.  0.
        4    1    3    3  502    0  0.18117585288E+03 -0.90453589007E+02 -0.77113469291E+02  0.21669019700E+03  0.12699999809E+01 0.  1.
       -4    1    3    3    0  502 -0.18117585288E+03  0.90453589007E+02 -0.10187905013E+04  0.10387214448E+04  0.12699999809E+01 0. -1.
</event>
<event>
 5   0  0.1303808E-02  0.6003111E+03  0.7818609E-02  0.9904761E-01
        1   -1    0    0  501    0  0.00000000000E+00  0.00000000000E+00  0.14957007593E+04  0.14957007593E+04  0.50400001928E-02 0.  1.
       -1   -1    0    0    0  501  0.00000000000E+00  0.00000000000E+00 -0.60234887723E+02  0.60234887934E+02  0.50400001928E-02 0. -1.
    10030    2    1    2    0    0  0.00000000000E+00  0.00000000000E+00  0.14354658716E+04  0.15559356472E+04  0.60031114424E+03 0.  0.
        4    1    3    3  502    0 -0.23701825868E+03 -0.15100532145E+03  0.44451989542E+03  0.52590855895E+03  0.12699999809E+01 0. -1.
       -4    1    3    3    0  502  0.23701825868E+03  0.15100532145E+03  0.99094597613E+03  0.10300270883E+04  0.12699999809E+01 0.  1.
</event>
<event>
 5   0  0.1276705E-02  0.6010240E+03  0.7818609E-02  0.9903284E-01
       -1   -1    0    0    0  501  0.00000000000E+00  0.00000000000E+00  0.11763102628E+03  0.11763102639E+03  0.50400001928E-02 0. -1.
        1   -1    0    0  501    0  0.00000000000E+00  0.00000000000E+00 -0.76771792529E+03  0.76771792530E+03  0.50400001928E-02 0.  1.
    10030    2    1    2    0    0  0.00000000000E+00  0.00000000000E+00 -0.65008689900E+03  0.88534895170E+03  0.60102395128E+03 0.  0.
        1    1    3    3  502    0 -0.10777949175E+03  0.22327560708E+03 -0.74886232391E+02  0.25899104885E+03  0.50400001928E-02 0. -1.
       -1    1    3    3    0  502  0.10777949175E+03 -0.22327560708E+03 -0.57520066661E+03  0.62635790284E+03  0.50400001928E-02 0.  1.
</event>
<event>
 5   0  0.1337051E-02  0.6048296E+03  0.7818609E-02  0.9895437E-01
       -1   -1    0    0    0  501  0.00000000000E+00  0.00000000000E+00  0.10097946633E+03  0.10097946645E+03  0.50400001928E-02 0.  1.
        1   -1    0    0  501    0  0.00000000000E+00  0.00000000000E+00 -0.90567634653E+03  0.90567634654E+03  0.50400001928E-02 0. -1.
    10030    2    1    2    0    0  0.00000000000E+00  0.00000000000E+00 -0.80469688020E+03  0.10066558130E+04  0.60482960975E+03 0.  0.
        5    1    3    3  502    0  0.66457856753E+02 -0.29364049386E+03 -0.35553166565E+03  0.46590368279E+03  0.46999998093E+01 0.  1.
       -5    1    3    3    0  502 -0.66457856753E+02  0.29364049386E+03 -0.44916521456E+03  0.54075213021E+03  0.46999998093E+01 0. -1.
</event>
<event>
 5   0  0.1250390E-02  0.6020005E+03  0.7818609E-02  0.9901264E-01
        1   -1    0    0  501    0  0.00000000000E+00  0.00000000000E+00  0.11846796437E+03  0.11846796448E+03  0.50400001928E-02 0. -1.
       -1   -1    0    0    0  501  0.00000000000E+00  0.00000000000E+00 -0.76477338536E+03  0.76477338538E+03  0.50400001928E-02 0.  1.
    10030    2    1    2    0    0  0.00000000000E+00  0.00000000000E+00 -0.64630542099E+03  0.88324134985E+03  0.60200048579E+03 0.  0.
        3    1    3    3  502    0  0.12066462355E+03  0.33497637324E+02  0.78433513542E+02  0.14776288211E+03  0.10100000352E+00 0. -1.
       -3    1    3    3    0  502 -0.12066462355E+03 -0.33497637324E+02 -0.72473893453E+03  0.73547846774E+03  0.10100000352E+00 0.  1.
</event>
<event>
 5   0  0.1332555E-02  0.6162432E+03  0.7818609E-02  0.9872268E-01
       -1   -1    0    0    0  501  0.00000000000E+00  0.00000000000E+00  0.34774570449E+03  0.34774570452E+03  0.50400001928E-02 0. -1.
        1   -1    0    0  501    0  0.00000000000E+00  0.00000000000E+00 -0.27301247671E+03  0.27301247675E+03  0.50400001928E-02 0.  1.
    10030    2    1    2    0    0  0.00000000000E+00  0.00000000000E+00  0.74733227781E+02  0.62075818127E+03  0.61624318599E+03 0.  0.
        2    1    3    3  502    0  0.13126060929E+03 -0.27820989391E+03  0.55068740945E+02  0.31251025400E+03  0.25500000920E-02 0. -1.
       -2    1    3    3    0  502 -0.13126060929E+03  0.27820989391E+03  0.19664486836E+02  0.30824792727E+03  0.25500000920E-02 0.  1.
</event>
<event>
 5   0  0.1332555E-02  0.5951597E+03  0.7818609E-02  0.9915499E-01
       -1   -1    0    0    0  501  0.00000000000E+00  0.00000000000E+00  0.86764505485E+02  0.86764505632E+02  0.50400001928E-02 0.  1.
        1   -1    0    0  501    0  0.00000000000E+00  0.00000000000E+00 -0.10206218986E+04  0.10206218986E+04  0.50400001928E-02 0. -1.
    10030    2    1    2    0    0  0.00000000000E+00  0.00000000000E+00 -0.93385739312E+03  0.11073864042E+04  0.59515965726E+03 0.  0.
        2    1    3    3  502    0 -0.15057324187E+03  0.23995943466E+02 -0.94241835258E+03  0.95467295853E+03  0.25500000920E-02 0. -1.
       -2    1    3    3    0  502  0.15057324187E+03 -0.23995943466E+02  0.85609594619E+01  0.15271344571E+03  0.25500000920E-02 0.  1.
</event>
<event>
 5   0  0.2141800E-02  0.5996686E+03  0.7818609E-02  0.9906094E-01
        2   -1    0    0  501    0  0.00000000000E+00  0.00000000000E+00  0.26553044289E+03  0.26553044290E+03  0.25500000920E-02 0. -1.
       -2   -1    0    0    0  501  0.00000000000E+00  0.00000000000E+00 -0.33856986655E+03  0.33856986656E+03  0.25500000920E-02 0.  1.
    10030    2    1    2    0    0  0.00000000000E+00  0.00000000000E+00 -0.73039423659E+02  0.60410030946E+03  0.59966859721E+03 0.  0.
        2    1    3    3  502    0 -0.37911295466E+02  0.15488018921E+02  0.26269972304E+03  0.26587269425E+03  0.25500000920E-02 0. -1.
       -2    1    3    3    0  502  0.37911295466E+02 -0.15488018921E+02 -0.33573914670E+03  0.33822761521E+03  0.25500000920E-02 0.  1.
</event>
<event>
 5   0  0.1250390E-02  0.6000471E+03  0.7818609E-02  0.9905308E-01
       -1   -1    0    0    0  501  0.00000000000E+00  0.00000000000E+00  0.27960494836E+03  0.27960494841E+03  0.50400001928E-02 0.  1.
        1   -1    0    0  501    0  0.00000000000E+00  0.00000000000E+00 -0.32193320591E+03  0.32193320595E+03  0.50400001928E-02 0. -1.
    10030    2    1    2    0    0  0.00000000000E+00  0.00000000000E+00 -0.42328257542E+02  0.60153815436E+03  0.60004705629E+03 0.  0.
        3    1    3    3  502    0  0.37397367064E+02  0.24945187530E+03  0.14168740555E+03  0.28930975139E+03  0.10100000352E+00 0.  1.
       -3    1    3    3    0  502 -0.37397367064E+02 -0.24945187530E+03 -0.18401566309E+03  0.31222840297E+03  0.10100000352E+00 0. -1.
</event>
<event>
 5   0  0.1276705E-02  0.5971846E+03  0.7818609E-02  0.9911264E-01
        1   -1    0    0  501    0  0.00000000000E+00  0.00000000000E+00  0.29694168018E+03  0.29694168022E+03  0.50400001928E-02 0.  1.
       -1   -1    0    0    0  501  0.00000000000E+00  0.00000000000E+00 -0.30025210580E+03  0.30025210584E+03  0.50400001928E-02 0. -1.
    10030    2    1    2    0    0  0.00000000000E+00  0.00000000000E+00 -0.33104256183E+01  0.59719378606E+03  0.59718461064E+03 0.  0.
        1    1    3    3  502    0 -0.15070242729E+03 -0.20716177753E+03 -0.15505294477E+03  0.29944722301E+03  0.50400001928E-02 0. -1.
       -1    1    3    3    0  502  0.15070242729E+03  0.20716177753E+03  0.15174251915E+03  0.29774656305E+03  0.50400001928E-02 0.  1.
</event>
<event>
 5   0  0.2141800E-02  0.5985275E+03  0.7818609E-02  0.9908466E-01
        2   -1    0    0  501    0  0.00000000000E+00  0.00000000000E+00  0.25747060449E+04  0.25747060449E+04  0.25500000920E-02 0.  1.
       -2   -1    0    0    0  501  0.00000000000E+00  0.00000000000E+00 -0.34784085324E+02  0.34784085418E+02  0.25500000920E-02 0. -1.
    10030    2    1    2    0    0  0.00000000000E+00  0.00000000000E+00  0.25399219595E+04  0.26094901303E+04  0.59852750939E+03 0.  0.
        2    1    3    3  502    0 -0.16444992771E+03 -0.87292762225E+02  0.22914598645E+04  0.22990111169E+04  0.25500000920E-02 0.  1.
       -2    1    3    3    0  502  0.16444992771E+03  0.87292762225E+02  0.24846209500E+03  0.31047901333E+03  0.25500000920E-02 0. -1.
</event>
<event>
 5   0  0.1332555E-02  0.6199607E+03  0.7818609E-02  0.9864838E-01
       -1   -1    0    0    0  501  0.00000000000E+00  0.00000000000E+00  0.19429360016E+03  0.19429360023E+03  0.50400001928E-02 0. -1.
        1   -1    0    0  501    0  0.00000000000E+00  0.00000000000E+00 -0.49454964603E+03  0.49454964606E+03  0.50400001928E-02 0.  1.
    10030    2    1    2    0    0  0.00000000000E+00  0.00000000000E+00 -0.30025604587E+03  0.68884324628E+03  0.61996074462E+03 0.  0.
        2    1    3    3  502    0  0.26455155636E+03 -0.14626301420E+03 -0.73894073126E+02  0.31119243137E+03  0.25500000920E-02 0. -1.
       -2    1    3    3    0  502 -0.26455155636E+03  0.14626301420E+03 -0.22636197274E+03  0.37765081491E+03  0.25500000920E-02 0.  1.
</event>
<event>
 5   0  0.1250390E-02  0.5927045E+03  0.7818609E-02  0.9920659E-01
        1   -1    0    0  501    0  0.00000000000E+00  0.00000000000E+00  0.64825757417E+03  0.64825757419E+03  0.50400001928E-02 0. -1.
       -1   -1    0    0    0  501  0.00000000000E+00  0.00000000000E+00 -0.13547801917E+03  0.13547801926E+03  0.50400001928E-02 0.  1.
    10030    2    1    2    0    0  0.00000000000E+00  0.00000000000E+00  0.51277955500E+03  0.78373559346E+03  0.59270448659E+03 0.  0.
        3    1    3    3  502    0  0.42884615375E+02  0.11571715740E+03  0.61266447785E+03  0.62496985797E+03  0.10100000352E+00 0. -1.
       -3    1    3    3    0  502 -0.42884615375E+02 -0.11571715740E+03 -0.99884922846E+02  0.15876573549E+03  0.10100000352E+00 0.  1.
</event>
<event>
 5   0  0.2179625E-02  0.6005286E+03  0.7818609E-02  0.9904310E-01
       -2   -1    0    0    0  501  0.00000000000E+00  0.00000000000E+00  0.80121863380E+03  0.80121863381E+03  0.25500000920E-02 0. -1.
        2   -1    0    0  501    0  0.00000000000E+00  0.00000000000E+00 -0.11252690811E+03  0.11252690814E+03  0.25500000920E-02 0.  1.
    10030    2    1    2    0    0  0.00000000000E+00  0.00000000000E+00  0.68869172569E+03  0.91374554194E+03  0.60052861912E+03 0.  0.
        1    1    3    3  502    0  0.12675551682E+03  0.16149780598E+03  0.67774011470E+03  0.70815264278E+03  0.50400001928E-02 0. -1.
       -1    1    3    3    0  502 -0.12675551682E+03 -0.16149780598E+03  0.10951610998E+02  0.20559289917E+03  0.50400001928E-02 0.  1.
</event>
<event>
 5   0  0.2141800E-02  0.6006489E+03  0.7818609E-02  0.9904061E-01
        2   -1    0    0  501    0  0.00000000000E+00  0.00000000000E+00  0.40442165654E+03  0.40442165655E+03  0.25500000920E-02 0. -1.
       -2   -1    0    0    0  501  0.00000000000E+00  0.00000000000E+00 -0.22302162809E+03  0.22302162810E+03  0.25500000920E-02 0.  1.
    10030    2    1    2    0    0  0.00000000000E+00  0.00000000000E+00  0.18140002845E+03  0.62744328465E+03  0.60064890338E+03 0.  0.
        2    1    3    3  502    0 -0.61957727130E+02  0.64446202413E+02 -0.20879999287E+03  0.22713324280E+03  0.25500000920E-02 0.  1.
       -2    1    3    3    0  502  0.61957727130E+02 -0.64446202413E+02  0.39020002132E+03  0.40031004185E+03  0.25500000920E-02 0. -1.
</event>
<event>
 5   0  0.2142838E-02  0.6073533E+03  0.7818609E-02  0.9890267E-01
       -2   -1    0    0    0  501  0.00000000000E+00  0.00000000000E+00  0.94382494960E+02  0.94382494995E+02  0.25500000920E-02 0. -1.
        2   -1    0    0  501    0  0.00000000000E+00  0.00000000000E+00 -0.97708275926E+03  0.97708275927E+03  0.25500000920E-02 0.  1.
    10030    2    1    2    0    0  0.00000000000E+00  0.00000000000E+00 -0.88270026430E+03  0.10714652543E+04  0.60735330286E+03 0.  0.
        4    1    3    3  502    0  0.12781616281E+03 -0.27222104133E+03 -0.51570939170E+03  0.59699167197E+03  0.12699999809E+01 0.  1.
       -4    1    3    3    0  502 -0.12781616281E+03  0.27222104133E+03 -0.36699087260E+03  0.47447358229E+03  0.12699999809E+01 0. -1.
</event>
<event>
 5   0  0.2126207E-02  0.6000781E+03  0.7818609E-02  0.9905244E-01
       -2   -1    0    0    0  501  0.00000000000E+00  0.00000000000E+00  0.39060903239E+02  0.39060903322E+02  0.25500000920E-02 0.  1.
        2   -1    0    0  501    0  0.00000000000E+00  0.00000000000E+00 -0.23046941375E+04  0.23046941375E+04  0.25500000920E-02 0. -1.
    10030    2    1    2    0    0  0.00000000000E+00  0.00000000000E+00 -0.22656332343E+04  0.23437550408E+04  0.60007811091E+03 0.  0.
        5    1    3    3  502    0 -0.22537012921E+03 -0.71903943257E+02 -0.41221398325E+03  0.47529394082E+03  0.46999998093E+01 0.  1.
       -5    1    3    3    0  502  0.22537012921E+03  0.71903943257E+02 -0.18534192510E+04  0.18684611000E+04  0.46999998093E+01 0. -1.
</event>
<event>
 5   0  0.2142838E-02  0.6018827E+03  0.7818609E-02  0.9901508E-01
       -2   -1    0    0    0  501  0.00000000000E+00  0.00000000000E+00  0.29819961986E+03  0.29819961987E+03  0.25500000920E-02 0.  1.
        2   -1    0    0  501    0  0.00000000000E+00  0.00000000000E+00 -0.30370825470E+03  0.30370825471E+03  0.25500000920E-02 0. -1.
    10030    2    1    2    0    0  0.00000000000E+00  0.00000000000E+00 -0.55086348409E+01  0.60190787458E+03  0.60188266666E+03 0.  0.
        4    1    3    3  502    0  0.19720082272E+03  0.14617597723E+03 -0.17685495271E+03  0.30254729878E+03  0.12699999809E+01 0. -1.
       -4    1    3    3    0  502 -0.19720082272E+03 -0.14617597723E+03  0.17134631787E+03  0.29936057581E+03  0.12699999809E+01 0.  1.
</event>
<event>
 5   0  0.2179625E-02  0.6008594E+03  0.7818609E-02  0.9903625E-01
       -2   -1    0    0    0  501  0.00000000000E+00  0.00000000000E+00  0.14592702827E+03  0.14592702829E+03  0.25500000920E-02 0.  1.
        2   -1    0    0  501    0  0.00000000000E+00  0.00000000000E+00 -0.61851459815E+03  0.61851459816E+03  0.25500000920E-02 0. -1.
    10030    2    1    2    0    0  0.00000000000E+00  0.00000000000E+00 -0.47258756988E+03  0.76444162645E+03  0.60085937543E+03 0.  0.
        1    1    3    3  502    0  0.21483916940E+03 -0.48659128486E+02  0.23613627296E+02  0.22154273384E+03  0.50400001928E-02 0.  1.
       -1    1    3    3    0  502 -0.21483916940E+03  0.48659128486E+02 -0.49620119718E+03  0.54289889261E+03  0.50400001928E-02 0. -1.
</event>
<event>
 5   0  0.1332555E-02  0.5990738E+03  0.7818609E-02  0.9907329E-01
       -1   -1    0    0    0  501  0.00000000000E+00  0.00000000000E+00  0.16728194436E+04  0.16728194436E+04  0.50400001928E-02 0. -1.
        1   -1    0    0  501    0  0.00000000000E+00  0.00000000000E+00 -0.53635410202E+02  0.53635410439E+02  0.50400001928E-02 0.  1.
    10030    2    1    2    0    0  0.00000000000E+00  0.00000000000E+00  0.16191840334E+04  0.17264548541E+04  0.59907380935E+03 0.  0.
        2    1    3    3  502    0 -0.21578411107E+03 -0.30442460050E+02  0.21734894109E+03  0.30778253388E+03  0.25500000920E-02 0.  1.
       -2    1    3    3    0  502  0.21578411107E+03  0.30442460050E+02  0.14018350923E+04  0.14186723202E+04  0.25500000920E-02 0. -1.
</event>
<event>
 5   0  0.2141800E-02  0.6010319E+03  0.7818609E-02  0.9903267E-01
       -2   -1    0    0    0  501  0.00000000000E+00  0.00000000000E+00  0.57098966528E+02  0.57098966585E+02  0.25500000920E-02 0.  1.
        2   -1    0    0  501    0  0.00000000000E+00  0.00000000000E+00 -0.15816371647E+04  0.15816371647E+04  0.25500000920E-02 0. -1.
    10030    2    1    2    0    0  0.00000000000E+00  0.00000000000E+00 -0.15245381982E+04  0.16387361313E+04  0.60103193784E+03 0.  0.
        2    1    3    3  502    0 -0.21590055730E+03 -0.15557412824E+03 -0.38159243800E+03  0.46521946301E+03  0.25500000920E-02 0. -1.
       -2    1    3    3    0  502  0.21590055730E+03  0.15557412824E+03 -0.11429457602E+04  0.11735166683E+04  0.25500000920E-02 0.  1.
</event>
<event>
 5   0  0.2092587E-02  0.6023361E+03  0.7818609E-02  0.9900571E-01
       -2   -1    0    0    0  501  0.00000000000E+00  0.00000000000E+00  0.82725346969E+02  0.82725347008E+02  0.25500000920E-02 0.  1.
        2   -1    0    0  501    0  0.00000000000E+00  0.00000000000E+00 -0.10964257615E+04  0.10964257615E+04  0.25500000920E-02 0. -1.
    10030    2    1    2    0    0  0.00000000000E+00  0.00000000000E+00 -0.10137004145E+04  0.11791511085E+04  0.60233612399E+03 0.  0.
        3    1    3    3  502    0  0.11943472671E+03 -0.18821212047E+03 -0.11039400647E+03  0.24874746854E+03  0.10100000352E+00 0.  1.
       -3    1    3    3    0  502 -0.11943472671E+03  0.18821212047E+03 -0.90330640801E+03  0.93040363993E+03  0.10100000352E+00 0. -1.
</event>
<event>
 5   0  0.2126207E-02  0.5993033E+03  0.7818609E-02  0.9906853E-01
        2   -1    0    0  501    0  0.00000000000E+00  0.00000000000E+00  0.64233669531E+03  0.64233669532E+03  0.25500000920E-02 0.  1.
       -2   -1    0    0    0  501  0.00000000000E+00  0.00000000000E+00 -0.13978822252E+03  0.13978822254E+03  0.25500000920E-02 0. -1.
    10030    2    1    2    0    0  0.00000000000E+00  0.00000000000E+00  0.50254847279E+03  0.78212491786E+03  0.59930327851E+03 0.  0.
        5    1    3    3  502    0  0.13631671339E+03 -0.10353672468E+03  0.57218802330E+03  0.59726319467E+03  0.46999998093E+01 0.  1.
       -5    1    3    3    0  502 -0.13631671339E+03  0.10353672468E+03 -0.69639550509E+02  0.18486172318E+03  0.46999998093E+01 0. -1.
</event>
<event>
 5   0  0.2179625E-02  0.5939344E+03  0.7818609E-02  0.9918071E-01
       -2   -1    0    0    0  501  0.00000000000E+00  0.00000000000E+00  0.29503415841E+03  0.29503415842E+03  0.25500000920E-02 0.  1.
        2   -1    0    0  501    0  0.00000000000E+00  0.00000000000E+00 -0.29891286278E+03  0.29891286279E+03  0.25500000920E-02 0. -1.
    10030    2    1    2    0    0  0.00000000000E+00  0.00000000000E+00 -0.38787043655E+01  0.59394702121E+03  0.59393435635E+03 0.  0.
        1    1    3    3  502    0 -0.39825793032E+02 -0.24583215623E+03 -0.16371412819E+03  0.29802996262E+03  0.50400001928E-02 0. -1.
       -1    1    3    3    0  502  0.39825793032E+02  0.24583215623E+03  0.15983542383E+03  0.29591705859E+03  0.50400001928E-02 0.  1.
</event>
<event>
 5   0  0.1276705E-02  0.6112820E+03  0.7818609E-02  0.9882272E-01
       -1   -1    0    0    0  501  0.00000000000E+00  0.00000000000E+00  0.13210965511E+03  0.13210965521E+03  0.50400001928E-02 0.  1.
        1   -1    0    0  501    0  0.00000000000E+00  0.00000000000E+00 -0.70711272181E+03  0.70711272183E+03  0.50400001928E-02 0. -1.
    10030    2    1    2    0    0  0.00000000000E+00  0.00000000000E+00 -0.57500306670E+03  0.83922237704E+03  0.61128199009E+03 0.  0.
        1    1    3    3  502    0 -0.15370593432E+03 -0.16463258450E+03 -0.38511650843E+01  0.22526480777E+03  0.50400001928E-02 0.  1.
       -1    1    3    3    0  502  0.15370593432E+03  0.16463258450E+03 -0.57115190162E+03  0.61395756927E+03  0.50400001928E-02 0. -1.
</event>
<event>
 5   0  0.2141800E-02  0.6063514E+03  0.7818609E-02  0.9892316E-01
        2   -1    0    0  501    0  0.00000000000E+00  0.00000000000E+00  0.64062576391E+03  0.64062576392E+03  0.25500000920E-02 0.  1.
       -2   -1    0    0    0  501  0.00000000000E+00  0.00000000000E+00 -0.14347767240E+03  0.14347767242E+03  0.25500000920E-02 0. -1.
    10030    2    1    2    0    0  0.00000000000E+00  0.00000000000E+00  0.49714809152E+03  0.78410343634E+03  0.60635136182E+03 0.  0.
        2    1    3    3  502    0  0.26834651727E+03  0.68039293336E+01  0.66339176830E+02  0.27650864936E+03  0.25500000920E-02 0. -1.
       -2    1    3    3    0  502 -0.26834651727E+03 -0.68039293336E+01  0.43080891468E+03  0.50759478697E+03  0.25500000920E-02 0.  1.
</event>
<event>
 5   0  0.1250390E-02  0.6017332E+03  0.7818609E-02  0.9901817E-01
        1   -1    0    0  501    0  0.00000000000E+00  0.00000000000E+00  0.11803044752E+04  0.11803044752E+04  0.50400001928E-02 0. -1.
       -1   -1    0    0    0  501  0.00000000000E+00  0.00000000000E+00 -0.76692668278E+02  0.76692668443E+02  0.50400001928E-02 0.  1.
    10030    2    1    2    0    0  0.00000000000E+00  0.00000000000E+00  0.11036118069E+04  0.12569971436E+04  0.60173316242E+03 0.  0.
        3    1    3    3  502    0  0.13843536183E+03  0.13012353168E+03  0.10391395502E+04  0.10563652294E+04  0.10100000352E+00 0. -1.
       -3    1    3    3    0  502 -0.13843536183E+03 -0.13012353168E+03  0.64472256633E+02  0.20063191416E+03  0.10100000352E+00 0.  1.
</event>
<event>
 5   0  0.2126207E-02  0.5997320E+03  0.7818609E-02  0.9905962E-01
       -2   -1    0    0    0  501  0.00000000000E+00  0.00000000000E+00  0.10702220198E+03  0.10702220201E+03  0.25500000920E-02 0.  1.
        2   -1    0    0  501    0  0.00000000000E+00  0.00000000000E+00 -0.84019604017E+03  0.84019604018E+03  0.25500000920E-02 0. -1.
    10030    2    1    2    0    0  0.00000000000E+00  0.00000000000E+00 -0.73317383819E+03  0.94721824219E+03  0.59973204127E+03 0.  0.
        5    1    3    3  502    0  0.15687734969E+03 -0.24376752365E+03 -0.48753689192E+03  0.56722783731E+03  0.46999998093E+01 0. -1.
       -5    1    3    3    0  502 -0.15687734969E+03  0.24376752365E+03 -0.24563694627E+03  0.37999040489E+03  0.46999998093E+01 0.  1.
</event>
<event>
 5   0  0.1332555E-02  0.6025708E+03  0.7818609E-02  0.9900087E-01
        1   -1    0    0  501    0  0.00000000000E+00  0.00000000000E+00  0.74420828766E+03  0.74420828768E+03  0.50400001928E-02 0. -1.
       -1   -1    0    0    0  501  0.00000000000E+00  0.00000000000E+00 -0.12197243636E+03  0.12197243646E+03  0.50400001928E-02 0.  1.
    10030    2    1    2    0    0  0.00000000000E+00  0.00000000000E+00  0.62223585130E+03  0.86618072414E+03  0.60257081926E+03 0.  0.
        2    1    3    3  502    0 -0.21629297634E+02  0.22015341501E+03  0.17093427890E+02  0.22187279676E+03  0.25500000920E-02 0.  1.
       -2    1    3    3    0  502  0.21629297634E+02 -0.22015341501E+03  0.60514242341E+03  0.64430792738E+03  0.25500000920E-02 0. -1.
</event>
<event>
 5   0  0.2142838E-02  0.6001856E+03  0.7818609E-02  0.9905021E-01
        2   -1    0    0  501    0  0.00000000000E+00  0.00000000000E+00  0.44115217886E+03  0.44115217886E+03  0.25500000920E-02 0. -1.
       -2   -1    0    0    0  501  0.00000000000E+00  0.00000000000E+00 -0.20413743912E+03  0.20413743913E+03  0.25500000920E-02 0.  1.
    10030    2    1    2    0    0  0.00000000000E+00  0.00000000000E+00  0.23701473974E+03  0.64528961800E+03  0.60018555817E+03 0.  0.
        4    1    3    3  502    0 -0.28428834623E+03 -0.71363254745E+02  0.18769798555E+03  0.34805850745E+03  0.12699999809E+01 0. -1.
       -4    1    3    3    0  502  0.28428834623E+03  0.71363254745E+02  0.49316754184E+02  0.29723111054E+03  0.12699999809E+01 0.  1.
</event>
<event>
 5   0  0.1276705E-02  0.6006230E+03  0.7818609E-02  0.9904114E-01
        1   -1    0    0  501    0  0.00000000000E+00  0.00000000000E+00  0.36481999983E+03  0.36481999987E+03  0.50400001928E-02 0.  1.
       -1   -1    0    0    0  501  0.00000000000E+00  0.00000000000E+00 -0.24720957958E+03  0.24720957963E+03  0.50400001928E-02 0. -1.
    10030    2    1    2    0    0  0.00000000000E+00  0.00000000000E+00  0.11761042025E+03  0.61202957949E+03  0.60062300590E+03 0.  0.
        1    1    3    3  502    0 -0.21718593009E+03 -0.20712509015E+03  0.69802178513E+02  0.30812801779E+03  0.50400001928E-02 0.  1.
       -1    1    3    3    0  502  0.21718593009E+03  0.20712509015E+03  0.47808241742E+02  0.30390156170E+03  0.50400001928E-02 0. -1.
</event>
<event>
 5   0  0.2179625E-02  0.6053451E+03  0.7818609E-02  0.9894378E-01
       -2   -1    0    0    0  501  0.00000000000E+00  0.00000000000E+00  0.39371220562E+03  0.39371220562E+03  0.25500000920E-02 0. -1.
        2   -1    0    0  501    0  0.00000000000E+00  0.00000000000E+00 -0.23268435231E+03  0.23268435233E+03  0.25500000920E-02 0.  1.
    10030    2    1    2    0    0  0.00000000000E+00  0.00000000000E+00  0.16102785330E+03  0.62639655795E+03  0.60534509023E+03 0.  0.
        1    1    3    3  502    0 -0.50015818486E+02  0.21514800372E+02  0.38860307520E+03  0.39239880073E+03  0.50400001928E-02 0. -1.
       -1    1    3    3    0  502  0.50015818486E+02 -0.21514800372E+02 -0.22757522190E+03  0.23399775722E+03  0.50400001928E-02 0.  1.
</event>
<event>
 5   0  0.1303808E-02  0.5987802E+03  0.7818609E-02  0.9907940E-01
       -1   -1    0    0    0  501  0.00000000000E+00  0.00000000000E+00  0.90127045988E+03  0.90127045989E+03  0.50400001928E-02 0.  1.
        1   -1    0    0  501    0  0.00000000000E+00  0.00000000000E+00 -0.99453434429E+02  0.99453434556E+02  0.50400001928E-02 0. -1.
    10030    2    1    2    0    0  0.00000000000E+00  0.00000000000E+00  0.80181702545E+03  0.10007238944E+04  0.59878023566E+03 0.  0.
        4    1    3    3  502    0  0.21677953056E+03 -0.78621879364E+02  0.81796156967E+02  0.24467731603E+03  0.12699999809E+01 0. -1.
       -4    1    3    3    0  502 -0.21677953056E+03  0.78621879364E+02  0.72002086848E+03  0.75604657842E+03  0.12699999809E+01 0.  1.
</event>
<event>
 5   0  0.8551000E-03  0.6001025E+03  0.7818609E-02  0.9905193E-01
        3   -1    0    0  501    0  0.00000000000E+00  0.00000000000E+00  0.46671976280E+03  0.46671977373E+03  0.10100000352E+00 0. -1.
       -3   -1    0    0    0  501  0.00000000000E+00  0.00000000000E+00 -0.19290105184E+03  0.19290107829E+03  0.10100000352E+00 0.  1.
    10030    2    1    2    0    0  0.00000000000E+00  0.00000000000E+00  0.27381871096E+03  0.65962085202E+03  0.60010247620E+03 0.  0.
        4    1    3    3  502    0  0.46427573314E+02  0.66113614432E+02  0.45453749027E+03  0.46166272596E+03  0.12699999809E+01 0. -1.
       -4    1    3    3    0  502 -0.46427573314E+02 -0.66113614432E+02 -0.18071877931E+03  0.19795812606E+03  0.12699999809E+01 0.  1.
</event>
<event>
 5   0  0.2092587E-02  0.5981214E+03  0.7818609E-02  0.9909311E-01
       -2   -1    0    0    0  501  0.00000000000E+00  0.00000000000E+00  0.12632320724E+03  0.12632320727E+03  0.25500000920E-02 0.  1.
        2   -1    0    0  501    0  0.00000000000E+00  0.00000000000E+00 -0.70800368731E+03  0.70800368732E+03  0.25500000920E-02 0. -1.
    10030    2    1    2    0    0  0.00000000000E+00  0.00000000000E+00 -0.58168048007E+03  0.83432689458E+03  0.59812138077E+03 0.  0.
        3    1    3    3  502    0 -0.12000814225E+03 -0.22630868504E+02  0.89955949091E+02  0.15167792652E+03  0.10100000352E+00 0.  1.
       -3    1    3    3    0  502  0.12000814225E+03  0.22630868504E+02 -0.67163642916E+03  0.68264896806E+03  0.10100000352E+00 0. -1.
</event>
<event>
 5   0  0.1250390E-02  0.6004806E+03  0.7818609E-02  0.9904409E-01
        1   -1    0    0  501    0  0.00000000000E+00  0.00000000000E+00  0.62683362734E+03  0.62683362736E+03  0.50400001928E-02 0. -1.
       -1   -1    0    0    0  501  0.00000000000E+00  0.00000000000E+00 -0.14380888905E+03  0.14380888914E+03  0.50400001928E-02 0.  1.
    10030    2    1    2    0    0  0.00000000000E+00  0.00000000000E+00  0.48302473829E+03  0.77064251649E+03  0.60048063285E+03 0.  0.
        3    1    3    3  502    0  0.12447173659E+03  0.20352925323E+03  0.47544923059E+03  0.53194863587E+03  0.10100000352E+00 0. -1.
       -3    1    3    3    0  502 -0.12447173659E+03 -0.20352925323E+03  0.75755077004E+01  0.23869388063E+03  0.10100000352E+00 0.  1.
</event>
<event>
 5   0  0.2179625E-02  0.6016007E+03  0.7818609E-02  0.9902091E-01
       -2   -1    0    0    0  501  0.00000000000E+00  0.00000000000E+00  0.69632495055E+02  0.69632495102E+02  0.25500000920E-02 0.  1.
        2   -1    0    0  501    0  0.00000000000E+00  0.00000000000E+00 -0.12994056926E+04  0.12994056926E+04  0.25500000920E-02 0. -1.
    10030    2    1    2    0    0  0.00000000000E+00  0.00000000000E+00 -0.12297731975E+04  0.13690381877E+04  0.60160073303E+03 0.  0.
        1    1    3    3  502    0 -0.29419952534E+03 -0.57731017494E+02 -0.55939459746E+03  0.63467199937E+03  0.50400001928E-02 0.  1.
       -1    1    3    3    0  502  0.29419952534E+03  0.57731017494E+02 -0.67037860005E+03  0.73436618830E+03  0.50400001928E-02 0. -1.
</event>
<event>
 5   0  0.1303808E-02  0.5992131E+03  0.7818609E-02  0.9907040E-01
        1   -1    0    0  501    0  0.00000000000E+00  0.00000000000E+00  0.78649296027E+02  0.78649296189E+02  0.50400001928E-02 0. -1.
       -1   -1    0    0    0  501  0.00000000000E+00  0.00000000000E+00 -0.11413209886E+04  0.11413209886E+04  0.50400001928E-02 0.  1.
    10030    2    1    2    0    0  0.00000000000E+00  0.00000000000E+00 -0.10626716925E+04  0.12199702848E+04  0.59921312535E+03 0.  0.
        4    1    3    3  502    0 -0.19331365190E+02  0.10270710356E+03  0.40328782766E+02  0.11202889993E+03  0.12699999809E+01 0. -1.
       -4    1    3    3    0  502  0.19331365190E+02 -0.10270710356E+03 -0.11030004753E+04  0.11079413848E+04  0.12699999809E+01 0.  1.
</event>
<event>
 5   0  0.2092587E-02  0.6030389E+03  0.7818609E-02  0.9899121E-01
       -2   -1    0    0    0  501  0.00000000000E+00  0.00000000000E+00  0.15428595914E+03  0.15428595916E+03  0.25500000920E-02 0.  1.
        2   -1    0    0  501    0  0.00000000000E+00  0.00000000000E+00 -0.58925635172E+03  0.58925635173E+03  0.25500000920E-02 0. -1.
    10030    2    1    2    0    0  0.00000000000E+00  0.00000000000E+00 -0.43497039258E+03  0.74354231089E+03  0.60303890891E+03 0.  0.
        3    1    3    3  502    0 -0.19085497518E+03  0.70964531941E+02 -0.49167668705E+03  0.53217249190E+03  0.10100000352E+00 0. -1.
       -3    1    3    3    0  502  0.19085497518E+03 -0.70964531941E+02  0.56706294476E+02  0.21136981899E+03  0.10100000352E+00 0.  1.
</event>
<event>
 5   0  0.1303808E-02  0.5999805E+03  0.7818609E-02  0.9905447E-01
        1   -1    0    0  501    0  0.00000000000E+00  0.00000000000E+00  0.55096234347E+03  0.55096234349E+03  0.50400001928E-02 0. -1.
       -1   -1    0    0    0  501  0.00000000000E+00  0.00000000000E+00 -0.16333992957E+03  0.16333992965E+03  0.50400001928E-02 0.  1.
    10030    2    1    2    0    0  0.00000000000E+00  0.00000000000E+00  0.38762241390E+03  0.71430227314E+03  0.59998050106E+03 0.  0.
        4    1    3    3  502    0  0.29255143470E+03 -0.23916290223E+01  0.27278712962E+03  0.40000811594E+03  0.12699999809E+01 0. -1.
       -4    1    3    3    0  502 -0.29255143470E+03  0.23916290223E+01  0.11483528428E+03  0.31429415720E+03  0.12699999809E+01 0.  1.
</event>
<event>
 5   0  0.1337051E-02  0.5971736E+03  0.7818609E-02  0.9911287E-01
       -1   -1    0    0    0  501  0.00000000000E+00  0.00000000000E+00  0.48692829482E+03  0.48692829485E+03  0.50400001928E-02 0.  1.
        1   -1    0    0  501    0  0.00000000000E+00  0.00000000000E+00 -0.18309489550E+03  0.18309489557E+03  0.50400001928E-02 0. -1.
    10030    2    1    2    0    0  0.00000000000E+00  0.00000000000E+00  0.30383339932E+03  0.67002319041E+03  0.59717362730E+03 0.  0.
        5    1    3    3  502    0 -0.36747140024E+02  0.25605149865E+03  0.31916208262E+03  0.41085185559E+03  0.46999998093E+01 0.  1.
       -5    1    3    3    0  502  0.36747140024E+02 -0.25605149865E+03 -0.15328683297E+02  0.25917133482E+03  0.46999998093E+01 0. -1.
</event>
<event>
 5   0  0.1303808E-02  0.6008335E+03  0.7818609E-02  0.9903678E-01
       -1   -1    0    0    0  501  0.00000000000E+00  0.00000000000E+00  0.11512180779E+03  0.11512180790E+03  0.50400001928E-02 0. -1.
        1   -1    0    0  501    0  0.00000000000E+00  0.00000000000E+00 -0.78395426657E+03  0.78395426658E+03  0.50400001928E-02 0.  1.
    10030    2    1    2    0    0  0.00000000000E+00  0.00000000000E+00 -0.66883245878E+03  0.89907607448E+03  0.60083352918E+03 0.  0.
        4    1    3    3  502    0  0.10312805269E+03  0.12745715911E+03 -0.71110001580E+03  0.72975719799E+03  0.12699999809E+01 0.  1.
       -4    1    3    3    0  502 -0.10312805269E+03 -0.12745715911E+03  0.42267557016E+02  0.16931887649E+03  0.12699999809E+01 0. -1.
</event>
<event>
 5   0  0.1250390E-02  0.5979292E+03  0.7818609E-02  0.9909712E-01
       -1   -1    0    0    0  501  0.00000000000E+00  0.00000000000E+00  0.28933454312E+03  0.28933454317E+03  0.50400001928E-02 0.  1.
        1   -1    0    0  501    0  0.00000000000E+00  0.00000000000E+00 -0.30891515601E+03  0.30891515605E+03  0.50400001928E-02 0. -1.
    10030    2    1    2    0    0  0.00000000000E+00  0.00000000000E+00 -0.19580612885E+02  0.59824969922E+03  0.59792917826E+03 0.  0.
        3    1    3    3  502    0 -0.82450253501E+02  0.26098325975E+03 -0.13014406064E+03  0.30306400791E+03  0.10100000352E+00 0.  1.
       -3    1    3    3    0  502  0.82450253501E+02 -0.26098325975E+03  0.11056344776E+03  0.29518569130E+03  0.10100000352E+00 0. -1.
</event>
<event>
 5   0  0.2141800E-02  0.5997218E+03  0.7818609E-02  0.9905983E-01
        2   -1    0    0  501    0  0.00000000000E+00  0.00000000000E+00  0.19257426508E+03  0.19257426509E+03  0.25500000920E-02 0.  1.
       -2   -1    0    0    0  501  0.00000000000E+00  0.00000000000E+00 -0.46691887434E+03  0.46691887434E+03  0.25500000920E-02 0. -1.
    10030    2    1    2    0    0  0.00000000000E+00  0.00000000000E+00 -0.27434460926E+03  0.65949313944E+03  0.59972179912E+03 0.  0.
        2    1    3    3  502    0  0.16347382786E+03 -0.79903842281E+02  0.12492715423E+03  0.22071499785E+03  0.25500000920E-02 0.  1.
       -2    1    3    3    0  502 -0.16347382786E+03  0.79903842281E+02 -0.39927176349E+03  0.43877814158E+03  0.25500000920E-02 0. -1.
</event>
<event>
 5   0  0.2142838E-02  0.5983265E+03  0.7818609E-02  0.9908884E-01
        2   -1    0    0  501    0  0.00000000000E+00  0.00000000000E+00  0.12904400980E+04  0.12904400980E+04  0.25500000920E-02 0. -1.
       -2   -1    0    0    0  501  0.00000000000E+00  0.00000000000E+00 -0.69355126325E+02  0.69355126372E+02  0.25500000920E-02 0.  1.
    10030    2    1    2    0    0  0.00000000000E+00  0.00000000000E+00  0.12210849717E+04  0.13597952244E+04  0.59832645286E+03 0.  0.
        4    1    3    3  502    0 -0.19434375416E+03 -0.90447329400E+02  0.10847991866E+04  0.11057762442E+04  0.12699999809E+01 0. -1.
       -4    1    3    3    0  502  0.19434375416E+03  0.90447329400E+02  0.13628578516E+03  0.25401898022E+03  0.12699999809E+01 0.  1.
</event>
<event>
 5   0  0.2126207E-02  0.5996445E+03  0.7818609E-02  0.9906144E-01
        2   -1    0    0  501    0  0.00000000000E+00  0.00000000000E+00  0.12913362087E+04  0.12913362087E+04  0.25500000920E-02 0.  1.
       -2   -1    0    0    0  501  0.00000000000E+00  0.00000000000E+00 -0.69612687303E+02  0.69612687349E+02  0.25500000920E-02 0. -1.
    10030    2    1    2    0    0  0.00000000000E+00  0.00000000000E+00  0.12217235214E+04  0.13609488961E+04  0.59964450714E+03 0.  0.
        5    1    3    3  502    0  0.24602064168E+03 -0.11814951071E+01  0.99964336113E+03  0.10294836043E+04  0.46999998093E+01 0.  1.
       -5    1    3    3    0  502 -0.24602064168E+03  0.11814951071E+01  0.22208016030E+03  0.33146529179E+03  0.46999998093E+01 0. -1.
</event>
<event>
 5   0  0.2126207E-02  0.5988449E+03  0.7818609E-02  0.9907805E-01
        2   -1    0    0  501    0  0.00000000000E+00  0.00000000000E+00  0.17149265709E+03  0.17149265711E+03  0.25500000920E-02 0. -1.
       -2   -1    0    0    0  501  0.00000000000E+00  0.00000000000E+00 -0.52278511665E+03  0.52278511666E+03  0.25500000920E-02 0.  1.
    10030    2    1    2    0    0  0.00000000000E+00  0.00000000000E+00 -0.35129245956E+03  0.69427777377E+03  0.59884491732E+03 0.  0.
        5    1    3    3  502    0  0.14978230229E+03 -0.21612471892E+03 -0.97032075359E+01  0.26317460827E+03  0.46999998093E+01 0. -1.
       -5    1    3    3    0  502 -0.14978230229E+03  0.21612471892E+03 -0.34158925202E+03  0.43110316550E+03  0.46999998093E+01 0.  1.
</event>
<event>
 5   0  0.1332555E-02  0.6050147E+03  0.7818609E-02  0.9895056E-01
       -1   -1    0    0    0  501  0.00000000000E+00  0.00000000000E+00  0.13771789505E+03  0.13771789515E+03  0.50400001928E-02 0.  1.
        1   -1    0    0  501    0  0.00000000000E+00  0.00000000000E+00 -0.66447945030E+03  0.66447945032E+03  0.50400001928E-02 0. -1.
    10030    2    1    2    0    0  0.00000000000E+00  0.00000000000E+00 -0.52676155524E+03  0.80219734546E+03  0.60501474774E+03 0.  0.
        2    1    3    3  502    0  0.94806920799E+02  0.11940618913E+03  0.83047060062E+02  0.17361740819E+03  0.25500000920E-02 0.  1.
       -2    1    3    3    0  502 -0.94806920799E+02 -0.11940618913E+03 -0.60980861531E+03  0.62857993727E+03  0.25500000920E-02 0. -1.
</event>
<event>
 5   0  0.1276705E-02  0.6014785E+03  0.7818609E-02  0.9902343E-01
       -1   -1    0    0    0  501  0.00000000000E+00  0.00000000000E+00  0.19487591176E+03  0.19487591182E+03  0.50400001928E-02 0. -1.
        1   -1    0    0  501    0  0.00000000000E+00  0.00000000000E+00 -0.46411124816E+03  0.46411124819E+03  0.50400001928E-02 0.  1.
    10030    2    1    2    0    0  0.00000000000E+00  0.00000000000E+00 -0.26923533640E+03  0.65898716001E+03  0.60147852056E+03 0.  0.
        1    1    3    3  502    0  0.52760652089E+02  0.14872670404E+03 -0.41510460858E+03  0.44408912956E+03  0.50400001928E-02 0.  1.
       -1    1    3    3    0  502 -0.52760652089E+02 -0.14872670404E+03  0.14586927217E+03  0.21489803045E+03  0.50400001928E-02 0. -1.
</event>
<event>
 5   0  0.2092587E-02  0.5990080E+03  0.7818609E-02  0.9907466E-01
       -2   -1    0    0    0  501  0.00000000000E+00  0.00000000000E+00  0.24028041843E+03  0.24028041844E+03  0.25500000920E-02 0. -1.
        2   -1    0    0  501    0  0.00000000000E+00  0.00000000000E+00 -0.37332481567E+03  0.37332481568E+03  0.25500000920E-02 0.  1.
    10030    2    1    2    0    0  0.00000000000E+00  0.00000000000E+00 -0.13304439724E+03  0.61360523412E+03  0.59900798968E+03 0.  0.
        3    1    3    3  502    0  0.17389056621E+03  0.15990084865E+03 -0.25511858682E+03  0.34769485753E+03  0.10100000352E+00 0.  1.
       -3    1    3    3    0  502 -0.17389056621E+03 -0.15990084865E+03  0.12207418957E+03  0.26591037659E+03  0.10100000352E+00 0. -1.
</event>
<event>
 5   0  0.2179625E-02  0.6000926E+03  0.7818609E-02  0.9905214E-01
        2   -1    0    0  501    0  0.00000000000E+00  0.00000000000E+00  0.60801390293E+03  0.60801390294E+03  0.25500000920E-02 0.  1.
       -2   -1    0    0    0  501  0.00000000000E+00  0.00000000000E+00 -0.14806860579E+03  0.14806860581E+03  0.25500000920E-02 0. -1.
    10030    2    1    2    0    0  0.00000000000E+00  0.00000000000E+00  0.45994529714E+03  0.75608250875E+03  0.60009256259E+03 0.  0.
        1    1    3    3  502    0 -0.26353956623E+03 -0.81496319051E+02  0.81251221334E+02  0.28757001579E+03  0.50400001928E-02 0.  1.
       -1    1    3    3    0  502  0.26353956623E+03  0.81496319051E+02  0.37869407581E+03  0.46851249296E+03  0.50400001928E-02 0. -1.
</event>
<event>
 5   0  0.8551000E-03  0.5980050E+03  0.7818609E-02  0.9909554E-01
       -3   -1    0    0    0  501  0.00000000000E+00  0.00000000000E+00  0.39436065132E+02  0.39436194468E+02  0.10100000352E+00 0. -1.
        3   -1    0    0  501    0  0.00000000000E+00  0.00000000000E+00 -0.22670197132E+04  0.22670197154E+04  0.10100000352E+00 0.  1.
    10030    2    1    2    0    0  0.00000000000E+00  0.00000000000E+00 -0.22275836480E+04  0.23064559099E+04  0.59800497928E+03 0.  0.
        2    1    3    3  502    0  0.18814179202E+03 -0.19022615741E+03 -0.59893791009E+03  0.65598014072E+03  0.25500000920E-02 0. -1.
       -2    1    3    3    0  502 -0.18814179202E+03  0.19022615741E+03 -0.16286457379E+04  0.16504757692E+04  0.25500000920E-02 0.  1.
</event>
<event>
 5   0  0.2126207E-02  0.6010595E+03  0.7818609E-02  0.9903210E-01
       -2   -1    0    0    0  501  0.00000000000E+00  0.00000000000E+00  0.39963284171E+03  0.39963284172E+03  0.25500000920E-02 0.  1.
        2   -1    0    0  501    0  0.00000000000E+00  0.00000000000E+00 -0.22600277572E+03  0.22600277573E+03  0.25500000920E-02 0. -1.
    10030    2    1    2    0    0  0.00000000000E+00  0.00000000000E+00  0.17363006599E+03  0.62563561745E+03  0.60105950288E+03 0.  0.
        5    1    3    3  502    0  0.12059777274E+03  0.27522994433E+03  0.85946371600E+02  0.31257673272E+03  0.46999998093E+01 0.  1.
       -5    1    3    3    0  502 -0.12059777274E+03 -0.27522994433E+03  0.87683694394E+02  0.31305888473E+03  0.46999998093E+01 0. -1.
</event>
<event>
 5   0  0.1250390E-02  0.5994503E+03  0.7818609E-02  0.9906547E-01
        1   -1    0    0  501    0  0.00000000000E+00  0.00000000000E+00  0.79306186841E+03  0.79306186843E+03  0.50400001928E-02 0. -1.
       -1   -1    0    0    0  501  0.00000000000E+00  0.00000000000E+00 -0.11327635090E+03  0.11327635101E+03  0.50400001928E-02 0.  1.
    10030    2    1    2    0    0  0.00000000000E+00  0.00000000000E+00  0.67978551751E+03  0.90633821944E+03  0.59945026332E+03 0.  0.
        3    1    3    3  502    0  0.19368874668E+03 -0.66542575229E+02  0.90145470735E+01  0.20499882236E+03  0.10100000352E+00 0. -1.
       -3    1    3    3    0  502 -0.19368874668E+03  0.66542575229E+02  0.67077097044E+03  0.70133939708E+03  0.10100000352E+00 0.  1.
</event>
<event>
 5   0  0.8551000E-03  0.6008127E+03  0.7818609E-02  0.9903721E-01
       -3   -1    0    0    0  501  0.00000000000E+00  0.00000000000E+00  0.92645851987E+02  0.92645907041E+02  0.10100000352E+00 0. -1.
        3   -1    0    0  501    0  0.00000000000E+00  0.00000000000E+00 -0.97407434922E+03  0.97407435446E+03  0.10100000352E+00 0.  1.
    10030    2    1    2    0    0  0.00000000000E+00  0.00000000000E+00 -0.88142849724E+03  0.10667202615E+04  0.60081271671E+03 0.  0.
        4    1    3    3  502    0 -0.72672315517E+02  0.28085633093E+03 -0.30226435859E+03  0.41895930523E+03  0.12699999809E+01 0. -1.
       -4    1    3    3    0  502  0.72672315517E+02 -0.28085633093E+03 -0.57916413865E+03  0.64776095627E+03  0.12699999809E+01 0.  1.
</event>
<event>
 5   0  0.2141800E-02  0.6084970E+03  0.7818609E-02  0.9887933E-01
        2   -1    0    0  501    0  0.00000000000E+00  0.00000000000E+00  0.34083051291E+03  0.34083051292E+03  0.25500000920E-02 0. -1.
       -2   -1    0    0    0  501  0.00000000000E+00  0.00000000000E+00 -0.27159290030E+03  0.27159290031E+03  0.25500000920E-02 0.  1.
    10030    2    1    2    0    0  0.00000000000E+00  0.00000000000E+00  0.69237612617E+02  0.61242341323E+03  0.60849699266E+03 0.  0.
        2    1    3    3  502    0 -0.23208853069E+03 -0.11976757727E+03  0.19169569136E+03  0.32397005531E+03  0.25500000920E-02 0. -1.
       -2    1    3    3    0  502  0.23208853069E+03  0.11976757727E+03 -0.12245807874E+03  0.28845335793E+03  0.25500000920E-02 0.  1.
</event>
<event>
 5   0  0.1276705E-02  0.6009274E+03  0.7818609E-02  0.9903484E-01
        1   -1    0    0  501    0  0.00000000000E+00  0.00000000000E+00  0.16846041421E+04  0.16846041421E+04  0.50400001928E-02 0.  1.
       -1   -1    0    0    0  501  0.00000000000E+00  0.00000000000E+00 -0.53590294457E+02  0.53590294694E+02  0.50400001928E-02 0. -1.
    10030    2    1    2    0    0  0.00000000000E+00  0.00000000000E+00  0.16310138477E+04  0.17381944368E+04  0.60092739073E+03 0.  0.
        1    1    3    3  502    0 -0.87878445515E+02 -0.28632631809E+03  0.74626440838E+03  0.80412433669E+03  0.50400001928E-02 0. -1.
       -1    1    3    3    0  502  0.87878445515E+02  0.28632631809E+03  0.88474943927E+03  0.93407010012E+03  0.50400001928E-02 0.  1.
</event>
<event>
 5   0  0.2092587E-02  0.6005023E+03  0.7818609E-02  0.9904365E-01
        2   -1    0    0  501    0  0.00000000000E+00  0.00000000000E+00  0.15602239588E+04  0.15602239588E+04  0.25500000920E-02 0. -1.
       -2   -1    0    0    0  501  0.00000000000E+00  0.00000000000E+00 -0.57780640017E+02  0.57780640073E+02  0.25500000920E-02 0.  1.
    10030    2    1    2    0    0  0.00000000000E+00  0.00000000000E+00  0.15024433188E+04  0.16180045989E+04  0.60050225298E+03 0.  0.
        3    1    3    3  502    0  0.25698454086E+02 -0.65754006852E+01  0.15570605072E+04  0.15572864476E+04  0.10100000352E+00 0. -1.
       -3    1    3    3    0  502 -0.25698454086E+02  0.65754006852E+01 -0.54617188384E+02  0.60718151360E+02  0.10100000352E+00 0.  1.
</event>
<event>
 5   0  0.2141800E-02  0.6043962E+03  0.7818609E-02  0.9896327E-01
       -2   -1    0    0    0  501  0.00000000000E+00  0.00000000000E+00  0.27756629160E+03  0.27756629161E+03  0.25500000920E-02 0. -1.
        2   -1    0    0  501    0  0.00000000000E+00  0.00000000000E+00 -0.32901582372E+03  0.32901582373E+03  0.25500000920E-02 0.  1.
    10030    2    1    2    0    0  0.00000000000E+00  0.00000000000E+00 -0.51449532116E+02  0.60658211534E+03  0.60439623452E+03 0.  0.
        2    1    3    3  502    0 -0.80958488573E+02 -0.76170408211E+02  0.25630310540E+03  0.27936980832E+03  0.25500000920E-02 0. -1.
       -2    1    3    3    0  502  0.80958488573E+02  0.76170408211E+02 -0.30775263752E+03  0.32721230702E+03  0.25500000920E-02 0.  1.
</event>
<event>
 5   0  0.1276705E-02  0.5991329E+03  0.7818609E-02  0.9907207E-01
        1   -1    0    0  501    0  0.00000000000E+00  0.00000000000E+00  0.11064489670E+04  0.11064489670E+04  0.50400001928E-02 0. -1.
       -1   -1    0    0    0  501  0.00000000000E+00  0.00000000000E+00 -0.81106381561E+02  0.81106381718E+02  0.50400001928E-02 0.  1.
    10030    2    1    2    0    0  0.00000000000E+00  0.00000000000E+00  0.10253425854E+04  0.11875553487E+04  0.59913294750E+03 0.  0.
        1    1    3    3  502    0 -0.99898245522E+02 -0.27813593539E+03  0.60979157339E+03  0.67763192149E+03  0.50400001928E-02 0.  1.
       -1    1    3    3    0  502  0.99898245522E+02  0.27813593539E+03  0.41555101206E+03  0.50992342725E+03  0.50400001928E-02 0. -1.
</event>
<event>
 5   0  0.2126207E-02  0.5989367E+03  0.7818609E-02  0.9907614E-01
       -2   -1    0    0    0  501  0.00000000000E+00  0.00000000000E+00  0.21898327362E+03  0.21898327363E+03  0.25500000920E-02 0. -1.
        2   -1    0    0  501    0  0.00000000000E+00  0.00000000000E+00 -0.40953494668E+03  0.40953494669E+03  0.25500000920E-02 0.  1.
    10030    2    1    2    0    0  0.00000000000E+00  0.00000000000E+00 -0.19055167306E+03  0.62851822032E+03  0.59893673553E+03 0.  0.
        5    1    3    3  502    0  0.38234523678E+02 -0.29314922354E+03 -0.45378834732E+02  0.29913153411E+03  0.46999998093E+01 0. -1.
       -5    1    3    3    0  502 -0.38234523678E+02  0.29314922354E+03 -0.14517283833E+03  0.32938668621E+03  0.46999998093E+01 0.  1.
</event>
<event>
 5   0  0.2141800E-02  0.6005413E+03  0.7818609E-02  0.9904284E-01
       -2   -1    0    0    0  501  0.00000000000E+00  0.00000000000E+00  0.13739820070E+03  0.13739820073E+03  0.25500000920E-02 0. -1.
        2   -1    0    0  501    0  0.00000000000E+00  0.00000000000E+00 -0.65621288320E+03  0.65621288321E+03  0.25500000920E-02 0.  1.
    10030    2    1    2    0    0  0.00000000000E+00  0.00000000000E+00 -0.51881468250E+03  0.79361108393E+03  0.60054132061E+03 0.  0.
        2    1    3    3  502    0  0.15981561503E+02  0.21570832494E+03 -0.53463652019E+03  0.57673364778E+03  0.25500000920E-02 0.  1.
       -2    1    3    3    0  502 -0.15981561503E+02 -0.21570832494E+03  0.15821837690E+02  0.21687743615E+03  0.25500000920E-02 0. -1.
</event>
<event>
 5   0  0.2126207E-02  0.6028495E+03  0.7818609E-02  0.9899512E-01
        2   -1    0    0  501    0  0.00000000000E+00  0.00000000000E+00  0.42440548272E+03  0.42440548273E+03  0.25500000920E-02 0. -1.
       -2   -1    0    0    0  501  0.00000000000E+00  0.00000000000E+00 -0.21408033430E+03  0.21408033432E+03  0.25500000920E-02 0.  1.
    10030    2    1    2    0    0  0.00000000000E+00  0.00000000000E+00  0.21032514842E+03  0.63848581705E+03  0.60284945925E+03 0.  0.
        5    1    3    3  502    0  0.51525817991E+01  0.27945617359E+03 -0.14252030296E+02  0.27990625649E+03  0.46999998093E+01 0.  1.
       -5    1    3    3    0  502 -0.51525817991E+01 -0.27945617359E+03  0.22457717872E+03  0.35857956056E+03  0.46999998093E+01 0. -1.
</event>
<event>
 5   0  0.1303808E-02  0.6009040E+03  0.7818609E-02  0.9903532E-01
        1   -1    0    0  501    0  0.00000000000E+00  0.00000000000E+00  0.93827271412E+03  0.93827271413E+03  0.50400001928E-02 0. -1.
       -1   -1    0    0    0  501  0.00000000000E+00  0.00000000000E+00 -0.96210198859E+02  0.96210198991E+02  0.50400001928E-02 0.  1.
    10030    2    1    2    0    0  0.00000000000E+00  0.00000000000E+00  0.84206251526E+03  0.10344829131E+04  0.60090400060E+03 0.  0.
        4    1    3    3  502    0 -0.95794966531E+02 -0.14282865147E+03 -0.30878694642E+01  0.17201118316E+03  0.12699999809E+01 0.  1.
       -4    1    3    3    0  502  0.95794966531E+02  0.14282865147E+03  0.84515038472E+03  0.86247172996E+03  0.12699999809E+01 0. -1.
</event>
<event>
 5   0  0.2142838E-02  0.6042921E+03  0.7818609E-02  0.9896541E-01
        2   -1    0    0  501    0  0.00000000000E+00  0.00000000000E+00  0.27815593255E+03  0.27815593257E+03  0.25500000920E-02 0.  1.
       -2   -1    0    0    0  501  0.00000000000E+00  0.00000000000E+00 -0.32820528497E+03  0.32820528498E+03  0.25500000920E-02 0. -1.
    10030    2    1    2    0    0  0.00000000000E+00  0.00000000000E+00 -0.50049352414E+02  0.60636121754E+03  0.60429213834E+03 0.  0.
        4    1    3    3  502    0  0.20625748888E+03 -0.19306540422E+03 -0.13250928722E+03  0.31205244130E+03  0.12699999809E+01 0. -1.
       -4    1    3    3    0  502 -0.20625748888E+03  0.19306540422E+03  0.82459934804E+02  0.29430877624E+03  0.12699999809E+01 0.  1.
</event>
<event>
 5   0  0.2092587E-02  0.5970335E+03  0.7818609E-02  0.9911580E-01
       -2   -1    0    0    0  501  0.00000000000E+00  0.00000000000E+00  0.76705904584E+02  0.76705904626E+02  0.25500000920E-02 0.  1.
        2   -1    0    0  501    0  0.00000000000E+00  0.00000000000E+00 -0.11617392142E+04  0.11617392142E+04  0.25500000920E-02 0. -1.
    10030    2    1    2    0    0  0.00000000000E+00  0.00000000000E+00 -0.10850333096E+04  0.12384451189E+04  0.59703352451E+03 0.  0.
        3    1    3    3  502    0  0.44097749730E+02  0.27893717764E+03 -0.74322022381E+03  0.79506406778E+03  0.10100000352E+00 0. -1.
       -3    1    3    3    0  502 -0.44097749730E+02 -0.27893717764E+03 -0.34181308584E+03  0.44338105108E+03  0.10100000352E+00 0.  1.
</event>
<event>
 5   0  0.2126207E-02  0.5991045E+03  0.7818609E-02  0.9907266E-01
       -2   -1    0    0    0  501  0.00000000000E+00  0.00000000000E+00  0.36876492069E+03  0.36876492070E+03  0.25500000920E-02 0. -1.
        2   -1    0    0  501    0  0.00000000000E+00  0.00000000000E+00 -0.24332998796E+03  0.24332998798E+03  0.25500000920E-02 0.  1.
    10030    2    1    2    0    0  0.00000000000E+00  0.00000000000E+00  0.12543493273E+03  0.61209490868E+03  0.59910454420E+03 0.  0.
        5    1    3    3  502    0  0.16368846657E+03  0.16913322645E+03 -0.12652710040E+03  0.26726608373E+03  0.46999998093E+01 0.  1.
       -5    1    3    3    0  502 -0.16368846657E+03 -0.16913322645E+03  0.25196203313E+03  0.34482882495E+03  0.46999998093E+01 0. -1.
</event>
<event>
 5   0  0.2092587E-02  0.5984813E+03  0.7818609E-02  0.9908562E-01
        2   -1    0    0  501    0  0.00000000000E+00  0.00000000000E+00  0.65755817570E+03  0.65755817571E+03  0.25500000920E-02 0. -1.
       -2   -1    0    0    0  501  0.00000000000E+00  0.00000000000E+00 -0.13617802131E+03  0.13617802133E+03  0.25500000920E-02 0.  1.
    10030    2    1    2    0    0  0.00000000000E+00  0.00000000000E+00  0.52138015439E+03  0.79373619704E+03  0.59848131557E+03 0.  0.
        3    1    3    3  502    0  0.15112337098E+03  0.14926119575E+03  0.54023583874E+03  0.58049285050E+03  0.10100000352E+00 0. -1.
       -3    1    3    3    0  502 -0.15112337098E+03 -0.14926119575E+03 -0.18855684350E+02  0.21324334654E+03  0.10100000352E+00 0.  1.
</event>
<event>
 5   0  0.1250390E-02  0.5970690E+03  0.7818609E-02  0.9911506E-01
       -1   -1    0    0    0  501  0.00000000000E+00  0.00000000000E+00  0.43919322386E+03  0.43919322389E+03  0.50400001928E-02 0. -1.
        1   -1    0    0  501    0  0.00000000000E+00  0.00000000000E+00 -0.20292397775E+03  0.20292397781E+03  0.50400001928E-02 0.  1.
    10030    2    1    2    0    0  0.00000000000E+00  0.00000000000E+00  0.23626924611E+03  0.64211720170E+03  0.59706896089E+03 0.  0.
        3    1    3    3  502    0  0.21657183877E+03 -0.11531322336E+03  0.30103155092E+03  0.38835615829E+03  0.10100000352E+00 0.  1.
       -3    1    3    3    0  502 -0.21657183877E+03  0.11531322336E+03 -0.64762304809E+02  0.25376104341E+03  0.10100000352E+00 0. -1.
</event>
<event>
 5   0  0.1250390E-02  0.6032215E+03  0.7818609E-02  0.9898745E-01
       -1   -1    0    0    0  501  0.00000000000E+00  0.00000000000E+00  0.98970483513E+02  0.98970483641E+02  0.50400001928E-02 0.  1.
        1   -1    0    0  501    0  0.00000000000E+00  0.00000000000E+00 -0.91915330154E+03  0.91915330156E+03  0.50400001928E-02 0. -1.
    10030    2    1    2    0    0  0.00000000000E+00  0.00000000000E+00 -0.82018281803E+03  0.10181237852E+04  0.60322150740E+03 0.  0.
        3    1    3    3  502    0  0.38699492281E+02  0.11344649606E+03 -0.87722572783E+03  0.88537717722E+03  0.10100000352E+00 0. -1.
       -3    1    3    3    0  502 -0.38699492281E+02 -0.11344649606E+03  0.57042909801E+02  0.13274660798E+03  0.10100000352E+00 0.  1.
</event>
<event>
 5   0  0.2142838E-02  0.6133455E+03  0.7818609E-02  0.9878099E-01
        2   -1    0    0  501    0  0.00000000000E+00  0.00000000000E+00  0.83784830922E+03  0.83784830923E+03  0.25500000920E-02 0. -1.
       -2   -1    0    0    0  501  0.00000000000E+00  0.00000000000E+00 -0.11224964548E+03  0.11224964551E+03  0.25500000920E-02 0.  1.
    10030    2    1    2    0    0  0.00000000000E+00  0.00000000000E+00  0.72559866374E+03  0.95009795473E+03  0.61334550032E+03 0.  0.
        4    1    3    3  502    0 -0.16951762110E+03 -0.21976136693E+03  0.56486045217E+03  0.62936493832E+03  0.12699999809E+01 0. -1.
       -4    1    3    3    0  502  0.16951762110E+03  0.21976136693E+03  0.16073821157E+03  0.32073301642E+03  0.12699999809E+01 0.  1.
</event>
<event>
 5   0  0.1337051E-02  0.6002806E+03  0.7818609E-02  0.9904824E-01
       -1   -1    0    0    0  501  0.00000000000E+00  0.00000000000E+00  0.33752804561E+03  0.33752804565E+03  0.50400001928E-02 0.  1.
        1   -1    0    0  501    0  0.00000000000E+00  0.00000000000E+00 -0.26689392895E+03  0.26689392900E+03  0.50400001928E-02 0. -1.
    10030    2    1    2    0    0  0.00000000000E+00  0.00000000000E+00  0.70634116656E+02  0.60442197464E+03  0.60028055524E+03 0.  0.
        5    1    3    3  502    0  0.43468007446E+02  0.18078487184E+03 -0.20187012291E+03  0.27449275779E+03  0.46999998093E+01 0. -1.
       -5    1    3    3    0  502 -0.43468007446E+02 -0.18078487184E+03  0.27250423956E+03  0.32992921686E+03  0.46999998093E+01 0.  1.
</event>
<event>
 5   0  0.8551000E-03  0.6008464E+03  0.7818609E-02  0.9903652E-01
        3   -1    0    0  501    0  0.00000000000E+00  0.00000000000E+00  0.11973354177E+03  0.11973358437E+03  0.10100000352E+00 0.  1.
       -3   -1    0    0    0  501  0.00000000000E+00  0.00000000000E+00 -0.75379110367E+03  0.75379111044E+03  0.10100000352E+00 0. -1.
    10030    2    1    2    0    0  0.00000000000E+00  0.00000000000E+00 -0.63405756190E+03  0.87352469481E+03  0.60084640354E+03 0.  0.
        2    1    3    3  502    0 -0.22337573554E+03  0.48277606143E+02 -0.60053055170E+03  0.64254524356E+03  0.25500000920E-02 0. -1.
       -2    1    3    3    0  502  0.22337573554E+03 -0.48277606143E+02 -0.33527010198E+02  0.23097945126E+03  0.25500000920E-02 0.  1.
</event>
<event>
 5   0  0.1250390E-02  0.6003572E+03  0.7818609E-02  0.9904665E-01
       -1   -1    0    0    0  501  0.00000000000E+00  0.00000000000E+00  0.23602084716E+03  0.23602084721E+03  0.50400001928E-02 0.  1.
        1   -1    0    0  501    0  0.00000000000E+00  0.00000000000E+00 -0.38177642434E+03  0.38177642438E+03  0.50400001928E-02 0. -1.
    10030    2    1    2    0    0  0.00000000000E+00  0.00000000000E+00 -0.14575557718E+03  0.61779727159E+03  0.60035721075E+03 0.  0.
        3    1    3    3  502    0 -0.26911389623E+03  0.94412579465E+02 -0.16925287639E+03  0.33163620230E+03  0.10100000352E+00 0. -1.
       -3    1    3    3    0  502  0.26911389623E+03 -0.94412579465E+02  0.23497299202E+02  0.28616106929E+03  0.10100000352E+00 0.  1.
</event>
<event>
 5   0  0.1337051E-02  0.6031853E+03  0.7818609E-02  0.9898820E-01
        1   -1    0    0  501    0  0.00000000000E+00  0.00000000000E+00  0.60113476518E+03  0.60113476521E+03  0.50400001928E-02 0.  1.
       -1   -1    0    0    0  501  0.00000000000E+00  0.00000000000E+00 -0.15131069105E+03  0.15131069114E+03  0.50400001928E-02 0. -1.
    10030    2    1    2    0    0  0.00000000000E+00  0.00000000000E+00  0.44982407413E+03  0.75244545634E+03  0.60318526764E+03 0.  0.
        5    1    3    3  502    0  0.29867506203E+02 -0.25021136592E+03  0.18277765238E+02  0.25269341555E+03  0.46999998093E+01 0. -1.
       -5    1    3    3    0  502 -0.29867506203E+02  0.25021136592E+03  0.43154630889E+03  0.49975204079E+03  0.46999998093E+01 0.  1.
</event>
<event>
 5   0  0.1250390E-02  0.5974363E+03  0.7818609E-02  0.9910739E-01
        1   -1    0    0  501    0  0.00000000000E+00  0.00000000000E+00  0.14539725997E+03  0.14539726006E+03  0.50400001928E-02 0.  1.
       -1   -1    0    0    0  501  0.00000000000E+00  0.00000000000E+00 -0.61371543909E+03  0.61371543911E+03  0.50400001928E-02 0. -1.
    10030    2    1    2    0    0  0.00000000000E+00  0.00000000000E+00 -0.46831817912E+03  0.75911269916E+03  0.59743633396E+03 0.  0.
        3    1    3    3  502    0  0.18449754665E+03 -0.16575037099E+03 -0.22609951105E+02  0.24904567913E+03  0.10100000352E+00 0.  1.
       -3    1    3    3    0  502 -0.18449754665E+03  0.16575037099E+03 -0.44570822801E+03  0.51006702003E+03  0.10100000352E+00 0. -1.
</event>
<event>
 5   0  0.2179625E-02  0.5992286E+03  0.7818609E-02  0.9907008E-01
       -2   -1    0    0    0  501  0.00000000000E+00  0.00000000000E+00  0.68315537805E+02  0.68315537853E+02  0.25500000920E-02 0. -1.
        2   -1    0    0  501    0  0.00000000000E+00  0.00000000000E+00 -0.13140307872E+04  0.13140307872E+04  0.25500000920E-02 0.  1.
    10030    2    1    2    0    0  0.00000000000E+00  0.00000000000E+00 -0.12457152494E+04  0.13823463251E+04  0.59922857060E+03 0.  0.
        1    1    3    3  502    0  0.63071850508E+01  0.40519559901E+02 -0.13075263935E+04  0.13081692877E+04  0.50400001928E-02 0.  1.
       -1    1    3    3    0  502 -0.63071850508E+01 -0.40519559901E+02  0.61811144125E+02  0.74177037426E+02  0.50400001928E-02 0. -1.
</event>
<event>
 5   0  0.1332555E-02  0.6009360E+03  0.7818609E-02  0.9903466E-01
       -1   -1    0    0    0  501  0.00000000000E+00  0.00000000000E+00  0.21556450372E+03  0.21556450378E+03  0.50400001928E-02 0. -1.
        1   -1    0    0  501    0  0.00000000000E+00  0.00000000000E+00 -0.41881209493E+03  0.41881209496E+03  0.50400001928E-02 0.  1.
    10030    2    1    2    0    0  0.00000000000E+00  0.00000000000E+00 -0.20324759121E+03  0.63437659875E+03  0.60093600800E+03 0.  0.
        2    1    3    3  502    0  0.23112992449E+03  0.18432585559E+03 -0.15831470466E+03  0.33535147048E+03  0.25500000920E-02 0. -1.
       -2    1    3    3    0  502 -0.23112992449E+03 -0.18432585559E+03 -0.44932886550E+02  0.29902512827E+03  0.25500000920E-02 0.  1.
</event>
<event>
 5   0  0.1250390E-02  0.6004190E+03  0.7818609E-02  0.9904537E-01
       -1   -1    0    0    0  501  0.00000000000E+00  0.00000000000E+00  0.44226114638E+02  0.44226114926E+02  0.50400001928E-02 0. -1.
        1   -1    0    0  501    0  0.00000000000E+00  0.00000000000E+00 -0.20378397272E+04  0.20378397273E+04  0.50400001928E-02 0.  1.
    10030    2    1    2    0    0  0.00000000000E+00  0.00000000000E+00 -0.19936136126E+04  0.20820658422E+04  0.60041896605E+03 0.  0.
        3    1    3    3  502    0 -0.12460854256E+03 -0.94767461888E+02 -0.10852635460E+03  0.19048921375E+03  0.10100000352E+00 0. -1.
       -3    1    3    3    0  502  0.12460854256E+03  0.94767461888E+02 -0.18850872580E+04  0.18915766284E+04  0.10100000352E+00 0.  1.
</event>
<event>
 5   0  0.1332555E-02  0.6036559E+03  0.7818609E-02  0.9897850E-01
        1   -1    0    0  501    0  0.00000000000E+00  0.00000000000E+00  0.21523518656E+04  0.21523518656E+04  0.50400001928E-02 0. -1.
       -1   -1    0    0    0  501  0.00000000000E+00  0.00000000000E+00 -0.42325847694E+02  0.42325847994E+02  0.50400001928E-02 0.  1.
    10030    2    1    2    0    0  0.00000000000E+00  0.00000000000E+00  0.21100260179E+04  0.21946777136E+04  0.60365592048E+03 0.  0.
        2    1    3    3  502    0 -0.15702435689E+03  0.77009981527E+02  0.16066738582E+03  0.23748935720E+03  0.25500000920E-02 0. -1.
       -2    1    3    3    0  502  0.15702435689E+03 -0.77009981527E+02  0.19493586321E+04  0.19571883564E+04  0.25500000920E-02 0.  1.
</event>
<event>
 5   0  0.1250390E-02  0.5957153E+03  0.7818609E-02  0.9914335E-01
        1   -1    0    0  501    0  0.00000000000E+00  0.00000000000E+00  0.20490909002E+03  0.20490909009E+03  0.50400001928E-02 0.  1.
       -1   -1    0    0    0  501  0.00000000000E+00  0.00000000000E+00 -0.43296852612E+03  0.43296852615E+03  0.50400001928E-02 0. -1.
    10030    2    1    2    0    0  0.00000000000E+00  0.00000000000E+00 -0.22805943610E+03  0.63787761624E+03  0.59571532371E+03 0.  0.
        3    1    3    3  502    0  0.20596455967E+03 -0.20324007877E+03 -0.18967870647E+03  0.34598547852E+03  0.10100000352E+00 0. -1.
       -3    1    3    3    0  502 -0.20596455967E+03  0.20324007877E+03 -0.38380729625E+02  0.29189213772E+03  0.10100000352E+00 0.  1.
</event>
<event>
 5   0  0.2126207E-02  0.6011740E+03  0.7818609E-02  0.9902973E-01
        2   -1    0    0  501    0  0.00000000000E+00  0.00000000000E+00  0.21363873002E+03  0.21363873004E+03  0.25500000920E-02 0. -1.
       -2   -1    0    0    0  501  0.00000000000E+00  0.00000000000E+00 -0.42292214191E+03  0.42292214192E+03  0.25500000920E-02 0.  1.
    10030    2    1    2    0    0  0.00000000000E+00  0.00000000000E+00 -0.20928341189E+03  0.63656087195E+03  0.60117401574E+03 0.  0.
        5    1    3    3  502    0 -0.32827550944E+02  0.21517141592E+03  0.11481149216E+03  0.24613036192E+03  0.46999998093E+01 0. -1.
       -5    1    3    3    0  502  0.32827550944E+02 -0.21517141592E+03 -0.32409490405E+03  0.39043051003E+03  0.46999998093E+01 0.  1.
</event>
<event>
 5   0  0.2179625E-02  0.5834765E+03  0.7818609E-02  0.9940293E-01
       -2   -1    0    0    0  501  0.00000000000E+00  0.00000000000E+00  0.35467634264E+03  0.35467634265E+03  0.25500000920E-02 0.  1.
        2   -1    0    0  501    0  0.00000000000E+00  0.00000000000E+00 -0.23996865267E+03  0.23996865268E+03  0.25500000920E-02 0. -1.
    10030    2    1    2    0    0  0.00000000000E+00  0.00000000000E+00  0.11470768997E+03  0.59464499533E+03  0.58347649167E+03 0.  0.
        1    1    3    3  502    0 -0.13245172724E+03 -0.38156634379E+02 -0.20468998967E+03  0.24677394655E+03  0.50400001928E-02 0. -1.
       -1    1    3    3    0  502  0.13245172724E+03  0.38156634379E+02  0.31939767964E+03  0.34787104879E+03  0.50400001928E-02 0.  1.
</event>
<event>
 5   0  0.1276705E-02  0.6048448E+03  0.7818609E-02  0.9895405E-01
        1   -1    0    0  501    0  0.00000000000E+00  0.00000000000E+00  0.26571583904E+03  0.26571583909E+03  0.50400001928E-02 0.  1.
       -1   -1    0    0    0  501  0.00000000000E+00  0.00000000000E+00 -0.34419963629E+03  0.34419963633E+03  0.50400001928E-02 0. -1.
    10030    2    1    2    0    0  0.00000000000E+00  0.00000000000E+00 -0.78483797250E+02  0.60991547542E+03  0.60484475754E+03 0.  0.
        1    1    3    3  502    0  0.98164712934E+02  0.96828919969E+01  0.24903804259E+03  0.26786193449E+03  0.50400001928E-02 0.  1.
       -1    1    3    3    0  502 -0.98164712934E+02 -0.96828919969E+01 -0.32752183984E+03  0.34205354093E+03  0.50400001928E-02 0. -1.
</event>
<event>
 5   0  0.2141800E-02  0.5989552E+03  0.7818609E-02  0.9907576E-01
        2   -1    0    0  501    0  0.00000000000E+00  0.00000000000E+00  0.21063897110E+03  0.21063897112E+03  0.25500000920E-02 0.  1.
       -2   -1    0    0    0  501  0.00000000000E+00  0.00000000000E+00 -0.42578454435E+03  0.42578454436E+03  0.25500000920E-02 0. -1.
    10030    2    1    2    0    0  0.00000000000E+00  0.00000000000E+00 -0.21514557325E+03  0.63642351547E+03  0.59895515137E+03 0.  0.
        2    1    3    3  502    0  0.23437568805E+02  0.22627301496E+03  0.99388565160E+02  0.24824762601E+03  0.25500000920E-02 0.  1.
       -2    1    3    3    0  502 -0.23437568805E+02 -0.22627301496E+03 -0.31453413841E+03  0.38817588946E+03  0.25500000920E-02 0. -1.
</event>
<event>
 5   0  0.2126207E-02  0.6136578E+03  0.7818609E-02  0.9877469E-01
        2   -1    0    0  501    0  0.00000000000E+00  0.00000000000E+00  0.80836298974E+03  0.80836298975E+03  0.25500000920E-02 0. -1.
       -2   -1    0    0    0  501  0.00000000000E+00  0.00000000000E+00 -0.11646251141E+03  0.11646251144E+03  0.25500000920E-02 0.  1.
    10030    2    1    2    0    0  0.00000000000E+00  0.00000000000E+00  0.69190047833E+03  0.92482550119E+03  0.61365783278E+03 0.  0.
        5    1    3    3  502    0 -0.81272943931E+02 -0.27727194975E+03  0.50138222928E+03  0.57869789646E+03  0.46999998093E+01 0.  1.
       -5    1    3    3    0  502  0.81272943931E+02  0.27727194975E+03  0.19051824905E+03  0.34612760473E+03  0.46999998093E+01 0. -1.
</event>
<event>
 5   0  0.1332555E-02  0.5999233E+03  0.7818609E-02  0.9905565E-01
        1   -1    0    0  501    0  0.00000000000E+00  0.00000000000E+00  0.95357790782E+02  0.95357790915E+02  0.50400001928E-02 0.  1.
       -1   -1    0    0    0  501  0.00000000000E+00  0.00000000000E+00 -0.94357263550E+03  0.94357263551E+03  0.50400001928E-02 0. -1.
    10030    2    1    2    0    0  0.00000000000E+00  0.00000000000E+00 -0.84821484472E+03  0.10389304264E+04  0.59992333524E+03 0.  0.
        2    1    3    3  502    0 -0.35076339217E+02 -0.80910015554E+02 -0.92061651376E+03  0.92483054967E+03  0.25500000920E-02 0. -1.
       -2    1    3    3    0  502  0.35076339217E+02  0.80910015554E+02  0.72401669042E+02  0.11409987676E+03  0.25500000920E-02 0.  1.
</event>
<event>
 5   0  0.2141800E-02  0.6082437E+03  0.7818609E-02  0.9888449E-01
        2   -1    0    0  501    0  0.00000000000E+00  0.00000000000E+00  0.52955525912E+02  0.52955525974E+02  0.25500000920E-02 0.  1.
       -2   -1    0    0    0  501  0.00000000000E+00  0.00000000000E+00 -0.17465617735E+04  0.17465617735E+04  0.25500000920E-02 0. -1.
    10030    2    1    2    0    0  0.00000000000E+00  0.00000000000E+00 -0.16936062476E+04  0.17995172994E+04  0.60824369231E+03 0.  0.
        2    1    3    3  502    0  0.44939939615E+02  0.16285474896E+02 -0.17353787525E+04  0.17360369321E+04  0.25500000920E-02 0. -1.
       -2    1    3    3    0  502 -0.44939939615E+02 -0.16285474896E+02  0.41772504950E+02  0.63480367370E+02  0.25500000920E-02 0.  1.
</event>
<event>
 5   0  0.2092587E-02  0.6022409E+03  0.7818609E-02  0.9900768E-01
       -2   -1    0    0    0  501  0.00000000000E+00  0.00000000000E+00  0.12336266078E+03  0.12336266080E+03  0.25500000920E-02 0.  1.
        2   -1    0    0  501    0  0.00000000000E+00  0.00000000000E+00 -0.73501600971E+03  0.73501600972E+03  0.25500000920E-02 0. -1.
    10030    2    1    2    0    0  0.00000000000E+00  0.00000000000E+00 -0.61165334894E+03  0.85837867052E+03  0.60224091752E+03 0.  0.
        3    1    3    3  502    0 -0.17076435775E+03 -0.89357598043E+02  0.23935075801E+02  0.19421159661E+03  0.10100000352E+00 0.  1.
       -3    1    3    3    0  502  0.17076435775E+03  0.89357598043E+02 -0.63558842474E+03  0.66416707391E+03  0.10100000352E+00 0. -1.
</event>
<event>
 5   0  0.1337051E-02  0.6023793E+03  0.7818609E-02  0.9900482E-01
        1   -1    0    0  501    0  0.00000000000E+00  0.00000000000E+00  0.96198821413E+03  0.96198821414E+03  0.50400001928E-02 0.  1.
       -1   -1    0    0    0  501  0.00000000000E+00  0.00000000000E+00 -0.94299720793E+02  0.94299720928E+02  0.50400001928E-02 0. -1.
    10030    2    1    2    0    0  0.00000000000E+00  0.00000000000E+00  0.86768849333E+03  0.10562879351E+04  0.60237934917E+03 0.  0.
        5    1    3    3  502    0 -0.13948431786E+03 -0.15855304880E+03  0.57353625649E+02  0.21887547278E+03  0.46999998093E+01 0. -1.
       -5    1    3    3    0  502  0.13948431786E+03  0.15855304880E+03  0.81033486769E+03  0.83741246229E+03  0.46999998093E+01 0.  1.
</event>
<event>
 5   0  0.1250390E-02  0.5994768E+03  0.7818609E-02  0.9906492E-01
        1   -1    0    0  501    0  0.00000000000E+00  0.00000000000E+00  0.38694182770E+03  0.38694182773E+03  0.50400001928E-02 0.  1.
       -1   -1    0    0    0  501  0.00000000000E+00  0.00000000000E+00 -0.23218764437E+03  0.23218764443E+03  0.50400001928E-02 0. -1.
    10030    2    1    2    0    0  0.00000000000E+00  0.00000000000E+00  0.15475418333E+03  0.61912947216E+03  0.59947681026E+03 0.  0.
        3    1    3    3  502    0  0.69820535542E+02 -0.19999416432E+03 -0.14163751765E+03  0.25482105398E+03  0.10100000352E+00 0. -1.
       -3    1    3    3    0  502 -0.69820535542E+02  0.19999416432E+03  0.29639170098E+03  0.36430841818E+03  0.10100000352E+00 0.  1.
</event>
<event>
 5   0  0.2179625E-02  0.6002466E+03  0.7818609E-02  0.9904895E-01
       -2   -1    0    0    0  501  0.00000000000E+00  0.00000000000E+00  0.16615642464E+03  0.16615642466E+03  0.25500000920E-02 0.  1.
        2   -1    0    0  501    0  0.00000000000E+00  0.00000000000E+00 -0.54210360706E+03  0.54210360707E+03  0.25500000920E-02 0. -1.
    10030    2    1    2    0    0  0.00000000000E+00  0.00000000000E+00 -0.37594718242E+03  0.70826003173E+03  0.60024660647E+03 0.  0.
        1    1    3    3  502    0  0.18340891828E+03 -0.32668922624E+02 -0.46562000974E+03  0.50150581583E+03  0.50400001928E-02 0. -1.
       -1    1    3    3    0  502 -0.18340891828E+03  0.32668922624E+02  0.89672827322E+02  0.20675421591E+03  0.50400001928E-02 0.  1.
</event>
<event>
 5   0  0.1303808E-02  0.5984443E+03  0.7818609E-02  0.9908639E-01
        1   -1    0    0  501    0  0.00000000000E+00  0.00000000000E+00  0.65655608218E+03  0.65655608220E+03  0.50400001928E-02 0. -1.
       -1   -1    0    0    0  501  0.00000000000E+00  0.00000000000E+00 -0.13636898711E+03  0.13636898720E+03  0.50400001928E-02 0.  1.
    10030    2    1    2    0    0  0.00000000000E+00  0.00000000000E+00  0.52018709508E+03  0.79292506940E+03  0.59844427627E+03 0.  0.
        4    1    3    3  502    0  0.22387246518E+03 -0.21922914220E+02 -0.13429040530E+01  0.22495090826E+03  0.12699999809E+01 0.  1.
       -4    1    3    3    0  502 -0.22387246518E+03  0.21922914220E+02  0.52152999913E+03  0.56797416114E+03  0.12699999809E+01 0. -1.
</event>
<event>
 5   0  0.1332555E-02  0.6028446E+03  0.7818609E-02  0.9899522E-01
       -1   -1    0    0    0  501  0.00000000000E+00  0.00000000000E+00  0.39402764500E+02  0.39402764822E+02  0.50400001928E-02 0. -1.
        1   -1    0    0  501    0  0.00000000000E+00  0.00000000000E+00 -0.23058129487E+04  0.23058129487E+04  0.50400001928E-02 0.  1.
    10030    2    1    2    0    0  0.00000000000E+00  0.00000000000E+00 -0.22664101842E+04  0.23452157136E+04  0.60284460679E+03 0.  0.
        2    1    3    3  502    0 -0.39944609508E+02 -0.12807181043E+03 -0.83144445571E+02  0.15783206041E+03  0.25500000920E-02 0. -1.
       -2    1    3    3    0  502  0.39944609508E+02  0.12807181043E+03 -0.21832657387E+04  0.21873836532E+04  0.25500000920E-02 0.  1.
</event>
<event>
 5   0  0.2142838E-02  0.5983235E+03  0.7818609E-02  0.9908890E-01
       -2   -1    0    0    0  501  0.00000000000E+00  0.00000000000E+00  0.55049708404E+02  0.55049708463E+02  0.25500000920E-02 0.  1.
        2   -1    0    0  501    0  0.00000000000E+00  0.00000000000E+00 -0.16257627737E+04  0.16257627737E+04  0.25500000920E-02 0. -1.
    10030    2    1    2    0    0  0.00000000000E+00  0.00000000000E+00 -0.15707130653E+04  0.16808124821E+04  0.59832354684E+03 0.  0.
        4    1    3    3  502    0  0.81691821034E+02  0.23613117964E+03 -0.12475081817E+04  0.12722852526E+04  0.12699999809E+01 0. -1.
       -4    1    3    3    0  502 -0.81691821034E+02 -0.23613117964E+03 -0.32320488352E+03  0.40852722951E+03  0.12699999809E+01 0.  1.
</event>
<event>
 5   0  0.2141800E-02  0.5994383E+03  0.7818609E-02  0.9906572E-01
       -2   -1    0    0    0  501  0.00000000000E+00  0.00000000000E+00  0.62040435055E+03  0.62040435055E+03  0.25500000920E-02 0. -1.
        2   -1    0    0  501    0  0.00000000000E+00  0.00000000000E+00 -0.14479520601E+03  0.14479520604E+03  0.25500000920E-02 0.  1.
    10030    2    1    2    0    0  0.00000000000E+00  0.00000000000E+00  0.47560914453E+03  0.76519955659E+03  0.59943832297E+03 0.  0.
        2    1    3    3  502    0  0.11964721362E+03 -0.14700117092E+03 -0.58577468162E+02  0.19838376890E+03  0.25500000920E-02 0.  1.
       -2    1    3    3    0  502 -0.11964721362E+03  0.14700117092E+03  0.53418661270E+03  0.56681578769E+03  0.25500000920E-02 0. -1.
</event>
<event>
 5   0  0.2092587E-02  0.6009736E+03  0.7818609E-02  0.9903388E-01
        2   -1    0    0  501    0  0.00000000000E+00  0.00000000000E+00  0.13291203521E+04  0.13291203521E+04  0.25500000920E-02 0. -1.
       -2   -1    0    0    0  501  0.00000000000E+00  0.00000000000E+00 -0.67933882159E+02  0.67933882207E+02  0.25500000920E-02 0.  1.
    10030    2    1    2    0    0  0.00000000000E+00  0.00000000000E+00  0.12611864699E+04  0.13970542343E+04  0.60097356151E+03 0.  0.
        3    1    3    3  502    0 -0.10638014143E+02  0.28078392407E+03  0.38304766684E+03  0.47505610683E+03  0.10100000352E+00 0. -1.
       -3    1    3    3    0  502  0.10638014143E+02 -0.28078392407E+03  0.87813880309E+03  0.92199812747E+03  0.10100000352E+00 0.  1.
</event>
<event>
 5   0  0.8551000E-03  0.6019168E+03  0.7818609E-02  0.9901437E-01
        4   -1    0    0  501    0  0.00000000000E+00  0.00000000000E+00  0.20640491185E+03  0.20640881894E+03  0.12699999809E+01 0.  1.
       -4   -1    0    0    0  501  0.00000000000E+00  0.00000000000E+00 -0.43881758302E+03  0.43881942080E+03  0.12699999809E+01 0. -1.
    10030    2    1    2    0    0  0.00000000000E+00  0.00000000000E+00 -0.23241267117E+03  0.64522823974E+03  0.60191679794E+03 0.  0.
        4    1    3    3  502    0 -0.51955783024E+02 -0.19078390047E+03  0.12700352369E+03  0.23500937853E+03  0.12699999809E+01 0.  1.
       -4    1    3    3    0  502  0.51955783024E+02  0.19078390047E+03 -0.35941619486E+03  0.41021886121E+03  0.12699999809E+01 0. -1.
</event>
<event>
 5   0  0.2142838E-02  0.6003942E+03  0.7818609E-02  0.9904589E-01
       -2   -1    0    0    0  501  0.00000000000E+00  0.00000000000E+00  0.13246810027E+04  0.13246810027E+04  0.25500000920E-02 0. -1.
        2   -1    0    0  501    0  0.00000000000E+00  0.00000000000E+00 -0.68030190217E+02  0.68030190265E+02  0.25500000920E-02 0.  1.
    10030    2    1    2    0    0  0.00000000000E+00  0.00000000000E+00  0.12566508125E+04  0.13927111930E+04  0.60039420593E+03 0.  0.
        4    1    3    3  502    0 -0.22863761011E+03 -0.20984046516E+02  0.10769337494E+04  0.11011373213E+04  0.12699999809E+01 0. -1.
       -4    1    3    3    0  502  0.22863761011E+03  0.20984046516E+02  0.17971706316E+03  0.29157387170E+03  0.12699999809E+01 0.  1.
</event>
<event>
 5   0  0.2092587E-02  0.6004632E+03  0.7818609E-02  0.9904446E-01
       -2   -1    0    0    0  501  0.00000000000E+00  0.00000000000E+00  0.31646914418E+03  0.31646914419E+03  0.25500000920E-02 0. -1.
        2   -1    0    0  501    0  0.00000000000E+00  0.00000000000E+00 -0.28482713355E+03  0.28482713356E+03  0.25500000920E-02 0.  1.
    10030    2    1    2    0    0  0.00000000000E+00  0.00000000000E+00  0.31642010630E+02  0.60129627775E+03  0.60046315190E+03 0.  0.
        3    1    3    3  502    0 -0.26489844096E+03  0.87958458228E+02 -0.94926810941E+02  0.29482025716E+03  0.10100000352E+00 0.  1.
       -3    1    3    3    0  502  0.26489844096E+03 -0.87958458228E+02  0.12656882157E+03  0.30647602058E+03  0.10100000352E+00 0. -1.
</event>
<event>
 5   0  0.1250390E-02  0.5989157E+03  0.7818609E-02  0.9907658E-01
       -1   -1    0    0    0  501  0.00000000000E+00  0.00000000000E+00  0.14288712167E+03  0.14288712176E+03  0.50400001928E-02 0.  1.
        1   -1    0    0  501    0  0.00000000000E+00  0.00000000000E+00 -0.62759341944E+03  0.62759341946E+03  0.50400001928E-02 0. -1.
    10030    2    1    2    0    0  0.00000000000E+00  0.00000000000E+00 -0.48470629777E+03  0.77048054122E+03  0.59891574474E+03 0.  0.
        3    1    3    3  502    0  0.15816078019E+03 -0.72192999565E+02 -0.55601798269E+03  0.58256559189E+03  0.10100000352E+00 0. -1.
       -3    1    3    3    0  502 -0.15816078019E+03  0.72192999565E+02  0.71311684915E+02  0.18791494934E+03  0.10100000352E+00 0.  1.
</event>
<event>
 5   0  0.2092587E-02  0.5999212E+03  0.7818609E-02  0.9905570E-01
        2   -1    0    0  501    0  0.00000000000E+00  0.00000000000E+00  0.21091554050E+04  0.21091554050E+04  0.25500000920E-02 0.  1.
       -2   -1    0    0    0  501  0.00000000000E+00  0.00000000000E+00 -0.42659899271E+02  0.42659899347E+02  0.25500000920E-02 0. -1.
    10030    2    1    2    0    0  0.00000000000E+00  0.00000000000E+00  0.20664955058E+04  0.21518153044E+04  0.59992118552E+03 0.  0.
        3    1    3    3  502    0  0.18699366601E+03 -0.16103983608E+03  0.16448615585E+04  0.16632708790E+04  0.10100000352E+00 0.  1.
       -3    1    3    3    0  502 -0.18699366601E+03  0.16103983608E+03  0.42163394725E+03  0.48854442542E+03  0.10100000352E+00 0. -1.
</event>
<event>
 5   0  0.1332555E-02  0.6012904E+03  0.7818609E-02  0.9902732E-01
       -1   -1    0    0    0  501  0.00000000000E+00  0.00000000000E+00  0.29049187732E+03  0.29049187736E+03  0.50400001928E-02 0. -1.
        1   -1    0    0  501    0  0.00000000000E+00  0.00000000000E+00 -0.31115345273E+03  0.31115345277E+03  0.50400001928E-02 0.  1.
    10030    2    1    2    0    0  0.00000000000E+00  0.00000000000E+00 -0.20661575407E+02  0.60164533013E+03  0.60129044776E+03 0.  0.
        2    1    3    3  502    0  0.24145026704E+03  0.92566902144E+02 -0.16378586217E+03  0.30609258645E+03  0.25500000920E-02 0.  1.
       -2    1    3    3    0  502 -0.24145026704E+03 -0.92566902144E+02  0.14312428676E+03  0.29555274368E+03  0.25500000920E-02 0. -1.
</event>
<event>
 5   0  0.1276705E-02  0.5965990E+03  0.7818609E-02  0.9912487E-01
       -1   -1    0    0    0  501  0.00000000000E+00  0.00000000000E+00  0.12150750609E+03  0.12150750619E+03  0.50400001928E-02 0. -1.
        1   -1    0    0  501    0  0.00000000000E+00  0.00000000000E+00 -0.73232170836E+03  0.73232170838E+03  0.50400001928E-02 0.  1.
    10030    2    1    2    0    0  0.00000000000E+00  0.00000000000E+00 -0.61081420228E+03  0.85382921457E+03  0.59659897582E+03 0.  0.
        1    1    3    3  502    0  0.14955994450E+03 -0.22775153645E+03 -0.47918355927E+03  0.55123118821E+03  0.50400001928E-02 0.  1.
       -1    1    3    3    0  502 -0.14955994450E+03  0.22775153645E+03 -0.13163064300E+03  0.30259802636E+03  0.50400001928E-02 0. -1.
</event>
<event>
 5   0  0.2142838E-02  0.6034932E+03  0.7818609E-02  0.9898185E-01
        2   -1    0    0  501    0  0.00000000000E+00  0.00000000000E+00  0.44291806360E+03  0.44291806361E+03  0.25500000920E-02 0. -1.
       -2   -1    0    0    0  501  0.00000000000E+00  0.00000000000E+00 -0.20557076326E+03  0.20557076328E+03  0.25500000920E-02 0.  1.
    10030    2    1    2    0    0  0.00000000000E+00  0.00000000000E+00  0.23734730034E+03  0.64848882688E+03  0.60349317942E+03 0.  0.
        4    1    3    3  502    0  0.70747497015E+02  0.11723090882E+02  0.43362522346E+03  0.43951687853E+03  0.12699999809E+01 0. -1.
       -4    1    3    3    0  502 -0.70747497015E+02 -0.11723090882E+02 -0.19627792312E+03  0.20897194835E+03  0.12699999809E+01 0.  1.
</event>
<event>
 5   0  0.2142838E-02  0.6005910E+03  0.7818609E-02  0.9904181E-01
       -2   -1    0    0    0  501  0.00000000000E+00  0.00000000000E+00  0.58411215219E+02  0.58411215275E+02  0.25500000920E-02 0.  1.
        2   -1    0    0  501    0  0.00000000000E+00  0.00000000000E+00 -0.15438367576E+04  0.15438367576E+04  0.25500000920E-02 0. -1.
    10030    2    1    2    0    0  0.00000000000E+00  0.00000000000E+00 -0.14854255424E+04  0.16022479729E+04  0.60059097948E+03 0.  0.
        4    1    3    3  502    0 -0.79307779412E+02 -0.28935351285E+03 -0.70890560245E+03  0.76978175177E+03  0.12699999809E+01 0. -1.
       -4    1    3    3    0  502  0.79307779412E+02  0.28935351285E+03 -0.77651993993E+03  0.83246622110E+03  0.12699999809E+01 0.  1.
</event>
<event>
 5   0  0.2142838E-02  0.6012637E+03  0.7818609E-02  0.9902788E-01
       -2   -1    0    0    0  501  0.00000000000E+00  0.00000000000E+00  0.89163122706E+02  0.89163122742E+02  0.25500000920E-02 0. -1.
        2   -1    0    0  501    0  0.00000000000E+00  0.00000000000E+00 -0.10136422149E+04  0.10136422149E+04  0.25500000920E-02 0.  1.
    10030    2    1    2    0    0  0.00000000000E+00  0.00000000000E+00 -0.92447909222E+03  0.11028053377E+04  0.60126368662E+03 0.  0.
        4    1    3    3  502    0 -0.31500569533E+02  0.16060284018E+02 -0.10098102062E+04  0.10104298511E+04  0.12699999809E+01 0.  1.
       -4    1    3    3    0  502  0.31500569533E+02 -0.16060284018E+02  0.85331113973E+02  0.92375486551E+02  0.12699999809E+01 0. -1.
</event>
<event>
 5   0  0.8551000E-03  0.5999241E+03  0.7818609E-02  0.9905564E-01
        3   -1    0    0  501    0  0.00000000000E+00  0.00000000000E+00  0.19189564405E+03  0.19189567063E+03  0.10100000352E+00 0. -1.
       -3   -1    0    0    0  501  0.00000000000E+00  0.00000000000E+00 -0.46888618588E+03  0.46888619676E+03  0.10100000352E+00 0.  1.
    10030    2    1    2    0    0  0.00000000000E+00  0.00000000000E+00 -0.27699054182E+03  0.66078186739E+03  0.59992409187E+03 0.  0.
        2    1    3    3  502    0  0.36016244458E+02  0.27986196024E+03 -0.25059020341E+03  0.37737956583E+03  0.25500000920E-02 0.  1.
       -2    1    3    3    0  502 -0.36016244458E+02 -0.27986196024E+03 -0.26400338418E+02  0.28340230156E+03  0.25500000920E-02 0. -1.
</event>
<event>
 5   0  0.1276705E-02  0.6001917E+03  0.7818609E-02  0.9905008E-01
        1   -1    0    0  501    0  0.00000000000E+00  0.00000000000E+00  0.77008165280E+03  0.77008165281E+03  0.50400001928E-02 0.  1.
       -1   -1    0    0    0  501  0.00000000000E+00  0.00000000000E+00 -0.11694541779E+03  0.11694541789E+03  0.50400001928E-02 0. -1.
    10030    2    1    2    0    0  0.00000000000E+00  0.00000000000E+00  0.65313623501E+03  0.88702707071E+03  0.60019170494E+03 0.  0.
        1    1    3    3  502    0  0.48381115621E+02 -0.15208424377E+03 -0.49027067927E+02  0.16695509266E+03  0.50400001928E-02 0. -1.
       -1    1    3    3    0  502 -0.48381115621E+02  0.15208424377E+03  0.70216330294E+03  0.72007197805E+03  0.50400001928E-02 0.  1.
</event>
<event>
 5   0  0.8551000E-03  0.5971038E+03  0.7818609E-02  0.9911433E-01
        3   -1    0    0  501    0  0.00000000000E+00  0.00000000000E+00  0.63959907375E+03  0.63959908172E+03  0.10100000352E+00 0. -1.
       -3   -1    0    0    0  501  0.00000000000E+00  0.00000000000E+00 -0.13935796955E+03  0.13935800615E+03  0.10100000352E+00 0.  1.
    10030    2    1    2    0    0  0.00000000000E+00  0.00000000000E+00  0.50024110420E+03  0.77895708788E+03  0.59710382885E+03 0.  0.
        2    1    3    3  502    0 -0.60584061459E+02  0.21168089657E+03 -0.12915573863E+02  0.22055847871E+03  0.25500000920E-02 0.  1.
       -2    1    3    3    0  502  0.60584061459E+02 -0.21168089657E+03  0.51315667806E+03  0.55839860917E+03  0.25500000920E-02 0. -1.
</event>
<event>
 5   0  0.2092587E-02  0.5984085E+03  0.7818609E-02  0.9908713E-01
        2   -1    0    0  501    0  0.00000000000E+00  0.00000000000E+00  0.44508122455E+03  0.44508122456E+03  0.25500000920E-02 0. -1.
       -2   -1    0    0    0  501  0.00000000000E+00  0.00000000000E+00 -0.20113896105E+03  0.20113896107E+03  0.25500000920E-02 0.  1.
    10030    2    1    2    0    0  0.00000000000E+00  0.00000000000E+00  0.24394226350E+03  0.64622018563E+03  0.59840847286E+03 0.  0.
        3    1    3    3  502    0 -0.20664886464E+03 -0.51731065426E+02  0.34886106414E+03  0.40875898603E+03  0.10100000352E+00 0. -1.
       -3    1    3    3    0  502  0.20664886464E+03  0.51731065426E+02 -0.10491880064E+03  0.23746119960E+03  0.10100000352E+00 0.  1.
</event>
<event>
 5   0  0.8551000E-03  0.6004766E+03  0.7818609E-02  0.9904418E-01
        3   -1    0    0  501    0  0.00000000000E+00  0.00000000000E+00  0.98162750767E+02  0.98162802727E+02  0.10100000352E+00 0. -1.
       -3   -1    0    0    0  501  0.00000000000E+00  0.00000000000E+00 -0.91830165365E+03  0.91830165921E+03  0.10100000352E+00 0.  1.
    10030    2    1    2    0    0  0.00000000000E+00  0.00000000000E+00 -0.82013890289E+03  0.10164644619E+04  0.60047662931E+03 0.  0.
        1    1    3    3  502    0 -0.30664212306E+02 -0.64534033415E+02  0.83562076595E+02  0.10994342207E+03  0.50400001928E-02 0. -1.
       -1    1    3    3    0  502  0.30664212306E+02  0.64534033415E+02 -0.90370097948E+03  0.90652103987E+03  0.50400001928E-02 0.  1.
</event>
<event>
 5   0  0.2179625E-02  0.5999513E+03  0.7818609E-02  0.9905507E-01
        2   -1    0    0  501    0  0.00000000000E+00  0.00000000000E+00  0.76980598830E+03  0.76980598830E+03  0.25500000920E-02 0.  1.
       -2   -1    0    0    0  501  0.00000000000E+00  0.00000000000E+00 -0.11689358585E+03  0.11689358588E+03  0.25500000920E-02 0. -1.
    10030    2    1    2    0    0  0.00000000000E+00  0.00000000000E+00  0.65291240245E+03  0.88669957418E+03  0.59995127267E+03 0.  0.
        1    1    3    3  502    0 -0.25292289109E+03  0.15413400433E+03  0.25622464016E+03  0.39163547641E+03  0.50400001928E-02 0. -1.
       -1    1    3    3    0  502  0.25292289109E+03 -0.15413400433E+03  0.39668776229E+03  0.49506409777E+03  0.50400001928E-02 0.  1.
</event>
<event>
 5   0  0.8551000E-03  0.5993824E+03  0.7818609E-02  0.9906688E-01
        4   -1    0    0  501    0  0.00000000000E+00  0.00000000000E+00  0.50486461877E+03  0.50486621613E+03  0.12699999809E+01 0. -1.
       -4   -1    0    0    0  501  0.00000000000E+00  0.00000000000E+00 -0.17789467706E+03  0.17789921031E+03  0.12699999809E+01 0.  1.
    10030    2    1    2    0    0  0.00000000000E+00  0.00000000000E+00  0.32696994171E+03  0.68276542643E+03  0.59938241946E+03 0.  0.
        4    1    3    3  502    0 -0.29808192468E+03  0.38936669506E+01  0.19850629424E+03  0.35815409563E+03  0.12699999809E+01 0.  1.
       -4    1    3    3    0  502  0.29808192468E+03 -0.38936669506E+01  0.12846364747E+03  0.32461133080E+03  0.12699999809E+01 0. -1.
</event>
<event>
 5   0  0.1276705E-02  0.6017671E+03  0.7818609E-02  0.9901747E-01
       -1   -1    0    0    0  501  0.00000000000E+00  0.00000000000E+00  0.19888072028E+03  0.19888072034E+03  0.50400001928E-02 0.  1.
        1   -1    0    0  501    0  0.00000000000E+00  0.00000000000E+00 -0.45520204593E+03  0.45520204596E+03  0.50400001928E-02 0. -1.
    10030    2    1    2    0    0  0.00000000000E+00  0.00000000000E+00 -0.25632132566E+03  0.65408276630E+03  0.60176710045E+03 0.  0.
        1    1    3    3  502    0  0.14582090390E+03 -0.10501554265E+03 -0.39046827088E+03  0.42983423643E+03  0.50400001928E-02 0. -1.
       -1    1    3    3    0  502 -0.14582090390E+03  0.10501554265E+03  0.13414694523E+03  0.22424852987E+03  0.50400001928E-02 0.  1.
</event>
<event>
 5   0  0.1332555E-02  0.5997967E+03  0.7818609E-02  0.9905828E-01
        1   -1    0    0  501    0  0.00000000000E+00  0.00000000000E+00  0.27454719970E+03  0.27454719975E+03  0.50400001928E-02 0.  1.
       -1   -1    0    0    0  501  0.00000000000E+00  0.00000000000E+00 -0.32759041493E+03  0.32759041497E+03  0.50400001928E-02 0. -1.
    10030    2    1    2    0    0  0.00000000000E+00  0.00000000000E+00 -0.53043215226E+02  0.60213761471E+03  0.59979673588E+03 0.  0.
        2    1    3    3  502    0  0.27094671995E+03  0.11939725217E+03 -0.74364735044E+02  0.30528338097E+03  0.25500000920E-02 0. -1.
       -2    1    3    3    0  502 -0.27094671995E+03 -0.11939725217E+03  0.21321519817E+02  0.29685423374E+03  0.25500000920E-02 0.  1.
</event>
<event>
 5   0  0.2092587E-02  0.5993488E+03  0.7818609E-02  0.9906758E-01
       -2   -1    0    0    0  501  0.00000000000E+00  0.00000000000E+00  0.12036436987E+03  0.12036436989E+03  0.25500000920E-02 0.  1.
        2   -1    0    0  501    0  0.00000000000E+00  0.00000000000E+00 -0.74610727215E+03  0.74610727216E+03  0.25500000920E-02 0. -1.
    10030    2    1    2    0    0  0.00000000000E+00  0.00000000000E+00 -0.62574290228E+03  0.86647164205E+03  0.59934875216E+03 0.  0.
        3    1    3    3  502    0 -0.11172593818E+03  0.76077086667E+02  0.73790959138E+02  0.15399845528E+03  0.10100000352E+00 0.  1.
       -3    1    3    3    0  502  0.11172593818E+03 -0.76077086667E+02 -0.69953386142E+03  0.71247318676E+03  0.10100000352E+00 0. -1.
</event>
<event>
 5   0  0.1332555E-02  0.5960265E+03  0.7818609E-02  0.9913684E-01
        1   -1    0    0  501    0  0.00000000000E+00  0.00000000000E+00  0.81947700272E+03  0.81947700274E+03  0.50400001928E-02 0. -1.
       -1   -1    0    0    0  501  0.00000000000E+00  0.00000000000E+00 -0.10837630315E+03  0.10837630327E+03  0.50400001928E-02 0.  1.
    10030    2    1    2    0    0  0.00000000000E+00  0.00000000000E+00  0.71110069957E+03  0.92785330601E+03  0.59602646967E+03 0.  0.
        2    1    3    3  502    0 -0.79185199517E+02  0.87206482063E+02  0.78169871588E+03  0.79052397102E+03  0.25500000920E-02 0. -1.
       -2    1    3    3    0  502  0.79185199517E+02 -0.87206482063E+02 -0.70598016311E+02  0.13732933499E+03  0.25500000920E-02 0.  1.
</event>
<event>
 5   0  0.2142838E-02  0.5944718E+03  0.7818609E-02  0.9916942E-01
       -2   -1    0    0    0  501  0.00000000000E+00  0.00000000000E+00  0.59593462828E+02  0.59593462883E+02  0.25500000920E-02 0.  1.
        2   -1    0    0  501    0  0.00000000000E+00  0.00000000000E+00 -0.14825313765E+04  0.14825313765E+04  0.25500000920E-02 0. -1.
    10030    2    1    2    0    0  0.00000000000E+00  0.00000000000E+00 -0.14229379136E+04  0.15421248394E+04  0.59447179418E+03 0.  0.
        4    1    3    3  502    0 -0.18296980434E+03 -0.23417457041E+03 -0.72611749749E+03  0.78457881171E+03  0.12699999809E+01 0. -1.
       -4    1    3    3    0  502  0.18296980434E+03  0.23417457041E+03 -0.69682041615E+03  0.75754602764E+03  0.12699999809E+01 0.  1.
</event>
<event>
 5   0  0.1250390E-02  0.6025236E+03  0.7818609E-02  0.9900184E-01
       -1   -1    0    0    0  501  0.00000000000E+00  0.00000000000E+00  0.11807988407E+03  0.11807988418E+03  0.50400001928E-02 0. -1.
        1   -1    0    0  501    0  0.00000000000E+00  0.00000000000E+00 -0.76862097945E+03  0.76862097947E+03  0.50400001928E-02 0.  1.
    10030    2    1    2    0    0  0.00000000000E+00  0.00000000000E+00 -0.65054109539E+03  0.88670086365E+03  0.60252361348E+03 0.  0.
        3    1    3    3  502    0 -0.21938040265E+02 -0.81048600415E+02 -0.75105311124E+03  0.75573205525E+03  0.10100000352E+00 0.  1.
       -3    1    3    3    0  502  0.21938040265E+02  0.81048600415E+02  0.10051201585E+03  0.13096880839E+03  0.10100000352E+00 0. -1.
</event>
<event>
 5   0  0.1276705E-02  0.6106774E+03  0.7818609E-02  0.9883498E-01
       -1   -1    0    0    0  501  0.00000000000E+00  0.00000000000E+00  0.10570553003E+04  0.10570553003E+04  0.50400001928E-02 0. -1.
        1   -1    0    0  501    0  0.00000000000E+00  0.00000000000E+00 -0.88199461788E+02  0.88199461932E+02  0.50400001928E-02 0.  1.
    10030    2    1    2    0    0  0.00000000000E+00  0.00000000000E+00  0.96885583849E+03  0.11452547622E+04  0.61067735722E+03 0.  0.
        1    1    3    3  502    0 -0.15633900703E+03 -0.25971518079E+03  0.55302312087E+03  0.63065714338E+03  0.50400001928E-02 0.  1.
       -1    1    3    3    0  502  0.15633900703E+03  0.25971518079E+03  0.41583271762E+03  0.51459761884E+03  0.50400001928E-02 0. -1.
</event>
<event>
 5   0  0.2142838E-02  0.6027632E+03  0.7818609E-02  0.9899690E-01
       -2   -1    0    0    0  501  0.00000000000E+00  0.00000000000E+00  0.35739201980E+02  0.35739202071E+02  0.25500000920E-02 0.  1.
        2   -1    0    0  501    0  0.00000000000E+00  0.00000000000E+00 -0.25414912433E+04  0.25414912433E+04  0.25500000920E-02 0. -1.
    10030    2    1    2    0    0  0.00000000000E+00  0.00000000000E+00 -0.25057520413E+04  0.25772304454E+04  0.60276320058E+03 0.  0.
        4    1    3    3  502    0 -0.94187109407E+02 -0.20592984758E+03 -0.40255103414E+03  0.46187364256E+03  0.12699999809E+01 0.  1.
       -4    1    3    3    0  502  0.94187109407E+02  0.20592984758E+03 -0.21032010072E+04  0.21153568028E+04  0.12699999809E+01 0. -1.
</event>
<event>
 5   0  0.2126207E-02  0.5999988E+03  0.7818609E-02  0.9905409E-01
       -2   -1    0    0    0  501  0.00000000000E+00  0.00000000000E+00  0.15784627276E+03  0.15784627278E+03  0.25500000920E-02 0. -1.
        2   -1    0    0  501    0  0.00000000000E+00  0.00000000000E+00 -0.57017265516E+03  0.57017265517E+03  0.25500000920E-02 0.  1.
    10030    2    1    2    0    0  0.00000000000E+00  0.00000000000E+00 -0.41232638240E+03  0.72801892794E+03  0.59999876151E+03 0.  0.
        5    1    3    3  502    0  0.13293394617E+03  0.19809638345E+03 -0.42679571626E+03  0.48896859265E+03  0.46999998093E+01 0.  1.
       -5    1    3    3    0  502 -0.13293394617E+03 -0.19809638345E+03  0.14469333861E+02  0.23905033529E+03  0.46999998093E+01 0. -1.
</event>
<event>
 5   0  0.8551000E-03  0.6001223E+03  0.7818609E-02  0.9905152E-01
        4   -1    0    0  501    0  0.00000000000E+00  0.00000000000E+00  0.11399329419E+03  0.11400036851E+03  0.12699999809E+01 0.  1.
       -4   -1    0    0    0  501  0.00000000000E+00  0.00000000000E+00 -0.78980989503E+03  0.78981091609E+03  0.12699999809E+01 0. -1.
    10030    2    1    2    0    0  0.00000000000E+00  0.00000000000E+00 -0.67581660084E+03  0.90381128460E+03  0.60012228771E+03 0.  0.
        5    1    3    3  502    0 -0.12843826507E+03 -0.24221078878E+03 -0.52144909478E+03  0.58914658836E+03  0.46999998093E+01 0. -1.
       -5    1    3    3    0  502  0.12843826507E+03  0.24221078878E+03 -0.15436750606E+03  0.31466469624E+03  0.46999998093E+01 0.  1.
</event>
<event>
 5   0  0.1332555E-02  0.6011875E+03  0.7818609E-02  0.9902946E-01
       -1   -1    0    0    0  501  0.00000000000E+00  0.00000000000E+00  0.60589876462E+02  0.60589876672E+02  0.50400001928E-02 0.  1.
        1   -1    0    0  501    0  0.00000000000E+00  0.00000000000E+00 -0.14912819255E+04  0.14912819255E+04  0.50400001928E-02 0. -1.
    10030    2    1    2    0    0  0.00000000000E+00  0.00000000000E+00 -0.14306920490E+04  0.15518718022E+04  0.60118745098E+03 0.  0.
        2    1    3    3  502    0 -0.14650112203E+03  0.17698220132E+03 -0.21499579754E+03  0.31465611595E+03  0.25500000920E-02 0.  1.
       -2    1    3    3    0  502  0.14650112203E+03 -0.17698220132E+03 -0.12156962515E+04  0.12372156862E+04  0.25500000920E-02 0. -1.
</event>
<event>
 5   0  0.1276705E-02  0.5978462E+03  0.7818609E-02  0.9909885E-01
       -1   -1    0    0    0  501  0.00000000000E+00  0.00000000000E+00  0.41738631989E+03  0.41738631992E+03  0.50400001928E-02 0.  1.
        1   -1    0    0  501    0  0.00000000000E+00  0.00000000000E+00 -0.21408228458E+03  0.21408228464E+03  0.50400001928E-02 0. -1.
    10030    2    1    2    0    0  0.00000000000E+00  0.00000000000E+00  0.20330403530E+03  0.63146860456E+03  0.59784619074E+03 0.  0.
        1    1    3    3  502    0 -0.10709294401E+03 -0.12942201080E+03  0.36281464250E+03  0.39981673349E+03  0.50400001928E-02 0.  1.
       -1    1    3    3    0  502  0.10709294401E+03  0.12942201080E+03 -0.15951060720E+03  0.23165187107E+03  0.50400001928E-02 0. -1.
</event>
<event>
 5   0  0.1337051E-02  0.6024093E+03  0.7818609E-02  0.9900420E-01
        1   -1    0    0  501    0  0.00000000000E+00  0.00000000000E+00  0.42548707720E+03  0.42548707723E+03  0.50400001928E-02 0.  1.
       -1   -1    0    0    0  501  0.00000000000E+00  0.00000000000E+00 -0.21322440236E+03  0.21322440242E+03  0.50400001928E-02 0. -1.
    10030    2    1    2    0    0  0.00000000000E+00  0.00000000000E+00  0.21226267484E+03  0.63871147966E+03  0.60240925550E+03 0.  0.
        5    1    3    3  502    0 -0.13358629454E+03 -0.22878108723E+03 -0.45734469088E+02  0.26888625034E+03  0.46999998093E+01 0. -1.
       -5    1    3    3    0  502  0.13358629454E+03  0.22878108723E+03  0.25799714393E+03  0.36982522931E+03  0.46999998093E+01 0.  1.
</event>
<event>
 5   0  0.1250390E-02  0.6004126E+03  0.7818609E-02  0.9904550E-01
       -1   -1    0    0    0  501  0.00000000000E+00  0.00000000000E+00  0.62082301653E+03  0.62082301655E+03  0.50400001928E-02 0.  1.
        1   -1    0    0  501    0  0.00000000000E+00  0.00000000000E+00 -0.14516829922E+03  0.14516829931E+03  0.50400001928E-02 0. -1.
    10030    2    1    2    0    0  0.00000000000E+00  0.00000000000E+00  0.47565471731E+03  0.76599131585E+03  0.60041259636E+03 0.  0.
        3    1    3    3  502    0  0.26229754224E+03  0.88124645089E+02  0.38637630782E+03  0.47523953453E+03  0.10100000352E+00 0.  1.
       -3    1    3    3    0  502 -0.26229754224E+03 -0.88124645089E+02  0.89278409487E+02  0.29075178132E+03  0.10100000352E+00 0. -1.
</event>
<event>
 5   0  0.2179625E-02  0.5993962E+03  0.7818609E-02  0.9906660E-01
       -2   -1    0    0    0  501  0.00000000000E+00  0.00000000000E+00  0.59117146065E+02  0.59117146120E+02  0.25500000920E-02 0.  1.
        2   -1    0    0  501    0  0.00000000000E+00  0.00000000000E+00 -0.15193382508E+04  0.15193382508E+04  0.25500000920E-02 0. -1.
    10030    2    1    2    0    0  0.00000000000E+00  0.00000000000E+00 -0.14602211047E+04  0.15784553969E+04  0.59939616728E+03 0.  0.
        1    1    3    3  502    0 -0.76272045618E+02 -0.10929301356E+03 -0.14370058550E+04  0.14431729679E+04  0.50400001928E-02 0. -1.
       -1    1    3    3    0  502  0.76272045618E+02  0.10929301356E+03 -0.23215249657E+02  0.13528242901E+03  0.50400001928E-02 0.  1.
</event>
<event>
 5   0  0.1250390E-02  0.6000146E+03  0.7818609E-02  0.9905376E-01
        1   -1    0    0  501    0  0.00000000000E+00  0.00000000000E+00  0.81505039797E+03  0.81505039798E+03  0.50400001928E-02 0. -1.
       -1   -1    0    0    0  501  0.00000000000E+00  0.00000000000E+00 -0.11042799683E+03  0.11042799694E+03  0.50400001928E-02 0.  1.
    10030    2    1    2    0    0  0.00000000000E+00  0.00000000000E+00  0.70462240114E+03  0.92547839492E+03  0.60001460923E+03 0.  0.
        3    1    3    3  502    0 -0.12536603007E+03 -0.25386673043E+03  0.50531037372E+03  0.57922667610E+03  0.10100000352E+00 0. -1.
       -3    1    3    3    0  502  0.12536603007E+03  0.25386673043E+03  0.19931202742E+03  0.34625171883E+03  0.10100000352E+00 0.  1.
</event>
<event>
 5   0  0.1276705E-02  0.5997228E+03  0.7818609E-02  0.9905981E-01
       -1   -1    0    0    0  501  0.00000000000E+00  0.00000000000E+00  0.16956037167E+03  0.16956037174E+03  0.50400001928E-02 0. -1.
        1   -1    0    0  501    0  0.00000000000E+00  0.00000000000E+00 -0.53029403832E+03  0.53029403834E+03  0.50400001928E-02 0.  1.
    10030    2    1    2    0    0  0.00000000000E+00  0.00000000000E+00 -0.36073366665E+03  0.69985441008E+03  0.59972278351E+03 0.  0.
        1    1    3    3  502    0  0.17145017687E+03 -0.95860468411E+02 -0.44476181112E+03  0.48620722044E+03  0.50400001928E-02 0.  1.
       -1    1    3    3    0  502 -0.17145017687E+03  0.95860468411E+02  0.84028144470E+02  0.21364718964E+03  0.50400001928E-02 0. -1.
</event>
<event>
 5   0  0.1276705E-02  0.6013237E+03  0.7818609E-02  0.9902664E-01
        1   -1    0    0  501    0  0.00000000000E+00  0.00000000000E+00  0.58436964115E+02  0.58436964332E+02  0.50400001928E-02 0.  1.
       -1   -1    0    0    0  501  0.00000000000E+00  0.00000000000E+00 -0.15469241302E+04  0.15469241302E+04  0.50400001928E-02 0. -1.
    10030    2    1    2    0    0  0.00000000000E+00  0.00000000000E+00 -0.14884871661E+04  0.16053610946E+04  0.60132370673E+03 0.  0.
        1    1    3    3  502    0 -0.29816307088E+03 -0.28382380983E+02 -0.81441048336E+03  0.86773913812E+03  0.50400001928E-02 0. -1.
       -1    1    3    3    0  502  0.29816307088E+03  0.28382380983E+02 -0.67407668276E+03  0.73762195646E+03  0.50400001928E-02 0.  1.
</event>
<event>
 5   0  0.1332555E-02  0.5987316E+03  0.7818609E-02  0.9908041E-01
       -1   -1    0    0    0  501  0.00000000000E+00  0.00000000000E+00  0.18512500255E+03  0.18512500261E+03  0.50400001928E-02 0.  1.
        1   -1    0    0  501    0  0.00000000000E+00  0.00000000000E+00 -0.48410475983E+03  0.48410475986E+03  0.50400001928E-02 0. -1.
    10030    2    1    2    0    0  0.00000000000E+00  0.00000000000E+00 -0.29897975728E+03  0.66922976247E+03  0.59873164248E+03 0.  0.
        2    1    3    3  502    0  0.20890329113E+03 -0.20953200201E+03 -0.20041359599E+03  0.35736515551E+03  0.25500000920E-02 0. -1.
       -2    1    3    3    0  502 -0.20890329113E+03  0.20953200201E+03 -0.98566161298E+02  0.31186460696E+03  0.25500000920E-02 0.  1.
</event>
<event>
 5   0  0.1250390E-02  0.6035953E+03  0.7818609E-02  0.9897975E-01
        1   -1    0    0  501    0  0.00000000000E+00  0.00000000000E+00  0.17073080116E+03  0.17073080124E+03  0.50400001928E-02 0. -1.
       -1   -1    0    0    0  501  0.00000000000E+00  0.00000000000E+00 -0.53348212891E+03  0.53348212893E+03  0.50400001928E-02 0.  1.
    10030    2    1    2    0    0  0.00000000000E+00  0.00000000000E+00 -0.36275132775E+03  0.70421293017E+03  0.60359533235E+03 0.  0.
        3    1    3    3  502    0 -0.22425546706E+03  0.68776341244E+02  0.40177387994E+02  0.23798094951E+03  0.10100000352E+00 0. -1.
       -3    1    3    3    0  502  0.22425546706E+03 -0.68776341244E+02 -0.40292871574E+03  0.46623198066E+03  0.10100000352E+00 0.  1.
</event>
<event>
 5   0  0.2179625E-02  0.6024186E+03  0.7818609E-02  0.9900401E-01
        2   -1    0    0  501    0  0.00000000000E+00  0.00000000000E+00  0.57158395371E+03  0.57158395372E+03  0.25500000920E-02 0. -1.
       -2   -1    0    0    0  501  0.00000000000E+00  0.00000000000E+00 -0.15872913802E+03  0.15872913804E+03  0.25500000920E-02 0.  1.
    10030    2    1    2    0    0  0.00000000000E+00  0.00000000000E+00  0.41285481569E+03  0.73031309176E+03  0.60241855313E+03 0.  0.
        1    1    3    3  502    0  0.18572852030E+03  0.77419412042E+02 -0.65296401615E+02  0.21154779295E+03  0.50400001928E-02 0.  1.
       -1    1    3    3    0  502 -0.18572852030E+03 -0.77419412042E+02  0.47815121731E+03  0.51876529881E+03  0.50400001928E-02 0. -1.
</event>
<event>
 5   0  0.2092587E-02  0.6003558E+03  0.7818609E-02  0.9904668E-01
        2   -1    0    0  501    0  0.00000000000E+00  0.00000000000E+00  0.99520858169E+02  0.99520858201E+02  0.25500000920E-02 0.  1.
       -2   -1    0    0    0  501  0.00000000000E+00  0.00000000000E+00 -0.90540575562E+03  0.90540575562E+03  0.25500000920E-02 0. -1.
    10030    2    1    2    0    0  0.00000000000E+00  0.00000000000E+00 -0.80588489745E+03  0.10049266138E+04  0.60035575389E+03 0.  0.
        3    1    3    3  502    0 -0.11534446596E+02 -0.22120902764E+03 -0.63840116633E+02  0.23052559090E+03  0.10100000352E+00 0.  1.
       -3    1    3    3    0  502  0.11534446596E+02  0.22120902764E+03 -0.74204478082E+03  0.77440102292E+03  0.10100000352E+00 0. -1.
</event>
<event>
 5   0  0.1250390E-02  0.6030204E+03  0.7818609E-02  0.9899159E-01
        1   -1    0    0  501    0  0.00000000000E+00  0.00000000000E+00  0.46355804388E+03  0.46355804391E+03  0.50400001928E-02 0.  1.
       -1   -1    0    0    0  501  0.00000000000E+00  0.00000000000E+00 -0.19611010172E+03  0.19611010178E+03  0.50400001928E-02 0. -1.
    10030    2    1    2    0    0  0.00000000000E+00  0.00000000000E+00  0.26744794217E+03  0.65966814569E+03  0.60302044797E+03 0.  0.
        3    1    3    3  502    0 -0.28891261820E+03  0.51014387213E+02  0.20979360176E+03  0.36067483167E+03  0.10100000352E+00 0.  1.
       -3    1    3    3    0  502  0.28891261820E+03 -0.51014387213E+02  0.57654340409E+02  0.29899331402E+03  0.10100000352E+00 0. -1.
</event>
<event>
 5   0  0.8551000E-03  0.6002221E+03  0.7818609E-02  0.9904945E-01
       -4   -1    0    0    0  501  0.00000000000E+00  0.00000000000E+00  0.33780791273E+03  0.33781030003E+03  0.12699999809E+01 0. -1.
        4   -1    0    0  501    0  0.00000000000E+00  0.00000000000E+00 -0.26661601416E+03  0.26661903891E+03  0.12699999809E+01 0.  1.
    10030    2    1    2    0    0  0.00000000000E+00  0.00000000000E+00  0.71191898566E+02  0.60442933894E+03  0.60022207502E+03 0.  0.
        2    1    3    3  502    0  0.38573739981E+02 -0.78475163647E+02  0.32469775241E+03  0.33626613739E+03  0.25500000920E-02 0. -1.
       -2    1    3    3    0  502 -0.38573739981E+02  0.78475163647E+02 -0.25350585384E+03  0.26816320155E+03  0.25500000920E-02 0.  1.
</event>
<event>
 5   0  0.1332555E-02  0.5994055E+03  0.7818609E-02  0.9906640E-01
       -1   -1    0    0    0  501  0.00000000000E+00  0.00000000000E+00  0.81076925459E+02  0.81076925615E+02  0.50400001928E-02 0. -1.
        1   -1    0    0  501    0  0.00000000000E+00  0.00000000000E+00 -0.11078580364E+04  0.11078580364E+04  0.50400001928E-02 0.  1.
    10030    2    1    2    0    0  0.00000000000E+00  0.00000000000E+00 -0.10267811110E+04  0.11889349620E+04  0.59940545055E+03 0.  0.
        2    1    3    3  502    0  0.27308991314E+03 -0.25035831604E+02 -0.75319874400E+03  0.80156923687E+03  0.25500000920E-02 0.  1.
       -2    1    3    3    0  502 -0.27308991314E+03  0.25035831604E+02 -0.27358236696E+03  0.38736572517E+03  0.25500000920E-02 0. -1.
</event>
<event>
 5   0  0.1332555E-02  0.5996019E+03  0.7818609E-02  0.9906232E-01
       -1   -1    0    0    0  501  0.00000000000E+00  0.00000000000E+00  0.24856765981E+03  0.24856765986E+03  0.50400001928E-02 0. -1.
        1   -1    0    0  501    0  0.00000000000E+00  0.00000000000E+00 -0.36159408302E+03  0.36159408306E+03  0.50400001928E-02 0.  1.
    10030    2    1    2    0    0  0.00000000000E+00  0.00000000000E+00 -0.11302642321E+03  0.61016174292E+03  0.59960185138E+03 0.  0.
        2    1    3    3  502    0  0.10996875677E+03 -0.23969150710E+03  0.88600647496E+02  0.27819996547E+03  0.25500000920E-02 0. -1.
       -2    1    3    3    0  502 -0.10996875677E+03  0.23969150710E+03 -0.20162707071E+03  0.33196177745E+03  0.25500000920E-02 0.  1.
</event>
<event>
 5   0  0.1276705E-02  0.5955793E+03  0.7818609E-02  0.9914620E-01
       -1   -1    0    0    0  501  0.00000000000E+00  0.00000000000E+00  0.13692389211E+03  0.13692389220E+03  0.50400001928E-02 0. -1.
        1   -1    0    0  501    0  0.00000000000E+00  0.00000000000E+00 -0.64764939812E+03  0.64764939814E+03  0.50400001928E-02 0.  1.
    10030    2    1    2    0    0  0.00000000000E+00  0.00000000000E+00 -0.51072550601E+03  0.78457329035E+03  0.59557930239E+03 0.  0.
        1    1    3    3  502    0 -0.21241207008E+03  0.27958688439E+02  0.17098450686E+02  0.21492541221E+03  0.50400001928E-02 0. -1.
       -1    1    3    3    0  502  0.21241207008E+03 -0.27958688439E+02 -0.52782395670E+03  0.56964787814E+03  0.50400001928E-02 0.  1.
</event>
<event>
 5   0  0.1250390E-02  0.6001818E+03  0.7818609E-02  0.9905029E-01
       -1   -1    0    0    0  501  0.00000000000E+00  0.00000000000E+00  0.29526066715E+03  0.29526066719E+03  0.50400001928E-02 0.  1.
        1   -1    0    0  501    0  0.00000000000E+00  0.00000000000E+00 -0.30500020204E+03  0.30500020208E+03  0.50400001928E-02 0. -1.
    10030    2    1    2    0    0  0.00000000000E+00  0.00000000000E+00 -0.97395348912E+01  0.60026086927E+03  0.60018184964E+03 0.  0.
        3    1    3    3  502    0  0.10701641799E+02  0.26448100252E+03 -0.14627376730E+03  0.30242478574E+03  0.10100000352E+00 0. -1.
       -3    1    3    3    0  502 -0.10701641799E+02 -0.26448100252E+03  0.13653423241E+03  0.29783608353E+03  0.10100000352E+00 0.  1.
</event>
<event>
 5   0  0.2126207E-02  0.6002229E+03  0.7818609E-02  0.9904944E-01
        2   -1    0    0  501    0  0.00000000000E+00  0.00000000000E+00  0.82842802327E+03  0.82842802328E+03  0.25500000920E-02 0. -1.
       -2   -1    0    0    0  501  0.00000000000E+00  0.00000000000E+00 -0.10872020853E+03  0.10872020856E+03  0.25500000920E-02 0.  1.
    10030    2    1    2    0    0  0.00000000000E+00  0.00000000000E+00  0.71970781475E+03  0.93714823184E+03  0.60022285014E+03 0.  0.
        5    1    3    3  502    0  0.15371787024E+03  0.21907566060E+03  0.14794087962E+03  0.30582989154E+03  0.46999998093E+01 0. -1.
       -5    1    3    3    0  502 -0.15371787024E+03 -0.21907566060E+03  0.57176693512E+03  0.63131834030E+03  0.46999998093E+01 0.  1.
</event>
<event>
 5   0  0.2142838E-02  0.6011092E+03  0.7818609E-02  0.9903107E-01
        2   -1    0    0  501    0  0.00000000000E+00  0.00000000000E+00  0.21997491641E+03  0.21997491642E+03  0.25500000920E-02 0. -1.
       -2   -1    0    0    0  501  0.00000000000E+00  0.00000000000E+00 -0.41065170989E+03  0.41065170990E+03  0.25500000920E-02 0.  1.
    10030    2    1    2    0    0  0.00000000000E+00  0.00000000000E+00 -0.19067679348E+03  0.63062662632E+03  0.60110922656E+03 0.  0.
        4    1    3    3  502    0  0.22602502180E+03  0.19642926254E+03 -0.12228420193E+03  0.32346066933E+03  0.12699999809E+01 0. -1.
       -4    1    3    3    0  502 -0.22602502180E+03 -0.19642926254E+03 -0.68392591552E+02  0.30716595700E+03  0.12699999809E+01 0.  1.
</event>
<event>
 5   0  0.1337051E-02  0.6011062E+03  0.7818609E-02  0.9903114E-01
        1   -1    0    0  501    0  0.00000000000E+00  0.00000000000E+00  0.18566745755E+04  0.18566745755E+04  0.50400001928E-02 0.  1.
       -1   -1    0    0    0  501  0.00000000000E+00  0.00000000000E+00 -0.48652665355E+02  0.48652665616E+02  0.50400001928E-02 0. -1.
    10030    2    1    2    0    0  0.00000000000E+00  0.00000000000E+00  0.18080219101E+04  0.19053272411E+04  0.60110620375E+03 0.  0.
        5    1    3    3  502    0  0.21161975231E+03 -0.13478065252E+03  0.37970233981E+03  0.45513152024E+03  0.46999998093E+01 0. -1.
       -5    1    3    3    0  502 -0.21161975231E+03  0.13478065252E+03  0.14283195703E+04  0.14501957209E+04  0.46999998093E+01 0.  1.
</event>
<event>
 5   0  0.1337051E-02  0.6082346E+03  0.7818609E-02  0.9888468E-01
       -1   -1    0    0    0  501  0.00000000000E+00  0.00000000000E+00  0.22477601590E+03  0.22477601595E+03  0.50400001928E-02 0.  1.
        1   -1    0    0  501    0  0.00000000000E+00  0.00000000000E+00 -0.41146437244E+03  0.41146437247E+03  0.50400001928E-02 0. -1.
    10030    2    1    2    0    0  0.00000000000E+00  0.00000000000E+00 -0.18668835654E+03  0.63624038843E+03  0.60823456774E+03 0.  0.
        5    1    3    3  502    0 -0.17173295284E+03  0.87672924208E+01 -0.35568278093E+03  0.39509670102E+03  0.46999998093E+01 0. -1.
       -5    1    3    3    0  502  0.17173295284E+03 -0.87672924208E+01  0.16899442438E+03  0.24114368741E+03  0.46999998093E+01 0.  1.
</event>
<event>
 5   0  0.2179625E-02  0.6003661E+03  0.7818609E-02  0.9904647E-01
        2   -1    0    0  501    0  0.00000000000E+00  0.00000000000E+00  0.11352481083E+04  0.11352481083E+04  0.25500000920E-02 0. -1.
       -2   -1    0    0    0  501  0.00000000000E+00  0.00000000000E+00 -0.79374597177E+02  0.79374597218E+02  0.25500000920E-02 0.  1.
    10030    2    1    2    0    0  0.00000000000E+00  0.00000000000E+00  0.10558735111E+04  0.12146227055E+04  0.60036609272E+03 0.  0.
        1    1    3    3  502    0 -0.25383693194E+03  0.72624164649E+02  0.23895800406E+03  0.35610164987E+03  0.50400001928E-02 0.  1.
       -1    1    3    3    0  502  0.25383693194E+03 -0.72624164649E+02  0.81691550708E+03  0.85852105568E+03  0.50400001928E-02 0. -1.
</event>
<event>
 5   0  0.2142838E-02  0.6012125E+03  0.7818609E-02  0.9902894E-01
        2   -1    0    0  501    0  0.00000000000E+00  0.00000000000E+00  0.71207739398E+03  0.71207739399E+03  0.25500000920E-02 0.  1.
       -2   -1    0    0    0  501  0.00000000000E+00  0.00000000000E+00 -0.12690211230E+03  0.12690211232E+03  0.25500000920E-02 0. -1.
    10030    2    1    2    0    0  0.00000000000E+00  0.00000000000E+00  0.58517528168E+03  0.83897950631E+03  0.60121252625E+03 0.  0.
        4    1    3    3  502    0 -0.10398980250E+03  0.24243550163E+03  0.91456251938E+02  0.27920370770E+03  0.12699999809E+01 0. -1.
       -4    1    3    3    0  502  0.10398980250E+03 -0.24243550163E+03  0.49371902975E+03  0.55977579861E+03  0.12699999809E+01 0.  1.
</event>
<event>
 5   0  0.2142838E-02  0.6092832E+03  0.7818609E-02  0.9886331E-01
        2   -1    0    0  501    0  0.00000000000E+00  0.00000000000E+00  0.69976127903E+03  0.69976127904E+03  0.25500000920E-02 0.  1.
       -2   -1    0    0    0  501  0.00000000000E+00  0.00000000000E+00 -0.13262594783E+03  0.13262594785E+03  0.25500000920E-02 0. -1.
    10030    2    1    2    0    0  0.00000000000E+00  0.00000000000E+00  0.56713533120E+03  0.83238722689E+03  0.60928319490E+03 0.  0.
        4    1    3    3  502    0 -0.22818355935E+03  0.36095271111E+02  0.55486354097E+03  0.60103724290E+03  0.12699999809E+01 0.  1.
       -4    1    3    3    0  502  0.22818355935E+03 -0.36095271111E+02  0.12271790232E+02  0.23134998399E+03  0.12699999809E+01 0. -1.
</event>
<event>
 5   0  0.1303808E-02  0.5964700E+03  0.7818609E-02  0.9912757E-01
       -1   -1    0    0    0  501  0.00000000000E+00  0.00000000000E+00  0.27821860643E+03  0.27821860648E+03  0.50400001928E-02 0.  1.
        1   -1    0    0  501    0  0.00000000000E+00  0.00000000000E+00 -0.31969142997E+03  0.31969143001E+03  0.50400001928E-02 0. -1.
    10030    2    1    2    0    0  0.00000000000E+00  0.00000000000E+00 -0.41472823541E+02  0.59791003649E+03  0.59646996290E+03 0.  0.
        4    1    3    3  502    0 -0.13052068588E+03 -0.20475842489E+03 -0.19430418260E+03  0.31099419654E+03  0.12699999809E+01 0. -1.
       -4    1    3    3    0  502  0.13052068588E+03  0.20475842489E+03  0.15283135906E+03  0.28691583995E+03  0.12699999809E+01 0.  1.
</event>
<event>
 5   0  0.1250390E-02  0.6062353E+03  0.7818609E-02  0.9892554E-01
        1   -1    0    0  501    0  0.00000000000E+00  0.00000000000E+00  0.18649336557E+03  0.18649336564E+03  0.50400001928E-02 0. -1.
       -1   -1    0    0    0  501  0.00000000000E+00  0.00000000000E+00 -0.49267331285E+03  0.49267331287E+03  0.50400001928E-02 0.  1.
    10030    2    1    2    0    0  0.00000000000E+00  0.00000000000E+00 -0.30617994728E+03  0.67916667851E+03  0.60623528195E+03 0.  0.
        3    1    3    3  502    0 -0.29398995736E+03  0.73818905721E+02 -0.15419231876E+03  0.34008029528E+03  0.10100000352E+00 0.  1.
       -3    1    3    3    0  502  0.29398995736E+03 -0.73818905721E+02 -0.15198762852E+03  0.33908638323E+03  0.10100000352E+00 0. -1.
</event>
<event>
 5   0  0.1276705E-02  0.5965828E+03  0.7818609E-02  0.9912521E-01
        1   -1    0    0  501    0  0.00000000000E+00  0.00000000000E+00  0.19708112839E+04  0.19708112839E+04  0.50400001928E-02 0. -1.
       -1   -1    0    0    0  501  0.00000000000E+00  0.00000000000E+00 -0.45147787728E+02  0.45147788010E+02  0.50400001928E-02 0.  1.
    10030    2    1    2    0    0  0.00000000000E+00  0.00000000000E+00  0.19256634962E+04  0.20159590720E+04  0.59658283512E+03 0.  0.
        1    1    3    3  502    0  0.23914392573E+03  0.13408724312E+03  0.13599183303E+04  0.13872804587E+04  0.50400001928E-02 0. -1.
       -1    1    3    3    0  502 -0.23914392573E+03 -0.13408724312E+03  0.56574516589E+03  0.62867861323E+03  0.50400001928E-02 0.  1.
</event>
<event>
 5   0  0.2142838E-02  0.6010862E+03  0.7818609E-02  0.9903155E-01
        2   -1    0    0  501    0  0.00000000000E+00  0.00000000000E+00  0.20858737954E+04  0.20858737954E+04  0.25500000920E-02 0.  1.
       -2   -1    0    0    0  501  0.00000000000E+00  0.00000000000E+00 -0.43303744053E+02  0.43303744128E+02  0.25500000920E-02 0. -1.
    10030    2    1    2    0    0  0.00000000000E+00  0.00000000000E+00  0.20425700513E+04  0.21291775395E+04  0.60108616701E+03 0.  0.
        4    1    3    3  502    0 -0.14215463979E+03 -0.13462055163E+03  0.21358270634E+03  0.28974095306E+03  0.12699999809E+01 0. -1.
       -4    1    3    3    0  502  0.14215463979E+03  0.13462055163E+03  0.18289873450E+04  0.18394365864E+04  0.12699999809E+01 0.  1.
</event>
<event>
 5   0  0.1303808E-02  0.5916130E+03  0.7818609E-02  0.9922961E-01
       -1   -1    0    0    0  501  0.00000000000E+00  0.00000000000E+00  0.20644867734E+03  0.20644867741E+03  0.50400001928E-02 0. -1.
        1   -1    0    0  501    0  0.00000000000E+00  0.00000000000E+00 -0.42384136356E+03  0.42384136359E+03  0.50400001928E-02 0.  1.
    10030    2    1    2    0    0  0.00000000000E+00  0.00000000000E+00 -0.21739268621E+03  0.63029004099E+03  0.59161301182E+03 0.  0.
        4    1    3    3  502    0 -0.18785691250E+03 -0.11498495284E+03 -0.31905910234E+03  0.38770102223E+03  0.12699999809E+01 0.  1.
       -4    1    3    3    0  502  0.18785691250E+03  0.11498495284E+03  0.10166641613E+03  0.24258901876E+03  0.12699999809E+01 0. -1.
</event>
<event>
 5   0  0.8551000E-03  0.6010635E+03  0.7818609E-02  0.9903202E-01
        3   -1    0    0  501    0  0.00000000000E+00  0.00000000000E+00  0.32713015225E+03  0.32713016785E+03  0.10100000352E+00 0. -1.
       -3   -1    0    0    0  501  0.00000000000E+00  0.00000000000E+00 -0.27609601778E+03  0.27609603625E+03  0.10100000352E+00 0.  1.
    10030    2    1    2    0    0  0.00000000000E+00  0.00000000000E+00  0.51034134476E+02  0.60322620410E+03  0.60106353277E+03 0.  0.
        3    1    3    3  502    0  0.25069570499E+03  0.13960228767E+03  0.11518167342E+03  0.30919890575E+03  0.10100000352E+00 0.  1.
       -3    1    3    3    0  502 -0.25069570499E+03 -0.13960228767E+03 -0.64147538947E+02  0.29402729835E+03  0.10100000352E+00 0. -1.
</event>
<event>
 5   0  0.2092587E-02  0.6079646E+03  0.7818609E-02  0.9889018E-01
       -2   -1    0    0    0  501  0.00000000000E+00  0.00000000000E+00  0.12766869376E+03  0.12766869379E+03  0.25500000920E-02 0. -1.
        2   -1    0    0  501    0  0.00000000000E+00  0.00000000000E+00 -0.72378928411E+03  0.72378928411E+03  0.25500000920E-02 0.  1.
    10030    2    1    2    0    0  0.00000000000E+00  0.00000000000E+00 -0.59612059035E+03  0.85145797790E+03  0.60796457947E+03 0.  0.
        3    1    3    3  502    0  0.75959840105E+02 -0.47797353841E+02  0.10869141215E+03  0.14095501984E+03  0.10100000352E+00 0. -1.
       -3    1    3    3    0  502 -0.75959840105E+02  0.47797353841E+02 -0.70481200249E+03  0.71050295805E+03  0.10100000352E+00 0.  1.
</event>
<event>
 5   0  0.1250390E-02  0.5989696E+03  0.7818609E-02  0.9907546E-01
        1   -1    0    0  501    0  0.00000000000E+00  0.00000000000E+00  0.10693112274E+04  0.10693112274E+04  0.50400001928E-02 0. -1.
       -1   -1    0    0    0  501  0.00000000000E+00  0.00000000000E+00 -0.83877503303E+02  0.83877503454E+02  0.50400001928E-02 0.  1.
    10030    2    1    2    0    0  0.00000000000E+00  0.00000000000E+00  0.98543372410E+03  0.11531887309E+04  0.59896963563E+03 0.  0.
        3    1    3    3  502    0  0.11869681644E+03  0.22696100121E+03  0.19388820979E+03  0.32123648360E+03  0.10100000352E+00 0.  1.
       -3    1    3    3    0  502 -0.11869681644E+03 -0.22696100121E+03  0.79154551431E+03  0.83195224726E+03  0.10100000352E+00 0. -1.
</event>
<event>
 5   0  0.2092587E-02  0.5984857E+03  0.7818609E-02  0.9908553E-01
       -2   -1    0    0    0  501  0.00000000000E+00  0.00000000000E+00  0.14872105212E+03  0.14872105214E+03  0.25500000920E-02 0.  1.
        2   -1    0    0  501    0  0.00000000000E+00  0.00000000000E+00 -0.60210899169E+03  0.60210899170E+03  0.25500000920E-02 0. -1.
    10030    2    1    2    0    0  0.00000000000E+00  0.00000000000E+00 -0.45338793957E+03  0.75083004384E+03  0.59848569822E+03 0.  0.
        3    1    3    3  502    0 -0.25635787445E+03  0.15229206510E+03 -0.25828371164E+03  0.39449045462E+03  0.10100000352E+00 0. -1.
       -3    1    3    3    0  502  0.25635787445E+03 -0.15229206510E+03 -0.19510422793E+03  0.35633958922E+03  0.10100000352E+00 0.  1.
</event>
<event>
 5   0  0.2179625E-02  0.6000875E+03  0.7818609E-02  0.9905225E-01
       -2   -1    0    0    0  501  0.00000000000E+00  0.00000000000E+00  0.86516088284E+02  0.86516088321E+02  0.25500000920E-02 0.  1.
        2   -1    0    0  501    0  0.00000000000E+00  0.00000000000E+00 -0.10405724001E+04  0.10405724001E+04  0.25500000920E-02 0. -1.
    10030    2    1    2    0    0  0.00000000000E+00  0.00000000000E+00 -0.95405631178E+03  0.11270884884E+04  0.60008750579E+03 0.  0.
        1    1    3    3  502    0  0.22271418928E+03  0.19828794620E+03 -0.41455034645E+03  0.51065811409E+03  0.50400001928E-02 0.  1.
       -1    1    3    3    0  502 -0.22271418928E+03 -0.19828794620E+03 -0.53950596533E+03  0.61643037430E+03  0.50400001928E-02 0. -1.
</event>
<event>
 5   0  0.1337051E-02  0.5995461E+03  0.7818609E-02  0.9906348E-01
        1   -1    0    0  501    0  0.00000000000E+00  0.00000000000E+00  0.15907210427E+04  0.15907210427E+04  0.50400001928E-02 0. -1.
       -1   -1    0    0    0  501  0.00000000000E+00  0.00000000000E+00 -0.56492547280E+02  0.56492547505E+02  0.50400001928E-02 0.  1.
    10030    2    1    2    0    0  0.00000000000E+00  0.00000000000E+00  0.15342284954E+04  0.16472135902E+04  0.59954610800E+03 0.  0.
        5    1    3    3  502    0  0.26772184298E+03  0.10317049732E+03  0.10054081691E+04  0.10455557437E+04  0.46999998093E+01 0. -1.
       -5    1    3    3    0  502 -0.26772184298E+03 -0.10317049732E+03  0.52882032630E+03  0.60165784648E+03  0.46999998093E+01 0.  1.
</event>
<event>
 5   0  0.1332555E-02  0.6064913E+03  0.7818609E-02  0.9892030E-01
        1   -1    0    0  501    0  0.00000000000E+00  0.00000000000E+00  0.64046797618E+03  0.64046797620E+03  0.50400001928E-02 0. -1.
       -1   -1    0    0    0  501  0.00000000000E+00  0.00000000000E+00 -0.14357925587E+03  0.14357925596E+03  0.50400001928E-02 0.  1.
    10030    2    1    2    0    0  0.00000000000E+00  0.00000000000E+00  0.49688872031E+03  0.78404723215E+03  0.60649127106E+03 0.  0.
        2    1    3    3  502    0 -0.33207480184E+02 -0.45816637758E+02  0.63358253449E+03  0.63610433818E+03  0.25500000920E-02 0. -1.
       -2    1    3    3    0  502  0.33207480184E+02  0.45816637758E+02 -0.13669381418E+03  0.14794289397E+03  0.25500000920E-02 0.  1.
</event>
<event>
 5   0  0.2141800E-02  0.5847598E+03  0.7818609E-02  0.9937539E-01
       -2   -1    0    0    0  501  0.00000000000E+00  0.00000000000E+00  0.11373607949E+03  0.11373607951E+03  0.25500000920E-02 0.  1.
        2   -1    0    0  501    0  0.00000000000E+00  0.00000000000E+00 -0.75161730207E+03  0.75161730208E+03  0.25500000920E-02 0. -1.
    10030    2    1    2    0    0  0.00000000000E+00  0.00000000000E+00 -0.63788122259E+03  0.86535338159E+03  0.58475979761E+03 0.  0.
        2    1    3    3  502    0  0.26460245393E+03 -0.61309028580E+02 -0.47909742411E+03  0.55073369009E+03  0.25500000920E-02 0. -1.
       -2    1    3    3    0  502 -0.26460245393E+03  0.61309028580E+02 -0.15878379848E+03  0.31461969150E+03  0.25500000920E-02 0.  1.
</event>
<event>
 5   0  0.2141800E-02  0.6003229E+03  0.7818609E-02  0.9904736E-01
       -2   -1    0    0    0  501  0.00000000000E+00  0.00000000000E+00  0.41261604114E+03  0.41261604115E+03  0.25500000920E-02 0.  1.
        2   -1    0    0  501    0  0.00000000000E+00  0.00000000000E+00 -0.21835532092E+03  0.21835532093E+03  0.25500000920E-02 0. -1.
    10030    2    1    2    0    0  0.00000000000E+00  0.00000000000E+00  0.19426072022E+03  0.63097136208E+03  0.60032294005E+03 0.  0.
        2    1    3    3  502    0 -0.14611993404E+03  0.24401927979E+03 -0.36856661379E+01  0.28444688111E+03  0.25500000920E-02 0. -1.
       -2    1    3    3    0  502  0.14611993404E+03 -0.24401927979E+03  0.19794638636E+03  0.34652448097E+03  0.25500000920E-02 0.  1.
</event>
<event>
 5   0  0.1276705E-02  0.6000765E+03  0.7818609E-02  0.9905247E-01
        1   -1    0    0  501    0  0.00000000000E+00  0.00000000000E+00  0.34330594534E+03  0.34330594538E+03  0.50400001928E-02 0. -1.
       -1   -1    0    0    0  501  0.00000000000E+00  0.00000000000E+00 -0.26222368487E+03  0.26222368492E+03  0.50400001928E-02 0.  1.
    10030    2    1    2    0    0  0.00000000000E+00  0.00000000000E+00  0.81082260473E+02  0.60552963030E+03  0.60007649530E+03 0.  0.
        1    1    3    3  502    0  0.22135921974E+03 -0.19551500640E+03 -0.12825457770E+02  0.29561886659E+03  0.50400001928E-02 0. -1.
       -1    1    3    3    0  502 -0.22135921974E+03  0.19551500640E+03  0.93907718243E+02  0.30991076371E+03  0.50400001928E-02 0.  1.
</event>
<event>
 5   0  0.1332555E-02  0.6008501E+03  0.7818609E-02  0.9903644E-01
        1   -1    0    0  501    0  0.00000000000E+00  0.00000000000E+00  0.26641274175E+03  0.26641274179E+03  0.50400001928E-02 0. -1.
       -1   -1    0    0    0  501  0.00000000000E+00  0.00000000000E+00 -0.33877968806E+03  0.33877968809E+03  0.50400001928E-02 0.  1.
    10030    2    1    2    0    0  0.00000000000E+00  0.00000000000E+00 -0.72366946310E+02  0.60519242989E+03  0.60085014960E+03 0.  0.
        2    1    3    3  502    0  0.33746400886E+02  0.12244237000E+03 -0.31040878176E+03  0.33538718721E+03  0.25500000920E-02 0.  1.
       -2    1    3    3    0  502 -0.33746400886E+02 -0.12244237000E+03  0.23804183545E+03  0.26980524268E+03  0.25500000920E-02 0. -1.
</event>
<event>
 5   0  0.2179625E-02  0.6009177E+03  0.7818609E-02  0.9903504E-01
        2   -1    0    0  501    0  0.00000000000E+00  0.00000000000E+00  0.69114689631E+03  0.69114689631E+03  0.25500000920E-02 0.  1.
       -2   -1    0    0    0  501  0.00000000000E+00  0.00000000000E+00 -0.13061698059E+03  0.13061698062E+03  0.25500000920E-02 0. -1.
    10030    2    1    2    0    0  0.00000000000E+00  0.00000000000E+00  0.56052991571E+03  0.82176387693E+03  0.60091770070E+03 0.  0.
        1    1    3    3  502    0 -0.16227654025E+03 -0.32864648874E+02 -0.62601750556E+02  0.17701056426E+03  0.50400001928E-02 0. -1.
       -1    1    3    3    0  502  0.16227654025E+03  0.32864648874E+02  0.62313166627E+03  0.64475331267E+03  0.50400001928E-02 0.  1.
</event>
<event>
 5   0  0.1303808E-02  0.6137967E+03  0.7818609E-02  0.9877189E-01
       -1   -1    0    0    0  501  0.00000000000E+00  0.00000000000E+00  0.58480128232E+02  0.58480128450E+02  0.50400001928E-02 0.  1.
        1   -1    0    0  501    0  0.00000000000E+00  0.00000000000E+00 -0.16105744808E+04  0.16105744808E+04  0.50400001928E-02 0. -1.
    10030    2    1    2    0    0  0.00000000000E+00  0.00000000000E+00 -0.15520943525E+04  0.16690546092E+04  0.61379671668E+03 0.  0.
        4    1    3    3  502    0  0.24234773998E+03 -0.17200205636E+03 -0.98434545047E+03  0.10282289206E+04  0.12699999809E+01 0.  1.
       -4    1    3    3    0  502 -0.24234773998E+03  0.17200205636E+03 -0.56774890205E+03  0.64082568858E+03  0.12699999809E+01 0. -1.
</event>
<event>
 5   0  0.2179625E-02  0.5998360E+03  0.7818609E-02  0.9905746E-01
        2   -1    0    0  501    0  0.00000000000E+00  0.00000000000E+00  0.26521279131E+03  0.26521279132E+03  0.25500000920E-02 0. -1.
       -2   -1    0    0    0  501  0.00000000000E+00  0.00000000000E+00 -0.33916462031E+03  0.33916462032E+03  0.25500000920E-02 0.  1.
    10030    2    1    2    0    0  0.00000000000E+00  0.00000000000E+00 -0.73951829004E+02  0.60437741164E+03  0.59983596315E+03 0.  0.
        1    1    3    3  502    0 -0.20478073846E+03  0.18750256490E+03  0.77277646947E+02  0.28820860055E+03  0.50400001928E-02 0. -1.
       -1    1    3    3    0  502  0.20478073846E+03 -0.18750256490E+03 -0.15122947595E+03  0.31616881109E+03  0.50400001928E-02 0.  1.
</event>
<event>
 5   0  0.1276705E-02  0.5995607E+03  0.7818609E-02  0.9906318E-01
       -1   -1    0    0    0  501  0.00000000000E+00  0.00000000000E+00  0.15885830120E+03  0.15885830128E+03  0.50400001928E-02 0.  1.
        1   -1    0    0  501    0  0.00000000000E+00  0.00000000000E+00 -0.56571324862E+03  0.56571324864E+03  0.50400001928E-02 0. -1.
    10030    2    1    2    0    0  0.00000000000E+00  0.00000000000E+00 -0.40685494742E+03  0.72457154992E+03  0.59956065807E+03 0.  0.
        1    1    3    3  502    0  0.60445082493E+02  0.23737586330E+03  0.54282599813E+01  0.24501096813E+03  0.50400001928E-02 0.  1.
       -1    1    3    3    0  502 -0.60445082493E+02 -0.23737586330E+03 -0.41228320740E+03  0.47956058179E+03  0.50400001928E-02 0. -1.
</event>
<event>
 5   0  0.2142838E-02  0.5877447E+03  0.7818609E-02  0.9931163E-01
        2   -1    0    0  501    0  0.00000000000E+00  0.00000000000E+00  0.84372115107E+03  0.84372115107E+03  0.25500000920E-02 0. -1.
       -2   -1    0    0    0  501  0.00000000000E+00  0.00000000000E+00 -0.10235723241E+03  0.10235723244E+03  0.25500000920E-02 0.  1.
    10030    2    1    2    0    0  0.00000000000E+00  0.00000000000E+00  0.74136391866E+03  0.94607838351E+03  0.58774471317E+03 0.  0.
        4    1    3    3  502    0 -0.11005766582E+03  0.83418731533E+01 -0.67720753320E+02  0.12949899608E+03  0.12699999809E+01 0.  1.
       -4    1    3    3    0  502  0.11005766582E+03 -0.83418731533E+01  0.80908467198E+03  0.81657938744E+03  0.12699999809E+01 0. -1.
</event>
<event>
 5   0  0.1337051E-02  0.5986413E+03  0.7818609E-02  0.9908229E-01
       -1   -1    0    0    0  501  0.00000000000E+00  0.00000000000E+00  0.19542209813E+03  0.19542209819E+03  0.50400001928E-02 0.  1.
        1   -1    0    0  501    0  0.00000000000E+00  0.00000000000E+00 -0.45845807524E+03  0.45845807527E+03  0.50400001928E-02 0. -1.
    10030    2    1    2    0    0  0.00000000000E+00  0.00000000000E+00 -0.26303597712E+03  0.65388017346E+03  0.59864125818E+03 0.  0.
        5    1    3    3  502    0  0.19338615399E+02  0.18650165794E+03  0.12327439724E+03  0.22444490966E+03  0.46999998093E+01 0.  1.
       -5    1    3    3    0  502 -0.19338615399E+02 -0.18650165794E+03 -0.38631037436E+03  0.42943526380E+03  0.46999998093E+01 0. -1.
</event>
<event>
 5   0  0.2092587E-02  0.5934580E+03  0.7818609E-02  0.9919072E-01
        2   -1    0    0  501    0  0.00000000000E+00  0.00000000000E+00  0.20051680455E+03  0.20051680457E+03  0.25500000920E-02 0.  1.
       -2   -1    0    0    0  501  0.00000000000E+00  0.00000000000E+00 -0.43910580652E+03  0.43910580653E+03  0.25500000920E-02 0. -1.
    10030    2    1    2    0    0  0.00000000000E+00  0.00000000000E+00 -0.23858900196E+03  0.63962261110E+03  0.59345797894E+03 0.  0.
        3    1    3    3  502    0 -0.21632450378E+03  0.19432321402E+03 -0.18296877517E+03  0.34356278223E+03  0.10100000352E+00 0.  1.
       -3    1    3    3    0  502  0.21632450378E+03 -0.19432321402E+03 -0.55620226793E+02  0.29605982887E+03  0.10100000352E+00 0. -1.
</event>
<event>
 5   0  0.2141800E-02  0.6149138E+03  0.7818609E-02  0.9874939E-01
       -2   -1    0    0    0  501  0.00000000000E+00  0.00000000000E+00  0.17240741207E+03  0.17240741209E+03  0.25500000920E-02 0. -1.
        2   -1    0    0  501    0  0.00000000000E+00  0.00000000000E+00 -0.54829285125E+03  0.54829285125E+03  0.25500000920E-02 0.  1.
    10030    2    1    2    0    0  0.00000000000E+00  0.00000000000E+00 -0.37588543917E+03  0.72070026335E+03  0.61491382014E+03 0.  0.
        2    1    3    3  502    0 -0.30161229557E+03 -0.33320453421E+02 -0.12993562585E+03  0.33009619254E+03  0.25500000920E-02 0.  1.
       -2    1    3    3    0  502  0.30161229557E+03  0.33320453421E+02 -0.24594981332E+03  0.39060407081E+03  0.25500000920E-02 0. -1.
</event>
<event>
 5   0  0.2179625E-02  0.5972616E+03  0.7818609E-02  0.9911104E-01
        2   -1    0    0  501    0  0.00000000000E+00  0.00000000000E+00  0.27360040825E+03  0.27360040826E+03  0.25500000920E-02 0.  1.
       -2   -1    0    0    0  501  0.00000000000E+00  0.00000000000E+00 -0.32595114729E+03  0.32595114730E+03  0.25500000920E-02 0. -1.
    10030    2    1    2    0    0  0.00000000000E+00  0.00000000000E+00 -0.52350739043E+02  0.59955155556E+03  0.59726164107E+03 0.  0.
        1    1    3    3  502    0  0.73732090255E+02 -0.10702917180E+03  0.24372105103E+03  0.27620936893E+03  0.50400001928E-02 0.  1.
       -1    1    3    3    0  502 -0.73732090255E+02  0.10702917180E+03 -0.29607179007E+03  0.32334218662E+03  0.50400001928E-02 0. -1.
</event>
<event>
 5   0  0.1332555E-02  0.6052178E+03  0.7818609E-02  0.9894640E-01
       -1   -1    0    0    0  501  0.00000000000E+00  0.00000000000E+00  0.54006431875E+03  0.54006431877E+03  0.50400001928E-02 0.  1.
        1   -1    0    0  501    0  0.00000000000E+00  0.00000000000E+00 -0.16955782866E+03  0.16955782874E+03  0.50400001928E-02 0. -1.
    10030    2    1    2    0    0  0.00000000000E+00  0.00000000000E+00  0.37050649008E+03  0.70962214751E+03  0.60521775671E+03 0.  0.
        2    1    3    3  502    0 -0.19386420356E+03 -0.85744378386E+02 -0.67955925933E+02  0.22260601008E+03  0.25500000920E-02 0. -1.
       -2    1    3    3    0  502  0.19386420356E+03  0.85744378386E+02  0.43846241602E+03  0.48701613743E+03  0.25500000920E-02 0.  1.
</event>
<event>
 5   0  0.2141800E-02  0.6017482E+03  0.7818609E-02  0.9901786E-01
       -2   -1    0    0    0  501  0.00000000000E+00  0.00000000000E+00  0.16062209274E+03  0.16062209276E+03  0.25500000920E-02 0.  1.
        2   -1    0    0  501    0  0.00000000000E+00  0.00000000000E+00 -0.56359138338E+03  0.56359138339E+03  0.25500000920E-02 0. -1.
    10030    2    1    2    0    0  0.00000000000E+00  0.00000000000E+00 -0.40296929064E+03  0.72421347615E+03  0.60174821133E+03 0.  0.
        2    1    3    3  502    0 -0.29439198451E+03  0.31269742115E+02 -0.13688835099E+03  0.32616385140E+03  0.25500000920E-02 0.  1.
       -2    1    3    3    0  502  0.29439198451E+03 -0.31269742115E+02 -0.26608093965E+03  0.39804962475E+03  0.25500000920E-02 0. -1.
</event>
<event>
 5   0  0.1250390E-02  0.6019695E+03  0.7818609E-02  0.9901328E-01
       -1   -1    0    0    0  501  0.00000000000E+00  0.00000000000E+00  0.11489609045E+03  0.11489609056E+03  0.50400001928E-02 0. -1.
        1   -1    0    0  501    0  0.00000000000E+00  0.00000000000E+00 -0.78846750806E+03  0.78846750808E+03  0.50400001928E-02 0.  1.
    10030    2    1    2    0    0  0.00000000000E+00  0.00000000000E+00 -0.67357141761E+03  0.90336359864E+03  0.60196954800E+03 0.  0.
        3    1    3    3  502    0  0.19734451653E+03  0.74399998516E+02 -0.14535513951E+02  0.21140366447E+03  0.10100000352E+00 0. -1.
       -3    1    3    3    0  502 -0.19734451653E+03 -0.74399998516E+02 -0.65903590366E+03  0.69195993417E+03  0.10100000352E+00 0.  1.
</event>
<event>
 5   0  0.1303808E-02  0.6047194E+03  0.7818609E-02  0.9895663E-01
       -1   -1    0    0    0  501  0.00000000000E+00  0.00000000000E+00  0.52637142486E+03  0.52637142489E+03  0.50400001928E-02 0. -1.
        1   -1    0    0  501    0  0.00000000000E+00  0.00000000000E+00 -0.17368228526E+03  0.17368228533E+03  0.50400001928E-02 0.  1.
    10030    2    1    2    0    0  0.00000000000E+00  0.00000000000E+00  0.35268913960E+03  0.70005371022E+03  0.60471941262E+03 0.  0.
        4    1    3    3  502    0  0.10375294466E+03 -0.10457383645E+03 -0.12932649418E+03  0.19602886469E+03  0.12699999809E+01 0.  1.
       -4    1    3    3    0  502 -0.10375294466E+03  0.10457383645E+03  0.48201563378E+03  0.50402484553E+03  0.12699999809E+01 0. -1.
</event>
<event>
 5   0  0.1332555E-02  0.6060378E+03  0.7818609E-02  0.9892958E-01
       -1   -1    0    0    0  501  0.00000000000E+00  0.00000000000E+00  0.83485571652E+02  0.83485571804E+02  0.50400001928E-02 0.  1.
        1   -1    0    0  501    0  0.00000000000E+00  0.00000000000E+00 -0.10998361116E+04  0.10998361117E+04  0.50400001928E-02 0. -1.
    10030    2    1    2    0    0  0.00000000000E+00  0.00000000000E+00 -0.10163505400E+04  0.11833216835E+04  0.60603777639E+03 0.  0.
        2    1    3    3  502    0  0.22900544693E+03 -0.15927797475E+03 -0.73926631205E+03  0.79014406794E+03  0.25500000920E-02 0. -1.
       -2    1    3    3    0  502 -0.22900544693E+03  0.15927797475E+03 -0.27708422795E+03  0.39317761552E+03  0.25500000920E-02 0.  1.
</event>
<event>
 5   0  0.1337051E-02  0.5964714E+03  0.7818609E-02  0.9912754E-01
       -1   -1    0    0    0  501  0.00000000000E+00  0.00000000000E+00  0.10311373458E+03  0.10311373471E+03  0.50400001928E-02 0.  1.
        1   -1    0    0  501    0  0.00000000000E+00  0.00000000000E+00 -0.86258677195E+03  0.86258677197E+03  0.50400001928E-02 0. -1.
    10030    2    1    2    0    0  0.00000000000E+00  0.00000000000E+00 -0.75947303737E+03  0.96570050667E+03  0.59647143611E+03 0.  0.
        5    1    3    3  502    0  0.22515923005E+03 -0.11525323482E+03 -0.12404135883E+03  0.28175935781E+03  0.46999998093E+01 0.  1.
       -5    1    3    3    0  502 -0.22515923005E+03  0.11525323482E+03 -0.63543167854E+03  0.68394114886E+03  0.46999998093E+01 0. -1.
</event>
<event>
 5   0  0.2092587E-02  0.6018368E+03  0.7818609E-02  0.9901603E-01
        2   -1    0    0  501    0  0.00000000000E+00  0.00000000000E+00  0.34949347310E+03  0.34949347311E+03  0.25500000920E-02 0.  1.
       -2   -1    0    0    0  501  0.00000000000E+00  0.00000000000E+00 -0.25909466280E+03  0.25909466281E+03  0.25500000920E-02 0. -1.
    10030    2    1    2    0    0  0.00000000000E+00  0.00000000000E+00  0.90398810308E+02  0.60858813592E+03  0.60183683360E+03 0.  0.
        3    1    3    3  502    0 -0.21678605532E+03 -0.15271800675E+03 -0.98638644411E+02  0.28292857003E+03  0.10100000352E+00 0. -1.
       -3    1    3    3    0  502  0.21678605532E+03  0.15271800675E+03  0.18903745472E+03  0.32565956589E+03  0.10100000352E+00 0.  1.
</event>
<event>
 5   0  0.2142838E-02  0.6001919E+03  0.7818609E-02  0.9905008E-01
       -2   -1    0    0    0  501  0.00000000000E+00  0.00000000000E+00  0.90825556094E+03  0.90825556094E+03  0.25500000920E-02 0. -1.
        2   -1    0    0  501    0  0.00000000000E+00  0.00000000000E+00 -0.99154458035E+02  0.99154458068E+02  0.25500000920E-02 0.  1.
    10030    2    1    2    0    0  0.00000000000E+00  0.00000000000E+00  0.80910110291E+03  0.10074100190E+04  0.60019192904E+03 0.  0.
        4    1    3    3  502    0 -0.88936371740E+02  0.17762091579E+03  0.26996653884E+02  0.20047269182E+03  0.12699999809E+01 0.  1.
       -4    1    3    3    0  502  0.88936371740E+02 -0.17762091579E+03  0.78210444902E+03  0.80693732720E+03  0.12699999809E+01 0. -1.
</event>
<event>
 5   0  0.2126207E-02  0.6023351E+03  0.7818609E-02  0.9900573E-01
       -2   -1    0    0    0  501  0.00000000000E+00  0.00000000000E+00  0.47607094805E+02  0.47607094874E+02  0.25500000920E-02 0.  1.
        2   -1    0    0  501    0  0.00000000000E+00  0.00000000000E+00 -0.19052177852E+04  0.19052177852E+04  0.25500000920E-02 0. -1.
    10030    2    1    2    0    0  0.00000000000E+00  0.00000000000E+00 -0.18576106904E+04  0.19528248801E+04  0.60233506886E+03 0.  0.
        5    1    3    3  502    0  0.16372034280E+03 -0.25273574225E+03 -0.92976569688E+03  0.97732596770E+03  0.46999998093E+01 0.  1.
       -5    1    3    3    0  502 -0.16372034280E+03  0.25273574225E+03 -0.92784499355E+03  0.97549891241E+03  0.46999998093E+01 0. -1.
</event>
<event>
 5   0  0.1332555E-02  0.6011760E+03  0.7818609E-02  0.9902969E-01
        1   -1    0    0  501    0  0.00000000000E+00  0.00000000000E+00  0.89096278465E+03  0.89096278466E+03  0.50400001928E-02 0. -1.
       -1   -1    0    0    0  501  0.00000000000E+00  0.00000000000E+00 -0.10141067816E+03  0.10141067829E+03  0.50400001928E-02 0.  1.
    10030    2    1    2    0    0  0.00000000000E+00  0.00000000000E+00  0.78955210649E+03  0.99237346295E+03  0.60117598181E+03 0.  0.
        2    1    3    3  502    0  0.29211090229E+03  0.12911082128E+02  0.27972587363E+03  0.40465051546E+03  0.25500000920E-02 0. -1.
       -2    1    3    3    0  502 -0.29211090229E+03 -0.12911082128E+02  0.50982623286E+03  0.58772294749E+03  0.25500000920E-02 0.  1.
</event>
<event>
 5   0  0.8551000E-03  0.6108917E+03  0.7818609E-02  0.9883063E-01
        4   -1    0    0  501    0  0.00000000000E+00  0.00000000000E+00  0.10040963277E+04  0.10040971309E+04  0.12699999809E+01 0.  1.
       -4   -1    0    0    0  501  0.00000000000E+00  0.00000000000E+00 -0.92911373975E+02  0.92920053347E+02  0.12699999809E+01 0. -1.
    10030    2    1    2    0    0  0.00000000000E+00  0.00000000000E+00  0.91118495376E+03  0.10970171842E+04  0.61089171100E+03 0.  0.
        4    1    3    3  502    0 -0.12210318238E+03  0.15243620342E+03  0.33876280088E+02  0.19823016550E+03  0.12699999809E+01 0. -1.
       -4    1    3    3    0  502  0.12210318238E+03 -0.15243620342E+03  0.87730867368E+03  0.89878701875E+03  0.12699999809E+01 0.  1.
</event>
<event>
 5   0  0.1337051E-02  0.5995579E+03  0.7818609E-02  0.9906324E-01
        1   -1    0    0  501    0  0.00000000000E+00  0.00000000000E+00  0.66659024189E+03  0.66659024191E+03  0.50400001928E-02 0. -1.
       -1   -1    0    0    0  501  0.00000000000E+00  0.00000000000E+00 -0.13481660148E+03  0.13481660157E+03  0.50400001928E-02 0.  1.
    10030    2    1    2    0    0  0.00000000000E+00  0.00000000000E+00  0.53177364041E+03  0.80140684348E+03  0.59955794060E+03 0.  0.
        5    1    3    3  502    0 -0.19671580043E+03  0.34583154860E+02 -0.32857304405E+02  0.20247170961E+03  0.46999998093E+01 0.  1.
       -5    1    3    3    0  502  0.19671580043E+03 -0.34583154860E+02  0.56463094482E+03  0.59893513387E+03  0.46999998093E+01 0. -1.
</event>
<event>
 5   0  0.1337051E-02  0.5971940E+03  0.7818609E-02  0.9911245E-01
        1   -1    0    0  501    0  0.00000000000E+00  0.00000000000E+00  0.34157388242E+03  0.34157388245E+03  0.50400001928E-02 0.  1.
       -1   -1    0    0    0  501  0.00000000000E+00  0.00000000000E+00 -0.26102747703E+03  0.26102747708E+03  0.50400001928E-02 0. -1.
    10030    2    1    2    0    0  0.00000000000E+00  0.00000000000E+00  0.80546405382E+02  0.60260135953E+03  0.59719400122E+03 0.  0.
        5    1    3    3  502    0 -0.26423322092E+03  0.11197730080E+03  0.12335932440E+03  0.31240634413E+03  0.46999998093E+01 0. -1.
       -5    1    3    3    0  502  0.26423322092E+03 -0.11197730080E+03 -0.42812919022E+02  0.29019501541E+03  0.46999998093E+01 0.  1.
</event>
<event>
 5   0  0.1303808E-02  0.6003504E+03  0.7818609E-02  0.9904679E-01
       -1   -1    0    0    0  501  0.00000000000E+00  0.00000000000E+00  0.33251629809E+03  0.33251629813E+03  0.50400001928E-02 0. -1.
        1   -1    0    0  501    0  0.00000000000E+00  0.00000000000E+00 -0.27097966923E+03  0.27097966927E+03  0.50400001928E-02 0.  1.
    10030    2    1    2    0    0  0.00000000000E+00  0.00000000000E+00  0.61536628868E+02  0.60349596741E+03  0.60035041932E+03 0.  0.
        4    1    3    3  502    0 -0.28047893255E+03 -0.79558415736E+02 -0.41059341228E+02  0.29442393843E+03  0.12699999809E+01 0. -1.
       -4    1    3    3    0  502  0.28047893255E+03  0.79558415736E+02  0.10259597010E+03  0.30907202898E+03  0.12699999809E+01 0.  1.
</event>
<event>
 5   0  0.1276705E-02  0.6033931E+03  0.7818609E-02  0.9898391E-01
       -1   -1    0    0    0  501  0.00000000000E+00  0.00000000000E+00  0.99622145756E+02  0.99622145884E+02  0.50400001928E-02 0.  1.
        1   -1    0    0  501    0  0.00000000000E+00  0.00000000000E+00 -0.91366039987E+03  0.91366039989E+03  0.50400001928E-02 0. -1.
    10030    2    1    2    0    0  0.00000000000E+00  0.00000000000E+00 -0.81403825412E+03  0.10132825458E+04  0.60339310437E+03 0.  0.
        1    1    3    3  502    0 -0.12314617583E+03  0.18769370878E+03 -0.74550228569E+03  0.77856763799E+03  0.50400001928E-02 0. -1.
       -1    1    3    3    0  502  0.12314617583E+03 -0.18769370878E+03 -0.68535968429E+02  0.23471490778E+03  0.50400001928E-02 0.  1.
</event>
<event>
 5   0  0.2142838E-02  0.6010074E+03  0.7818609E-02  0.9903318E-01
       -2   -1    0    0    0  501  0.00000000000E+00  0.00000000000E+00  0.14785458929E+03  0.14785458931E+03  0.25500000920E-02 0. -1.
        2   -1    0    0  501    0  0.00000000000E+00  0.00000000000E+00 -0.61075188494E+03  0.61075188495E+03  0.25500000920E-02 0.  1.
    10030    2    1    2    0    0  0.00000000000E+00  0.00000000000E+00 -0.46289729565E+03  0.75860647426E+03  0.60100738470E+03 0.  0.
        4    1    3    3  502    0 -0.14816518069E+03  0.23925381358E+03 -0.98431774257E+02  0.29813710800E+03  0.12699999809E+01 0. -1.
       -4    1    3    3    0  502  0.14816518069E+03 -0.23925381358E+03 -0.36446552139E+03  0.46046936626E+03  0.12699999809E+01 0.  1.
</event>
<event>
 5   0  0.2126207E-02  0.6007531E+03  0.7818609E-02  0.9903845E-01
        2   -1    0    0  501    0  0.00000000000E+00  0.00000000000E+00  0.73341774233E+03  0.73341774234E+03  0.25500000920E-02 0. -1.
       -2   -1    0    0    0  501  0.00000000000E+00  0.00000000000E+00 -0.12302138565E+03  0.12302138567E+03  0.25500000920E-02 0.  1.
    10030    2    1    2    0    0  0.00000000000E+00  0.00000000000E+00  0.61039635669E+03  0.85643912801E+03  0.60075308383E+03 0.  0.
        5    1    3    3  502    0 -0.36014209289E+02  0.47587514157E+02  0.72482736182E+03  0.72729525588E+03  0.46999998093E+01 0. -1.
       -5    1    3    3    0  502  0.36014209289E+02 -0.47587514157E+02 -0.11443100514E+03  0.12914387213E+03  0.46999998093E+01 0.  1.
</event>
<event>
 5   0  0.1337051E-02  0.6006374E+03  0.7818609E-02  0.9904085E-01
        1   -1    0    0  501    0  0.00000000000E+00  0.00000000000E+00  0.10447262909E+04  0.10447262909E+04  0.50400001928E-02 0. -1.
       -1   -1    0    0    0  501  0.00000000000E+00  0.00000000000E+00 -0.86330093308E+02  0.86330093455E+02  0.50400001928E-02 0.  1.
    10030    2    1    2    0    0  0.00000000000E+00  0.00000000000E+00  0.95839619757E+03  0.11310563843E+04  0.60063738899E+03 0.  0.
        5    1    3    3  502    0 -0.12205311584E+03 -0.22366964681E+03  0.77839170286E+03  0.81904872081E+03  0.46999998093E+01 0. -1.
       -5    1    3    3    0  502  0.12205311584E+03  0.22366964681E+03  0.18000449472E+03  0.31200766354E+03  0.46999998093E+01 0.  1.
</event>
<event>
 5   0  0.2179625E-02  0.5999944E+03  0.7818609E-02  0.9905418E-01
        2   -1    0    0  501    0  0.00000000000E+00  0.00000000000E+00  0.25452493325E+04  0.25452493325E+04  0.25500000920E-02 0.  1.
       -2   -1    0    0    0  501  0.00000000000E+00  0.00000000000E+00 -0.35359337426E+02  0.35359337518E+02  0.25500000920E-02 0. -1.
    10030    2    1    2    0    0  0.00000000000E+00  0.00000000000E+00  0.25098899950E+04  0.25806086700E+04  0.59999443364E+03 0.  0.
        1    1    3    3  502    0 -0.28464197117E+03  0.50321184731E+02  0.90965157818E+03  0.95447329302E+03  0.50400001928E-02 0. -1.
       -1    1    3    3    0  502  0.28464197117E+03 -0.50321184731E+02  0.16002384169E+04  0.16261353770E+04  0.50400001928E-02 0.  1.
</event>
<event>
 5   0  0.2141800E-02  0.6006672E+03  0.7818609E-02  0.9904023E-01
       -2   -1    0    0    0  501  0.00000000000E+00  0.00000000000E+00  0.32107058361E+03  0.32107058362E+03  0.25500000920E-02 0. -1.
        2   -1    0    0  501    0  0.00000000000E+00  0.00000000000E+00 -0.28093591503E+03  0.28093591504E+03  0.25500000920E-02 0.  1.
    10030    2    1    2    0    0  0.00000000000E+00  0.00000000000E+00  0.40134668576E+02  0.60200649866E+03  0.60066715642E+03 0.  0.
        2    1    3    3  502    0 -0.11131688444E+03  0.11120059333E+03  0.27645650718E+03  0.31809624501E+03  0.25500000920E-02 0. -1.
       -2    1    3    3    0  502  0.11131688444E+03 -0.11120059333E+03 -0.23632183861E+03  0.28391025365E+03  0.25500000920E-02 0.  1.
</event>
<event>
 5   0  0.2141800E-02  0.6003567E+03  0.7818609E-02  0.9904666E-01
       -2   -1    0    0    0  501  0.00000000000E+00  0.00000000000E+00  0.51159899324E+03  0.51159899325E+03  0.25500000920E-02 0. -1.
        2   -1    0    0  501    0  0.00000000000E+00  0.00000000000E+00 -0.17612824752E+03  0.17612824754E+03  0.25500000920E-02 0.  1.
    10030    2    1    2    0    0  0.00000000000E+00  0.00000000000E+00  0.33547074572E+03  0.68772724079E+03  0.60035667440E+03 0.  0.
        2    1    3    3  502    0 -0.74479176751E+02 -0.48535534852E+02  0.49617371877E+03  0.50407460273E+03  0.25500000920E-02 0. -1.
       -2    1    3    3    0  502  0.74479176751E+02  0.48535534852E+02 -0.16070297305E+03  0.18365263806E+03  0.25500000920E-02 0.  1.
</event>
<event>
 5   0  0.1303808E-02  0.6028267E+03  0.7818609E-02  0.9899559E-01
       -1   -1    0    0    0  501  0.00000000000E+00  0.00000000000E+00  0.12510180208E+03  0.12510180218E+03  0.50400001928E-02 0. -1.
        1   -1    0    0  501    0  0.00000000000E+00  0.00000000000E+00 -0.72620874013E+03  0.72620874014E+03  0.50400001928E-02 0.  1.
    10030    2    1    2    0    0  0.00000000000E+00  0.00000000000E+00 -0.60110693804E+03  0.85131054233E+03  0.60282674834E+03 0.  0.
        4    1    3    3  502    0  0.20387506789E+03 -0.33830395310E+02  0.92907832214E+01  0.20687549519E+03  0.12699999809E+01 0. -1.
       -4    1    3    3    0  502 -0.20387506789E+03  0.33830395310E+02 -0.61039772127E+03  0.64443504714E+03  0.12699999809E+01 0.  1.
</event>
<event>
 5   0  0.1276705E-02  0.6001801E+03  0.7818609E-02  0.9905033E-01
       -1   -1    0    0    0  501  0.00000000000E+00  0.00000000000E+00  0.22385169156E+03  0.22385169161E+03  0.50400001928E-02 0. -1.
        1   -1    0    0  501    0  0.00000000000E+00  0.00000000000E+00 -0.40229328267E+03  0.40229328270E+03  0.50400001928E-02 0.  1.
    10030    2    1    2    0    0  0.00000000000E+00  0.00000000000E+00 -0.17844159111E+03  0.62614497431E+03  0.60018007916E+03 0.  0.
        1    1    3    3  502    0 -0.52430568521E+02 -0.25748254631E+03  0.61990302877E+02  0.26997967302E+03  0.50400001928E-02 0. -1.
       -1    1    3    3    0  502  0.52430568521E+02  0.25748254631E+03 -0.24043189399E+03  0.35616530129E+03  0.50400001928E-02 0.  1.
</event>
<event>
 5   0  0.2126207E-02  0.5989071E+03  0.7818609E-02  0.9907676E-01
       -2   -1    0    0    0  501  0.00000000000E+00  0.00000000000E+00  0.58698927485E+02  0.58698927540E+02  0.25500000920E-02 0. -1.
        2   -1    0    0  501    0  0.00000000000E+00  0.00000000000E+00 -0.15276672153E+04  0.15276672153E+04  0.25500000920E-02 0.  1.
    10030    2    1    2    0    0  0.00000000000E+00  0.00000000000E+00 -0.14689682878E+04  0.15863661428E+04  0.59890709509E+03 0.  0.
        5    1    3    3  502    0 -0.18382044226E+03 -0.35785242744E+01 -0.13604435061E+04  0.13728187732E+04  0.46999998093E+01 0.  1.
       -5    1    3    3    0  502  0.18382044226E+03  0.35785242744E+01 -0.10852478174E+03  0.21354736964E+03  0.46999998093E+01 0. -1.
</event>
<event>
 5   0  0.1337051E-02  0.6025405E+03  0.7818609E-02  0.9900149E-01
       -1   -1    0    0    0  501  0.00000000000E+00  0.00000000000E+00  0.61106017693E+03  0.61106017695E+03  0.50400001928E-02 0. -1.
        1   -1    0    0  501    0  0.00000000000E+00  0.00000000000E+00 -0.14853491983E+03  0.14853491992E+03  0.50400001928E-02 0.  1.
    10030    2    1    2    0    0  0.00000000000E+00  0.00000000000E+00  0.46252525710E+03  0.75959509687E+03  0.60254053618E+03 0.  0.
        5    1    3    3  502    0  0.37529475779E+02 -0.28591453932E+03  0.12146192099E+03  0.31293876972E+03  0.46999998093E+01 0.  1.
       -5    1    3    3    0  502 -0.37529475779E+02  0.28591453932E+03  0.34106333611E+03  0.44665632715E+03  0.46999998093E+01 0. -1.
</event>
<event>
 5   0  0.2141800E-02  0.5990087E+03  0.7818609E-02  0.9907465E-01
        2   -1    0    0  501    0  0.00000000000E+00  0.00000000000E+00  0.85977554454E+03  0.85977554454E+03  0.25500000920E-02 0.  1.
       -2   -1    0    0    0  501  0.00000000000E+00  0.00000000000E+00 -0.10433287574E+03  0.10433287577E+03  0.25500000920E-02 0. -1.
    10030    2    1    2    0    0  0.00000000000E+00  0.00000000000E+00  0.75544266880E+03  0.96410842031E+03  0.59900869799E+03 0.  0.
        2    1    3    3  502    0 -0.18226104602E+03 -0.23210517225E+03  0.29547956308E+03  0.41761234666E+03  0.25500000920E-02 0. -1.
       -2    1    3    3    0  502  0.18226104602E+03  0.23210517225E+03  0.45996310572E+03  0.54649607365E+03  0.25500000920E-02 0.  1.
</event>
<event>
 5   0  0.2142838E-02  0.5966943E+03  0.7818609E-02  0.9912288E-01
       -2   -1    0    0    0  501  0.00000000000E+00  0.00000000000E+00  0.18658504930E+03  0.18658504932E+03  0.25500000920E-02 0. -1.
        2   -1    0    0  501    0  0.00000000000E+00  0.00000000000E+00 -0.47705334310E+03  0.47705334311E+03  0.25500000920E-02 0.  1.
    10030    2    1    2    0    0  0.00000000000E+00  0.00000000000E+00 -0.29046829380E+03  0.66363839242E+03  0.59669429878E+03 0.  0.
        4    1    3    3  502    0  0.25921819509E+03  0.90044200588E+02 -0.27544788534E+03  0.38881252701E+03  0.12699999809E+01 0.  1.
       -4    1    3    3    0  502 -0.25921819509E+03 -0.90044200588E+02 -0.15020408463E+02  0.27482586541E+03  0.12699999809E+01 0. -1.
</event>
<event>
 5   0  0.1303808E-02  0.5954712E+03  0.7818609E-02  0.9914847E-01
        1   -1    0    0  501    0  0.00000000000E+00  0.00000000000E+00  0.63344005014E+03  0.63344005016E+03  0.50400001928E-02 0. -1.
       -1   -1    0    0    0  501  0.00000000000E+00  0.00000000000E+00 -0.13994457265E+03  0.13994457274E+03  0.50400001928E-02 0.  1.
    10030    2    1    2    0    0  0.00000000000E+00  0.00000000000E+00  0.49349547749E+03  0.77338462289E+03  0.59547123241E+03 0.  0.
        4    1    3    3  502    0  0.21029395209E+03  0.18600798834E+03  0.37546678383E+03  0.46882772601E+03  0.12699999809E+01 0. -1.
       -4    1    3    3    0  502 -0.21029395209E+03 -0.18600798834E+03  0.11802869366E+03  0.30455689689E+03  0.12699999809E+01 0.  1.
</event>
<event>
 5   0  0.2126207E-02  0.6001181E+03  0.7818609E-02  0.9905161E-01
        2   -1    0    0  501    0  0.00000000000E+00  0.00000000000E+00  0.22054661041E+03  0.22054661042E+03  0.25500000920E-02 0.  1.
       -2   -1    0    0    0  501  0.00000000000E+00  0.00000000000E+00 -0.40823764925E+03  0.40823764926E+03  0.25500000920E-02 0. -1.
    10030    2    1    2    0    0  0.00000000000E+00  0.00000000000E+00 -0.18769103884E+03  0.62878425968E+03  0.60011808768E+03 0.  0.
        5    1    3    3  502    0  0.17725650911E+01 -0.11770955300E+03  0.19529781401E+03  0.22808333348E+03  0.46999998093E+01 0.  1.
       -5    1    3    3    0  502 -0.17725650911E+01  0.11770955300E+03 -0.38298885285E+03  0.40070092621E+03  0.46999998093E+01 0. -1.
</event>
<event>
 5   0  0.2092587E-02  0.6011226E+03  0.7818609E-02  0.9903080E-01
       -2   -1    0    0    0  501  0.00000000000E+00  0.00000000000E+00  0.27688656109E+03  0.27688656110E+03  0.25500000920E-02 0.  1.
        2   -1    0    0  501    0  0.00000000000E+00  0.00000000000E+00 -0.32626028451E+03  0.32626028452E+03  0.25500000920E-02 0. -1.
    10030    2    1    2    0    0  0.00000000000E+00  0.00000000000E+00 -0.49373723418E+02  0.60314684563E+03  0.60112257720E+03 0.  0.
        3    1    3    3  502    0 -0.63351546132E+02 -0.28300965713E+03  0.54504157939E+02  0.29509082984E+03  0.10100000352E+00 0.  1.
       -3    1    3    3    0  502  0.63351546132E+02  0.28300965713E+03 -0.10387788136E+03  0.30805601578E+03  0.10100000352E+00 0. -1.
</event>
<event>
 5   0  0.2142838E-02  0.5973655E+03  0.7818609E-02  0.9910887E-01
       -2   -1    0    0    0  501  0.00000000000E+00  0.00000000000E+00  0.13040894214E+03  0.13040894217E+03  0.25500000920E-02 0.  1.
        2   -1    0    0  501    0  0.00000000000E+00  0.00000000000E+00 -0.68408942513E+03  0.68408942513E+03  0.25500000920E-02 0. -1.
    10030    2    1    2    0    0  0.00000000000E+00  0.00000000000E+00 -0.55368048299E+03  0.81449836730E+03  0.59736547698E+03 0.  0.
        4    1    3    3  502    0 -0.93632399479E+02 -0.26865230297E+03 -0.15285552004E+03  0.32296673053E+03  0.12699999809E+01 0.  1.
       -4    1    3    3    0  502  0.93632399479E+02  0.26865230297E+03 -0.40082496295E+03  0.49153163677E+03  0.12699999809E+01 0. -1.
</event>
<event>
 5   0  0.1332555E-02  0.6014352E+03  0.7818609E-02  0.9902433E-01
        1   -1    0    0  501    0  0.00000000000E+00  0.00000000000E+00  0.10608428692E+03  0.10608428704E+03  0.50400001928E-02 0. -1.
       -1   -1    0    0    0  501  0.00000000000E+00  0.00000000000E+00 -0.85244560738E+03  0.85244560740E+03  0.50400001928E-02 0.  1.
    10030    2    1    2    0    0  0.00000000000E+00  0.00000000000E+00 -0.74636132046E+03  0.95852989443E+03  0.60143523162E+03 0.  0.
        2    1    3    3  502    0 -0.18185044638E+03 -0.23907165469E+03 -0.39606861386E+03  0.49708670050E+03  0.25500000920E-02 0.  1.
       -2    1    3    3    0  502  0.18185044638E+03  0.23907165469E+03 -0.35029270660E+03  0.46144319393E+03  0.25500000920E-02 0. -1.
</event>
<event>
 5   0  0.2126207E-02  0.6031541E+03  0.7818609E-02  0.9898884E-01
       -2   -1    0    0    0  501  0.00000000000E+00  0.00000000000E+00  0.19051184513E+03  0.19051184515E+03  0.25500000920E-02 0.  1.
        2   -1    0    0  501    0  0.00000000000E+00  0.00000000000E+00 -0.47739139900E+03  0.47739139901E+03  0.25500000920E-02 0. -1.
    10030    2    1    2    0    0  0.00000000000E+00  0.00000000000E+00 -0.28687955387E+03  0.66790324415E+03  0.60315409733E+03 0.  0.
        5    1    3    3  502    0 -0.15019500424E+03  0.26144525435E+03 -0.14765149160E+03  0.33576064881E+03  0.46999998093E+01 0. -1.
       -5    1    3    3    0  502  0.15019500424E+03 -0.26144525435E+03 -0.13922806227E+03  0.33214259534E+03  0.46999998093E+01 0.  1.
</event>
<event>
 5   0  0.1250390E-02  0.5998358E+03  0.7818609E-02  0.9905747E-01
        1   -1    0    0  501    0  0.00000000000E+00  0.00000000000E+00  0.76594531370E+03  0.76594531371E+03  0.50400001928E-02 0. -1.
       -1   -1    0    0    0  501  0.00000000000E+00  0.00000000000E+00 -0.11743757130E+03  0.11743757140E+03  0.50400001928E-02 0.  1.
    10030    2    1    2    0    0  0.00000000000E+00  0.00000000000E+00  0.64850774240E+03  0.88338288512E+03  0.59983583568E+03 0.  0.
        3    1    3    3  502    0 -0.16222395038E+03  0.14030462760E+03  0.63299168870E+03  0.66834159437E+03  0.10100000352E+00 0. -1.
       -3    1    3    3    0  502  0.16222395038E+03 -0.14030462760E+03  0.15516053703E+02  0.21504129075E+03  0.10100000352E+00 0.  1.
</event>
<event>
 5   0  0.2142838E-02  0.6008617E+03  0.7818609E-02  0.9903620E-01
        2   -1    0    0  501    0  0.00000000000E+00  0.00000000000E+00  0.40061808229E+03  0.40061808230E+03  0.25500000920E-02 0.  1.
       -2   -1    0    0    0  501  0.00000000000E+00  0.00000000000E+00 -0.22529858088E+03  0.22529858090E+03  0.25500000920E-02 0. -1.
    10030    2    1    2    0    0  0.00000000000E+00  0.00000000000E+00  0.17531950141E+03  0.62591666320E+03  0.60086166602E+03 0.  0.
        4    1    3    3  502    0 -0.38916025287E+02  0.90150525429E+02  0.38342782056E+03  0.39580308329E+03  0.12699999809E+01 0.  1.
       -4    1    3    3    0  502  0.38916025287E+02 -0.90150525429E+02 -0.20810831915E+03  0.23011357991E+03  0.12699999809E+01 0. -1.
</event>
<event>
 5   0  0.1276705E-02  0.6014983E+03  0.7818609E-02  0.9902302E-01
        1   -1    0    0  501    0  0.00000000000E+00  0.00000000000E+00  0.80370244372E+03  0.80370244374E+03  0.50400001928E-02 0.  1.
       -1   -1    0    0    0  501  0.00000000000E+00  0.00000000000E+00 -0.11254171660E+03  0.11254171671E+03  0.50400001928E-02 0. -1.
    10030    2    1    2    0    0  0.00000000000E+00  0.00000000000E+00  0.69116072712E+03  0.91624416045E+03  0.60149830494E+03 0.  0.
        1    1    3    3  502    0 -0.26946673022E+02  0.13620302273E+03 -0.60800668785E+02  0.15157212124E+03  0.50400001928E-02 0. -1.
       -1    1    3    3    0  502  0.26946673022E+02 -0.13620302273E+03  0.75196139591E+03  0.76467203921E+03  0.50400001928E-02 0.  1.
</event>
<event>
 5   0  0.2126207E-02  0.5946879E+03  0.7818609E-02  0.9916489E-01
        2   -1    0    0  501    0  0.00000000000E+00  0.00000000000E+00  0.61630012651E+03  0.61630012652E+03  0.25500000920E-02 0.  1.
       -2   -1    0    0    0  501  0.00000000000E+00  0.00000000000E+00 -0.14345838826E+03  0.14345838828E+03  0.25500000920E-02 0. -1.
    10030    2    1    2    0    0  0.00000000000E+00  0.00000000000E+00  0.47284173825E+03  0.75975851479E+03  0.59468789408E+03 0.  0.
        5    1    3    3  502    0 -0.18158579206E+03  0.23325058479E+03  0.19577675252E+03  0.35458406903E+03  0.46999998093E+01 0.  1.
       -5    1    3    3    0  502  0.18158579206E+03 -0.23325058479E+03  0.27706498574E+03  0.40517444577E+03  0.46999998093E+01 0. -1.
</event>
<event>
 5   0  0.1337051E-02  0.6002581E+03  0.7818609E-02  0.9904871E-01
       -1   -1    0    0    0  501  0.00000000000E+00  0.00000000000E+00  0.38324255305E+02  0.38324255636E+02  0.50400001928E-02 0.  1.
        1   -1    0    0  501    0  0.00000000000E+00  0.00000000000E+00 -0.23504033082E+04  0.23504033082E+04  0.50400001928E-02 0. -1.
    10030    2    1    2    0    0  0.00000000000E+00  0.00000000000E+00 -0.23120790529E+04  0.23887275638E+04  0.60025813399E+03 0.  0.
        5    1    3    3  502    0  0.23528928405E+03 -0.74603782485E+02 -0.18352249209E+04  0.18517557538E+04  0.46999998093E+01 0. -1.
       -5    1    3    3    0  502 -0.23528928405E+03  0.74603782485E+02 -0.47685413199E+03  0.53697181001E+03  0.46999998093E+01 0.  1.
</event>
<event>
 5   0  0.1337051E-02  0.5995109E+03  0.7818609E-02  0.9906421E-01
        1   -1    0    0  501    0  0.00000000000E+00  0.00000000000E+00  0.10804821204E+04  0.10804821204E+04  0.50400001928E-02 0. -1.
       -1   -1    0    0    0  501  0.00000000000E+00  0.00000000000E+00 -0.83160402598E+02  0.83160402751E+02  0.50400001928E-02 0.  1.
    10030    2    1    2    0    0  0.00000000000E+00  0.00000000000E+00  0.99732171776E+03  0.11636425231E+04  0.59951089473E+03 0.  0.
        5    1    3    3  502    0  0.24512559483E+03 -0.11701595961E+03  0.25274510523E+03  0.37105453812E+03  0.46999998093E+01 0. -1.
       -5    1    3    3    0  502 -0.24512559483E+03  0.11701595961E+03  0.74457661253E+03  0.79258798500E+03  0.46999998093E+01 0.  1.
</event>
<event>
 5   0  0.2126207E-02  0.5993426E+03  0.7818609E-02  0.9906771E-01
        2   -1    0    0  501    0  0.00000000000E+00  0.00000000000E+00  0.78349871341E+03  0.78349871342E+03  0.25500000920E-02 0. -1.
       -2   -1    0    0    0  501  0.00000000000E+00  0.00000000000E+00 -0.11461777016E+03  0.11461777019E+03  0.25500000920E-02 0.  1.
    10030    2    1    2    0    0  0.00000000000E+00  0.00000000000E+00  0.66888094325E+03  0.89811648360E+03  0.59934255803E+03 0.  0.
        5    1    3    3  502    0 -0.22173149675E+03  0.11320213548E+03  0.84584713287E+02  0.26297574764E+03  0.46999998093E+01 0.  1.
       -5    1    3    3    0  502  0.22173149675E+03 -0.11320213548E+03  0.58429622997E+03  0.63514073596E+03  0.46999998093E+01 0. -1.
</event>
<event>
 5   0  0.1303808E-02  0.5961632E+03  0.7818609E-02  0.9913398E-01
       -1   -1    0    0    0  501  0.00000000000E+00  0.00000000000E+00  0.54566809318E+03  0.54566809321E+03  0.50400001928E-02 0.  1.
        1   -1    0    0  501    0  0.00000000000E+00  0.00000000000E+00 -0.16283275740E+03  0.16283275747E+03  0.50400001928E-02 0. -1.
    10030    2    1    2    0    0  0.00000000000E+00  0.00000000000E+00  0.38283533579E+03  0.70850085068E+03  0.59616320004E+03 0.  0.
        4    1    3    3  502    0  0.19478232780E+03 -0.47350328022E+02 -0.70762968720E+02  0.21258226508E+03  0.12699999809E+01 0. -1.
       -4    1    3    3    0  502 -0.19478232780E+03  0.47350328022E+02  0.45359830451E+03  0.49591858559E+03  0.12699999809E+01 0.  1.
</event>
<event>
 5   0  0.1303808E-02  0.5999849E+03  0.7818609E-02  0.9905437E-01
       -1   -1    0    0    0  501  0.00000000000E+00  0.00000000000E+00  0.19565509156E+03  0.19565509163E+03  0.50400001928E-02 0. -1.
        1   -1    0    0  501    0  0.00000000000E+00  0.00000000000E+00 -0.45996993617E+03  0.45996993619E+03  0.50400001928E-02 0.  1.
    10030    2    1    2    0    0  0.00000000000E+00  0.00000000000E+00 -0.26431484460E+03  0.65562502782E+03  0.59998486650E+03 0.  0.
        4    1    3    3  502    0 -0.18090059329E+03  0.84039459060E+02  0.11268905951E+03  0.22910279868E+03  0.12699999809E+01 0. -1.
       -4    1    3    3    0  502  0.18090059329E+03 -0.84039459060E+02 -0.37700390412E+03  0.42652222914E+03  0.12699999809E+01 0.  1.
</event>
<event>
 5   0  0.1337051E-02  0.6059696E+03  0.7818609E-02  0.9893098E-01
       -1   -1    0    0    0  501  0.00000000000E+00  0.00000000000E+00  0.84203907929E+02  0.84203908080E+02  0.50400001928E-02 0. -1.
        1   -1    0    0  501    0  0.00000000000E+00  0.00000000000E+00 -0.10902083299E+04  0.10902083299E+04  0.50400001928E-02 0.  1.
    10030    2    1    2    0    0  0.00000000000E+00  0.00000000000E+00 -0.10060044219E+04  0.11744122380E+04  0.60596964257E+03 0.  0.
        5    1    3    3  502    0 -0.48143739553E+02  0.75347550772E+01  0.76487910996E+02  0.90813450099E+02  0.46999998093E+01 0. -1.
       -5    1    3    3    0  502  0.48143739553E+02 -0.75347550772E+01 -0.10824923329E+04  0.10835987879E+04  0.46999998093E+01 0.  1.
</event>
<event>
 5   0  0.1332555E-02  0.5950968E+03  0.7818609E-02  0.9915631E-01
        1   -1    0    0  501    0  0.00000000000E+00  0.00000000000E+00  0.10727413559E+04  0.10727413560E+04  0.50400001928E-02 0. -1.
       -1   -1    0    0    0  501  0.00000000000E+00  0.00000000000E+00 -0.82531584317E+02  0.82531584470E+02  0.50400001928E-02 0.  1.
    10030    2    1    2    0    0  0.00000000000E+00  0.00000000000E+00  0.99020977163E+03  0.11552729404E+04  0.59509677789E+03 0.  0.
        2    1    3    3  502    0 -0.16822987127E+03  0.23875841711E+03  0.60540484816E+03  0.67217698674E+03  0.25500000920E-02 0. -1.
       -2    1    3    3    0  502  0.16822987127E+03 -0.23875841711E+03  0.38480492347E+03  0.48309595368E+03  0.25500000920E-02 0.  1.
</event>
<event>
 5   0  0.1303808E-02  0.6000876E+03  0.7818609E-02  0.9905224E-01
       -1   -1    0    0    0  501  0.00000000000E+00  0.00000000000E+00  0.88187221185E+02  0.88187221329E+02  0.50400001928E-02 0. -1.
        1   -1    0    0  501    0  0.00000000000E+00  0.00000000000E+00 -0.10208540907E+04  0.10208540907E+04  0.50400001928E-02 0.  1.
    10030    2    1    2    0    0  0.00000000000E+00  0.00000000000E+00 -0.93266686954E+03  0.11090413121E+04  0.60008761221E+03 0.  0.
        4    1    3    3  502    0 -0.40210448770E+02  0.19901735092E+03 -0.87459873415E+03  0.89785819862E+03  0.12699999809E+01 0.  1.
       -4    1    3    3    0  502  0.40210448770E+02 -0.19901735092E+03 -0.58068135387E+02  0.21118311344E+03  0.12699999809E+01 0. -1.
</event>
<event>
 5   0  0.1303808E-02  0.5788395E+03  0.7818609E-02  0.9950307E-01
        1   -1    0    0  501    0  0.00000000000E+00  0.00000000000E+00  0.32465859294E+03  0.32465859298E+03  0.50400001928E-02 0.  1.
       -1   -1    0    0    0  501  0.00000000000E+00  0.00000000000E+00 -0.25800573186E+03  0.25800573191E+03  0.50400001928E-02 0. -1.
    10030    2    1    2    0    0  0.00000000000E+00  0.00000000000E+00  0.66652861086E+02  0.58266432489E+03  0.57883945236E+03 0.  0.
        4    1    3    3  502    0 -0.12878669271E+03  0.11247603613E+02 -0.22732405780E+03  0.26151550807E+03  0.12699999809E+01 0. -1.
       -4    1    3    3    0  502  0.12878669271E+03 -0.11247603613E+02  0.29397691889E+03  0.32114881682E+03  0.12699999809E+01 0.  1.
</event>
<event>
 5   0  0.1276705E-02  0.5938285E+03  0.7818609E-02  0.9918293E-01
       -1   -1    0    0    0  501  0.00000000000E+00  0.00000000000E+00  0.21927061924E+03  0.21927061930E+03  0.50400001928E-02 0.  1.
        1   -1    0    0  501    0  0.00000000000E+00  0.00000000000E+00 -0.40205143971E+03  0.40205143974E+03  0.50400001928E-02 0. -1.
    10030    2    1    2    0    0  0.00000000000E+00  0.00000000000E+00 -0.18278082047E+03  0.62132205904E+03  0.59382848763E+03 0.  0.
        1    1    3    3  502    0 -0.15686128165E+03  0.18265414062E+03  0.90407051251E+02  0.25717976536E+03  0.50400001928E-02 0.  1.
       -1    1    3    3    0  502  0.15686128165E+03 -0.18265414062E+03 -0.27318787172E+03  0.36414229368E+03  0.50400001928E-02 0. -1.
</event>
<event>
 5   0  0.2141800E-02  0.5998186E+03  0.7818609E-02  0.9905783E-01
       -2   -1    0    0    0  501  0.00000000000E+00  0.00000000000E+00  0.98917895500E+02  0.98917895533E+02  0.25500000920E-02 0.  1.
        2   -1    0    0  501    0  0.00000000000E+00  0.00000000000E+00 -0.90929528682E+03  0.90929528682E+03  0.25500000920E-02 0. -1.
    10030    2    1    2    0    0  0.00000000000E+00  0.00000000000E+00 -0.81037739132E+03  0.10082131824E+04  0.59981855983E+03 0.  0.
        2    1    3    3  502    0  0.33880872117E+02  0.28174898168E+03 -0.56828594892E+03  0.63520022191E+03  0.25500000920E-02 0. -1.
       -2    1    3    3    0  502 -0.33880872117E+02 -0.28174898168E+03 -0.24209144240E+03  0.37301296045E+03  0.25500000920E-02 0.  1.
</event>
<event>
 5   0  0.1276705E-02  0.5960233E+03  0.7818609E-02  0.9913691E-01
        1   -1    0    0  501    0  0.00000000000E+00  0.00000000000E+00  0.51612123533E+03  0.51612123535E+03  0.50400001928E-02 0. -1.
       -1   -1    0    0    0  501  0.00000000000E+00  0.00000000000E+00 -0.17207380810E+03  0.17207380817E+03  0.50400001928E-02 0.  1.
    10030    2    1    2    0    0  0.00000000000E+00  0.00000000000E+00  0.34404742723E+03  0.68819504352E+03  0.59602330973E+03 0.  0.
        1    1    3    3  502    0 -0.19406922450E+02 -0.26468178360E+02 -0.16998065236E+03  0.17312023367E+03  0.50400001928E-02 0.  1.
       -1    1    3    3    0  502  0.19406922450E+02  0.26468178360E+02  0.51402807960E+03  0.51507480985E+03  0.50400001928E-02 0. -1.
</event>
<event>
 5   0  0.1303808E-02  0.5997141E+03  0.7818609E-02  0.9905999E-01
        1   -1    0    0  501    0  0.00000000000E+00  0.00000000000E+00  0.33209970663E+03  0.33209970667E+03  0.50400001928E-02 0. -1.
       -1   -1    0    0    0  501  0.00000000000E+00  0.00000000000E+00 -0.27074475529E+03  0.27074475533E+03  0.50400001928E-02 0.  1.
    10030    2    1    2    0    0  0.00000000000E+00  0.00000000000E+00  0.61354951346E+02  0.60284446200E+03  0.59971411132E+03 0.  0.
        4    1    3    3  502    0 -0.10886790334E+03 -0.27874139583E+03  0.49846749886E+02  0.30337319839E+03  0.12699999809E+01 0. -1.
       -4    1    3    3    0  502  0.10886790334E+03  0.27874139583E+03  0.11508201460E+02  0.29947126361E+03  0.12699999809E+01 0.  1.
</event>
<event>
 5   0  0.2126207E-02  0.6000338E+03  0.7818609E-02  0.9905336E-01
        2   -1    0    0  501    0  0.00000000000E+00  0.00000000000E+00  0.11756912123E+04  0.11756912123E+04  0.25500000920E-02 0. -1.
       -2   -1    0    0    0  501  0.00000000000E+00  0.00000000000E+00 -0.76559332090E+02  0.76559332132E+02  0.25500000920E-02 0.  1.
    10030    2    1    2    0    0  0.00000000000E+00  0.00000000000E+00  0.10991318802E+04  0.12522505444E+04  0.60003377900E+03 0.  0.
        5    1    3    3  502    0 -0.22720230769E+03  0.80448915378E+02  0.17685022906E+03  0.29898329405E+03  0.46999998093E+01 0.  1.
       -5    1    3    3    0  502  0.22720230769E+03 -0.80448915378E+02  0.92228165114E+03  0.95326725037E+03  0.46999998093E+01 0. -1.
</event>
<event>
 5   0  0.8551000E-03  0.6023526E+03  0.7818609E-02  0.9900537E-01
       -4   -1    0    0    0  501  0.00000000000E+00  0.00000000000E+00  0.95744193871E+02  0.95752616465E+02  0.12699999809E+01 0.  1.
        4   -1    0    0  501    0  0.00000000000E+00  0.00000000000E+00 -0.94734015557E+03  0.94734100685E+03  0.12699999809E+01 0. -1.
    10030    2    1    2    0    0  0.00000000000E+00  0.00000000000E+00 -0.85159596170E+03  0.10430936233E+04  0.60235257534E+03 0.  0.
        2    1    3    3  502    0 -0.20908947367E+03 -0.19466656182E+03 -0.59093418744E+03  0.65636627898E+03  0.25500000920E-02 0.  1.
       -2    1    3    3    0  502  0.20908947367E+03  0.19466656182E+03 -0.26066177426E+03  0.38672734434E+03  0.25500000920E-02 0. -1.
</event>
<event>
 5   0  0.1250390E-02  0.5992131E+03  0.7818609E-02  0.9907040E-01
       -1   -1    0    0    0  501  0.00000000000E+00  0.00000000000E+00  0.17470376807E+03  0.17470376814E+03  0.50400001928E-02 0.  1.
        1   -1    0    0  501    0  0.00000000000E+00  0.00000000000E+00 -0.51380734979E+03  0.51380734982E+03  0.50400001928E-02 0. -1.
    10030    2    1    2    0    0  0.00000000000E+00  0.00000000000E+00 -0.33910358172E+03  0.68851111796E+03  0.59921308431E+03 0.  0.
        3    1    3    3  502    0 -0.27573134107E+03 -0.67903680601E+02 -0.59788952216E+02  0.29019547084E+03  0.10100000352E+00 0.  1.
       -3    1    3    3    0  502  0.27573134107E+03  0.67903680601E+02 -0.27931462951E+03  0.39831564712E+03  0.10100000352E+00 0. -1.
</event>
<event>
 5   0  0.1303808E-02  0.5982249E+03  0.7818609E-02  0.9909096E-01
        1   -1    0    0  501    0  0.00000000000E+00  0.00000000000E+00  0.83429930162E+03  0.83429930163E+03  0.50400001928E-02 0.  1.
       -1   -1    0    0    0  501  0.00000000000E+00  0.00000000000E+00 -0.10723759475E+03  0.10723759487E+03  0.50400001928E-02 0. -1.
    10030    2    1    2    0    0  0.00000000000E+00  0.00000000000E+00  0.72706170687E+03  0.94153689650E+03  0.59822487568E+03 0.  0.
        4    1    3    3  502    0 -0.17790380535E+02  0.14176015871E+03  0.77711884083E+03  0.79014412984E+03  0.12699999809E+01 0.  1.
       -4    1    3    3    0  502  0.17790380535E+02 -0.14176015871E+03 -0.50057133969E+02  0.15139276666E+03  0.12699999809E+01 0. -1.
</event>
<event>
 5   0  0.1332555E-02  0.6025879E+03  0.7818609E-02  0.9900052E-01
       -1   -1    0    0    0  501  0.00000000000E+00  0.00000000000E+00  0.11993204271E+03  0.11993204281E+03  0.50400001928E-02 0. -1.
        1   -1    0    0  501    0  0.00000000000E+00  0.00000000000E+00 -0.75691224266E+03  0.75691224268E+03  0.50400001928E-02 0.  1.
    10030    2    1    2    0    0  0.00000000000E+00  0.00000000000E+00 -0.63698019995E+03  0.87684428549E+03  0.60258785738E+03 0.  0.
        2    1    3    3  502    0 -0.21286079353E+03 -0.75114571737E+02 -0.60888305257E+03  0.64937699992E+03  0.25500000920E-02 0. -1.
       -2    1    3    3    0  502  0.21286079353E+03  0.75114571737E+02 -0.28097147379E+02  0.22746728557E+03  0.25500000920E-02 0.  1.
</event>
<event>
 5   0  0.2142838E-02  0.6006772E+03  0.7818609E-02  0.9904002E-01
       -2   -1    0    0    0  501  0.00000000000E+00  0.00000000000E+00  0.22872741320E+03  0.22872741322E+03  0.25500000920E-02 0.  1.
        2   -1    0    0  501    0  0.00000000000E+00  0.00000000000E+00 -0.39437024450E+03  0.39437024451E+03  0.25500000920E-02 0. -1.
    10030    2    1    2    0    0  0.00000000000E+00  0.00000000000E+00 -0.16564283130E+03  0.62309765773E+03  0.60067723738E+03 0.  0.
        4    1    3    3  502    0  0.19483656956E+01 -0.28190936738E+03  0.24605547666E+02  0.28299069493E+03  0.12699999809E+01 0. -1.
       -4    1    3    3    0  502 -0.19483656956E+01  0.28190936738E+03 -0.19024837897E+03  0.34010696279E+03  0.12699999809E+01 0.  1.
</event>
<event>
 5   0  0.1337051E-02  0.5999943E+03  0.7818609E-02  0.9905418E-01
       -1   -1    0    0    0  501  0.00000000000E+00  0.00000000000E+00  0.71175528769E+02  0.71175528948E+02  0.50400001928E-02 0.  1.
        1   -1    0    0  501    0  0.00000000000E+00  0.00000000000E+00 -0.12644555843E+04  0.12644555843E+04  0.50400001928E-02 0. -1.
    10030    2    1    2    0    0  0.00000000000E+00  0.00000000000E+00 -0.11932800555E+04  0.13356311132E+04  0.59999431644E+03 0.  0.
        5    1    3    3  502    0 -0.73255876518E+02 -0.19350401263E+03 -0.11318752192E+03  0.23588923559E+03  0.46999998093E+01 0.  1.
       -5    1    3    3    0  502  0.73255876518E+02  0.19350401263E+03 -0.10800925336E+04  0.10997418776E+04  0.46999998093E+01 0. -1.
</event>
<event>
 5   0  0.1250390E-02  0.5954995E+03  0.7818609E-02  0.9914787E-01
       -1   -1    0    0    0  501  0.00000000000E+00  0.00000000000E+00  0.69106071796E+02  0.69106071980E+02  0.50400001928E-02 0.  1.
        1   -1    0    0  501    0  0.00000000000E+00  0.00000000000E+00 -0.12828818122E+04  0.12828818122E+04  0.50400001928E-02 0. -1.
    10030    2    1    2    0    0  0.00000000000E+00  0.00000000000E+00 -0.12137757404E+04  0.13519878842E+04  0.59549953066E+03 0.  0.
        3    1    3    3  502    0 -0.61333399163E+02 -0.28914750839E+03 -0.68833101062E+03  0.74911124531E+03  0.10100000352E+00 0.  1.
       -3    1    3    3    0  502  0.61333399163E+02  0.28914750839E+03 -0.52544472982E+03  0.60287663892E+03  0.10100000352E+00 0. -1.
</event>
<event>
 5   0  0.2141800E-02  0.6026858E+03  0.7818609E-02  0.9899850E-01
       -2   -1    0    0    0  501  0.00000000000E+00  0.00000000000E+00  0.41271516116E+02  0.41271516194E+02  0.25500000920E-02 0. -1.
        2   -1    0    0  501    0  0.00000000000E+00  0.00000000000E+00 -0.22002472395E+04  0.22002472395E+04  0.25500000920E-02 0.  1.
    10030    2    1    2    0    0  0.00000000000E+00  0.00000000000E+00 -0.21589757234E+04  0.22415187557E+04  0.60268578710E+03 0.  0.
        2    1    3    3  502    0  0.22637024411E+02  0.28692437184E+03 -0.74746558554E+03  0.80096368932E+03  0.25500000920E-02 0. -1.
       -2    1    3    3    0  502 -0.22637024411E+02 -0.28692437184E+03 -0.14115101378E+04  0.14405550664E+04  0.25500000920E-02 0.  1.
</event>
<event>
 5   0  0.2126207E-02  0.5957647E+03  0.7818609E-02  0.9914232E-01
       -2   -1    0    0    0  501  0.00000000000E+00  0.00000000000E+00  0.79377720823E+02  0.79377720864E+02  0.25500000920E-02 0.  1.
        2   -1    0    0  501    0  0.00000000000E+00  0.00000000000E+00 -0.11178688279E+04  0.11178688279E+04  0.25500000920E-02 0. -1.
    10030    2    1    2    0    0  0.00000000000E+00  0.00000000000E+00 -0.10384911071E+04  0.11972465487E+04  0.59576465072E+03 0.  0.
        5    1    3    3  502    0 -0.13983974075E+02  0.16393564954E+03 -0.10181816236E+04  0.10314001926E+04  0.46999998093E+01 0. -1.
       -5    1    3    3    0  502  0.13983974075E+02 -0.16393564954E+03 -0.20309483456E+02  0.16584635612E+03  0.46999998093E+01 0.  1.
</event>
<event>
 5   0  0.2092587E-02  0.6007474E+03  0.7818609E-02  0.9903857E-01
       -2   -1    0    0    0  501  0.00000000000E+00  0.00000000000E+00  0.10353348814E+03  0.10353348817E+03  0.25500000920E-02 0.  1.
        2   -1    0    0  501    0  0.00000000000E+00  0.00000000000E+00 -0.87145094016E+03  0.87145094016E+03  0.25500000920E-02 0. -1.
    10030    2    1    2    0    0  0.00000000000E+00  0.00000000000E+00 -0.76791745202E+03  0.97498442833E+03  0.60074738649E+03 0.  0.
        3    1    3    3  502    0 -0.20750971038E+03 -0.14125348234E+03 -0.11623788293E+03  0.27662986427E+03  0.10100000352E+00 0.  1.
       -3    1    3    3    0  502  0.20750971038E+03  0.14125348234E+03 -0.65167956909E+03  0.69835456406E+03  0.10100000352E+00 0. -1.
</event>
<event>
 5   0  0.8551000E-03  0.5989901E+03  0.7818609E-02  0.9907504E-01
        4   -1    0    0  501    0  0.00000000000E+00  0.00000000000E+00  0.39806535589E+03  0.39806738181E+03  0.12699999809E+01 0. -1.
       -4   -1    0    0    0  501  0.00000000000E+00  0.00000000000E+00 -0.22532864527E+03  0.22533222424E+03  0.12699999809E+01 0.  1.
    10030    2    1    2    0    0  0.00000000000E+00  0.00000000000E+00  0.17273671062E+03  0.62339960604E+03  0.59899006471E+03 0.  0.
        3    1    3    3  502    0 -0.12361516944E+03 -0.25844988286E+03  0.17721950665E+03  0.33687359025E+03  0.10100000352E+00 0. -1.
       -3    1    3    3    0  502  0.12361516944E+03  0.25844988286E+03 -0.44827960371E+01  0.28652601580E+03  0.10100000352E+00 0.  1.
</event>
<event>
 5   0  0.2092587E-02  0.6019635E+03  0.7818609E-02  0.9901341E-01
        2   -1    0    0  501    0  0.00000000000E+00  0.00000000000E+00  0.74376994712E+03  0.74376994712E+03  0.25500000920E-02 0.  1.
       -2   -1    0    0    0  501  0.00000000000E+00  0.00000000000E+00 -0.12179844671E+03  0.12179844674E+03  0.25500000920E-02 0. -1.
    10030    2    1    2    0    0  0.00000000000E+00  0.00000000000E+00  0.62197150041E+03  0.86556839386E+03  0.60196353472E+03 0.  0.
        3    1    3    3  502    0 -0.87549031468E+02 -0.68024104420E+02  0.71333784784E+03  0.72190235285E+03  0.10100000352E+00 0.  1.
       -3    1    3    3    0  502  0.87549031468E+02  0.68024104420E+02 -0.91366347434E+02  0.14366604100E+03  0.10100000352E+00 0. -1.
</event>
<event>
 5   0  0.1337051E-02  0.5956811E+03  0.7818609E-02  0.9914407E-01
        1   -1    0    0  501    0  0.00000000000E+00  0.00000000000E+00  0.66906182466E+03  0.66906182468E+03  0.50400001928E-02 0.  1.
       -1   -1    0    0    0  501  0.00000000000E+00  0.00000000000E+00 -0.13258715666E+03  0.13258715675E+03  0.50400001928E-02 0. -1.
    10030    2    1    2    0    0  0.00000000000E+00  0.00000000000E+00  0.53647466801E+03  0.80164898144E+03  0.59568113956E+03 0.  0.
        5    1    3    3  502    0  0.12690024867E+01 -0.22545475049E+03  0.63981372346E+01  0.22559805195E+03  0.46999998093E+01 0. -1.
       -5    1    3    3    0  502 -0.12690024867E+01  0.22545475049E+03  0.53007653077E+03  0.57605092948E+03  0.46999998093E+01 0.  1.
</event>
<event>
 5   0  0.1250390E-02  0.5982987E+03  0.7818609E-02  0.9908942E-01
       -1   -1    0    0    0  501  0.00000000000E+00  0.00000000000E+00  0.49946541320E+02  0.49946541574E+02  0.50400001928E-02 0. -1.
        1   -1    0    0  501    0  0.00000000000E+00  0.00000000000E+00 -0.17917224371E+04  0.17917224371E+04  0.50400001928E-02 0.  1.
    10030    2    1    2    0    0  0.00000000000E+00  0.00000000000E+00 -0.17417758957E+04  0.18416689786E+04  0.59829871796E+03 0.  0.
        3    1    3    3  502    0  0.12658459190E+03 -0.52696878291E+02 -0.16892992103E+04  0.16948546993E+04  0.10100000352E+00 0.  1.
       -3    1    3    3    0  502 -0.12658459190E+03  0.52696878291E+02 -0.52476685488E+02  0.14681427931E+03  0.10100000352E+00 0. -1.
</event>
<event>
 5   0  0.8551000E-03  0.5977999E+03  0.7818609E-02  0.9909981E-01
       -3   -1    0    0    0  501  0.00000000000E+00  0.00000000000E+00  0.78135242722E+03  0.78135243375E+03  0.10100000352E+00 0.  1.
        3   -1    0    0  501    0  0.00000000000E+00  0.00000000000E+00 -0.11434170796E+03  0.11434175257E+03  0.10100000352E+00 0. -1.
    10030    2    1    2    0    0  0.00000000000E+00  0.00000000000E+00  0.66701071926E+03  0.89569418632E+03  0.59779994630E+03 0.  0.
        1    1    3    3  502    0  0.89740758139E+02  0.28506400906E+03  0.32582131401E+03  0.44212489369E+03  0.50400001928E-02 0. -1.
       -1    1    3    3    0  502 -0.89740758139E+02 -0.28506400906E+03  0.34118940525E+03  0.45356929263E+03  0.50400001928E-02 0.  1.
</event>
<event>
 5   0  0.1303808E-02  0.6064099E+03  0.7818609E-02  0.9892196E-01
        1   -1    0    0  501    0  0.00000000000E+00  0.00000000000E+00  0.28302134119E+03  0.28302134123E+03  0.50400001928E-02 0. -1.
       -1   -1    0    0    0  501  0.00000000000E+00  0.00000000000E+00 -0.32482799470E+03  0.32482799474E+03  0.50400001928E-02 0.  1.
    10030    2    1    2    0    0  0.00000000000E+00  0.00000000000E+00 -0.41806653516E+02  0.60784933598E+03  0.60640994300E+03 0.  0.
        4    1    3    3  502    0 -0.16479346929E+03  0.25377454926E+03 -0.15382447146E+01  0.30259277663E+03  0.12699999809E+01 0.  1.
       -4    1    3    3    0  502  0.16479346929E+03 -0.25377454926E+03 -0.40268408802E+02  0.30525655934E+03  0.12699999809E+01 0. -1.
</event>
<event>
 5   0  0.2142838E-02  0.5915635E+03  0.7818609E-02  0.9923065E-01
        2   -1    0    0  501    0  0.00000000000E+00  0.00000000000E+00  0.33894515544E+03  0.33894515545E+03  0.25500000920E-02 0. -1.
       -2   -1    0    0    0  501  0.00000000000E+00  0.00000000000E+00 -0.25811506170E+03  0.25811506171E+03  0.25500000920E-02 0.  1.
    10030    2    1    2    0    0  0.00000000000E+00  0.00000000000E+00  0.80830093737E+02  0.59706021716E+03  0.59156352056E+03 0.  0.
        4    1    3    3  502    0  0.60382460703E+02 -0.10353252885E+03 -0.23250501864E+03  0.26158215284E+03  0.12699999809E+01 0.  1.
       -4    1    3    3    0  502 -0.60382460703E+02  0.10353252885E+03  0.31333511238E+03  0.33547806432E+03  0.12699999809E+01 0. -1.
</event>
<event>
 5   0  0.1303808E-02  0.6001314E+03  0.7818609E-02  0.9905133E-01
       -1   -1    0    0    0  501  0.00000000000E+00  0.00000000000E+00  0.71434103991E+02  0.71434104169E+02  0.50400001928E-02 0. -1.
        1   -1    0    0  501    0  0.00000000000E+00  0.00000000000E+00 -0.12604544342E+04  0.12604544342E+04  0.50400001928E-02 0.  1.
    10030    2    1    2    0    0  0.00000000000E+00  0.00000000000E+00 -0.11890203302E+04  0.13318885384E+04  0.60013142979E+03 0.  0.
        4    1    3    3  502    0  0.60404339485E+02 -0.22077451382E+03 -0.16389331133E+03  0.28151856170E+03  0.12699999809E+01 0. -1.
       -4    1    3    3    0  502 -0.60404339485E+02  0.22077451382E+03 -0.10251270189E+04  0.10503699767E+04  0.12699999809E+01 0.  1.
</event>
<event>
 5   0  0.2126207E-02  0.6012367E+03  0.7818609E-02  0.9902844E-01
       -2   -1    0    0    0  501  0.00000000000E+00  0.00000000000E+00  0.55886196777E+02  0.55886196835E+02  0.25500000920E-02 0.  1.
        2   -1    0    0  501    0  0.00000000000E+00  0.00000000000E+00 -0.16170611490E+04  0.16170611490E+04  0.25500000920E-02 0. -1.
    10030    2    1    2    0    0  0.00000000000E+00  0.00000000000E+00 -0.15611749523E+04  0.16729473459E+04  0.60123671753E+03 0.  0.
        5    1    3    3  502    0  0.48529229809E+02  0.31150699541E+02 -0.16014226100E+04  0.16024674468E+04  0.46999998093E+01 0. -1.
       -5    1    3    3    0  502 -0.48529229809E+02 -0.31150699541E+02  0.40247657715E+02  0.70479899102E+02  0.46999998093E+01 0.  1.
</event>
<event>
 5   0  0.1250390E-02  0.5803042E+03  0.7818609E-02  0.9947133E-01
        1   -1    0    0  501    0  0.00000000000E+00  0.00000000000E+00  0.10622248509E+04  0.10622248509E+04  0.50400001928E-02 0. -1.
       -1   -1    0    0    0  501  0.00000000000E+00  0.00000000000E+00 -0.79256522283E+02  0.79256522443E+02  0.50400001928E-02 0.  1.
    10030    2    1    2    0    0  0.00000000000E+00  0.00000000000E+00  0.98296832863E+03  0.11414813734E+04  0.58030422250E+03 0.  0.
        3    1    3    3  502    0 -0.20769902994E+03  0.11426704265E+03  0.82058812947E+03  0.85414327399E+03  0.10100000352E+00 0. -1.
       -3    1    3    3    0  502  0.20769902994E+03 -0.11426704265E+03  0.16238019916E+03  0.28733809937E+03  0.10100000352E+00 0.  1.
</event>
<event>
 5   0  0.2141800E-02  0.6019219E+03  0.7818609E-02  0.9901427E-01
        2   -1    0    0  501    0  0.00000000000E+00  0.00000000000E+00  0.79666994751E+03  0.79666994751E+03  0.25500000920E-02 0.  1.
       -2   -1    0    0    0  501  0.00000000000E+00  0.00000000000E+00 -0.11369512174E+03  0.11369512177E+03  0.25500000920E-02 0. -1.
    10030    2    1    2    0    0  0.00000000000E+00  0.00000000000E+00  0.68297482576E+03  0.91036506928E+03  0.60192187761E+03 0.  0.
        2    1    3    3  502    0 -0.84298476463E+02  0.11347132165E+03 -0.60362617261E+02  0.15370627684E+03  0.25500000920E-02 0. -1.
       -2    1    3    3    0  502  0.84298476463E+02 -0.11347132165E+03  0.74333744302E+03  0.75665879244E+03  0.25500000920E-02 0.  1.
</event>
<event>
 5   0  0.2142838E-02  0.6017469E+03  0.7818609E-02  0.9901788E-01
        2   -1    0    0  501    0  0.00000000000E+00  0.00000000000E+00  0.31269400455E+03  0.31269400456E+03  0.25500000920E-02 0.  1.
       -2   -1    0    0    0  501  0.00000000000E+00  0.00000000000E+00 -0.28949972534E+03  0.28949972535E+03  0.25500000920E-02 0. -1.
    10030    2    1    2    0    0  0.00000000000E+00  0.00000000000E+00  0.23194279216E+02  0.60219372991E+03  0.60174688513E+03 0.  0.
        4    1    3    3  502    0  0.81435210602E+02  0.28151628583E+03  0.79766023083E+02  0.30372247867E+03  0.12699999809E+01 0.  1.
       -4    1    3    3    0  502 -0.81435210602E+02 -0.28151628583E+03 -0.56571743868E+02  0.29847125124E+03  0.12699999809E+01 0. -1.
</event>
<event>
 5   0  0.2141800E-02  0.6045978E+03  0.7818609E-02  0.9895913E-01
        2   -1    0    0  501    0  0.00000000000E+00  0.00000000000E+00  0.89714509364E+03  0.89714509364E+03  0.25500000920E-02 0. -1.
       -2   -1    0    0    0  501  0.00000000000E+00  0.00000000000E+00 -0.10186157454E+03  0.10186157457E+03  0.25500000920E-02 0.  1.
    10030    2    1    2    0    0  0.00000000000E+00  0.00000000000E+00  0.79528351910E+03  0.99900666822E+03  0.60459775669E+03 0.  0.
        2    1    3    3  502    0  0.17172854577E+03  0.15587150839E+03  0.77247905182E+02  0.24444602558E+03  0.25500000920E-02 0.  1.
       -2    1    3    3    0  502 -0.17172854577E+03 -0.15587150839E+03  0.71803561392E+03  0.75456064264E+03  0.25500000920E-02 0. -1.
</event>
<event>
 5   0  0.1303808E-02  0.6011219E+03  0.7818609E-02  0.9903081E-01
        1   -1    0    0  501    0  0.00000000000E+00  0.00000000000E+00  0.33861396703E+03  0.33861396706E+03  0.50400001928E-02 0. -1.
       -1   -1    0    0    0  501  0.00000000000E+00  0.00000000000E+00 -0.26678427892E+03  0.26678427897E+03  0.50400001928E-02 0.  1.
    10030    2    1    2    0    0  0.00000000000E+00  0.00000000000E+00  0.71829688105E+02  0.60539824603E+03  0.60112189463E+03 0.  0.
        4    1    3    3  502    0 -0.24280981822E+03 -0.14362226597E+03 -0.68511300579E+02  0.29030910133E+03  0.12699999809E+01 0.  1.
       -4    1    3    3    0  502  0.24280981822E+03  0.14362226597E+03  0.14034098868E+03  0.31508914470E+03  0.12699999809E+01 0. -1.
</event>
<event>
 5   0  0.2126207E-02  0.5983539E+03  0.7818609E-02  0.9908827E-01
        2   -1    0    0  501    0  0.00000000000E+00  0.00000000000E+00  0.32169914789E+03  0.32169914790E+03  0.25500000920E-02 0.  1.
       -2   -1    0    0    0  501  0.00000000000E+00  0.00000000000E+00 -0.27823153660E+03  0.27823153661E+03  0.25500000920E-02 0. -1.
    10030    2    1    2    0    0  0.00000000000E+00  0.00000000000E+00  0.43467611296E+02  0.59993068451E+03  0.59835390279E+03 0.  0.
        5    1    3    3  502    0  0.23959139037E+03  0.13889588826E+03 -0.91651141553E+02  0.29175010516E+03  0.46999998093E+01 0. -1.
       -5    1    3    3    0  502 -0.23959139037E+03 -0.13889588826E+03  0.13511875285E+03  0.30818057935E+03  0.46999998093E+01 0.  1.
</event>
<event>
 5   0  0.1332555E-02  0.6126066E+03  0.7818609E-02  0.9879591E-01
        1   -1    0    0  501    0  0.00000000000E+00  0.00000000000E+00  0.97129896774E+03  0.97129896776E+03  0.50400001928E-02 0.  1.
       -1   -1    0    0    0  501  0.00000000000E+00  0.00000000000E+00 -0.96594047195E+02  0.96594047327E+02  0.50400001928E-02 0. -1.
    10030    2    1    2    0    0  0.00000000000E+00  0.00000000000E+00  0.87470492055E+03  0.10678930151E+04  0.61260655696E+03 0.  0.
        2    1    3    3  502    0 -0.75909383257E+02 -0.29278749168E+03  0.35311897476E+03  0.46495135240E+03  0.25500000920E-02 0. -1.
       -2    1    3    3    0  502  0.75909383257E+02  0.29278749168E+03  0.52158594578E+03  0.60294166268E+03  0.25500000920E-02 0.  1.
</event>
<event>
 5   0  0.1276705E-02  0.6019405E+03  0.7818609E-02  0.9901388E-01
       -1   -1    0    0    0  501  0.00000000000E+00  0.00000000000E+00  0.11631266547E+03  0.11631266558E+03  0.50400001928E-02 0. -1.
        1   -1    0    0  501    0  0.00000000000E+00  0.00000000000E+00 -0.77878954443E+03  0.77878954445E+03  0.50400001928E-02 0.  1.
    10030    2    1    2    0    0  0.00000000000E+00  0.00000000000E+00 -0.66247687896E+03  0.89510221003E+03  0.60194048811E+03 0.  0.
        1    1    3    3  502    0 -0.17479228951E+03  0.12011105698E+03 -0.64879486872E+03  0.68257878094E+03  0.50400001928E-02 0.  1.
       -1    1    3    3    0  502  0.17479228951E+03 -0.12011105698E+03 -0.13682010245E+02  0.21252342909E+03  0.50400001928E-02 0. -1.
</event>
<event>
 5   0  0.1337051E-02  0.6020190E+03  0.7818609E-02  0.9901226E-01
        1   -1    0    0  501    0  0.00000000000E+00  0.00000000000E+00  0.55177456779E+03  0.55177456781E+03  0.50400001928E-02 0.  1.
       -1   -1    0    0    0  501  0.00000000000E+00  0.00000000000E+00 -0.16420967556E+03  0.16420967564E+03  0.50400001928E-02 0. -1.
    10030    2    1    2    0    0  0.00000000000E+00  0.00000000000E+00  0.38756489223E+03  0.71598424345E+03  0.60201901231E+03 0.  0.
        5    1    3    3  502    0 -0.52243455626E+02  0.24053561293E+03  0.39976881860E+03  0.46949329928E+03  0.46999998093E+01 0.  1.
       -5    1    3    3    0  502  0.52243455626E+02 -0.24053561293E+03 -0.12203926369E+02  0.24649094417E+03  0.46999998093E+01 0. -1.
</event>
<event>
 5   0  0.1332555E-02  0.5997917E+03  0.7818609E-02  0.9905838E-01
        1   -1    0    0  501    0  0.00000000000E+00  0.00000000000E+00  0.13336763593E+03  0.13336763603E+03  0.50400001928E-02 0.  1.
       -1   -1    0    0    0  501  0.00000000000E+00  0.00000000000E+00 -0.67435780907E+03  0.67435780908E+03  0.50400001928E-02 0. -1.
    10030    2    1    2    0    0  0.00000000000E+00  0.00000000000E+00 -0.54099017313E+03  0.80772544511E+03  0.59979165320E+03 0.  0.
        2    1    3    3  502    0  0.11745458709E+03 -0.40448841386E+02 -0.63808064461E+03  0.65006045706E+03  0.25500000920E-02 0. -1.
       -2    1    3    3    0  502 -0.11745458709E+03  0.40448841386E+02  0.97090471479E+02  0.15766498805E+03  0.25500000920E-02 0.  1.
</event>
<event>
 5   0  0.2179625E-02  0.6000689E+03  0.7818609E-02  0.9905263E-01
        2   -1    0    0  501    0  0.00000000000E+00  0.00000000000E+00  0.72135135663E+03  0.72135135663E+03  0.25500000920E-02 0. -1.
       -2   -1    0    0    0  501  0.00000000000E+00  0.00000000000E+00 -0.12479448806E+03  0.12479448809E+03  0.25500000920E-02 0.  1.
    10030    2    1    2    0    0  0.00000000000E+00  0.00000000000E+00  0.59655686857E+03  0.84614584472E+03  0.60006890696E+03 0.  0.
        1    1    3    3  502    0 -0.26807040701E+03  0.12701524943E+03  0.23480823186E+03  0.37832462578E+03  0.50400001928E-02 0. -1.
       -1    1    3    3    0  502  0.26807040701E+03 -0.12701524943E+03  0.36174863671E+03  0.46782121893E+03  0.50400001928E-02 0.  1.
</event>
<event>
 5   0  0.1303808E-02  0.5972517E+03  0.7818609E-02  0.9911124E-01
        1   -1    0    0  501    0  0.00000000000E+00  0.00000000000E+00  0.10305031664E+04  0.10305031664E+04  0.50400001928E-02 0.  1.
       -1   -1    0    0    0  501  0.00000000000E+00  0.00000000000E+00 -0.86537710538E+02  0.86537710685E+02  0.50400001928E-02 0. -1.
    10030    2    1    2    0    0  0.00000000000E+00  0.00000000000E+00  0.94396545585E+03  0.11170408771E+04  0.59725165487E+03 0.  0.
        4    1    3    3  502    0  0.19036529391E+03 -0.91615550316E+02  0.86671576175E+03  0.89209314466E+03  0.12699999809E+01 0.  1.
       -4    1    3    3    0  502 -0.19036529391E+03  0.91615550316E+02  0.77249694096E+02  0.22494773242E+03  0.12699999809E+01 0. -1.
</event>
<event>
 5   0  0.2092587E-02  0.6009888E+03  0.7818609E-02  0.9903357E-01
       -2   -1    0    0    0  501  0.00000000000E+00  0.00000000000E+00  0.11955897632E+03  0.11955897635E+03  0.25500000920E-02 0. -1.
        2   -1    0    0  501    0  0.00000000000E+00  0.00000000000E+00 -0.75524984925E+03  0.75524984926E+03  0.25500000920E-02 0.  1.
    10030    2    1    2    0    0  0.00000000000E+00  0.00000000000E+00 -0.63569087293E+03  0.87480882560E+03  0.60098884800E+03 0.  0.
        3    1    3    3  502    0 -0.21621182778E+03 -0.14413536501E+03 -0.98176041327E+02  0.27777887467E+03  0.10100000352E+00 0. -1.
       -3    1    3    3    0  502  0.21621182778E+03  0.14413536501E+03 -0.53751483161E+03  0.59702995094E+03  0.10100000352E+00 0.  1.
</event>
<event>
 5   0  0.2179625E-02  0.6114239E+03  0.7818609E-02  0.9881984E-01
       -2   -1    0    0    0  501  0.00000000000E+00  0.00000000000E+00  0.25861256049E+03  0.25861256050E+03  0.25500000920E-02 0. -1.
        2   -1    0    0  501    0  0.00000000000E+00  0.00000000000E+00 -0.36138929715E+03  0.36138929716E+03  0.25500000920E-02 0.  1.
    10030    2    1    2    0    0  0.00000000000E+00  0.00000000000E+00 -0.10277673666E+03  0.62000185767E+03  0.61142394941E+03 0.  0.
        1    1    3    3  502    0 -0.17644283257E+03  0.17807669259E+03  0.12604194441E+03  0.28058858385E+03  0.50400001928E-02 0. -1.
       -1    1    3    3    0  502  0.17644283257E+03 -0.17807669259E+03 -0.22881868107E+03  0.33941327382E+03  0.50400001928E-02 0.  1.
</event>
<event>
 5   0  0.2179625E-02  0.5991880E+03  0.7818609E-02  0.9907092E-01
       -2   -1    0    0    0  501  0.00000000000E+00  0.00000000000E+00  0.26270714553E+03  0.26270714554E+03  0.25500000920E-02 0. -1.
        2   -1    0    0  501    0  0.00000000000E+00  0.00000000000E+00 -0.34166010301E+03  0.34166010302E+03  0.25500000920E-02 0.  1.
    10030    2    1    2    0    0  0.00000000000E+00  0.00000000000E+00 -0.78952957476E+02  0.60436724856E+03  0.59918795184E+03 0.  0.
        1    1    3    3  502    0 -0.18577728997E+02 -0.11724057603E+03  0.23797588282E+03  0.26593797305E+03  0.50400001928E-02 0. -1.
       -1    1    3    3    0  502  0.18577728997E+02  0.11724057603E+03 -0.31692884029E+03  0.33842927550E+03  0.50400001928E-02 0.  1.
</event>
<event>
 5   0  0.2126207E-02  0.5976943E+03  0.7818609E-02  0.9910201E-01
       -2   -1    0    0    0  501  0.00000000000E+00  0.00000000000E+00  0.11669329485E+03  0.11669329487E+03  0.25500000920E-02 0.  1.
        2   -1    0    0  501    0  0.00000000000E+00  0.00000000000E+00 -0.76533629325E+03  0.76533629325E+03  0.25500000920E-02 0. -1.
    10030    2    1    2    0    0  0.00000000000E+00  0.00000000000E+00 -0.64864299840E+03  0.88202958813E+03  0.59769428218E+03 0.  0.
        5    1    3    3  502    0  0.23689212503E+03  0.35208668142E+02 -0.58801745841E+03  0.63493633587E+03  0.46999998093E+01 0. -1.
       -5    1    3    3    0  502 -0.23689212503E+03 -0.35208668142E+02 -0.60625539993E+02  0.24709325226E+03  0.46999998093E+01 0.  1.
</event>
<event>
 5   0  0.1337051E-02  0.5889790E+03  0.7818609E-02  0.9928539E-01
        1   -1    0    0  501    0  0.00000000000E+00  0.00000000000E+00  0.16722028322E+03  0.16722028330E+03  0.50400001928E-02 0.  1.
       -1   -1    0    0    0  501  0.00000000000E+00  0.00000000000E+00 -0.51862167250E+03  0.51862167253E+03  0.50400001928E-02 0. -1.
    10030    2    1    2    0    0  0.00000000000E+00  0.00000000000E+00 -0.35140138928E+03  0.68584195583E+03  0.58897899112E+03 0.  0.
        5    1    3    3  502    0  0.18793148554E+03  0.19507482058E+03 -0.41259645296E+02  0.27403809445E+03  0.46999998093E+01 0. -1.
       -5    1    3    3    0  502 -0.18793148554E+03 -0.19507482058E+03 -0.31014174398E+03  0.41180386137E+03  0.46999998093E+01 0.  1.
</event>
<event>
 5   0  0.2092587E-02  0.5998160E+03  0.7818609E-02  0.9905788E-01
        2   -1    0    0  501    0  0.00000000000E+00  0.00000000000E+00  0.96945194477E+03  0.96945194477E+03  0.25500000920E-02 0.  1.
       -2   -1    0    0    0  501  0.00000000000E+00  0.00000000000E+00 -0.92779022254E+02  0.92779022289E+02  0.25500000920E-02 0. -1.
    10030    2    1    2    0    0  0.00000000000E+00  0.00000000000E+00  0.87667292251E+03  0.10622309671E+04  0.59981598371E+03 0.  0.
        3    1    3    3  502    0  0.22668845394E+03  0.17009134634E+02  0.91904599422E+02  0.24520079813E+03  0.10100000352E+00 0. -1.
       -3    1    3    3    0  502 -0.22668845394E+03 -0.17009134634E+02  0.78476832309E+03  0.81703016893E+03  0.10100000352E+00 0.  1.
</event>
<event>
 5   0  0.1332555E-02  0.5906495E+03  0.7818609E-02  0.9924997E-01
       -1   -1    0    0    0  501  0.00000000000E+00  0.00000000000E+00  0.12501137792E+03  0.12501137803E+03  0.50400001928E-02 0.  1.
        1   -1    0    0  501    0  0.00000000000E+00  0.00000000000E+00 -0.69767027130E+03  0.69767027132E+03  0.50400001928E-02 0. -1.
    10030    2    1    2    0    0  0.00000000000E+00  0.00000000000E+00 -0.57265889338E+03  0.82268164935E+03  0.59064954754E+03 0.  0.
        2    1    3    3  502    0  0.81021394704E+02 -0.25200808532E+03 -0.46870234500E+03  0.53828842611E+03  0.25500000920E-02 0. -1.
       -2    1    3    3    0  502 -0.81021394704E+02  0.25200808532E+03 -0.10395654838E+03  0.28439322324E+03  0.25500000920E-02 0.  1.
</event>
<event>
 5   0  0.1276705E-02  0.5978039E+03  0.7818609E-02  0.9909973E-01
        1   -1    0    0  501    0  0.00000000000E+00  0.00000000000E+00  0.18051806059E+04  0.18051806059E+04  0.50400001928E-02 0. -1.
       -1   -1    0    0    0  501  0.00000000000E+00  0.00000000000E+00 -0.49492206299E+02  0.49492206555E+02  0.50400001928E-02 0.  1.
    10030    2    1    2    0    0  0.00000000000E+00  0.00000000000E+00  0.17556883996E+04  0.18546728125E+04  0.59780388490E+03 0.  0.
        1    1    3    3  502    0  0.24106377988E+03 -0.13815148946E+03  0.12197477406E+04  0.12509924583E+04  0.50400001928E-02 0. -1.
       -1    1    3    3    0  502 -0.24106377988E+03  0.13815148946E+03  0.53594065905E+03  0.60368035421E+03  0.50400001928E-02 0.  1.
</event>
<event>
 5   0  0.1250390E-02  0.6029486E+03  0.7818609E-02  0.9899307E-01
       -1   -1    0    0    0  501  0.00000000000E+00  0.00000000000E+00  0.12410461772E+03  0.12410461782E+03  0.50400001928E-02 0. -1.
        1   -1    0    0  501    0  0.00000000000E+00  0.00000000000E+00 -0.73233991724E+03  0.73233991726E+03  0.50400001928E-02 0.  1.
    10030    2    1    2    0    0  0.00000000000E+00  0.00000000000E+00 -0.60823529952E+03  0.85644453507E+03  0.60294863966E+03 0.  0.
        3    1    3    3  502    0  0.95321744841E+02 -0.25296873145E+03 -0.49366532521E+03  0.56283645728E+03  0.10100000352E+00 0.  1.
       -3    1    3    3    0  502 -0.95321744841E+02  0.25296873145E+03 -0.11456997431E+03  0.29360807779E+03  0.10100000352E+00 0. -1.
</event>
<event>
 5   0  0.1250390E-02  0.6017468E+03  0.7818609E-02  0.9901789E-01
       -1   -1    0    0    0  501  0.00000000000E+00  0.00000000000E+00  0.50697733805E+03  0.50697733808E+03  0.50400001928E-02 0. -1.
        1   -1    0    0  501    0  0.00000000000E+00  0.00000000000E+00 -0.17855785907E+03  0.17855785914E+03  0.50400001928E-02 0.  1.
    10030    2    1    2    0    0  0.00000000000E+00  0.00000000000E+00  0.32841947898E+03  0.68553519722E+03  0.60174675110E+03 0.  0.
        3    1    3    3  502    0  0.18820104805E+03  0.12723425862E+03  0.38895129133E+03  0.45043457714E+03  0.10100000352E+00 0. -1.
       -3    1    3    3    0  502 -0.18820104805E+03 -0.12723425862E+03 -0.60531812350E+02  0.23510062008E+03  0.10100000352E+00 0.  1.
</event>
<event>
 5   0  0.2141800E-02  0.5995238E+03  0.7818609E-02  0.9906394E-01
        2   -1    0    0  501    0  0.00000000000E+00  0.00000000000E+00  0.97875798804E+03  0.97875798805E+03  0.25500000920E-02 0.  1.
       -2   -1    0    0    0  501  0.00000000000E+00  0.00000000000E+00 -0.91807377278E+02  0.91807377313E+02  0.25500000920E-02 0. -1.
    10030    2    1    2    0    0  0.00000000000E+00  0.00000000000E+00  0.88695061077E+03  0.10705653654E+04  0.59952382402E+03 0.  0.
        2    1    3    3  502    0  0.13431366565E+03 -0.21623209490E+03  0.72616081814E+03  0.76948425160E+03  0.25500000920E-02 0.  1.
       -2    1    3    3    0  502 -0.13431366565E+03  0.21623209490E+03  0.16078979263E+03  0.30108111376E+03  0.25500000920E-02 0. -1.
</event>
<event>
 5   0  0.1337051E-02  0.5986425E+03  0.7818609E-02  0.9908226E-01
       -1   -1    0    0    0  501  0.00000000000E+00  0.00000000000E+00  0.24814106202E+03  0.24814106207E+03  0.50400001928E-02 0. -1.
        1   -1    0    0  501    0  0.00000000000E+00  0.00000000000E+00 -0.36105762179E+03  0.36105762183E+03  0.50400001928E-02 0.  1.
    10030    2    1    2    0    0  0.00000000000E+00  0.00000000000E+00 -0.11291655978E+03  0.60919868389E+03  0.59864253690E+03 0.  0.
        5    1    3    3  502    0  0.13078545640E+03  0.39106824632E+01 -0.33037187241E+03  0.35536993841E+03  0.46999998093E+01 0.  1.
       -5    1    3    3    0  502 -0.13078545640E+03 -0.39106824632E+01  0.21745531264E+03  0.25382874549E+03  0.46999998093E+01 0. -1.
</event>
<event>
 5   0  0.2126207E-02  0.5871217E+03  0.7818609E-02  0.9932491E-01
        2   -1    0    0  501    0  0.00000000000E+00  0.00000000000E+00  0.74681508855E+03  0.74681508856E+03  0.25500000920E-02 0. -1.
       -2   -1    0    0    0  501  0.00000000000E+00  0.00000000000E+00 -0.11539397080E+03  0.11539397082E+03  0.25500000920E-02 0.  1.
    10030    2    1    2    0    0  0.00000000000E+00  0.00000000000E+00  0.63142111776E+03  0.86220905938E+03  0.58712165190E+03 0.  0.
        5    1    3    3  502    0  0.14758648011E+03  0.11535614021E+03  0.64757056312E+03  0.67413539621E+03  0.46999998093E+01 0. -1.
       -5    1    3    3    0  502 -0.14758648011E+03 -0.11535614021E+03 -0.16149445369E+02  0.18807366317E+03  0.46999998093E+01 0.  1.
</event>
<event>
 5   0  0.8551000E-03  0.5891247E+03  0.7818609E-02  0.9928229E-01
       -4   -1    0    0    0  501  0.00000000000E+00  0.00000000000E+00  0.33403731763E+03  0.33403973187E+03  0.12699999809E+01 0.  1.
        4   -1    0    0  501    0  0.00000000000E+00  0.00000000000E+00 -0.25974742335E+03  0.25975052807E+03  0.12699999809E+01 0. -1.
    10030    2    1    2    0    0  0.00000000000E+00  0.00000000000E+00  0.74289894286E+02  0.59379025995E+03  0.58912467646E+03 0.  0.
        3    1    3    3  502    0  0.15511470466E+03  0.18671104820E+03 -0.13104590899E+03  0.27585254682E+03  0.10100000352E+00 0. -1.
       -3    1    3    3    0  502 -0.15511470466E+03 -0.18671104820E+03  0.20533580327E+03  0.31793771313E+03  0.10100000352E+00 0.  1.
</event>
<event>
 5   0  0.8551000E-03  0.6003092E+03  0.7818609E-02  0.9904765E-01
       -4   -1    0    0    0  501  0.00000000000E+00  0.00000000000E+00  0.10201671703E+03  0.10202462180E+03  0.12699999809E+01 0.  1.
        4   -1    0    0  501    0  0.00000000000E+00  0.00000000000E+00 -0.88307531193E+03  0.88307622515E+03  0.12699999809E+01 0. -1.
    10030    2    1    2    0    0  0.00000000000E+00  0.00000000000E+00 -0.78105859490E+03  0.98510084695E+03  0.60030921200E+03 0.  0.
        4    1    3    3  502    0  0.13727845783E+02 -0.26825884620E+03 -0.61032330229E+03  0.66681887235E+03  0.12699999809E+01 0. -1.
       -4    1    3    3    0  502 -0.13727845783E+02  0.26825884620E+03 -0.17073529261E+03  0.31828197460E+03  0.12699999809E+01 0.  1.
</event>
<event>
 5   0  0.1276705E-02  0.6002287E+03  0.7818609E-02  0.9904932E-01
        1   -1    0    0  501    0  0.00000000000E+00  0.00000000000E+00  0.35891004093E+03  0.35891004097E+03  0.50400001928E-02 0. -1.
       -1   -1    0    0    0  501  0.00000000000E+00  0.00000000000E+00 -0.25095045368E+03  0.25095045373E+03  0.50400001928E-02 0.  1.
    10030    2    1    2    0    0  0.00000000000E+00  0.00000000000E+00  0.10795958725E+03  0.60986049470E+03  0.60022874850E+03 0.  0.
        1    1    3    3  502    0  0.17694974677E+03 -0.95890781470E+02 -0.17221874658E+03  0.26488780937E+03  0.50400001928E-02 0.  1.
       -1    1    3    3    0  502 -0.17694974677E+03  0.95890781470E+02  0.28017833383E+03  0.34497268534E+03  0.50400001928E-02 0. -1.
</event>
<event>
 5   0  0.1332555E-02  0.5936486E+03  0.7818609E-02  0.9918672E-01
       -1   -1    0    0    0  501  0.00000000000E+00  0.00000000000E+00  0.28766033698E+03  0.28766033702E+03  0.50400001928E-02 0.  1.
        1   -1    0    0  501    0  0.00000000000E+00  0.00000000000E+00 -0.30628015833E+03  0.30628015837E+03  0.50400001928E-02 0. -1.
    10030    2    1    2    0    0  0.00000000000E+00  0.00000000000E+00 -0.18619821351E+02  0.59394049539E+03  0.59364856129E+03 0.  0.
        2    1    3    3  502    0 -0.12293997264E+03  0.25170200315E+03  0.88904133118E+02  0.29389127267E+03  0.25500000920E-02 0.  1.
       -2    1    3    3    0  502  0.12293997264E+03 -0.25170200315E+03 -0.10752395447E+03  0.30004922272E+03  0.25500000920E-02 0. -1.
</event>
<event>
 5   0  0.2179625E-02  0.6015015E+03  0.7818609E-02  0.9902296E-01
       -2   -1    0    0    0  501  0.00000000000E+00  0.00000000000E+00  0.51806014694E+02  0.51806014756E+02  0.25500000920E-02 0.  1.
        2   -1    0    0  501    0  0.00000000000E+00  0.00000000000E+00 -0.17459556742E+04  0.17459556742E+04  0.25500000920E-02 0. -1.
    10030    2    1    2    0    0  0.00000000000E+00  0.00000000000E+00 -0.16941496595E+04  0.17977616889E+04  0.60150147255E+03 0.  0.
        1    1    3    3  502    0  0.28406641831E+02 -0.62755707138E+02  0.27909964240E+02  0.74324842468E+02  0.50400001928E-02 0.  1.
       -1    1    3    3    0  502 -0.28406641831E+02  0.62755707138E+02 -0.17220596237E+04  0.17234368465E+04  0.50400001928E-02 0. -1.
</event>
<event>
 5   0  0.2179625E-02  0.5959309E+03  0.7818609E-02  0.9913884E-01
       -2   -1    0    0    0  501  0.00000000000E+00  0.00000000000E+00  0.50142346219E+02  0.50142346283E+02  0.25500000920E-02 0.  1.
        2   -1    0    0  501    0  0.00000000000E+00  0.00000000000E+00 -0.17706274896E+04  0.17706274896E+04  0.25500000920E-02 0. -1.
    10030    2    1    2    0    0  0.00000000000E+00  0.00000000000E+00 -0.17204851434E+04  0.18207698359E+04  0.59593092441E+03 0.  0.
        1    1    3    3  502    0  0.12805240951E+03 -0.15137726733E+02 -0.16809680185E+04  0.16859062991E+04  0.50400001928E-02 0. -1.
       -1    1    3    3    0  502 -0.12805240951E+03  0.15137726733E+02 -0.39517124898E+02  0.13486353673E+03  0.50400001928E-02 0.  1.
</event>
<event>
 5   0  0.1337051E-02  0.5784716E+03  0.7818609E-02  0.9951105E-01
       -1   -1    0    0    0  501  0.00000000000E+00  0.00000000000E+00  0.12225143935E+03  0.12225143945E+03  0.50400001928E-02 0.  1.
        1   -1    0    0  501    0  0.00000000000E+00  0.00000000000E+00 -0.68430565411E+03  0.68430565413E+03  0.50400001928E-02 0. -1.
    10030    2    1    2    0    0  0.00000000000E+00  0.00000000000E+00 -0.56205421476E+03  0.80655709358E+03  0.57847161112E+03 0.  0.
        5    1    3    3  502    0  0.12088805836E+03 -0.11987691401E+03 -0.60697755438E+03  0.63041909765E+03  0.46999998093E+01 0. -1.
       -5    1    3    3    0  502 -0.12088805836E+03  0.11987691401E+03  0.44923339617E+02  0.17613799593E+03  0.46999998093E+01 0.  1.
</event>
<event>
 5   0  0.1303808E-02  0.6030342E+03  0.7818609E-02  0.9899131E-01
       -1   -1    0    0    0  501  0.00000000000E+00  0.00000000000E+00  0.63187612247E+03  0.63187612249E+03  0.50400001928E-02 0. -1.
        1   -1    0    0  501    0  0.00000000000E+00  0.00000000000E+00 -0.14387718248E+03  0.14387718256E+03  0.50400001928E-02 0.  1.
    10030    2    1    2    0    0  0.00000000000E+00  0.00000000000E+00  0.48799893999E+03  0.77575330505E+03  0.60303418217E+03 0.  0.
        4    1    3    3  502    0 -0.14373076996E+03  0.13600146508E+03  0.53665861589E+03  0.57197816011E+03  0.12699999809E+01 0. -1.
       -4    1    3    3    0  502  0.14373076996E+03 -0.13600146508E+03 -0.48659675896E+02  0.20377514494E+03  0.12699999809E+01 0.  1.
</event>
<event>
 5   0  0.2126207E-02  0.6011414E+03  0.7818609E-02  0.9903041E-01
        2   -1    0    0  501    0  0.00000000000E+00  0.00000000000E+00  0.71385300378E+03  0.71385300379E+03  0.25500000920E-02 0. -1.
       -2   -1    0    0    0  501  0.00000000000E+00  0.00000000000E+00 -0.12655652021E+03  0.12655652024E+03  0.25500000920E-02 0.  1.
    10030    2    1    2    0    0  0.00000000000E+00  0.00000000000E+00  0.58729648357E+03  0.84040952403E+03  0.60114142135E+03 0.  0.
        5    1    3    3  502    0 -0.13299773432E+03 -0.16835481201E+03  0.58786124739E+03  0.62580721971E+03  0.46999998093E+01 0. -1.
       -5    1    3    3    0  502  0.13299773432E+03  0.16835481201E+03 -0.56476382378E+00  0.21460230431E+03  0.46999998093E+01 0.  1.
</event>
<event>
 5   0  0.1337051E-02  0.6046027E+03  0.7818609E-02  0.9895903E-01
        1   -1    0    0  501    0  0.00000000000E+00  0.00000000000E+00  0.99382640121E+03  0.99382640122E+03  0.50400001928E-02 0.  1.
       -1   -1    0    0    0  501  0.00000000000E+00  0.00000000000E+00 -0.91953798246E+02  0.91953798384E+02  0.50400001928E-02 0. -1.
    10030    2    1    2    0    0  0.00000000000E+00  0.00000000000E+00  0.90187260296E+03  0.10857801996E+04  0.60460272070E+03 0.  0.
        5    1    3    3  502    0  0.18728768657E+01  0.10705709640E+03  0.95856163562E+03  0.96453472143E+03  0.46999998093E+01 0.  1.
       -5    1    3    3    0  502 -0.18728768657E+01 -0.10705709640E+03 -0.56689032654E+02  0.12124547818E+03  0.46999998093E+01 0. -1.
</event>
<event>
 5   0  0.1332555E-02  0.5870338E+03  0.7818609E-02  0.9932678E-01
        1   -1    0    0  501    0  0.00000000000E+00  0.00000000000E+00  0.74866536937E+03  0.74866536939E+03  0.50400001928E-02 0.  1.
       -1   -1    0    0    0  501  0.00000000000E+00  0.00000000000E+00 -0.11507433869E+03  0.11507433881E+03  0.50400001928E-02 0. -1.
    10030    2    1    2    0    0  0.00000000000E+00  0.00000000000E+00  0.63359103068E+03  0.86373970819E+03  0.58703380597E+03 0.  0.
        2    1    3    3  502    0 -0.89598877500E+02  0.67058385186E+02 -0.82449466303E+02  0.13900611632E+03  0.25500000920E-02 0. -1.
       -2    1    3    3    0  502  0.89598877500E+02 -0.67058385186E+02  0.71604049698E+03  0.72473359188E+03  0.25500000920E-02 0.  1.
</event>
<event>
 5   0  0.2126207E-02  0.5880879E+03  0.7818609E-02  0.9930433E-01
        2   -1    0    0  501    0  0.00000000000E+00  0.00000000000E+00  0.20953532027E+03  0.20953532029E+03  0.25500000920E-02 0. -1.
       -2   -1    0    0    0  501  0.00000000000E+00  0.00000000000E+00 -0.41263614574E+03  0.41263614575E+03  0.25500000920E-02 0.  1.
    10030    2    1    2    0    0  0.00000000000E+00  0.00000000000E+00 -0.20310082547E+03  0.62217146603E+03  0.58808790826E+03 0.  0.
        5    1    3    3  502    0  0.93858853722E+02  0.27272092857E+03 -0.41204513782E+02  0.29138649806E+03  0.46999998093E+01 0.  1.
       -5    1    3    3    0  502 -0.93858853722E+02 -0.27272092857E+03 -0.16189631168E+03  0.33078496797E+03  0.46999998093E+01 0. -1.
</event>
<event>
 5   0  0.2179625E-02  0.6172791E+03  0.7818609E-02  0.9870192E-01
       -2   -1    0    0    0  501  0.00000000000E+00  0.00000000000E+00  0.15837698323E+03  0.15837698325E+03  0.25500000920E-02 0.  1.
        2   -1    0    0  501    0  0.00000000000E+00  0.00000000000E+00 -0.60146607364E+03  0.60146607364E+03  0.25500000920E-02 0. -1.
    10030    2    1    2    0    0  0.00000000000E+00  0.00000000000E+00 -0.44308909041E+03  0.75984305690E+03  0.61727913384E+03 0.  0.
        1    1    3    3  502    0 -0.19053769646E+02  0.23110415112E+03 -0.47226754203E+03  0.52612622638E+03  0.50400001928E-02 0. -1.
       -1    1    3    3    0  502  0.19053769646E+02 -0.23110415112E+03  0.29178451621E+02  0.23371683052E+03  0.50400001928E-02 0.  1.
</event>
<event>
 5   0  0.1332555E-02  0.5969347E+03  0.7818609E-02  0.9911786E-01
        1   -1    0    0  501    0  0.00000000000E+00  0.00000000000E+00  0.93425554860E+03  0.93425554862E+03  0.50400001928E-02 0.  1.
       -1   -1    0    0    0  501  0.00000000000E+00  0.00000000000E+00 -0.95351584863E+02  0.95351584996E+02  0.50400001928E-02 0. -1.
    10030    2    1    2    0    0  0.00000000000E+00  0.00000000000E+00  0.83890396374E+03  0.10296071336E+04  0.59693466075E+03 0.  0.
        2    1    3    3  502    0  0.55671868546E+02  0.25329833256E+03  0.16464847200E+03  0.30719459886E+03  0.25500000920E-02 0. -1.
       -2    1    3    3    0  502 -0.55671868546E+02 -0.25329833256E+03  0.67425549174E+03  0.72241253476E+03  0.25500000920E-02 0.  1.
</event>
<event>
 5   0  0.1337051E-02  0.6002580E+03  0.7818609E-02  0.9904871E-01
       -1   -1    0    0    0  501  0.00000000000E+00  0.00000000000E+00  0.10729762961E+04  0.10729762961E+04  0.50400001928E-02 0.  1.
        1   -1    0    0  501    0  0.00000000000E+00  0.00000000000E+00 -0.83950978894E+02  0.83950979046E+02  0.50400001928E-02 0. -1.
    10030    2    1    2    0    0  0.00000000000E+00  0.00000000000E+00  0.98902531719E+03  0.11569272751E+04  0.60025797948E+03 0.  0.
        5    1    3    3  502    0 -0.11793859623E+02  0.16027903704E+03  0.60555343371E+01  0.16089507243E+03  0.46999998093E+01 0. -1.
       -5    1    3    3    0  502  0.11793859623E+02 -0.16027903704E+03  0.98296978286E+03  0.99603220271E+03  0.46999998093E+01 0.  1.
</event>
<event>
 5   0  0.1250390E-02  0.6006119E+03  0.7818609E-02  0.9904137E-01
       -1   -1    0    0    0  501  0.00000000000E+00  0.00000000000E+00  0.86347267190E+02  0.86347267337E+02  0.50400001928E-02 0. -1.
        1   -1    0    0  501    0  0.00000000000E+00  0.00000000000E+00 -0.10444297413E+04  0.10444297413E+04  0.50400001928E-02 0.  1.
    10030    2    1    2    0    0  0.00000000000E+00  0.00000000000E+00 -0.95808247413E+03  0.11307770087E+04  0.60061186810E+03 0.  0.
        3    1    3    3  502    0 -0.33026137419E+02 -0.23776193931E+03 -0.13930663276E+03  0.27753885074E+03  0.10100000352E+00 0. -1.
       -3    1    3    3    0  502  0.33026137419E+02  0.23776193931E+03 -0.81877584137E+03  0.85323815793E+03  0.10100000352E+00 0.  1.
</event>
<event>
 5   0  0.1250390E-02  0.5991678E+03  0.7818609E-02  0.9907134E-01
       -1   -1    0    0    0  501  0.00000000000E+00  0.00000000000E+00  0.11754961256E+03  0.11754961266E+03  0.50400001928E-02 0. -1.
        1   -1    0    0  501    0  0.00000000000E+00  0.00000000000E+00 -0.76351182775E+03  0.76351182777E+03  0.50400001928E-02 0.  1.
    10030    2    1    2    0    0  0.00000000000E+00  0.00000000000E+00 -0.64596221520E+03  0.88106144043E+03  0.59916782153E+03 0.  0.
        3    1    3    3  502    0 -0.26415666868E+03 -0.61779014502E+02 -0.50988259998E+03  0.57756009921E+03  0.10100000352E+00 0.  1.
       -3    1    3    3    0  502  0.26415666868E+03  0.61779014502E+02 -0.13607961522E+03  0.30350134122E+03  0.10100000352E+00 0. -1.
</event>
<event>
 5   0  0.1337051E-02  0.6012281E+03  0.7818609E-02  0.9902861E-01
       -1   -1    0    0    0  501  0.00000000000E+00  0.00000000000E+00  0.29422173320E+03  0.29422173325E+03  0.50400001928E-02 0. -1.
        1   -1    0    0  501    0  0.00000000000E+00  0.00000000000E+00 -0.30714527535E+03  0.30714527539E+03  0.50400001928E-02 0.  1.
    10030    2    1    2    0    0  0.00000000000E+00  0.00000000000E+00 -0.12923542148E+02  0.60136700864E+03  0.60122812737E+03 0.  0.
        5    1    3    3  502    0 -0.19055371729E+03  0.20607931818E+03 -0.11403809449E+03  0.30299534905E+03  0.46999998093E+01 0.  1.
       -5    1    3    3    0  502  0.19055371729E+03 -0.20607931818E+03  0.10111455234E+03  0.29837165959E+03  0.46999998093E+01 0. -1.
</event>
<event>
 5   0  0.1303808E-02  0.5990499E+03  0.7818609E-02  0.9907379E-01
        1   -1    0    0  501    0  0.00000000000E+00  0.00000000000E+00  0.12127395515E+03  0.12127395525E+03  0.50400001928E-02 0.  1.
       -1   -1    0    0    0  501  0.00000000000E+00  0.00000000000E+00 -0.73977293981E+03  0.73977293982E+03  0.50400001928E-02 0. -1.
    10030    2    1    2    0    0  0.00000000000E+00  0.00000000000E+00 -0.61849898466E+03  0.86104689507E+03  0.59904988230E+03 0.  0.
        4    1    3    3  502    0  0.10308292286E+03  0.13735886060E+03 -0.66197292184E+03  0.68388837373E+03  0.12699999809E+01 0. -1.
       -4    1    3    3    0  502 -0.10308292286E+03 -0.13735886060E+03  0.43473937180E+02  0.17715852134E+03  0.12699999809E+01 0.  1.
</event>
<event>
 5   0  0.1250390E-02  0.6009039E+03  0.7818609E-02  0.9903532E-01
        1   -1    0    0  501    0  0.00000000000E+00  0.00000000000E+00  0.11193285386E+03  0.11193285398E+03  0.50400001928E-02 0. -1.
       -1   -1    0    0    0  501  0.00000000000E+00  0.00000000000E+00 -0.80647798443E+03  0.80647798444E+03  0.50400001928E-02 0.  1.
    10030    2    1    2    0    0  0.00000000000E+00  0.00000000000E+00 -0.69454513056E+03  0.91841083842E+03  0.60090392721E+03 0.  0.
        3    1    3    3  502    0 -0.84783769147E+02  0.28484559771E+03 -0.27984907856E+03  0.40821663246E+03  0.10100000352E+00 0. -1.
       -3    1    3    3    0  502  0.84783769147E+02 -0.28484559771E+03 -0.41469605200E+03  0.51019420596E+03  0.10100000352E+00 0.  1.
</event>
<event>
 5   0  0.2142838E-02  0.6048946E+03  0.7818609E-02  0.9895303E-01
        2   -1    0    0  501    0  0.00000000000E+00  0.00000000000E+00  0.13531150724E+04  0.13531150724E+04  0.25500000920E-02 0.  1.
       -2   -1    0    0    0  501  0.00000000000E+00  0.00000000000E+00 -0.67602801570E+02  0.67602801618E+02  0.25500000920E-02 0. -1.
    10030    2    1    2    0    0  0.00000000000E+00  0.00000000000E+00  0.12855122708E+04  0.14207178740E+04  0.60489460165E+03 0.  0.
        4    1    3    3  502    0  0.66286263000E+01 -0.46652172867E+02  0.13444344746E+04  0.13452605820E+04  0.12699999809E+01 0.  1.
       -4    1    3    3    0  502 -0.66286263000E+01  0.46652172867E+02 -0.58922203814E+02  0.75457292040E+02  0.12699999809E+01 0. -1.
</event>
<event>
 5   0  0.1250390E-02  0.5995873E+03  0.7818609E-02  0.9906263E-01
       -1   -1    0    0    0  501  0.00000000000E+00  0.00000000000E+00  0.12077889983E+03  0.12077889994E+03  0.50400001928E-02 0. -1.
        1   -1    0    0  501    0  0.00000000000E+00  0.00000000000E+00 -0.74413863810E+03  0.74413863812E+03  0.50400001928E-02 0.  1.
    10030    2    1    2    0    0  0.00000000000E+00  0.00000000000E+00 -0.62335973827E+03  0.86491753806E+03  0.59958734505E+03 0.  0.
        3    1    3    3  502    0 -0.17565723873E+03 -0.23887648162E+03 -0.24783633071E+03  0.38644572194E+03  0.10100000352E+00 0. -1.
       -3    1    3    3    0  502  0.17565723873E+03  0.23887648162E+03 -0.37552340756E+03  0.47847181611E+03  0.10100000352E+00 0.  1.
</event>
<event>
 5   0  0.2092587E-02  0.6043556E+03  0.7818609E-02  0.9896410E-01
        2   -1    0    0  501    0  0.00000000000E+00  0.00000000000E+00  0.91474239480E+03  0.91474239480E+03  0.25500000920E-02 0.  1.
       -2   -1    0    0    0  501  0.00000000000E+00  0.00000000000E+00 -0.99822019947E+02  0.99822019980E+02  0.25500000920E-02 0. -1.
    10030    2    1    2    0    0  0.00000000000E+00  0.00000000000E+00  0.81492037485E+03  0.10145644148E+04  0.60435563569E+03 0.  0.
        3    1    3    3  502    0 -0.28764957568E+03  0.22017646019E+02  0.25651818964E+03  0.38604228647E+03  0.10100000352E+00 0. -1.
       -3    1    3    3    0  502  0.28764957568E+03 -0.22017646019E+02  0.55840218522E+03  0.62852212832E+03  0.10100000352E+00 0.  1.
</event>
<event>
 5   0  0.2092587E-02  0.6001520E+03  0.7818609E-02  0.9905091E-01
        2   -1    0    0  501    0  0.00000000000E+00  0.00000000000E+00  0.38813666299E+03  0.38813666300E+03  0.25500000920E-02 0.  1.
       -2   -1    0    0    0  501  0.00000000000E+00  0.00000000000E+00 -0.23199460913E+03  0.23199460914E+03  0.25500000920E-02 0. -1.
    10030    2    1    2    0    0  0.00000000000E+00  0.00000000000E+00  0.15614205386E+03  0.62013127214E+03  0.60015202549E+03 0.  0.
        3    1    3    3  502    0  0.58933003002E+02  0.14597031122E+03 -0.18590415750E+03  0.24359966456E+03  0.10100000352E+00 0. -1.
       -3    1    3    3    0  502 -0.58933003002E+02 -0.14597031122E+03  0.34204621136E+03  0.37653160758E+03  0.10100000352E+00 0.  1.
</event>
<event>
 5   0  0.8551000E-03  0.6006606E+03  0.7818609E-02  0.9904036E-01
       -4   -1    0    0    0  501  0.00000000000E+00  0.00000000000E+00  0.16340218610E+03  0.16340712140E+03  0.12699999809E+01 0. -1.
        4   -1    0    0  501    0  0.00000000000E+00  0.00000000000E+00 -0.55198770747E+03  0.55198916846E+03  0.12699999809E+01 0.  1.
    10030    2    1    2    0    0  0.00000000000E+00  0.00000000000E+00 -0.38858552136E+03  0.71539628985E+03  0.60066058979E+03 0.  0.
        4    1    3    3  502    0  0.37508089422E+02  0.76128010577E+01 -0.54907130049E+03  0.55040504852E+03  0.12699999809E+01 0.  1.
       -4    1    3    3    0  502 -0.37508089422E+02 -0.76128010577E+01  0.16048577913E+03  0.16499124133E+03  0.12699999809E+01 0. -1.
</event>
<event>
 5   0  0.2126207E-02  0.5990791E+03  0.7818609E-02  0.9907318E-01
       -2   -1    0    0    0  501  0.00000000000E+00  0.00000000000E+00  0.88540223272E+02  0.88540223309E+02  0.25500000920E-02 0. -1.
        2   -1    0    0  501    0  0.00000000000E+00  0.00000000000E+00 -0.10133692381E+04  0.10133692381E+04  0.25500000920E-02 0.  1.
    10030    2    1    2    0    0  0.00000000000E+00  0.00000000000E+00 -0.92482901484E+03  0.11019094614E+04  0.59907908867E+03 0.  0.
        5    1    3    3  502    0  0.13128801215E+03  0.68227474479E+02 -0.94138597462E+03  0.95295391999E+03  0.46999998093E+01 0.  1.
       -5    1    3    3    0  502 -0.13128801215E+03 -0.68227474479E+02  0.16556959788E+02  0.14895554143E+03  0.46999998093E+01 0. -1.
</event>
<event>
 5   0  0.1337051E-02  0.6000670E+03  0.7818609E-02  0.9905267E-01
        1   -1    0    0  501    0  0.00000000000E+00  0.00000000000E+00  0.10600424859E+04  0.10600424859E+04  0.50400001928E-02 0. -1.
       -1   -1    0    0    0  501  0.00000000000E+00  0.00000000000E+00 -0.84921211127E+02  0.84921211277E+02  0.50400001928E-02 0.  1.
    10030    2    1    2    0    0  0.00000000000E+00  0.00000000000E+00  0.97512127476E+03  0.11449636972E+04  0.60006696906E+03 0.  0.
        5    1    3    3  502    0 -0.20551678217E+02 -0.82752769374E+02 -0.61243318326E+02  0.10508675632E+03  0.46999998093E+01 0.  1.
       -5    1    3    3    0  502  0.20551678217E+02  0.82752769374E+02  0.10363645931E+04  0.10398769409E+04  0.46999998093E+01 0. -1.
</event>
<event>
 5   0  0.1332555E-02  0.5990096E+03  0.7818609E-02  0.9907463E-01
       -1   -1    0    0    0  501  0.00000000000E+00  0.00000000000E+00  0.19561600786E+03  0.19561600793E+03  0.50400001928E-02 0.  1.
        1   -1    0    0  501    0  0.00000000000E+00  0.00000000000E+00 -0.45856744425E+03  0.45856744427E+03  0.50400001928E-02 0. -1.
    10030    2    1    2    0    0  0.00000000000E+00  0.00000000000E+00 -0.26295143639E+03  0.65418345220E+03  0.59900962533E+03 0.  0.
        2    1    3    3  502    0  0.92391435168E+02  0.28353833563E+03 -0.10111259534E+03  0.31488715758E+03  0.25500000920E-02 0.  1.
       -2    1    3    3    0  502 -0.92391435168E+02 -0.28353833563E+03 -0.16183884105E+03  0.33929629462E+03  0.25500000920E-02 0. -1.
</event>
<event>
 5   0  0.2126207E-02  0.5998620E+03  0.7818609E-02  0.9905692E-01
        2   -1    0    0  501    0  0.00000000000E+00  0.00000000000E+00  0.27386919753E+03  0.27386919754E+03  0.25500000920E-02 0. -1.
       -2   -1    0    0    0  501  0.00000000000E+00  0.00000000000E+00 -0.32847285249E+03  0.32847285250E+03  0.25500000920E-02 0.  1.
    10030    2    1    2    0    0  0.00000000000E+00  0.00000000000E+00 -0.54603654964E+02  0.60234205004E+03  0.59986197255E+03 0.  0.
        5    1    3    3  502    0 -0.49827628547E+01  0.12062305946E+03  0.24835411324E+03  0.27618219704E+03  0.46999998093E+01 0. -1.
       -5    1    3    3    0  502  0.49827628547E+01 -0.12062305946E+03 -0.30295776820E+03  0.32615985300E+03  0.46999998093E+01 0.  1.
</event>
<event>
 5   0  0.2179625E-02  0.6032387E+03  0.7818609E-02  0.9898709E-01
       -2   -1    0    0    0  501  0.00000000000E+00  0.00000000000E+00  0.13755013062E+03  0.13755013065E+03  0.25500000920E-02 0. -1.
        2   -1    0    0  501    0  0.00000000000E+00  0.00000000000E+00 -0.66138973928E+03  0.66138973929E+03  0.25500000920E-02 0.  1.
    10030    2    1    2    0    0  0.00000000000E+00  0.00000000000E+00 -0.52383960866E+03  0.79893986993E+03  0.60323874226E+03 0.  0.
        1    1    3    3  502    0 -0.13153261339E+03 -0.16108215863E+03 -0.55125561006E+03  0.58917827341E+03  0.50400001928E-02 0.  1.
       -1    1    3    3    0  502  0.13153261339E+03  0.16108215863E+03  0.27416001398E+02  0.20976159652E+03  0.50400001928E-02 0. -1.
</event>
<event>
 5   0  0.1332555E-02  0.5982638E+03  0.7818609E-02  0.9909015E-01
        1   -1    0    0  501    0  0.00000000000E+00  0.00000000000E+00  0.20733795257E+04  0.20733795257E+04  0.50400001928E-02 0.  1.
       -1   -1    0    0    0  501  0.00000000000E+00  0.00000000000E+00 -0.43156538892E+02  0.43156539186E+02  0.50400001928E-02 0. -1.
    10030    2    1    2    0    0  0.00000000000E+00  0.00000000000E+00  0.20302229868E+04  0.21165360649E+04  0.59826376943E+03 0.  0.
        2    1    3    3  502    0 -0.11741639331E+03 -0.55162642738E+02  0.61543096922E+02  0.14358648738E+03  0.25500000920E-02 0. -1.
       -2    1    3    3    0  502  0.11741639331E+03  0.55162642738E+02  0.19686798898E+04  0.19729495775E+04  0.25500000920E-02 0.  1.
</event>
<event>
 5   0  0.2179625E-02  0.5994609E+03  0.7818609E-02  0.9906525E-01
       -2   -1    0    0    0  501  0.00000000000E+00  0.00000000000E+00  0.71120929165E+02  0.71120929210E+02  0.25500000920E-02 0. -1.
        2   -1    0    0  501    0  0.00000000000E+00  0.00000000000E+00 -0.12631774169E+04  0.12631774169E+04  0.25500000920E-02 0.  1.
    10030    2    1    2    0    0  0.00000000000E+00  0.00000000000E+00 -0.11920564878E+04  0.13342983461E+04  0.59946092992E+03 0.  0.
        1    1    3    3  502    0  0.18632309292E+03  0.23137575700E+03 -0.50734864440E+03  0.58792319471E+03  0.50400001928E-02 0. -1.
       -1    1    3    3    0  502 -0.18632309292E+03 -0.23137575700E+03 -0.68470784337E+03  0.74637515144E+03  0.50400001928E-02 0.  1.
</event>
<event>
 5   0  0.1303808E-02  0.6001148E+03  0.7818609E-02  0.9905168E-01
        1   -1    0    0  501    0  0.00000000000E+00  0.00000000000E+00  0.24648515287E+03  0.24648515292E+03  0.50400001928E-02 0. -1.
       -1   -1    0    0    0  501  0.00000000000E+00  0.00000000000E+00 -0.36527333281E+03  0.36527333284E+03  0.50400001928E-02 0.  1.
    10030    2    1    2    0    0  0.00000000000E+00  0.00000000000E+00 -0.11878817994E+03  0.61175848576E+03  0.60011483335E+03 0.  0.
        4    1    3    3  502    0 -0.33810645619E+02  0.62360529113E+00  0.24453366605E+03  0.24686408279E+03  0.12699999809E+01 0. -1.
       -4    1    3    3    0  502  0.33810645619E+02 -0.62360529113E+00 -0.36332184599E+03  0.36489440297E+03  0.12699999809E+01 0.  1.
</event>
<event>
 5   0  0.8551000E-03  0.6001518E+03  0.7818609E-02  0.9905091E-01
        3   -1    0    0  501    0  0.00000000000E+00  0.00000000000E+00  0.24889506200E+03  0.24889508249E+03  0.10100000352E+00 0.  1.
       -3   -1    0    0    0  501  0.00000000000E+00  0.00000000000E+00 -0.36178116765E+03  0.36178118175E+03  0.10100000352E+00 0. -1.
    10030    2    1    2    0    0  0.00000000000E+00  0.00000000000E+00 -0.11288610565E+03  0.61067626425E+03  0.60015183651E+03 0.  0.
        1    1    3    3  502    0  0.10046796579E+03  0.18755303166E+03 -0.27175624087E+03  0.34513969101E+03  0.50400001928E-02 0.  1.
       -1    1    3    3    0  502 -0.10046796579E+03 -0.18755303166E+03  0.15887013522E+03  0.26553657323E+03  0.50400001928E-02 0. -1.
</event>
<event>
 5   0  0.2092587E-02  0.6041827E+03  0.7818609E-02  0.9896766E-01
       -2   -1    0    0    0  501  0.00000000000E+00  0.00000000000E+00  0.19974957473E+03  0.19974957475E+03  0.25500000920E-02 0.  1.
        2   -1    0    0  501    0  0.00000000000E+00  0.00000000000E+00 -0.45686804796E+03  0.45686804797E+03  0.25500000920E-02 0. -1.
    10030    2    1    2    0    0  0.00000000000E+00  0.00000000000E+00 -0.25711847323E+03  0.65661762271E+03  0.60418274817E+03 0.  0.
        3    1    3    3  502    0 -0.10515192731E+03 -0.93331915287E+02  0.16202440173E+03  0.21452200630E+03  0.10100000352E+00 0.  1.
       -3    1    3    3    0  502  0.10515192731E+03  0.93331915287E+02 -0.41914287495E+03  0.44209561642E+03  0.10100000352E+00 0. -1.
</event>
<event>
 5   0  0.1303808E-02  0.5989532E+03  0.7818609E-02  0.9907580E-01
       -1   -1    0    0    0  501  0.00000000000E+00  0.00000000000E+00  0.51339035721E+03  0.51339035723E+03  0.50400001928E-02 0. -1.
        1   -1    0    0  501    0  0.00000000000E+00  0.00000000000E+00 -0.17469404862E+03  0.17469404870E+03  0.50400001928E-02 0.  1.
    10030    2    1    2    0    0  0.00000000000E+00  0.00000000000E+00  0.33869630858E+03  0.68808440593E+03  0.59895322040E+03 0.  0.
        4    1    3    3  502    0  0.15670143375E+03 -0.10592836278E+03  0.43608150054E+03  0.47533656013E+03  0.12699999809E+01 0. -1.
       -4    1    3    3    0  502 -0.15670143375E+03  0.10592836278E+03 -0.97385191960E+02  0.21274784580E+03  0.12699999809E+01 0.  1.
</event>
<event>
 5   0  0.2092587E-02  0.5952976E+03  0.7818609E-02  0.9915210E-01
        2   -1    0    0  501    0  0.00000000000E+00  0.00000000000E+00  0.85990629084E+03  0.85990629084E+03  0.25500000920E-02 0. -1.
       -2   -1    0    0    0  501  0.00000000000E+00  0.00000000000E+00 -0.10302844686E+03  0.10302844689E+03  0.25500000920E-02 0.  1.
    10030    2    1    2    0    0  0.00000000000E+00  0.00000000000E+00  0.75687784397E+03  0.96293473774E+03  0.59529760493E+03 0.  0.
        3    1    3    3  502    0 -0.41625584726E+02  0.28719592410E+03  0.48549962175E+03  0.56561831746E+03  0.10100000352E+00 0. -1.
       -3    1    3    3    0  502  0.41625584726E+02 -0.28719592410E+03  0.27137822222E+03  0.39731642028E+03  0.10100000352E+00 0.  1.
</event>
<event>
 5   0  0.2142838E-02  0.5987367E+03  0.7818609E-02  0.9908030E-01
        2   -1    0    0  501    0  0.00000000000E+00  0.00000000000E+00  0.20898720639E+03  0.20898720640E+03  0.25500000920E-02 0.  1.
       -2   -1    0    0    0  501  0.00000000000E+00  0.00000000000E+00 -0.42883687582E+03  0.42883687583E+03  0.25500000920E-02 0. -1.
    10030    2    1    2    0    0  0.00000000000E+00  0.00000000000E+00 -0.21984966944E+03  0.63782408223E+03  0.59873673908E+03 0.  0.
        4    1    3    3  502    0  0.33814634143E+01  0.27717007418E+03 -0.23037779236E+03  0.36043060973E+03  0.12699999809E+01 0. -1.
       -4    1    3    3    0  502 -0.33814634143E+01 -0.27717007418E+03  0.10528122925E+02  0.27739347250E+03  0.12699999809E+01 0.  1.
</event>
<event>
 5   0  0.2141800E-02  0.5952366E+03  0.7818609E-02  0.9915338E-01
        2   -1    0    0  501    0  0.00000000000E+00  0.00000000000E+00  0.51636608602E+03  0.51636608603E+03  0.25500000920E-02 0.  1.
       -2   -1    0    0    0  501  0.00000000000E+00  0.00000000000E+00 -0.17153849585E+03  0.17153849587E+03  0.25500000920E-02 0. -1.
    10030    2    1    2    0    0  0.00000000000E+00  0.00000000000E+00  0.34482759017E+03  0.68790458189E+03  0.59523663097E+03 0.  0.
        2    1    3    3  502    0 -0.17735072294E+03  0.16121717671E+03  0.37632678187E+03  0.44616824602E+03  0.25500000920E-02 0.  1.
       -2    1    3    3    0  502  0.17735072294E+03 -0.16121717671E+03 -0.31499191701E+02  0.24173633587E+03  0.25500000920E-02 0. -1.
</event>
<event>
 5   0  0.2141800E-02  0.5981789E+03  0.7818609E-02  0.9909191E-01
        2   -1    0    0  501    0  0.00000000000E+00  0.00000000000E+00  0.37670721110E+03  0.37670721111E+03  0.25500000920E-02 0. -1.
       -2   -1    0    0    0  501  0.00000000000E+00  0.00000000000E+00 -0.23746425094E+03  0.23746425096E+03  0.25500000920E-02 0.  1.
    10030    2    1    2    0    0  0.00000000000E+00  0.00000000000E+00  0.13924296015E+03  0.61417146206E+03  0.59817888868E+03 0.  0.
        2    1    3    3  502    0  0.12739734261E+02 -0.45362445801E+02  0.37287269423E+03  0.37583786189E+03  0.25500000920E-02 0. -1.
       -2    1    3    3    0  502 -0.12739734261E+02  0.45362445801E+02 -0.23362973408E+03  0.23833360017E+03  0.25500000920E-02 0.  1.
</event>
<event>
 5   0  0.1332555E-02  0.6041429E+03  0.7818609E-02  0.9896848E-01
        1   -1    0    0  501    0  0.00000000000E+00  0.00000000000E+00  0.34375011970E+03  0.34375011973E+03  0.50400001928E-02 0.  1.
       -1   -1    0    0    0  501  0.00000000000E+00  0.00000000000E+00 -0.26544621035E+03  0.26544621040E+03  0.50400001928E-02 0. -1.
    10030    2    1    2    0    0  0.00000000000E+00  0.00000000000E+00  0.78303909348E+02  0.60919633013E+03  0.60414291888E+03 0.  0.
        2    1    3    3  502    0  0.18770009242E+03 -0.56695973846E+01 -0.19943592545E+03  0.27393093545E+03  0.25500000920E-02 0. -1.
       -2    1    3    3    0  502 -0.18770009242E+03  0.56695973846E+01  0.27773983480E+03  0.33526539468E+03  0.25500000920E-02 0.  1.
</event>
<event>
 5   0  0.2141800E-02  0.5997602E+03  0.7818609E-02  0.9905904E-01
        2   -1    0    0  501    0  0.00000000000E+00  0.00000000000E+00  0.70877212978E+03  0.70877212978E+03  0.25500000920E-02 0.  1.
       -2   -1    0    0    0  501  0.00000000000E+00  0.00000000000E+00 -0.12687868572E+03  0.12687868574E+03  0.25500000920E-02 0. -1.
    10030    2    1    2    0    0  0.00000000000E+00  0.00000000000E+00  0.58189344406E+03  0.83565081552E+03  0.59976020645E+03 0.  0.
        2    1    3    3  502    0 -0.25880239231E+03  0.41400074442E+01  0.79952478309E+02  0.27090259637E+03  0.25500000920E-02 0. -1.
       -2    1    3    3    0  502  0.25880239231E+03 -0.41400074442E+01  0.50194096575E+03  0.56474821915E+03  0.25500000920E-02 0.  1.
</event>
<event>
 5   0  0.2126207E-02  0.5987547E+03  0.7818609E-02  0.9907993E-01
       -2   -1    0    0    0  501  0.00000000000E+00  0.00000000000E+00  0.84049666631E+02  0.84049666669E+02  0.25500000920E-02 0.  1.
        2   -1    0    0  501    0  0.00000000000E+00  0.00000000000E+00 -0.10663551190E+04  0.10663551190E+04  0.25500000920E-02 0. -1.
    10030    2    1    2    0    0  0.00000000000E+00  0.00000000000E+00 -0.98230545232E+03  0.11504047856E+04  0.59875468193E+03 0.  0.
        5    1    3    3  502    0 -0.20319700337E+03 -0.21903012848E+03 -0.52665745928E+03  0.60551910686E+03  0.46999998093E+01 0. -1.
       -5    1    3    3    0  502  0.20319700337E+03  0.21903012848E+03 -0.45564799305E+03  0.54488567877E+03  0.46999998093E+01 0.  1.
</event>
<event>
 5   0  0.2126207E-02  0.6018124E+03  0.7818609E-02  0.9901653E-01
        2   -1    0    0  501    0  0.00000000000E+00  0.00000000000E+00  0.30648791048E+03  0.30648791049E+03  0.25500000920E-02 0.  1.
       -2   -1    0    0    0  501  0.00000000000E+00  0.00000000000E+00 -0.29542618999E+03  0.29542619000E+03  0.25500000920E-02 0. -1.
    10030    2    1    2    0    0  0.00000000000E+00  0.00000000000E+00  0.11061720493E+02  0.60191410049E+03  0.60181244811E+03 0.  0.
        5    1    3    3  502    0 -0.40903707613E+02  0.27429809960E+03 -0.11115034233E+03  0.29881273289E+03  0.46999998093E+01 0.  1.
       -5    1    3    3    0  502  0.40903707613E+02 -0.27429809960E+03  0.12221206282E+03  0.30310136759E+03  0.46999998093E+01 0. -1.
</event>
<event>
 5   0  0.2092587E-02  0.6054757E+03  0.7818609E-02  0.9894110E-01
       -2   -1    0    0    0  501  0.00000000000E+00  0.00000000000E+00  0.98009838679E+02  0.98009838712E+02  0.25500000920E-02 0.  1.
        2   -1    0    0  501    0  0.00000000000E+00  0.00000000000E+00 -0.93511217412E+03  0.93511217413E+03  0.25500000920E-02 0. -1.
    10030    2    1    2    0    0  0.00000000000E+00  0.00000000000E+00 -0.83710233545E+03  0.10331220128E+04  0.60547565881E+03 0.  0.
        3    1    3    3  502    0 -0.98629256867E+02 -0.36709379781E+02 -0.90289608327E+03  0.90900861176E+03  0.10100000352E+00 0. -1.
       -3    1    3    3    0  502  0.98629256867E+02  0.36709379781E+02  0.65793747822E+02  0.12411340108E+03  0.10100000352E+00 0.  1.
</event>
<event>
 5   0  0.1337051E-02  0.6026737E+03  0.7818609E-02  0.9899875E-01
       -1   -1    0    0    0  501  0.00000000000E+00  0.00000000000E+00  0.60007243378E+03  0.60007243380E+03  0.50400001928E-02 0. -1.
        1   -1    0    0  501    0  0.00000000000E+00  0.00000000000E+00 -0.15132154882E+03  0.15132154890E+03  0.50400001928E-02 0.  1.
    10030    2    1    2    0    0  0.00000000000E+00  0.00000000000E+00  0.44875088496E+03  0.75139398270E+03  0.60267367662E+03 0.  0.
        5    1    3    3  502    0  0.99596040200E+02  0.23738535194E+03  0.29183147592E+02  0.25912337340E+03  0.46999998093E+01 0.  1.
       -5    1    3    3    0  502 -0.99596040200E+02 -0.23738535194E+03  0.41956773737E+03  0.49227060930E+03  0.46999998093E+01 0. -1.
</event>
<event>
 5   0  0.1276705E-02  0.6002034E+03  0.7818609E-02  0.9904984E-01
       -1   -1    0    0    0  501  0.00000000000E+00  0.00000000000E+00  0.36027726585E+03  0.36027726589E+03  0.50400001928E-02 0. -1.
        1   -1    0    0  501    0  0.00000000000E+00  0.00000000000E+00 -0.24997700923E+03  0.24997700928E+03  0.50400001928E-02 0.  1.
    10030    2    1    2    0    0  0.00000000000E+00  0.00000000000E+00  0.11030025663E+03  0.61025427516E+03  0.60020341031E+03 0.  0.
        1    1    3    3  502    0 -0.14914821498E+03  0.25658456244E+03  0.99054479470E+01  0.29694939912E+03  0.50400001928E-02 0.  1.
       -1    1    3    3    0  502  0.14914821498E+03 -0.25658456244E+03  0.10039480868E+03  0.31330487604E+03  0.50400001928E-02 0. -1.
</event>
<event>
 5   0  0.2092587E-02  0.5981398E+03  0.7818609E-02  0.9909273E-01
        2   -1    0    0  501    0  0.00000000000E+00  0.00000000000E+00  0.17346790345E+04  0.17346790345E+04  0.25500000920E-02 0.  1.
       -2   -1    0    0    0  501  0.00000000000E+00  0.00000000000E+00 -0.51561586046E+02  0.51561586109E+02  0.25500000920E-02 0. -1.
    10030    2    1    2    0    0  0.00000000000E+00  0.00000000000E+00  0.16831174485E+04  0.17862406206E+04  0.59813979088E+03 0.  0.
        3    1    3    3  502    0 -0.16612988783E+03  0.23575442596E+03  0.60521399717E+03  0.67042022759E+03  0.10100000352E+00 0.  1.
       -3    1    3    3    0  502  0.16612988783E+03 -0.23575442596E+03  0.10779034513E+04  0.11158203930E+04  0.10100000352E+00 0. -1.
</event>
<event>
 5   0  0.8551000E-03  0.6006917E+03  0.7818609E-02  0.9903972E-01
       -4   -1    0    0    0  501  0.00000000000E+00  0.00000000000E+00  0.75639745774E+03  0.75639852391E+03  0.12699999809E+01 0.  1.
        4   -1    0    0  501    0  0.00000000000E+00  0.00000000000E+00 -0.11925503862E+03  0.11926180082E+03  0.12699999809E+01 0. -1.
    10030    2    1    2    0    0  0.00000000000E+00  0.00000000000E+00  0.63714241912E+03  0.87566032473E+03  0.60069171966E+03 0.  0.
        1    1    3    3  502    0  0.20285943477E+03 -0.45013320543E+02  0.63470370851E+03  0.66785248889E+03  0.50400001928E-02 0.  1.
       -1    1    3    3    0  502 -0.20285943477E+03  0.45013320543E+02  0.24387106156E+01  0.20780783584E+03  0.50400001928E-02 0. -1.
</event>
<event>
 5   0  0.2142838E-02  0.5980438E+03  0.7818609E-02  0.9909473E-01
       -2   -1    0    0    0  501  0.00000000000E+00  0.00000000000E+00  0.45440094033E+03  0.45440094034E+03  0.25500000920E-02 0.  1.
        2   -1    0    0  501    0  0.00000000000E+00  0.00000000000E+00 -0.19677359249E+03  0.19677359251E+03  0.25500000920E-02 0. -1.
    10030    2    1    2    0    0  0.00000000000E+00  0.00000000000E+00  0.25762734784E+03  0.65117453285E+03  0.59804382940E+03 0.  0.
        4    1    3    3  502    0 -0.51088840454E+02  0.26130696360E+03 -0.19369095852E+02  0.26696099644E+03  0.12699999809E+01 0. -1.
       -4    1    3    3    0  502  0.51088840454E+02 -0.26130696360E+03  0.27699644369E+03  0.38421353641E+03  0.12699999809E+01 0.  1.
</event>
<event>
 5   0  0.8551000E-03  0.5998402E+03  0.7818609E-02  0.9905738E-01
        3   -1    0    0  501    0  0.00000000000E+00  0.00000000000E+00  0.20390972748E+03  0.20390975250E+03  0.10100000352E+00 0. -1.
       -3   -1    0    0    0  501  0.00000000000E+00  0.00000000000E+00 -0.44113671308E+03  0.44113672464E+03  0.10100000352E+00 0.  1.
    10030    2    1    2    0    0  0.00000000000E+00  0.00000000000E+00 -0.23722698559E+03  0.64504647713E+03  0.59984024120E+03 0.  0.
        4    1    3    3  502    0 -0.24979971866E+03  0.13607277216E+03 -0.16398667597E+02  0.28493197077E+03  0.12699999809E+01 0.  1.
       -4    1    3    3    0  502  0.24979971866E+03 -0.13607277216E+03 -0.22082831800E+03  0.36011450637E+03  0.12699999809E+01 0. -1.
</event>
<event>
 5   0  0.1303808E-02  0.6001410E+03  0.7818609E-02  0.9905113E-01
       -1   -1    0    0    0  501  0.00000000000E+00  0.00000000000E+00  0.91528336421E+02  0.91528336559E+02  0.50400001928E-02 0.  1.
        1   -1    0    0  501    0  0.00000000000E+00  0.00000000000E+00 -0.98376439272E+03  0.98376439273E+03  0.50400001928E-02 0. -1.
    10030    2    1    2    0    0  0.00000000000E+00  0.00000000000E+00 -0.89223605630E+03  0.10752927293E+04  0.60014104468E+03 0.  0.
        4    1    3    3  502    0  0.69150175539E+02 -0.21370548812E+03 -0.80261859371E+03  0.83345665892E+03  0.12699999809E+01 0. -1.
       -4    1    3    3    0  502 -0.69150175539E+02  0.21370548812E+03 -0.89617462585E+02  0.24183607037E+03  0.12699999809E+01 0.  1.
</event>
<event>
 5   0  0.2142838E-02  0.6004573E+03  0.7818609E-02  0.9904458E-01
        2   -1    0    0  501    0  0.00000000000E+00  0.00000000000E+00  0.65941987019E+02  0.65941987068E+02  0.25500000920E-02 0. -1.
       -2   -1    0    0    0  501  0.00000000000E+00  0.00000000000E+00 -0.13669174566E+04  0.13669174566E+04  0.25500000920E-02 0.  1.
    10030    2    1    2    0    0  0.00000000000E+00  0.00000000000E+00 -0.13009754696E+04  0.14328594436E+04  0.60045733642E+03 0.  0.
        4    1    3    3  502    0 -0.29549442778E+03  0.33153371778E+02 -0.55153512587E+03  0.62658495903E+03  0.12699999809E+01 0.  1.
       -4    1    3    3    0  502  0.29549442778E+03 -0.33153371778E+02 -0.74944034369E+03  0.80627448462E+03  0.12699999809E+01 0. -1.
</event>
<event>
 5   0  0.2179625E-02  0.6010523E+03  0.7818609E-02  0.9903225E-01
       -2   -1    0    0    0  501  0.00000000000E+00  0.00000000000E+00  0.88584607764E+03  0.88584607764E+03  0.25500000920E-02 0.  1.
        2   -1    0    0  501    0  0.00000000000E+00  0.00000000000E+00 -0.10195448186E+03  0.10195448189E+03  0.25500000920E-02 0. -1.
    10030    2    1    2    0    0  0.00000000000E+00  0.00000000000E+00  0.78389159578E+03  0.98780055953E+03  0.60105233671E+03 0.  0.
        1    1    3    3  502    0 -0.11216657449E+03  0.20624244963E+03  0.83612644650E+02  0.24921549477E+03  0.50400001928E-02 0. -1.
       -1    1    3    3    0  502  0.11216657449E+03 -0.20624244963E+03  0.70027895113E+03  0.73858506476E+03  0.50400001928E-02 0.  1.
</event>
<event>
 5   0  0.2141800E-02  0.6021213E+03  0.7818609E-02  0.9901015E-01
        2   -1    0    0  501    0  0.00000000000E+00  0.00000000000E+00  0.36475740145E+03  0.36475740146E+03  0.25500000920E-02 0.  1.
       -2   -1    0    0    0  501  0.00000000000E+00  0.00000000000E+00 -0.24848715687E+03  0.24848715688E+03  0.25500000920E-02 0. -1.
    10030    2    1    2    0    0  0.00000000000E+00  0.00000000000E+00  0.11627024459E+03  0.61324455834E+03  0.60212134870E+03 0.  0.
        2    1    3    3  502    0  0.18216196431E+03  0.15331956518E+03  0.24578772616E+03  0.34220093022E+03  0.25500000920E-02 0.  1.
       -2    1    3    3    0  502 -0.18216196431E+03 -0.15331956518E+03 -0.12951748157E+03  0.27104362812E+03  0.25500000920E-02 0. -1.
</event>
<event>
 5   0  0.1250390E-02  0.6335268E+03  0.7818609E-02  0.9838191E-01
        1   -1    0    0  501    0  0.00000000000E+00  0.00000000000E+00  0.19128237220E+03  0.19128237226E+03  0.50400001928E-02 0. -1.
       -1   -1    0    0    0  501  0.00000000000E+00  0.00000000000E+00 -0.52455987296E+03  0.52455987298E+03  0.50400001928E-02 0.  1.
    10030    2    1    2    0    0  0.00000000000E+00  0.00000000000E+00 -0.33327750076E+03  0.71584224525E+03  0.63352681677E+03 0.  0.
        3    1    3    3  502    0 -0.96085133717E+02 -0.22145361429E+02 -0.50677696556E+03  0.51628061456E+03  0.10100000352E+00 0.  1.
       -3    1    3    3    0  502  0.96085133717E+02  0.22145361429E+02  0.17349946480E+03  0.19956163068E+03  0.10100000352E+00 0. -1.
</event>
<event>
 5   0  0.8551000E-03  0.6033275E+03  0.7818609E-02  0.9898527E-01
       -3   -1    0    0    0  501  0.00000000000E+00  0.00000000000E+00  0.72714664527E+02  0.72714734671E+02  0.10100000352E+00 0.  1.
        3   -1    0    0  501    0  0.00000000000E+00  0.00000000000E+00 -0.12514802892E+04  0.12514802933E+04  0.10100000352E+00 0. -1.
    10030    2    1    2    0    0  0.00000000000E+00  0.00000000000E+00 -0.11787656247E+04  0.13241950280E+04  0.60332750156E+03 0.  0.
        2    1    3    3  502    0 -0.10293638670E+03  0.18641516282E+03 -0.10583480527E+04  0.10795587586E+04  0.25500000920E-02 0. -1.
       -2    1    3    3    0  502  0.10293638670E+03 -0.18641516282E+03 -0.12041757200E+03  0.24463626936E+03  0.25500000920E-02 0.  1.
</event>
<event>
 5   0  0.1303808E-02  0.6003064E+03  0.7818609E-02  0.9904771E-01
       -1   -1    0    0    0  501  0.00000000000E+00  0.00000000000E+00  0.16201039346E+03  0.16201039354E+03  0.50400001928E-02 0.  1.
        1   -1    0    0  501    0  0.00000000000E+00  0.00000000000E+00 -0.55608735061E+03  0.55608735064E+03  0.50400001928E-02 0. -1.
    10030    2    1    2    0    0  0.00000000000E+00  0.00000000000E+00 -0.39407695715E+03  0.71809774418E+03  0.60030635682E+03 0.  0.
        4    1    3    3  502    0 -0.10123833286E+03 -0.12522920815E+03 -0.50003567578E+03  0.52532736895E+03  0.12699999809E+01 0. -1.
       -4    1    3    3    0  502  0.10123833286E+03  0.12522920815E+03  0.10595871863E+03  0.19277037523E+03  0.12699999809E+01 0.  1.
</event>
<event>
 5   0  0.1332555E-02  0.6017016E+03  0.7818609E-02  0.9901882E-01
        1   -1    0    0  501    0  0.00000000000E+00  0.00000000000E+00  0.16989642453E+04  0.16989642453E+04  0.50400001928E-02 0. -1.
       -1   -1    0    0    0  501  0.00000000000E+00  0.00000000000E+00 -0.53274345819E+02  0.53274346058E+02  0.50400001928E-02 0.  1.
    10030    2    1    2    0    0  0.00000000000E+00  0.00000000000E+00  0.16456898995E+04  0.17522385914E+04  0.60170161693E+03 0.  0.
        2    1    3    3  502    0 -0.43695195895E+02  0.56906399972E+02 -0.27996080232E+02  0.77015511535E+02  0.25500000920E-02 0.  1.
       -2    1    3    3    0  502  0.43695195895E+02 -0.56906399972E+02  0.16736859797E+04  0.16752230798E+04  0.25500000920E-02 0. -1.
</event>
<event>
 5   0  0.2141800E-02  0.6008220E+03  0.7818609E-02  0.9903702E-01
       -2   -1    0    0    0  501  0.00000000000E+00  0.00000000000E+00  0.36604412636E+03  0.36604412637E+03  0.25500000920E-02 0.  1.
        2   -1    0    0  501    0  0.00000000000E+00  0.00000000000E+00 -0.24654615354E+03  0.24654615355E+03  0.25500000920E-02 0. -1.
    10030    2    1    2    0    0  0.00000000000E+00  0.00000000000E+00  0.11949797282E+03  0.61259027992E+03  0.60082200821E+03 0.  0.
        2    1    3    3  502    0 -0.89441343618E+02  0.38686215859E+02 -0.22998310031E+03  0.24977710800E+03  0.25500000920E-02 0. -1.
       -2    1    3    3    0  502  0.89441343618E+02 -0.38686215859E+02  0.34948107312E+03  0.36281317193E+03  0.25500000920E-02 0.  1.
</event>
<event>
 5   0  0.2126207E-02  0.6000534E+03  0.7818609E-02  0.9905295E-01
       -2   -1    0    0    0  501  0.00000000000E+00  0.00000000000E+00  0.14387187798E+03  0.14387187800E+03  0.25500000920E-02 0. -1.
        2   -1    0    0  501    0  0.00000000000E+00  0.00000000000E+00 -0.62566801973E+03  0.62566801973E+03  0.25500000920E-02 0.  1.
    10030    2    1    2    0    0  0.00000000000E+00  0.00000000000E+00 -0.48179614175E+03  0.76953989774E+03  0.60005344096E+03 0.  0.
        5    1    3    3  502    0 -0.91653706548E+02 -0.42128840604E+02 -0.60321909976E+03  0.61161312400E+03  0.46999998093E+01 0.  1.
       -5    1    3    3    0  502  0.91653706548E+02  0.42128840604E+02  0.12142295801E+03  0.15792677374E+03  0.46999998093E+01 0. -1.
</event>
<event>
 5   0  0.1276705E-02  0.6051579E+03  0.7818609E-02  0.9894762E-01
        1   -1    0    0  501    0  0.00000000000E+00  0.00000000000E+00  0.20309411001E+03  0.20309411007E+03  0.50400001928E-02 0. -1.
       -1   -1    0    0    0  501  0.00000000000E+00  0.00000000000E+00 -0.45079609630E+03  0.45079609633E+03  0.50400001928E-02 0.  1.
    10030    2    1    2    0    0  0.00000000000E+00  0.00000000000E+00 -0.24770198629E+03  0.65389020640E+03  0.60515793642E+03 0.  0.
        1    1    3    3  502    0 -0.20525865100E+03 -0.21271088653E+03 -0.54016790797E+02  0.30049101280E+03  0.50400001928E-02 0. -1.
       -1    1    3    3    0  502  0.20525865100E+03  0.21271088653E+03 -0.19368519549E+03  0.35339919360E+03  0.50400001928E-02 0.  1.
</event>
<event>
 5   0  0.2179625E-02  0.5993783E+03  0.7818609E-02  0.9906697E-01
       -2   -1    0    0    0  501  0.00000000000E+00  0.00000000000E+00  0.12959775892E+03  0.12959775895E+03  0.25500000920E-02 0.  1.
        2   -1    0    0  501    0  0.00000000000E+00  0.00000000000E+00 -0.69301796822E+03  0.69301796822E+03  0.25500000920E-02 0. -1.
    10030    2    1    2    0    0  0.00000000000E+00  0.00000000000E+00 -0.56342020930E+03  0.82261572717E+03  0.59937826316E+03 0.  0.
        1    1    3    3  502    0  0.21874353551E+02 -0.11411193757E+03  0.97427497393E+02  0.15163158943E+03  0.50400001928E-02 0.  1.
       -1    1    3    3    0  502 -0.21874353551E+02  0.11411193757E+03 -0.66084770669E+03  0.67098413774E+03  0.50400001928E-02 0. -1.
</event>
<event>
 5   0  0.1303808E-02  0.5992841E+03  0.7818609E-02  0.9906892E-01
       -1   -1    0    0    0  501  0.00000000000E+00  0.00000000000E+00  0.71764449916E+02  0.71764450093E+02  0.50400001928E-02 0.  1.
        1   -1    0    0  501    0  0.00000000000E+00  0.00000000000E+00 -0.12511119846E+04  0.12511119847E+04  0.50400001928E-02 0. -1.
    10030    2    1    2    0    0  0.00000000000E+00  0.00000000000E+00 -0.11793475347E+04  0.13228764347E+04  0.59928411788E+03 0.  0.
        4    1    3    3  502    0  0.19904658950E+03  0.16081746960E+03 -0.93379149703E+03  0.96822000400E+03  0.12699999809E+01 0. -1.
       -4    1    3    3    0  502 -0.19904658950E+03 -0.16081746960E+03 -0.24555603769E+03  0.35465643074E+03  0.12699999809E+01 0.  1.
</event>
<event>
 5   0  0.2126207E-02  0.6009537E+03  0.7818609E-02  0.9903429E-01
       -2   -1    0    0    0  501  0.00000000000E+00  0.00000000000E+00  0.25775336550E+03  0.25775336551E+03  0.25500000920E-02 0. -1.
        2   -1    0    0  501    0  0.00000000000E+00  0.00000000000E+00 -0.35028191236E+03  0.35028191237E+03  0.25500000920E-02 0.  1.
    10030    2    1    2    0    0  0.00000000000E+00  0.00000000000E+00 -0.92528546861E+02  0.60803527788E+03  0.60095371465E+03 0.  0.
        5    1    3    3  502    0 -0.31351000399E+02  0.17563597779E+03 -0.29084274124E+03  0.34123668040E+03  0.46999998093E+01 0.  1.
       -5    1    3    3    0  502  0.31351000399E+02 -0.17563597779E+03  0.19831419438E+03  0.26679859747E+03  0.46999998093E+01 0. -1.
</event>
<event>
 5   0  0.2179625E-02  0.5992998E+03  0.7818609E-02  0.9906860E-01
       -2   -1    0    0    0  501  0.00000000000E+00  0.00000000000E+00  0.20894408063E+03  0.20894408065E+03  0.25500000920E-02 0. -1.
        2   -1    0    0  501    0  0.00000000000E+00  0.00000000000E+00 -0.42973247117E+03  0.42973247118E+03  0.25500000920E-02 0.  1.
    10030    2    1    2    0    0  0.00000000000E+00  0.00000000000E+00 -0.22078839054E+03  0.63867655183E+03  0.59929977846E+03 0.  0.
        1    1    3    3  502    0  0.27328567107E+03  0.11497929867E+03 -0.64127895992E+02  0.30334416790E+03  0.50400001928E-02 0.  1.
       -1    1    3    3    0  502 -0.27328567107E+03 -0.11497929867E+03 -0.15666049454E+03  0.33533238392E+03  0.50400001928E-02 0. -1.
</event>
<event>
 5   0  0.2126207E-02  0.5995856E+03  0.7818609E-02  0.9906266E-01
       -2   -1    0    0    0  501  0.00000000000E+00  0.00000000000E+00  0.15873108648E+04  0.15873108649E+04  0.25500000920E-02 0. -1.
        2   -1    0    0  501    0  0.00000000000E+00  0.00000000000E+00 -0.56621383110E+02  0.56621383168E+02  0.25500000920E-02 0.  1.
    10030    2    1    2    0    0  0.00000000000E+00  0.00000000000E+00  0.15306894817E+04  0.16439322480E+04  0.59958564574E+03 0.  0.
        5    1    3    3  502    0 -0.22893794194E+03  0.11285896785E+03  0.33440592607E+03  0.42071265880E+03  0.46999998093E+01 0.  1.
       -5    1    3    3    0  502  0.22893794194E+03 -0.11285896785E+03  0.11962835557E+04  0.12232195892E+04  0.46999998093E+01 0. -1.
</event>
<event>
 5   0  0.2126207E-02  0.5989980E+03  0.7818609E-02  0.9907487E-01
       -2   -1    0    0    0  501  0.00000000000E+00  0.00000000000E+00  0.61102162706E+02  0.61102162759E+02  0.25500000920E-02 0. -1.
        2   -1    0    0  501    0  0.00000000000E+00  0.00000000000E+00 -0.14680273858E+04  0.14680273858E+04  0.25500000920E-02 0.  1.
    10030    2    1    2    0    0  0.00000000000E+00  0.00000000000E+00 -0.14069252231E+04  0.15291295486E+04  0.59899799074E+03 0.  0.
        5    1    3    3  502    0 -0.12561150763E+03  0.97603874080E+02 -0.13511569264E+04  0.13604969302E+04  0.46999998093E+01 0.  1.
       -5    1    3    3    0  502  0.12561150763E+03 -0.97603874080E+02 -0.55768296660E+02  0.16863261842E+03  0.46999998093E+01 0. -1.
</event>
<event>
 5   0  0.8551000E-03  0.5965211E+03  0.7818609E-02  0.9912650E-01
       -4   -1    0    0    0  501  0.00000000000E+00  0.00000000000E+00  0.11895125222E+04  0.11895132002E+04  0.12699999809E+01 0.  1.
        4   -1    0    0  501    0  0.00000000000E+00  0.00000000000E+00 -0.74780295804E+02  0.74791079284E+02  0.12699999809E+01 0. -1.
    10030    2    1    2    0    0  0.00000000000E+00  0.00000000000E+00  0.11147322264E+04  0.12643042795E+04  0.59652105954E+03 0.  0.
        4    1    3    3  502    0 -0.25158141956E+03  0.68035455293E+02  0.86476640779E+03  0.90318579860E+03  0.12699999809E+01 0.  1.
       -4    1    3    3    0  502  0.25158141956E+03 -0.68035455293E+02  0.24996581862E+03  0.36111848086E+03  0.12699999809E+01 0. -1.
</event>
<event>
 5   0  0.2092587E-02  0.5945875E+03  0.7818609E-02  0.9916699E-01
       -2   -1    0    0    0  501  0.00000000000E+00  0.00000000000E+00  0.78234075062E+02  0.78234075103E+02  0.25500000920E-02 0.  1.
        2   -1    0    0  501    0  0.00000000000E+00  0.00000000000E+00 -0.11297325501E+04  0.11297325501E+04  0.25500000920E-02 0. -1.
    10030    2    1    2    0    0  0.00000000000E+00  0.00000000000E+00 -0.10514984750E+04  0.12079666252E+04  0.59458752476E+03 0.  0.
        3    1    3    3  502    0 -0.17428413094E+03 -0.18686984701E+03 -0.83444798424E+03  0.87269625106E+03  0.10100000352E+00 0. -1.
       -3    1    3    3    0  502  0.17428413094E+03  0.18686984701E+03 -0.21705049080E+03  0.33527037414E+03  0.10100000352E+00 0.  1.
</event>
<event>
 5   0  0.1332555E-02  0.6001256E+03  0.7818609E-02  0.9905145E-01
       -1   -1    0    0    0  501  0.00000000000E+00  0.00000000000E+00  0.19628697913E+03  0.19628697920E+03  0.50400001928E-02 0.  1.
        1   -1    0    0  501    0  0.00000000000E+00  0.00000000000E+00 -0.45870432444E+03  0.45870432447E+03  0.50400001928E-02 0. -1.
    10030    2    1    2    0    0  0.00000000000E+00  0.00000000000E+00 -0.26241734530E+03  0.65499130366E+03  0.60012560748E+03 0.  0.
        2    1    3    3  502    0 -0.24472049944E+03  0.22298699653E+02 -0.31915021969E+03  0.40279302077E+03  0.25500000920E-02 0.  1.
       -2    1    3    3    0  502  0.24472049944E+03 -0.22298699653E+02  0.56732874383E+02  0.25219828289E+03  0.25500000920E-02 0. -1.
</event>
<event>
 5   0  0.2142838E-02  0.5636884E+03  0.7818609E-02  0.9983743E-01
        2   -1    0    0  501    0  0.00000000000E+00  0.00000000000E+00  0.31336176913E+03  0.31336176914E+03  0.25500000920E-02 0.  1.
       -2   -1    0    0    0  501  0.00000000000E+00  0.00000000000E+00 -0.25349660727E+03  0.25349660728E+03  0.25500000920E-02 0. -1.
    10030    2    1    2    0    0  0.00000000000E+00  0.00000000000E+00  0.59865161861E+02  0.56685837642E+03  0.56368837252E+03 0.  0.
        4    1    3    3  502    0 -0.89132568578E+02  0.12934301667E+02  0.29849741210E+03  0.31179196409E+03  0.12699999809E+01 0.  1.
       -4    1    3    3    0  502  0.89132568578E+02 -0.12934301667E+02 -0.23863225024E+03  0.25506641233E+03  0.12699999809E+01 0. -1.
</event>
<event>
 5   0  0.1250390E-02  0.6031710E+03  0.7818609E-02  0.9898849E-01
        1   -1    0    0  501    0  0.00000000000E+00  0.00000000000E+00  0.55234712525E+03  0.55234712527E+03  0.50400001928E-02 0.  1.
       -1   -1    0    0    0  501  0.00000000000E+00  0.00000000000E+00 -0.16466786671E+03  0.16466786679E+03  0.50400001928E-02 0. -1.
    10030    2    1    2    0    0  0.00000000000E+00  0.00000000000E+00  0.38767925853E+03  0.71701499206E+03  0.60317102993E+03 0.  0.
        3    1    3    3  502    0  0.12605529551E+03  0.65692655325E+02  0.51002802010E+03  0.52946581946E+03  0.10100000352E+00 0.  1.
       -3    1    3    3    0  502 -0.12605529551E+03 -0.65692655325E+02 -0.12234876156E+03  0.18754917261E+03  0.10100000352E+00 0. -1.
</event>
<event>
 5   0  0.2092587E-02  0.6057550E+03  0.7818609E-02  0.9893538E-01
       -2   -1    0    0    0  501  0.00000000000E+00  0.00000000000E+00  0.13424827236E+03  0.13424827239E+03  0.25500000920E-02 0.  1.
        2   -1    0    0  501    0  0.00000000000E+00  0.00000000000E+00 -0.68332193553E+03  0.68332193553E+03  0.25500000920E-02 0. -1.
    10030    2    1    2    0    0  0.00000000000E+00  0.00000000000E+00 -0.54907366317E+03  0.81757020792E+03  0.60575503076E+03 0.  0.
        3    1    3    3  502    0  0.18193943212E+03  0.23598239405E+03 -0.34778223911E+03  0.45797613836E+03  0.10100000352E+00 0. -1.
       -3    1    3    3    0  502 -0.18193943212E+03 -0.23598239405E+03 -0.20129142405E+03  0.35959406956E+03  0.10100000352E+00 0.  1.
</event>
<event>
 5   0  0.1303808E-02  0.5982963E+03  0.7818609E-02  0.9908947E-01
       -1   -1    0    0    0  501  0.00000000000E+00  0.00000000000E+00  0.76547784794E+02  0.76547784960E+02  0.50400001928E-02 0.  1.
        1   -1    0    0  501    0  0.00000000000E+00  0.00000000000E+00 -0.11690685328E+04  0.11690685328E+04  0.50400001928E-02 0. -1.
    10030    2    1    2    0    0  0.00000000000E+00  0.00000000000E+00 -0.10925207480E+04  0.12456163178E+04  0.59829626965E+03 0.  0.
        4    1    3    3  502    0  0.17361387205E+03 -0.86081870629E+02 -0.71796903903E+02  0.20665980095E+03  0.12699999809E+01 0.  1.
       -4    1    3    3    0  502 -0.17361387205E+03  0.86081870629E+02 -0.10207238441E+04  0.10389565168E+04  0.12699999809E+01 0. -1.
</event>
<event>
 5   0  0.2179625E-02  0.6022991E+03  0.7818609E-02  0.9900648E-01
       -2   -1    0    0    0  501  0.00000000000E+00  0.00000000000E+00  0.14227141292E+03  0.14227141294E+03  0.25500000920E-02 0.  1.
        2   -1    0    0  501    0  0.00000000000E+00  0.00000000000E+00 -0.63745103710E+03  0.63745103710E+03  0.25500000920E-02 0. -1.
    10030    2    1    2    0    0  0.00000000000E+00  0.00000000000E+00 -0.49517962418E+03  0.77972245005E+03  0.60229912743E+03 0.  0.
        1    1    3    3  502    0  0.24688482163E+03 -0.17239469784E+03 -0.24194499689E+03  0.38627636291E+03  0.50400001928E-02 0.  1.
       -1    1    3    3    0  502 -0.24688482163E+03  0.17239469784E+03 -0.25323462729E+03  0.39344608714E+03  0.50400001928E-02 0. -1.
</event>
<event>
 5   0  0.1337051E-02  0.5994158E+03  0.7818609E-02  0.9906619E-01
        1   -1    0    0  501    0  0.00000000000E+00  0.00000000000E+00  0.67992280383E+03  0.67992280385E+03  0.50400001928E-02 0. -1.
       -1   -1    0    0    0  501  0.00000000000E+00  0.00000000000E+00 -0.13211033514E+03  0.13211033523E+03  0.50400001928E-02 0.  1.
    10030    2    1    2    0    0  0.00000000000E+00  0.00000000000E+00  0.54781246870E+03  0.81203313908E+03  0.59941581403E+03 0.  0.
        5    1    3    3  502    0 -0.19365329286E+02  0.28415747629E+03  0.40013599409E+03  0.49117348369E+03  0.46999998093E+01 0. -1.
       -5    1    3    3    0  502  0.19365329286E+02 -0.28415747629E+03  0.14767647461E+03  0.32085965540E+03  0.46999998093E+01 0.  1.
</event>
<event>
 5   0  0.1303808E-02  0.6001955E+03  0.7818609E-02  0.9905001E-01
       -1   -1    0    0    0  501  0.00000000000E+00  0.00000000000E+00  0.63374428792E+02  0.63374428993E+02  0.50400001928E-02 0. -1.
        1   -1    0    0  501    0  0.00000000000E+00  0.00000000000E+00 -0.14210565566E+04  0.14210565566E+04  0.50400001928E-02 0.  1.
    10030    2    1    2    0    0  0.00000000000E+00  0.00000000000E+00 -0.13576821278E+04  0.14844309856E+04  0.60019546054E+03 0.  0.
        4    1    3    3  502    0 -0.27630536866E+02 -0.80436441564E+02  0.32936460475E+02  0.91213436662E+02  0.12699999809E+01 0. -1.
       -4    1    3    3    0  502  0.27630536866E+02  0.80436441564E+02 -0.13906185883E+04  0.13932175490E+04  0.12699999809E+01 0.  1.
</event>
<event>
 5   0  0.2092587E-02  0.5987405E+03  0.7818609E-02  0.9908023E-01
       -2   -1    0    0    0  501  0.00000000000E+00  0.00000000000E+00  0.81869415151E+02  0.81869415191E+02  0.25500000920E-02 0.  1.
        2   -1    0    0  501    0  0.00000000000E+00  0.00000000000E+00 -0.10947012006E+04  0.10947012006E+04  0.25500000920E-02 0. -1.
    10030    2    1    2    0    0  0.00000000000E+00  0.00000000000E+00 -0.10128317854E+04  0.11765706158E+04  0.59874050166E+03 0.  0.
        3    1    3    3  502    0 -0.28606114686E+03  0.71274792268E+01 -0.67930636281E+03  0.73711527284E+03  0.10100000352E+00 0. -1.
       -3    1    3    3    0  502  0.28606114686E+03 -0.71274792268E+01 -0.33352542264E+03  0.43945534295E+03  0.10100000352E+00 0.  1.
</event>
<event>
 5   0  0.1337051E-02  0.6093439E+03  0.7818609E-02  0.9886208E-01
       -1   -1    0    0    0  501  0.00000000000E+00  0.00000000000E+00  0.63678233922E+03  0.63678233924E+03  0.50400001928E-02 0. -1.
        1   -1    0    0  501    0  0.00000000000E+00  0.00000000000E+00 -0.14577196373E+03  0.14577196382E+03  0.50400001928E-02 0.  1.
    10030    2    1    2    0    0  0.00000000000E+00  0.00000000000E+00  0.49101037549E+03  0.78255430305E+03  0.60934394917E+03 0.  0.
        5    1    3    3  502    0  0.31999084193E+02 -0.27005268715E+03  0.69180254711E+02  0.28064282080E+03  0.46999998093E+01 0.  1.
       -5    1    3    3    0  502 -0.31999084193E+02  0.27005268715E+03  0.42183012078E+03  0.50191148226E+03  0.46999998093E+01 0. -1.
</event>
<event>
 5   0  0.1250390E-02  0.6006344E+03  0.7818609E-02  0.9904091E-01
       -1   -1    0    0    0  501  0.00000000000E+00  0.00000000000E+00  0.22795721886E+03  0.22795721891E+03  0.50400001928E-02 0. -1.
        1   -1    0    0  501    0  0.00000000000E+00  0.00000000000E+00 -0.39564621095E+03  0.39564621098E+03  0.50400001928E-02 0.  1.
    10030    2    1    2    0    0  0.00000000000E+00  0.00000000000E+00 -0.16768899210E+03  0.62360342989E+03  0.60063436441E+03 0.  0.
        3    1    3    3  502    0 -0.12971616123E+03  0.26527272275E+03 -0.14065916283E+03  0.32707936377E+03  0.10100000352E+00 0.  1.
       -3    1    3    3    0  502  0.12971616123E+03 -0.26527272275E+03 -0.27029829262E+02  0.29652406612E+03  0.10100000352E+00 0. -1.
</event>
<event>
 5   0  0.1332555E-02  0.5995190E+03  0.7818609E-02  0.9906405E-01
        1   -1    0    0  501    0  0.00000000000E+00  0.00000000000E+00  0.26234451462E+03  0.26234451467E+03  0.50400001928E-02 0. -1.
       -1   -1    0    0    0  501  0.00000000000E+00  0.00000000000E+00 -0.34251048806E+03  0.34251048810E+03  0.50400001928E-02 0.  1.
    10030    2    1    2    0    0  0.00000000000E+00  0.00000000000E+00 -0.80165973445E+02  0.60485500277E+03  0.59951896640E+03 0.  0.
        2    1    3    3  502    0 -0.19762793977E+03  0.24939256783E+02 -0.26607890931E+03  0.33238043729E+03  0.25500000920E-02 0.  1.
       -2    1    3    3    0  502  0.19762793977E+03 -0.24939256783E+02  0.18591293586E+03  0.27247456548E+03  0.25500000920E-02 0. -1.
</event>
<event>
 5   0  0.2141800E-02  0.6033526E+03  0.7818609E-02  0.9898475E-01
       -2   -1    0    0    0  501  0.00000000000E+00  0.00000000000E+00  0.36575038747E+02  0.36575038835E+02  0.25500000920E-02 0.  1.
        2   -1    0    0  501    0  0.00000000000E+00  0.00000000000E+00 -0.24882707903E+04  0.24882707903E+04  0.25500000920E-02 0. -1.
    10030    2    1    2    0    0  0.00000000000E+00  0.00000000000E+00 -0.24516957516E+04  0.25248458291E+04  0.60335263547E+03 0.  0.
        2    1    3    3  502    0  0.15187251995E+03 -0.41432606497E+01 -0.13520587114E+03  0.20337909559E+03  0.25500000920E-02 0.  1.
       -2    1    3    3    0  502 -0.15187251995E+03  0.41432606497E+01 -0.23164898804E+04  0.23214667336E+04  0.25500000920E-02 0. -1.
</event>
<event>
 5   0  0.1332555E-02  0.6097776E+03  0.7818609E-02  0.9885326E-01
       -1   -1    0    0    0  501  0.00000000000E+00  0.00000000000E+00  0.39031653019E+03  0.39031653022E+03  0.50400001928E-02 0.  1.
        1   -1    0    0  501    0  0.00000000000E+00  0.00000000000E+00 -0.23815843305E+03  0.23815843310E+03  0.50400001928E-02 0. -1.
    10030    2    1    2    0    0  0.00000000000E+00  0.00000000000E+00  0.15215809714E+03  0.62847496332E+03  0.60977757666E+03 0.  0.
        2    1    3    3  502    0 -0.79166221916E+02  0.19555693244E+03 -0.15077766100E+03  0.25931391706E+03  0.25500000920E-02 0. -1.
       -2    1    3    3    0  502  0.79166221916E+02 -0.19555693244E+03  0.30293575813E+03  0.36916104626E+03  0.25500000920E-02 0.  1.
</event>
<event>
 5   0  0.1332555E-02  0.6002292E+03  0.7818609E-02  0.9904931E-01
        1   -1    0    0  501    0  0.00000000000E+00  0.00000000000E+00  0.28884295833E+03  0.28884295837E+03  0.50400001928E-02 0. -1.
       -1   -1    0    0    0  501  0.00000000000E+00  0.00000000000E+00 -0.31182606533E+03  0.31182606537E+03  0.50400001928E-02 0.  1.
    10030    2    1    2    0    0  0.00000000000E+00  0.00000000000E+00 -0.22983107001E+02  0.60066902374E+03  0.60022916696E+03 0.  0.
        2    1    3    3  502    0  0.16081981651E+03 -0.10176485496E+03  0.22073380407E+03  0.29144898585E+03  0.25500000920E-02 0. -1.
       -2    1    3    3    0  502 -0.16081981651E+03  0.10176485496E+03 -0.24371691107E+03  0.30922003789E+03  0.25500000920E-02 0.  1.
</event>
<event>
 5   0  0.1250390E-02  0.5997692E+03  0.7818609E-02  0.9905885E-01
        1   -1    0    0  501    0  0.00000000000E+00  0.00000000000E+00  0.10081714889E+04  0.10081714889E+04  0.50400001928E-02 0.  1.
       -1   -1    0    0    0  501  0.00000000000E+00  0.00000000000E+00 -0.89201849082E+02  0.89201849224E+02  0.50400001928E-02 0. -1.
    10030    2    1    2    0    0  0.00000000000E+00  0.00000000000E+00  0.91896963979E+03  0.10973733381E+04  0.59976915921E+03 0.  0.
        3    1    3    3  502    0  0.65420070036E+02 -0.16634153097E+03  0.18914892929E+02  0.17974168650E+03  0.10100000352E+00 0. -1.
       -3    1    3    3    0  502 -0.65420070036E+02  0.16634153097E+03  0.90005474686E+03  0.91763165161E+03  0.10100000352E+00 0.  1.
</event>
<event>
 5   0  0.2179625E-02  0.5940516E+03  0.7818609E-02  0.9917825E-01
        2   -1    0    0  501    0  0.00000000000E+00  0.00000000000E+00  0.38135405530E+03  0.38135405531E+03  0.25500000920E-02 0.  1.
       -2   -1    0    0    0  501  0.00000000000E+00  0.00000000000E+00 -0.23134490040E+03  0.23134490041E+03  0.25500000920E-02 0. -1.
    10030    2    1    2    0    0  0.00000000000E+00  0.00000000000E+00  0.15000915490E+03  0.61269895572E+03  0.59405156661E+03 0.  0.
        1    1    3    3  502    0  0.10852570145E+03  0.19607556124E+03 -0.12605266442E+03  0.25712395420E+03  0.50400001928E-02 0. -1.
       -1    1    3    3    0  502 -0.10852570145E+03 -0.19607556124E+03  0.27606181932E+03  0.35557500152E+03  0.50400001928E-02 0.  1.
</event>
<event>
 5   0  0.8551000E-03  0.6250402E+03  0.7818609E-02  0.9854776E-01
        3   -1    0    0  501    0  0.00000000000E+00  0.00000000000E+00  0.33881177196E+03  0.33881178701E+03  0.10100000352E+00 0.  1.
       -3   -1    0    0    0  501  0.00000000000E+00  0.00000000000E+00 -0.28826863312E+03  0.28826865082E+03  0.10100000352E+00 0. -1.
    10030    2    1    2    0    0  0.00000000000E+00  0.00000000000E+00  0.50543138837E+02  0.62708043783E+03  0.62504021201E+03 0.  0.
        1    1    3    3  502    0  0.24042354941E+03 -0.19692621530E+03 -0.77813673204E+01  0.31087612820E+03  0.50400001928E-02 0. -1.
       -1    1    3    3    0  502 -0.24042354941E+03  0.19692621530E+03  0.58324506158E+02  0.31620430963E+03  0.50400001928E-02 0.  1.
</event>
<event>
 5   0  0.2142838E-02  0.6001888E+03  0.7818609E-02  0.9905014E-01
        2   -1    0    0  501    0  0.00000000000E+00  0.00000000000E+00  0.66687770580E+03  0.66687770580E+03  0.25500000920E-02 0. -1.
       -2   -1    0    0    0  501  0.00000000000E+00  0.00000000000E+00 -0.13504223683E+03  0.13504223686E+03  0.25500000920E-02 0.  1.
    10030    2    1    2    0    0  0.00000000000E+00  0.00000000000E+00  0.53183546896E+03  0.80191994266E+03  0.60018882727E+03 0.  0.
        4    1    3    3  502    0 -0.11420047762E+03  0.60153213268E+02  0.62789059309E+03  0.64102134749E+03  0.12699999809E+01 0. -1.
       -4    1    3    3    0  502  0.11420047762E+03 -0.60153213268E+02 -0.96055124125E+02  0.16089859516E+03  0.12699999809E+01 0.  1.
</event>
<event>
 5   0  0.1276705E-02  0.6035369E+03  0.7818609E-02  0.9898095E-01
        1   -1    0    0  501    0  0.00000000000E+00  0.00000000000E+00  0.59871697159E+02  0.59871697371E+02  0.50400001928E-02 0. -1.
       -1   -1    0    0    0  501  0.00000000000E+00  0.00000000000E+00 -0.15209890861E+04  0.15209890861E+04  0.50400001928E-02 0.  1.
    10030    2    1    2    0    0  0.00000000000E+00  0.00000000000E+00 -0.14611173890E+04  0.15808607835E+04  0.60353690234E+03 0.  0.
        1    1    3    3  502    0 -0.49659732443E+02 -0.22739022967E+03 -0.12336591091E+04  0.12554231172E+04  0.50400001928E-02 0.  1.
       -1    1    3    3    0  502  0.49659732443E+02  0.22739022967E+03 -0.22745827985E+03  0.32543766634E+03  0.50400001928E-02 0. -1.
</event>
<event>
 5   0  0.2179625E-02  0.5996843E+03  0.7818609E-02  0.9906061E-01
       -2   -1    0    0    0  501  0.00000000000E+00  0.00000000000E+00  0.32982960466E+03  0.32982960467E+03  0.25500000920E-02 0.  1.
        2   -1    0    0  501    0  0.00000000000E+00  0.00000000000E+00 -0.27258109691E+03  0.27258109692E+03  0.25500000920E-02 0. -1.
    10030    2    1    2    0    0  0.00000000000E+00  0.00000000000E+00  0.57248507753E+02  0.60241070159E+03  0.59968430173E+03 0.  0.
        1    1    3    3  502    0 -0.20122483910E+03  0.95506734679E+02  0.23026637638E+03  0.32036787660E+03  0.50400001928E-02 0.  1.
       -1    1    3    3    0  502  0.20122483910E+03 -0.95506734679E+02 -0.17301786863E+03  0.28204282499E+03  0.50400001928E-02 0. -1.
</event>
<event>
 5   0  0.8551000E-03  0.6049344E+03  0.7818609E-02  0.9895221E-01
        3   -1    0    0  501    0  0.00000000000E+00  0.00000000000E+00  0.15156946687E+03  0.15156950052E+03  0.10100000352E+00 0. -1.
       -3   -1    0    0    0  501  0.00000000000E+00  0.00000000000E+00 -0.60359384188E+03  0.60359385033E+03  0.10100000352E+00 0.  1.
    10030    2    1    2    0    0  0.00000000000E+00  0.00000000000E+00 -0.45202437501E+03  0.75516335085E+03  0.60493441864E+03 0.  0.
        5    1    3    3  502    0  0.76454039368E+02 -0.65646833051E+02  0.12994970834E+03  0.16451061826E+03  0.46999998093E+01 0. -1.
       -5    1    3    3    0  502 -0.76454039368E+02  0.65646833051E+02 -0.58197408335E+03  0.59065273259E+03  0.46999998093E+01 0.  1.
</event>
<event>
 5   0  0.2142838E-02  0.6024178E+03  0.7818609E-02  0.9900403E-01
        2   -1    0    0  501    0  0.00000000000E+00  0.00000000000E+00  0.22217484942E+04  0.22217484942E+04  0.25500000920E-02 0. -1.
       -2   -1    0    0    0  501  0.00000000000E+00  0.00000000000E+00 -0.40835766419E+02  0.40835766498E+02  0.25500000920E-02 0.  1.
    10030    2    1    2    0    0  0.00000000000E+00  0.00000000000E+00  0.21809127278E+04  0.22625842607E+04  0.60241780399E+03 0.  0.
        4    1    3    3  502    0 -0.14079417461E+03 -0.62898188052E+02  0.11867334496E+03  0.19458714594E+03  0.12699999809E+01 0.  1.
       -4    1    3    3    0  502  0.14079417461E+03  0.62898188052E+02  0.20622393828E+04  0.20679971147E+04  0.12699999809E+01 0. -1.
</event>
<event>
 5   0  0.2126207E-02  0.5992381E+03  0.7818609E-02  0.9906988E-01
       -2   -1    0    0    0  501  0.00000000000E+00  0.00000000000E+00  0.27227842173E+03  0.27227842174E+03  0.25500000920E-02 0. -1.
        2   -1    0    0  501    0  0.00000000000E+00  0.00000000000E+00 -0.32970508606E+03  0.32970508607E+03  0.25500000920E-02 0.  1.
    10030    2    1    2    0    0  0.00000000000E+00  0.00000000000E+00 -0.57426664325E+02  0.60198350781E+03  0.59923811786E+03 0.  0.
        5    1    3    3  502    0 -0.96802361389E+02  0.28256471735E+03 -0.51970506529E+02  0.30321038934E+03  0.46999998093E+01 0.  1.
       -5    1    3    3    0  502  0.96802361389E+02 -0.28256471735E+03 -0.54561577964E+01  0.29877311846E+03  0.46999998093E+01 0. -1.
</event>
<event>
 5   0  0.2179625E-02  0.5943658E+03  0.7818609E-02  0.9917165E-01
       -2   -1    0    0    0  501  0.00000000000E+00  0.00000000000E+00  0.79692104115E+02  0.79692104156E+02  0.25500000920E-02 0.  1.
        2   -1    0    0  501    0  0.00000000000E+00  0.00000000000E+00 -0.11082362590E+04  0.11082362590E+04  0.25500000920E-02 0. -1.
    10030    2    1    2    0    0  0.00000000000E+00  0.00000000000E+00 -0.10285441549E+04  0.11879283632E+04  0.59436581114E+03 0.  0.
        1    1    3    3  502    0  0.53299461652E+02  0.28915749475E+03 -0.60058014486E+03  0.66869230578E+03  0.50400001928E-02 0.  1.
       -1    1    3    3    0  502 -0.53299461652E+02 -0.28915749475E+03 -0.42796401004E+03  0.51923605739E+03  0.50400001928E-02 0. -1.
</event>
<event>
 5   0  0.2126207E-02  0.5966874E+03  0.7818609E-02  0.9912303E-01
        2   -1    0    0  501    0  0.00000000000E+00  0.00000000000E+00  0.90469172268E+03  0.90469172268E+03  0.25500000920E-02 0.  1.
       -2   -1    0    0    0  501  0.00000000000E+00  0.00000000000E+00 -0.98385950675E+02  0.98385950708E+02  0.25500000920E-02 0. -1.
    10030    2    1    2    0    0  0.00000000000E+00  0.00000000000E+00  0.80630577200E+03  0.10030776734E+04  0.59668737283E+03 0.  0.
        5    1    3    3  502    0  0.34230692731E+02  0.11948686419E+03 -0.52719898417E+02  0.13509377753E+03  0.46999998093E+01 0. -1.
       -5    1    3    3    0  502 -0.34230692731E+02 -0.11948686419E+03  0.85902567042E+03  0.86798389586E+03  0.46999998093E+01 0.  1.
</event>
<event>
 5   0  0.2179625E-02  0.6035262E+03  0.7818609E-02  0.9898117E-01
        2   -1    0    0  501    0  0.00000000000E+00  0.00000000000E+00  0.13668836478E+04  0.13668836478E+04  0.25500000920E-02 0.  1.
       -2   -1    0    0    0  501  0.00000000000E+00  0.00000000000E+00 -0.66619404714E+02  0.66619404763E+02  0.25500000920E-02 0. -1.
    10030    2    1    2    0    0  0.00000000000E+00  0.00000000000E+00  0.13002642431E+04  0.14335030525E+04  0.60352622135E+03 0.  0.
        1    1    3    3  502    0 -0.20767711352E+03  0.42191895193E+02  0.11603940935E+04  0.11795865342E+04  0.50400001928E-02 0.  1.
       -1    1    3    3    0  502  0.20767711352E+03 -0.42191895193E+02  0.13987014954E+03  0.25391651829E+03  0.50400001928E-02 0. -1.
</event>
<event>
 5   0  0.1303808E-02  0.6034488E+03  0.7818609E-02  0.9898277E-01
       -1   -1    0    0    0  501  0.00000000000E+00  0.00000000000E+00  0.19320421743E+03  0.19320421749E+03  0.50400001928E-02 0. -1.
        1   -1    0    0  501    0  0.00000000000E+00  0.00000000000E+00 -0.47119892024E+03  0.47119892026E+03  0.50400001928E-02 0.  1.
    10030    2    1    2    0    0  0.00000000000E+00  0.00000000000E+00 -0.27799470281E+03  0.66440313776E+03  0.60344881694E+03 0.  0.
        4    1    3    3  502    0 -0.64173084158E+02  0.26847823026E+02 -0.46224646970E+03  0.46745310137E+03  0.12699999809E+01 0.  1.
       -4    1    3    3    0  502  0.64173084158E+02 -0.26847823026E+02  0.18425176689E+03  0.19695003639E+03  0.12699999809E+01 0. -1.
</event>
<event>
 5   0  0.1250390E-02  0.6089432E+03  0.7818609E-02  0.9887023E-01
       -1   -1    0    0    0  501  0.00000000000E+00  0.00000000000E+00  0.97475344805E+03  0.97475344807E+03  0.50400001928E-02 0. -1.
        1   -1    0    0  501    0  0.00000000000E+00  0.00000000000E+00 -0.95104012745E+02  0.95104012878E+02  0.50400001928E-02 0.  1.
    10030    2    1    2    0    0  0.00000000000E+00  0.00000000000E+00  0.87964943531E+03  0.10698574609E+04  0.60894323028E+03 0.  0.
        3    1    3    3  502    0 -0.20129716760E+03  0.22569286574E+03  0.37782962470E+03  0.48395563312E+03  0.10100000352E+00 0.  1.
       -3    1    3    3    0  502  0.20129716760E+03 -0.22569286574E+03  0.50181981061E+03  0.58590182783E+03  0.10100000352E+00 0. -1.
</event>
<event>
 5   0  0.2179625E-02  0.6001536E+03  0.7818609E-02  0.9905087E-01
       -2   -1    0    0    0  501  0.00000000000E+00  0.00000000000E+00  0.91359589580E+02  0.91359589616E+02  0.25500000920E-02 0. -1.
        2   -1    0    0  501    0  0.00000000000E+00  0.00000000000E+00 -0.98562285131E+03  0.98562285132E+03  0.25500000920E-02 0.  1.
    10030    2    1    2    0    0  0.00000000000E+00  0.00000000000E+00 -0.89426326173E+03  0.10769824409E+04  0.60015364432E+03 0.  0.
        1    1    3    3  502    0 -0.28961027361E+03 -0.71181003794E+02 -0.38747247786E+03  0.48895374731E+03  0.50400001928E-02 0.  1.
       -1    1    3    3    0  502  0.28961027361E+03  0.71181003794E+02 -0.50679078387E+03  0.58802869362E+03  0.50400001928E-02 0. -1.
</event>
<event>
 5   0  0.1332555E-02  0.6003190E+03  0.7818609E-02  0.9904745E-01
       -1   -1    0    0    0  501  0.00000000000E+00  0.00000000000E+00  0.15033620929E+03  0.15033620937E+03  0.50400001928E-02 0. -1.
        1   -1    0    0  501    0  0.00000000000E+00  0.00000000000E+00 -0.59929486624E+03  0.59929486626E+03  0.50400001928E-02 0.  1.
    10030    2    1    2    0    0  0.00000000000E+00  0.00000000000E+00 -0.44895865695E+03  0.74963107563E+03  0.60031897680E+03 0.  0.
        2    1    3    3  502    0 -0.10900693242E+03  0.27894952053E+03 -0.24946536903E+03  0.38977983102E+03  0.25500000920E-02 0. -1.
       -2    1    3    3    0  502  0.10900693242E+03 -0.27894952053E+03 -0.19949328792E+03  0.35985124461E+03  0.25500000920E-02 0.  1.
</event>
<event>
 5   0  0.2141800E-02  0.5998765E+03  0.7818609E-02  0.9905662E-01
       -2   -1    0    0    0  501  0.00000000000E+00  0.00000000000E+00  0.39875374085E+03  0.39875374086E+03  0.25500000920E-02 0. -1.
        2   -1    0    0  501    0  0.00000000000E+00  0.00000000000E+00 -0.22561028358E+03  0.22561028359E+03  0.25500000920E-02 0.  1.
    10030    2    1    2    0    0  0.00000000000E+00  0.00000000000E+00  0.17314345728E+03  0.62436402445E+03  0.59987646914E+03 0.  0.
        2    1    3    3  502    0 -0.17806070827E+03  0.14283191968E+03 -0.11593783452E+03  0.25602373833E+03  0.25500000920E-02 0.  1.
       -2    1    3    3    0  502  0.17806070827E+03 -0.14283191968E+03  0.28908129179E+03  0.36834028612E+03  0.25500000920E-02 0. -1.
</event>
<event>
 5   0  0.1303808E-02  0.5861210E+03  0.7818609E-02  0.9934626E-01
       -1   -1    0    0    0  501  0.00000000000E+00  0.00000000000E+00  0.40130541010E+03  0.40130541013E+03  0.50400001928E-02 0.  1.
        1   -1    0    0  501    0  0.00000000000E+00  0.00000000000E+00 -0.21401269730E+03  0.21401269736E+03  0.50400001928E-02 0. -1.
    10030    2    1    2    0    0  0.00000000000E+00  0.00000000000E+00  0.18729271280E+03  0.61531810749E+03  0.58612098848E+03 0.  0.
        4    1    3    3  502    0  0.89453665608E+02 -0.11307875863E+03 -0.17419840521E+03  0.22613151311E+03  0.12699999809E+01 0. -1.
       -4    1    3    3    0  502 -0.89453665608E+02  0.11307875863E+03  0.36149111801E+03  0.38918659438E+03  0.12699999809E+01 0.  1.
</event>
<event>
 5   0  0.2126207E-02  0.5999236E+03  0.7818609E-02  0.9905565E-01
       -2   -1    0    0    0  501  0.00000000000E+00  0.00000000000E+00  0.26677397260E+03  0.26677397261E+03  0.25500000920E-02 0. -1.
        2   -1    0    0  501    0  0.00000000000E+00  0.00000000000E+00 -0.33727832875E+03  0.33727832876E+03  0.25500000920E-02 0.  1.
    10030    2    1    2    0    0  0.00000000000E+00  0.00000000000E+00 -0.70504356154E+02  0.60405230138E+03  0.59992359394E+03 0.  0.
        5    1    3    3  502    0  0.52832817780E+02  0.75041792307E+02  0.25225172655E+03  0.26846899406E+03  0.46999998093E+01 0. -1.
       -5    1    3    3    0  502 -0.52832817780E+02 -0.75041792307E+02 -0.32275608270E+03  0.33558330731E+03  0.46999998093E+01 0.  1.
</event>
<event>
 5   0  0.1303808E-02  0.6370553E+03  0.7818609E-02  0.9831377E-01
       -1   -1    0    0    0  501  0.00000000000E+00  0.00000000000E+00  0.30886675290E+03  0.30886675294E+03  0.50400001928E-02 0. -1.
        1   -1    0    0  501    0  0.00000000000E+00  0.00000000000E+00 -0.32849076660E+03  0.32849076664E+03  0.50400001928E-02 0.  1.
    10030    2    1    2    0    0  0.00000000000E+00  0.00000000000E+00 -0.19624013702E+02  0.63735751958E+03  0.63705533971E+03 0.  0.
        4    1    3    3  502    0  0.26807153127E+03  0.22841028877E+02 -0.18040448516E+03  0.32393124215E+03  0.12699999809E+01 0.  1.
       -4    1    3    3    0  502 -0.26807153127E+03 -0.22841028877E+02  0.16078047146E+03  0.31342627742E+03  0.12699999809E+01 0. -1.
</event>
<event>
 5   0  0.2179625E-02  0.5983336E+03  0.7818609E-02  0.9908869E-01
        2   -1    0    0  501    0  0.00000000000E+00  0.00000000000E+00  0.77679392487E+03  0.77679392487E+03  0.25500000920E-02 0.  1.
       -2   -1    0    0    0  501  0.00000000000E+00  0.00000000000E+00 -0.11521815329E+03  0.11521815332E+03  0.25500000920E-02 0. -1.
    10030    2    1    2    0    0  0.00000000000E+00  0.00000000000E+00  0.66157577157E+03  0.89201207819E+03  0.59833355756E+03 0.  0.
        1    1    3    3  502    0  0.74768705765E+02  0.24511994016E+03  0.56091011191E+03  0.61668006137E+03  0.50400001928E-02 0.  1.
       -1    1    3    3    0  502 -0.74768705765E+02 -0.24511994016E+03  0.10066565966E+03  0.27533201682E+03  0.50400001928E-02 0. -1.
</event>
<event>
 5   0  0.1332555E-02  0.5958313E+03  0.7818609E-02  0.9914093E-01
        1   -1    0    0  501    0  0.00000000000E+00  0.00000000000E+00  0.67104474100E+03  0.67104474101E+03  0.50400001928E-02 0. -1.
       -1   -1    0    0    0  501  0.00000000000E+00  0.00000000000E+00 -0.13226203231E+03  0.13226203240E+03  0.50400001928E-02 0.  1.
    10030    2    1    2    0    0  0.00000000000E+00  0.00000000000E+00  0.53878270869E+03  0.80330677342E+03  0.59583132264E+03 0.  0.
        2    1    3    3  502    0  0.22775752250E+03  0.25157482406E+02  0.12708861136E+02  0.22949488694E+03  0.25500000920E-02 0.  1.
       -2    1    3    3    0  502 -0.22775752250E+03 -0.25157482406E+02  0.52607384755E+03  0.57381188647E+03  0.25500000920E-02 0. -1.
</event>
<event>
 5   0  0.8551000E-03  0.6002224E+03  0.7818609E-02  0.9904945E-01
       -4   -1    0    0    0  501  0.00000000000E+00  0.00000000000E+00  0.17809154759E+03  0.17809607582E+03  0.12699999809E+01 0. -1.
        4   -1    0    0  501    0  0.00000000000E+00  0.00000000000E+00 -0.50572103039E+03  0.50572262504E+03  0.12699999809E+01 0.  1.
    10030    2    1    2    0    0  0.00000000000E+00  0.00000000000E+00 -0.32762948280E+03  0.68381870086E+03  0.60022240682E+03 0.  0.
        5    1    3    3  502    0  0.62060898458E+02 -0.13809535377E+03 -0.45897894096E+03  0.48332767362E+03  0.46999998093E+01 0.  1.
       -5    1    3    3    0  502 -0.62060898458E+02  0.13809535377E+03  0.13134945815E+03  0.20049102724E+03  0.46999998093E+01 0. -1.
</event>
<event>
 5   0  0.1250390E-02  0.6014236E+03  0.7818609E-02  0.9902457E-01
        1   -1    0    0  501    0  0.00000000000E+00  0.00000000000E+00  0.14176990368E+04  0.14176990369E+04  0.50400001928E-02 0.  1.
       -1   -1    0    0    0  501  0.00000000000E+00  0.00000000000E+00 -0.63784758392E+02  0.63784758591E+02  0.50400001928E-02 0. -1.
    10030    2    1    2    0    0  0.00000000000E+00  0.00000000000E+00  0.13539142785E+04  0.14814837954E+04  0.60142361341E+03 0.  0.
        3    1    3    3  502    0 -0.44984545689E+02 -0.62124181753E+02  0.13931982694E+04  0.13953080131E+04  0.10100000352E+00 0.  1.
       -3    1    3    3    0  502  0.44984545689E+02  0.62124181753E+02 -0.39283990991E+02  0.86175782320E+02  0.10100000352E+00 0. -1.
</event>
<event>
 5   0  0.1337051E-02  0.5984426E+03  0.7818609E-02  0.9908642E-01
       -1   -1    0    0    0  501  0.00000000000E+00  0.00000000000E+00  0.61004901182E+02  0.61004901390E+02  0.50400001928E-02 0.  1.
        1   -1    0    0  501    0  0.00000000000E+00  0.00000000000E+00 -0.14676426182E+04  0.14676426182E+04  0.50400001928E-02 0. -1.
    10030    2    1    2    0    0  0.00000000000E+00  0.00000000000E+00 -0.14066377170E+04  0.15286475196E+04  0.59844262235E+03 0.  0.
        5    1    3    3  502    0  0.32012178143E+02 -0.27168127614E+03 -0.10127655509E+04  0.10490718023E+04  0.46999998093E+01 0. -1.
       -5    1    3    3    0  502 -0.32012178143E+02  0.27168127614E+03 -0.39387216614E+03  0.47957571729E+03  0.46999998093E+01 0.  1.
</event>
<event>
 5   0  0.1303808E-02  0.5991647E+03  0.7818609E-02  0.9907141E-01
       -1   -1    0    0    0  501  0.00000000000E+00  0.00000000000E+00  0.22585161301E+03  0.22585161306E+03  0.50400001928E-02 0. -1.
        1   -1    0    0  501    0  0.00000000000E+00  0.00000000000E+00 -0.39738291578E+03  0.39738291581E+03  0.50400001928E-02 0.  1.
    10030    2    1    2    0    0  0.00000000000E+00  0.00000000000E+00 -0.17153130277E+03  0.62323452888E+03  0.59916466030E+03 0.  0.
        4    1    3    3  502    0  0.27040022039E+03 -0.83393051266E+02 -0.18809069952E+03  0.33977993515E+03  0.12699999809E+01 0. -1.
       -4    1    3    3    0  502 -0.27040022039E+03  0.83393051266E+02  0.16559396745E+02  0.28345459373E+03  0.12699999809E+01 0.  1.
</event>
<event>
 5   0  0.2142838E-02  0.5996398E+03  0.7818609E-02  0.9906154E-01
        2   -1    0    0  501    0  0.00000000000E+00  0.00000000000E+00  0.22662063910E+03  0.22662063911E+03  0.25500000920E-02 0.  1.
       -2   -1    0    0    0  501  0.00000000000E+00  0.00000000000E+00 -0.39666272321E+03  0.39666272321E+03  0.25500000920E-02 0. -1.
    10030    2    1    2    0    0  0.00000000000E+00  0.00000000000E+00 -0.17004208411E+03  0.62328336233E+03  0.59963975801E+03 0.  0.
        4    1    3    3  502    0  0.27274823958E+03  0.10332194219E+03 -0.15720957196E+03  0.33133591466E+03  0.12699999809E+01 0. -1.
       -4    1    3    3    0  502 -0.27274823958E+03 -0.10332194219E+03 -0.12832512143E+02  0.29194744766E+03  0.12699999809E+01 0.  1.
</event>
<event>
 5   0  0.2179625E-02  0.5996286E+03  0.7818609E-02  0.9906177E-01
       -2   -1    0    0    0  501  0.00000000000E+00  0.00000000000E+00  0.16512791802E+03  0.16512791804E+03  0.25500000920E-02 0. -1.
        2   -1    0    0  501    0  0.00000000000E+00  0.00000000000E+00 -0.54435744946E+03  0.54435744947E+03  0.25500000920E-02 0.  1.
    10030    2    1    2    0    0  0.00000000000E+00  0.00000000000E+00 -0.37922953144E+03  0.70948536751E+03  0.59962859270E+03 0.  0.
        1    1    3    3  502    0 -0.13642500493E+02 -0.27917111240E+03 -0.61270862079E+02  0.28614113019E+03  0.50400001928E-02 0. -1.
       -1    1    3    3    0  502  0.13642500493E+02  0.27917111240E+03 -0.31795866937E+03  0.42334423732E+03  0.50400001928E-02 0.  1.
</event>
<event>
 5   0  0.2126207E-02  0.5913439E+03  0.7818609E-02  0.9923529E-01
       -2   -1    0    0    0  501  0.00000000000E+00  0.00000000000E+00  0.83034953271E+02  0.83034953310E+02  0.25500000920E-02 0.  1.
        2   -1    0    0  501    0  0.00000000000E+00  0.00000000000E+00 -0.10528324793E+04  0.10528324793E+04  0.25500000920E-02 0. -1.
    10030    2    1    2    0    0  0.00000000000E+00  0.00000000000E+00 -0.96979752606E+03  0.11358674326E+04  0.59134387879E+03 0.  0.
        5    1    3    3  502    0 -0.22243688349E+03 -0.17512060931E+03 -0.64850076541E+03  0.70761622910E+03  0.46999998093E+01 0. -1.
       -5    1    3    3    0  502  0.22243688349E+03  0.17512060931E+03 -0.32129676064E+03  0.42825120354E+03  0.46999998093E+01 0.  1.
</event>
<event>
 5   0  0.2141800E-02  0.5901347E+03  0.7818609E-02  0.9926088E-01
       -2   -1    0    0    0  501  0.00000000000E+00  0.00000000000E+00  0.17282717552E+03  0.17282717554E+03  0.25500000920E-02 0. -1.
        2   -1    0    0  501    0  0.00000000000E+00  0.00000000000E+00 -0.50376759783E+03  0.50376759784E+03  0.25500000920E-02 0.  1.
    10030    2    1    2    0    0  0.00000000000E+00  0.00000000000E+00 -0.33094042231E+03  0.67659477338E+03  0.59013466620E+03 0.  0.
        2    1    3    3  502    0 -0.46787568600E+02 -0.27094309065E+03 -0.28823503278E+03  0.39834491220E+03  0.25500000920E-02 0.  1.
       -2    1    3    3    0  502  0.46787568600E+02  0.27094309065E+03 -0.42705389534E+02  0.27824986118E+03  0.25500000920E-02 0. -1.
</event>
<event>
 5   0  0.8551000E-03  0.5964516E+03  0.7818609E-02  0.9912795E-01
        4   -1    0    0  501    0  0.00000000000E+00  0.00000000000E+00  0.92263600695E+02  0.92272340997E+02  0.12699999809E+01 0.  1.
       -4   -1    0    0    0  501  0.00000000000E+00  0.00000000000E+00 -0.96390743182E+03  0.96390826847E+03  0.12699999809E+01 0. -1.
    10030    2    1    2    0    0  0.00000000000E+00  0.00000000000E+00 -0.87164383112E+03  0.10561806095E+04  0.59645160027E+03 0.  0.
        5    1    3    3  502    0 -0.24068010269E+03 -0.15691885653E+03 -0.29453574344E+03  0.41148977330E+03  0.46999998093E+01 0. -1.
       -5    1    3    3    0  502  0.24068010269E+03  0.15691885653E+03 -0.57710808768E+03  0.64469083616E+03  0.46999998093E+01 0.  1.
</event>
<event>
 5   0  0.1276705E-02  0.6002161E+03  0.7818609E-02  0.9904958E-01
       -1   -1    0    0    0  501  0.00000000000E+00  0.00000000000E+00  0.41386751116E+03  0.41386751119E+03  0.50400001928E-02 0. -1.
        1   -1    0    0  501    0  0.00000000000E+00  0.00000000000E+00 -0.21761757088E+03  0.21761757094E+03  0.50400001928E-02 0.  1.
    10030    2    1    2    0    0  0.00000000000E+00  0.00000000000E+00  0.19624994027E+03  0.63148508213E+03  0.60021610266E+03 0.  0.
        1    1    3    3  502    0  0.27769491054E+03 -0.74433221879E+02  0.75586456787E+01  0.28759676808E+03  0.50400001928E-02 0.  1.
       -1    1    3    3    0  502 -0.27769491054E+03  0.74433221879E+02  0.18869129459E+03  0.34388831405E+03  0.50400001928E-02 0. -1.
</event>
<event>
 5   0  0.2126207E-02  0.5997799E+03  0.7818609E-02  0.9905863E-01
        2   -1    0    0  501    0  0.00000000000E+00  0.00000000000E+00  0.14877125548E+04  0.14877125548E+04  0.25500000920E-02 0.  1.
       -2   -1    0    0    0  501  0.00000000000E+00  0.00000000000E+00 -0.60451189326E+02  0.60451189380E+02  0.25500000920E-02 0. -1.
    10030    2    1    2    0    0  0.00000000000E+00  0.00000000000E+00  0.14272613654E+04  0.15481637441E+04  0.59977993749E+03 0.  0.
        5    1    3    3  502    0 -0.98315271807E+02  0.73469630304E+02  0.74502034949E+01  0.12304988735E+03  0.46999998093E+01 0. -1.
       -5    1    3    3    0  502  0.98315271807E+02 -0.73469630304E+02  0.14198111619E+04  0.14251138568E+04  0.46999998093E+01 0.  1.
</event>
<event>
 5   0  0.2179625E-02  0.5986255E+03  0.7818609E-02  0.9908262E-01
        2   -1    0    0  501    0  0.00000000000E+00  0.00000000000E+00  0.29825331113E+03  0.29825331114E+03  0.25500000920E-02 0.  1.
       -2   -1    0    0    0  501  0.00000000000E+00  0.00000000000E+00 -0.30037599359E+03  0.30037599361E+03  0.25500000920E-02 0. -1.
    10030    2    1    2    0    0  0.00000000000E+00  0.00000000000E+00 -0.21226824662E+01  0.59862930475E+03  0.59862554132E+03 0.  0.
        1    1    3    3  502    0 -0.26824732831E+03  0.29273558807E+02  0.12845612933E+03  0.29885539576E+03  0.50400001928E-02 0. -1.
       -1    1    3    3    0  502  0.26824732831E+03 -0.29273558807E+02 -0.13057881180E+03  0.29977390898E+03  0.50400001928E-02 0.  1.
</event>
<event>
 5   0  0.1337051E-02  0.5988492E+03  0.7818609E-02  0.9907796E-01
       -1   -1    0    0    0  501  0.00000000000E+00  0.00000000000E+00  0.10215940483E+03  0.10215940495E+03  0.50400001928E-02 0. -1.
        1   -1    0    0  501    0  0.00000000000E+00  0.00000000000E+00 -0.87759997804E+03  0.87759997806E+03  0.50400001928E-02 0.  1.
    10030    2    1    2    0    0  0.00000000000E+00  0.00000000000E+00 -0.77544057322E+03  0.97975938301E+03  0.59884920139E+03 0.  0.
        5    1    3    3  502    0  0.42862437596E+02  0.14538267711E+03 -0.81012971364E+03  0.82419994800E+03  0.46999998093E+01 0.  1.
       -5    1    3    3    0  502 -0.42862437596E+02 -0.14538267711E+03  0.34689140420E+02  0.15555943501E+03  0.46999998093E+01 0. -1.
</event>
<event>
 5   0  0.1250390E-02  0.6021890E+03  0.7818609E-02  0.9900875E-01
        1   -1    0    0  501    0  0.00000000000E+00  0.00000000000E+00  0.31172518426E+03  0.31172518430E+03  0.50400001928E-02 0.  1.
       -1   -1    0    0    0  501  0.00000000000E+00  0.00000000000E+00 -0.29082632840E+03  0.29082632844E+03  0.50400001928E-02 0. -1.
    10030    2    1    2    0    0  0.00000000000E+00  0.00000000000E+00  0.20898855863E+02  0.60255151274E+03  0.60218897642E+03 0.  0.
        3    1    3    3  502    0  0.29649251524E+03 -0.44177716839E+02 -0.17823527085E+02  0.30029513911E+03  0.10100000352E+00 0. -1.
       -3    1    3    3    0  502 -0.29649251524E+03  0.44177716839E+02  0.38722382948E+02  0.30225637363E+03  0.10100000352E+00 0.  1.
</event>
<event>
 5   0  0.2126207E-02  0.6014863E+03  0.7818609E-02  0.9902327E-01
        2   -1    0    0  501    0  0.00000000000E+00  0.00000000000E+00  0.14130266547E+04  0.14130266547E+04  0.25500000920E-02 0.  1.
       -2   -1    0    0    0  501  0.00000000000E+00  0.00000000000E+00 -0.64009010074E+02  0.64009010125E+02  0.25500000920E-02 0. -1.
    10030    2    1    2    0    0  0.00000000000E+00  0.00000000000E+00  0.13490176446E+04  0.14770356648E+04  0.60148628385E+03 0.  0.
        5    1    3    3  502    0 -0.23944459259E+03  0.79294787505E+02  0.27248043166E+03  0.37133415125E+03  0.46999998093E+01 0. -1.
       -5    1    3    3    0  502  0.23944459259E+03 -0.79294787505E+02  0.10765372129E+04  0.11057015136E+04  0.46999998093E+01 0.  1.
</event>
<event>
 5   0  0.1250390E-02  0.5904822E+03  0.7818609E-02  0.9925352E-01
       -1   -1    0    0    0  501  0.00000000000E+00  0.00000000000E+00  0.43808545517E+02  0.43808545807E+02  0.50400001928E-02 0.  1.
        1   -1    0    0  501    0  0.00000000000E+00  0.00000000000E+00 -0.19897330708E+04  0.19897330708E+04  0.50400001928E-02 0. -1.
    10030    2    1    2    0    0  0.00000000000E+00  0.00000000000E+00 -0.19459245253E+04  0.20335416167E+04  0.59048221684E+03 0.  0.
        3    1    3    3  502    0 -0.20771002121E+03  0.89204175555E+02 -0.16269927980E+04  0.16426218106E+04  0.10100000352E+00 0. -1.
       -3    1    3    3    0  502  0.20771002121E+03 -0.89204175555E+02 -0.31893172737E+03  0.39091980606E+03  0.10100000352E+00 0.  1.
</event>
<event>
 5   0  0.2126207E-02  0.6001007E+03  0.7818609E-02  0.9905197E-01
        2   -1    0    0  501    0  0.00000000000E+00  0.00000000000E+00  0.12810993605E+03  0.12810993608E+03  0.25500000920E-02 0.  1.
       -2   -1    0    0    0  501  0.00000000000E+00  0.00000000000E+00 -0.70275753599E+03  0.70275753599E+03  0.25500000920E-02 0. -1.
    10030    2    1    2    0    0  0.00000000000E+00  0.00000000000E+00 -0.57464759994E+03  0.83086747207E+03  0.60010073490E+03 0.  0.
        5    1    3    3  502    0 -0.24159072075E+03 -0.14870256115E+03 -0.42248282405E+03  0.50891291462E+03  0.46999998093E+01 0.  1.
       -5    1    3    3    0  502  0.24159072075E+03  0.14870256115E+03 -0.15216477588E+03  0.32195455745E+03  0.46999998093E+01 0. -1.
</event>
<event>
 5   0  0.1332555E-02  0.6009062E+03  0.7818609E-02  0.9903528E-01
        1   -1    0    0  501    0  0.00000000000E+00  0.00000000000E+00  0.16409882838E+04  0.16409882838E+04  0.50400001928E-02 0. -1.
       -1   -1    0    0    0  501  0.00000000000E+00  0.00000000000E+00 -0.55010792655E+02  0.55010792886E+02  0.50400001928E-02 0.  1.
    10030    2    1    2    0    0  0.00000000000E+00  0.00000000000E+00  0.15859774911E+04  0.16959990767E+04  0.60090620377E+03 0.  0.
        2    1    3    3  502    0 -0.82626486533E+02  0.20746838152E+03  0.22568025244E+03  0.31749305812E+03  0.25500000920E-02 0.  1.
       -2    1    3    3    0  502  0.82626486533E+02 -0.20746838152E+03  0.13602972387E+04  0.13785060186E+04  0.25500000920E-02 0. -1.
</event>
<event>
 5   0  0.2179625E-02  0.6008387E+03  0.7818609E-02  0.9903668E-01
       -2   -1    0    0    0  501  0.00000000000E+00  0.00000000000E+00  0.79201875083E+02  0.79201875124E+02  0.25500000920E-02 0.  1.
        2   -1    0    0  501    0  0.00000000000E+00  0.00000000000E+00 -0.11395158354E+04  0.11395158354E+04  0.25500000920E-02 0. -1.
    10030    2    1    2    0    0  0.00000000000E+00  0.00000000000E+00 -0.10603139603E+04  0.12187177106E+04  0.60083871673E+03 0.  0.
        1    1    3    3  502    0 -0.12374536295E+03 -0.22591387510E+03 -0.21656821884E+03  0.33652902884E+03  0.50400001928E-02 0.  1.
       -1    1    3    3    0  502  0.12374536295E+03  0.22591387510E+03 -0.84374574150E+03  0.88218868171E+03  0.50400001928E-02 0. -1.
</event>
<event>
 5   0  0.1332555E-02  0.5995513E+03  0.7818609E-02  0.9906337E-01
       -1   -1    0    0    0  501  0.00000000000E+00  0.00000000000E+00  0.25456588111E+03  0.25456588116E+03  0.50400001928E-02 0. -1.
        1   -1    0    0  501    0  0.00000000000E+00  0.00000000000E+00 -0.35301448134E+03  0.35301448138E+03  0.50400001928E-02 0.  1.
    10030    2    1    2    0    0  0.00000000000E+00  0.00000000000E+00 -0.98448600228E+02  0.60758036254E+03  0.59955130727E+03 0.  0.
        2    1    3    3  502    0 -0.11246536080E+03  0.22007423801E+02 -0.32994051336E+03  0.34927571694E+03  0.25500000920E-02 0.  1.
       -2    1    3    3    0  502  0.11246536080E+03 -0.22007423801E+02  0.23149191314E+03  0.25830464559E+03  0.25500000920E-02 0. -1.
</event>
<event>
 5   0  0.8551000E-03  0.5989903E+03  0.7818609E-02  0.9907503E-01
       -3   -1    0    0    0  501  0.00000000000E+00  0.00000000000E+00  0.16717754322E+03  0.16717757373E+03  0.10100000352E+00 0. -1.
        3   -1    0    0  501    0  0.00000000000E+00  0.00000000000E+00 -0.53653937927E+03  0.53653938878E+03  0.10100000352E+00 0.  1.
    10030    2    1    2    0    0  0.00000000000E+00  0.00000000000E+00 -0.36936183605E+03  0.70371696250E+03  0.59899031493E+03 0.  0.
        5    1    3    3  502    0  0.13824833095E+03 -0.47711598316E+02 -0.49168552190E+03  0.51299682266E+03  0.46999998093E+01 0.  1.
       -5    1    3    3    0  502 -0.13824833095E+03  0.47711598316E+02  0.12232368584E+03  0.19072013984E+03  0.46999998093E+01 0. -1.
</event>
<event>
 5   0  0.2142838E-02  0.6011911E+03  0.7818609E-02  0.9902938E-01
        2   -1    0    0  501    0  0.00000000000E+00  0.00000000000E+00  0.11946721815E+04  0.11946721815E+04  0.25500000920E-02 0. -1.
       -2   -1    0    0    0  501  0.00000000000E+00  0.00000000000E+00 -0.75633885298E+02  0.75633885341E+02  0.25500000920E-02 0.  1.
    10030    2    1    2    0    0  0.00000000000E+00  0.00000000000E+00  0.11190382962E+04  0.12703060668E+04  0.60119114687E+03 0.  0.
        4    1    3    3  502    0  0.17841257386E+03 -0.18974816047E+03  0.24242626342E+03  0.35581950060E+03  0.12699999809E+01 0.  1.
       -4    1    3    3    0  502 -0.17841257386E+03  0.18974816047E+03  0.87661203274E+03  0.91448656620E+03  0.12699999809E+01 0. -1.
</event>
<event>
 5   0  0.1332555E-02  0.5982167E+03  0.7818609E-02  0.9909113E-01
       -1   -1    0    0    0  501  0.00000000000E+00  0.00000000000E+00  0.22100939286E+03  0.22100939292E+03  0.50400001928E-02 0. -1.
        1   -1    0    0  501    0  0.00000000000E+00  0.00000000000E+00 -0.40480544676E+03  0.40480544680E+03  0.50400001928E-02 0.  1.
    10030    2    1    2    0    0  0.00000000000E+00  0.00000000000E+00 -0.18379605391E+03  0.62581483971E+03  0.59821670335E+03 0.  0.
        2    1    3    3  502    0 -0.79467075281E+02 -0.12242946805E+03 -0.36502078927E+03  0.39312105936E+03  0.25500000920E-02 0.  1.
       -2    1    3    3    0  502  0.79467075281E+02  0.12242946805E+03  0.18122473536E+03  0.23269378036E+03  0.25500000920E-02 0. -1.
</event>
<event>
 5   0  0.8551000E-03  0.6006569E+03  0.7818609E-02  0.9904044E-01
       -4   -1    0    0    0  501  0.00000000000E+00  0.00000000000E+00  0.14597132310E+03  0.14597684771E+03  0.12699999809E+01 0.  1.
        4   -1    0    0  501    0  0.00000000000E+00  0.00000000000E+00 -0.61789243382E+03  0.61789373898E+03  0.12699999809E+01 0. -1.
    10030    2    1    2    0    0  0.00000000000E+00  0.00000000000E+00 -0.47192111072E+03  0.76387058669E+03  0.60065692243E+03 0.  0.
        4    1    3    3  502    0 -0.67079252291E+02  0.32312916815E+02  0.13404773382E+03  0.15334327023E+03  0.12699999809E+01 0.  1.
       -4    1    3    3    0  502  0.67079252291E+02 -0.32312916815E+02 -0.60596884455E+03  0.61052731646E+03  0.12699999809E+01 0. -1.
</event>
<event>
 5   0  0.1250390E-02  0.5991408E+03  0.7818609E-02  0.9907190E-01
        1   -1    0    0  501    0  0.00000000000E+00  0.00000000000E+00  0.81057604135E+03  0.81057604136E+03  0.50400001928E-02 0. -1.
       -1   -1    0    0    0  501  0.00000000000E+00  0.00000000000E+00 -0.11071436667E+03  0.11071436679E+03  0.50400001928E-02 0.  1.
    10030    2    1    2    0    0  0.00000000000E+00  0.00000000000E+00  0.69986167467E+03  0.92129040815E+03  0.59914076181E+03 0.  0.
        3    1    3    3  502    0 -0.11643973359E+03 -0.87681303814E+02 -0.52508902162E+02  0.15493036372E+03  0.10100000352E+00 0.  1.
       -3    1    3    3    0  502  0.11643973359E+03  0.87681303814E+02  0.75237057684E+03  0.76636004442E+03  0.10100000352E+00 0. -1.
</event>
<event>
 5   0  0.1332555E-02  0.5955051E+03  0.7818609E-02  0.9914776E-01
        1   -1    0    0  501    0  0.00000000000E+00  0.00000000000E+00  0.99025760031E+03  0.99025760032E+03  0.50400001928E-02 0.  1.
       -1   -1    0    0    0  501  0.00000000000E+00  0.00000000000E+00 -0.89528801736E+02  0.89528801878E+02  0.50400001928E-02 0. -1.
    10030    2    1    2    0    0  0.00000000000E+00  0.00000000000E+00  0.90072879857E+03  0.10797864022E+04  0.59550508461E+03 0.  0.
        2    1    3    3  502    0  0.40609657586E+02 -0.28448248004E+03  0.59171653780E+03  0.65780535636E+03  0.25500000920E-02 0.  1.
       -2    1    3    3    0  502 -0.40609657586E+02  0.28448248004E+03  0.30901226077E+03  0.42198104584E+03  0.25500000920E-02 0. -1.
</event>
<event>
 5   0  0.1250390E-02  0.5976611E+03  0.7818609E-02  0.9910270E-01
        1   -1    0    0  501    0  0.00000000000E+00  0.00000000000E+00  0.64093915263E+03  0.64093915265E+03  0.50400001928E-02 0.  1.
       -1   -1    0    0    0  501  0.00000000000E+00  0.00000000000E+00 -0.13932631584E+03  0.13932631593E+03  0.50400001928E-02 0. -1.
    10030    2    1    2    0    0  0.00000000000E+00  0.00000000000E+00  0.50161283678E+03  0.78026546858E+03  0.59766107740E+03 0.  0.
        3    1    3    3  502    0  0.83453786937E+01  0.19893289569E+03 -0.40112614859E+02  0.20310828246E+03  0.10100000352E+00 0. -1.
       -3    1    3    3    0  502 -0.83453786937E+01 -0.19893289569E+03  0.54172545164E+03  0.57715718612E+03  0.10100000352E+00 0.  1.
</event>
<event>
 5   0  0.1250390E-02  0.5994091E+03  0.7818609E-02  0.9906633E-01
       -1   -1    0    0    0  501  0.00000000000E+00  0.00000000000E+00  0.74978309284E+02  0.74978309453E+02  0.50400001928E-02 0. -1.
        1   -1    0    0  501    0  0.00000000000E+00  0.00000000000E+00 -0.11979839487E+04  0.11979839487E+04  0.50400001928E-02 0.  1.
    10030    2    1    2    0    0  0.00000000000E+00  0.00000000000E+00 -0.11230056394E+04  0.12729622581E+04  0.59940907946E+03 0.  0.
        3    1    3    3  502    0 -0.13312440630E+03 -0.65704225244E+02 -0.85925201057E+01  0.14870438585E+03  0.10100000352E+00 0. -1.
       -3    1    3    3    0  502  0.13312440630E+03  0.65704225244E+02 -0.11144131193E+04  0.11242578723E+04  0.10100000352E+00 0.  1.
</event>
<event>
 5   0  0.1337051E-02  0.5983383E+03  0.7818609E-02  0.9908860E-01
       -1   -1    0    0    0  501  0.00000000000E+00  0.00000000000E+00  0.17124891231E+03  0.17124891238E+03  0.50400001928E-02 0.  1.
        1   -1    0    0  501    0  0.00000000000E+00  0.00000000000E+00 -0.52264378529E+03  0.52264378531E+03  0.50400001928E-02 0. -1.
    10030    2    1    2    0    0  0.00000000000E+00  0.00000000000E+00 -0.35139487299E+03  0.69389269769E+03  0.59833829825E+03 0.  0.
        5    1    3    3  502    0  0.48397460859E+02 -0.13672159039E+03  0.12770308503E+03  0.19330099694E+03  0.46999998093E+01 0.  1.
       -5    1    3    3    0  502 -0.48397460859E+02  0.13672159039E+03 -0.47909795801E+03  0.50059170075E+03  0.46999998093E+01 0. -1.
</event>
<event>
 5   0  0.1337051E-02  0.6000228E+03  0.7818609E-02  0.9905359E-01
       -1   -1    0    0    0  501  0.00000000000E+00  0.00000000000E+00  0.48569711697E+02  0.48569711959E+02  0.50400001928E-02 0. -1.
        1   -1    0    0  501    0  0.00000000000E+00  0.00000000000E+00 -0.18531477018E+04  0.18531477018E+04  0.50400001928E-02 0.  1.
    10030    2    1    2    0    0  0.00000000000E+00  0.00000000000E+00 -0.18045779901E+04  0.19017174137E+04  0.60002283244E+03 0.  0.
        5    1    3    3  502    0  0.10233544833E+03 -0.18843817802E+03 -0.15671344084E+04  0.15817439220E+04  0.46999998093E+01 0.  1.
       -5    1    3    3    0  502 -0.10233544833E+03  0.18843817802E+03 -0.23744358172E+03  0.31997349175E+03  0.46999998093E+01 0. -1.
</event>
<event>
 5   0  0.2142838E-02  0.5933910E+03  0.7818609E-02  0.9919213E-01
        2   -1    0    0  501    0  0.00000000000E+00  0.00000000000E+00  0.10100802589E+04  0.10100802589E+04  0.25500000920E-02 0. -1.
       -2   -1    0    0    0  501  0.00000000000E+00  0.00000000000E+00 -0.87149732595E+02  0.87149732633E+02  0.25500000920E-02 0.  1.
    10030    2    1    2    0    0  0.00000000000E+00  0.00000000000E+00  0.92293052629E+03  0.10972299915E+04  0.59339101606E+03 0.  0.
        4    1    3    3  502    0 -0.31705729424E+02 -0.20060189860E+03  0.61531646844E+02  0.21221246773E+03  0.12699999809E+01 0.  1.
       -4    1    3    3    0  502  0.31705729424E+02  0.20060189860E+03  0.86139887944E+03  0.88501752379E+03  0.12699999809E+01 0. -1.
</event>
<event>
 5   0  0.1303808E-02  0.6016825E+03  0.7818609E-02  0.9901922E-01
       -1   -1    0    0    0  501  0.00000000000E+00  0.00000000000E+00  0.91135001594E+02  0.91135001734E+02  0.50400001928E-02 0. -1.
        1   -1    0    0  501    0  0.00000000000E+00  0.00000000000E+00 -0.99309206894E+03  0.99309206896E+03  0.50400001928E-02 0.  1.
    10030    2    1    2    0    0  0.00000000000E+00  0.00000000000E+00 -0.90195706735E+03  0.10842270707E+04  0.60168246565E+03 0.  0.
        4    1    3    3  502    0 -0.15014054839E+03  0.57864085601E+02  0.70728304828E+01  0.16106543548E+03  0.12699999809E+01 0. -1.
       -4    1    3    3    0  502  0.15014054839E+03 -0.57864085601E+02 -0.90902989783E+03  0.92316163521E+03  0.12699999809E+01 0.  1.
</event>
<event>
 5   0  0.2092587E-02  0.6006384E+03  0.7818609E-02  0.9904082E-01
        2   -1    0    0  501    0  0.00000000000E+00  0.00000000000E+00  0.62744314828E+03  0.62744314828E+03  0.25500000920E-02 0. -1.
       -2   -1    0    0    0  501  0.00000000000E+00  0.00000000000E+00 -0.14374470635E+03  0.14374470638E+03  0.25500000920E-02 0.  1.
    10030    2    1    2    0    0  0.00000000000E+00  0.00000000000E+00  0.48369844192E+03  0.77118785466E+03  0.60063843072E+03 0.  0.
        3    1    3    3  502    0 -0.25083490354E+03 -0.12889717239E+03  0.37440696777E+03  0.46873576522E+03  0.10100000352E+00 0.  1.
       -3    1    3    3    0  502  0.25083490354E+03  0.12889717239E+03  0.10929147416E+03  0.30245208944E+03  0.10100000352E+00 0. -1.
</event>
<event>
 5   0  0.8551000E-03  0.5989292E+03  0.7818609E-02  0.9907630E-01
       -3   -1    0    0    0  501  0.00000000000E+00  0.00000000000E+00  0.11129242928E+04  0.11129242974E+04  0.10100000352E+00 0.  1.
        3   -1    0    0  501    0  0.00000000000E+00  0.00000000000E+00 -0.80579622974E+02  0.80579686272E+02  0.10100000352E+00 0. -1.
    10030    2    1    2    0    0  0.00000000000E+00  0.00000000000E+00  0.10323446698E+04  0.11935039837E+04  0.59892924598E+03 0.  0.
        5    1    3    3  502    0 -0.27978617880E+03 -0.53378224745E+02  0.33215555514E+03  0.43758307044E+03  0.46999998093E+01 0. -1.
       -5    1    3    3    0  502  0.27978617880E+03  0.53378224745E+02  0.70018911470E+03  0.75592091323E+03  0.46999998093E+01 0.  1.
</event>
<event>
 5   0  0.2179625E-02  0.6023269E+03  0.7818609E-02  0.9900590E-01
        2   -1    0    0  501    0  0.00000000000E+00  0.00000000000E+00  0.41080722231E+03  0.41080722231E+03  0.25500000920E-02 0. -1.
       -2   -1    0    0    0  501  0.00000000000E+00  0.00000000000E+00 -0.22078338518E+03  0.22078338519E+03  0.25500000920E-02 0.  1.
    10030    2    1    2    0    0  0.00000000000E+00  0.00000000000E+00  0.19002383713E+03  0.63159060751E+03  0.60232685215E+03 0.  0.
        1    1    3    3  502    0  0.20254154053E+02 -0.11672337938E+03 -0.19532450973E+03  0.22844308302E+03  0.50400001928E-02 0.  1.
       -1    1    3    3    0  502 -0.20254154053E+02  0.11672337938E+03  0.38534834686E+03  0.40314752449E+03  0.50400001928E-02 0. -1.
</event>
<event>
 5   0  0.1303808E-02  0.5987543E+03  0.7818609E-02  0.9907994E-01
        1   -1    0    0  501    0  0.00000000000E+00  0.00000000000E+00  0.21411670991E+03  0.21411670997E+03  0.50400001928E-02 0.  1.
       -1   -1    0    0    0  501  0.00000000000E+00  0.00000000000E+00 -0.41858803359E+03  0.41858803362E+03  0.50400001928E-02 0. -1.
    10030    2    1    2    0    0  0.00000000000E+00  0.00000000000E+00 -0.20447132369E+03  0.63270474359E+03  0.59875434892E+03 0.  0.
        4    1    3    3  502    0  0.26495017052E+03 -0.58506938727E+02 -0.23591333531E+03  0.35955301335E+03  0.12699999809E+01 0. -1.
       -4    1    3    3    0  502 -0.26495017052E+03  0.58506938727E+02  0.31442011620E+02  0.27315173023E+03  0.12699999809E+01 0.  1.
</event>
<event>
 5   0  0.2179625E-02  0.5978808E+03  0.7818609E-02  0.9909812E-01
        2   -1    0    0  501    0  0.00000000000E+00  0.00000000000E+00  0.25487098225E+03  0.25487098226E+03  0.25500000920E-02 0.  1.
       -2   -1    0    0    0  501  0.00000000000E+00  0.00000000000E+00 -0.35062985401E+03  0.35062985402E+03  0.25500000920E-02 0. -1.
    10030    2    1    2    0    0  0.00000000000E+00  0.00000000000E+00 -0.95758871766E+02  0.60550083628E+03  0.59788084198E+03 0.  0.
        1    1    3    3  502    0  0.17571972251E+02 -0.28857641809E+03  0.29117509440E+02  0.29057348927E+03  0.50400001928E-02 0.  1.
       -1    1    3    3    0  502 -0.17571972251E+02  0.28857641809E+03 -0.12487638121E+03  0.31492734701E+03  0.50400001928E-02 0. -1.
</event>
<event>
 5   0  0.2092587E-02  0.5991777E+03  0.7818609E-02  0.9907114E-01
        2   -1    0    0  501    0  0.00000000000E+00  0.00000000000E+00  0.25722457103E+03  0.25722457104E+03  0.25500000920E-02 0. -1.
       -2   -1    0    0    0  501  0.00000000000E+00  0.00000000000E+00 -0.34893037526E+03  0.34893037527E+03  0.25500000920E-02 0.  1.
    10030    2    1    2    0    0  0.00000000000E+00  0.00000000000E+00 -0.91705804226E+02  0.60615494631E+03  0.59917765680E+03 0.  0.
        3    1    3    3  502    0  0.18079662665E+03 -0.21874353526E+03 -0.14297765779E+03  0.31777157717E+03  0.10100000352E+00 0. -1.
       -3    1    3    3    0  502 -0.18079662665E+03  0.21874353526E+03  0.51271853566E+02  0.28838336914E+03  0.10100000352E+00 0.  1.
</event>
<event>
 5   0  0.1332555E-02  0.5995340E+03  0.7818609E-02  0.9906373E-01
        1   -1    0    0  501    0  0.00000000000E+00  0.00000000000E+00  0.35052530402E+03  0.35052530405E+03  0.50400001928E-02 0. -1.
       -1   -1    0    0    0  501  0.00000000000E+00  0.00000000000E+00 -0.25635885531E+03  0.25635885536E+03  0.50400001928E-02 0.  1.
    10030    2    1    2    0    0  0.00000000000E+00  0.00000000000E+00  0.94166448702E+02  0.60688415942E+03  0.59953403814E+03 0.  0.
        2    1    3    3  502    0  0.41116677623E+02 -0.11728400019E+03  0.32321711585E+03  0.34628806197E+03  0.25500000920E-02 0. -1.
       -2    1    3    3    0  502 -0.41116677623E+02  0.11728400019E+03 -0.22905066715E+03  0.26059609745E+03  0.25500000920E-02 0.  1.
</event>
<event>
 5   0  0.2092587E-02  0.5606549E+03  0.7818609E-02  0.9990574E-01
       -2   -1    0    0    0  501  0.00000000000E+00  0.00000000000E+00  0.48708660447E+02  0.48708660514E+02  0.25500000920E-02 0.  1.
        2   -1    0    0  501    0  0.00000000000E+00  0.00000000000E+00 -0.16133368816E+04  0.16133368816E+04  0.25500000920E-02 0. -1.
    10030    2    1    2    0    0  0.00000000000E+00  0.00000000000E+00 -0.15646282211E+04  0.16620455421E+04  0.56065489709E+03 0.  0.
        3    1    3    3  502    0 -0.14600935664E+03 -0.46961689915E+02 -0.14779192521E+04  0.14858564730E+04  0.10100000352E+00 0. -1.
       -3    1    3    3    0  502  0.14600935664E+03  0.46961689915E+02 -0.86708969057E+02  0.17618906908E+03  0.10100000352E+00 0.  1.
</event>
<event>
 5   0  0.1303808E-02  0.5995607E+03  0.7818609E-02  0.9906318E-01
        1   -1    0    0  501    0  0.00000000000E+00  0.00000000000E+00  0.39767135866E+03  0.39767135869E+03  0.50400001928E-02 0.  1.
       -1   -1    0    0    0  501  0.00000000000E+00  0.00000000000E+00 -0.22598627130E+03  0.22598627136E+03  0.50400001928E-02 0. -1.
    10030    2    1    2    0    0  0.00000000000E+00  0.00000000000E+00  0.17168508736E+03  0.62365763005E+03  0.59956073111E+03 0.  0.
        4    1    3    3  502    0 -0.18580332585E+03 -0.12503488112E+03 -0.12144028007E+03  0.25476646545E+03  0.12699999809E+01 0. -1.
       -4    1    3    3    0  502  0.18580332585E+03  0.12503488112E+03  0.29312536742E+03  0.36889116460E+03  0.12699999809E+01 0.  1.
</event>
<event>
 5   0  0.8551000E-03  0.6142774E+03  0.7818609E-02  0.9876220E-01
       -4   -1    0    0    0  501  0.00000000000E+00  0.00000000000E+00  0.11483438260E+03  0.11484140511E+03  0.12699999809E+01 0. -1.
        4   -1    0    0  501    0  0.00000000000E+00  0.00000000000E+00 -0.82144768311E+03  0.82144866485E+03  0.12699999809E+01 0.  1.
    10030    2    1    2    0    0  0.00000000000E+00  0.00000000000E+00 -0.70661330050E+03  0.93629006996E+03  0.61427741181E+03 0.  0.
        1    1    3    3  502    0  0.24765578368E+03 -0.17672759203E+03 -0.41739898905E+03  0.51651519344E+03  0.50400001928E-02 0. -1.
       -1    1    3    3    0  502 -0.24765578368E+03  0.17672759203E+03 -0.28921431146E+03  0.41977487651E+03  0.50400001928E-02 0.  1.
</event>
<event>
 5   0  0.1303808E-02  0.5910764E+03  0.7818609E-02  0.9924095E-01
        1   -1    0    0  501    0  0.00000000000E+00  0.00000000000E+00  0.13271433679E+03  0.13271433688E+03  0.50400001928E-02 0. -1.
       -1   -1    0    0    0  501  0.00000000000E+00  0.00000000000E+00 -0.65812650720E+03  0.65812650722E+03  0.50400001928E-02 0.  1.
    10030    2    1    2    0    0  0.00000000000E+00  0.00000000000E+00 -0.52541217041E+03  0.79084084410E+03  0.59107638414E+03 0.  0.
        4    1    3    3  502    0  0.74675592723E+02 -0.22330745871E+03 -0.50166922653E+03  0.55418073858E+03  0.12699999809E+01 0.  1.
       -4    1    3    3    0  502 -0.74675592723E+02  0.22330745871E+03 -0.23742943881E+02  0.23666010552E+03  0.12699999809E+01 0. -1.
</event>
<event>
 5   0  0.2179625E-02  0.5997985E+03  0.7818609E-02  0.9905824E-01
        2   -1    0    0  501    0  0.00000000000E+00  0.00000000000E+00  0.75464041651E+03  0.75464041651E+03  0.25500000920E-02 0.  1.
       -2   -1    0    0    0  501  0.00000000000E+00  0.00000000000E+00 -0.11918200669E+03  0.11918200672E+03  0.25500000920E-02 0. -1.
    10030    2    1    2    0    0  0.00000000000E+00  0.00000000000E+00  0.63545840982E+03  0.87382242323E+03  0.59979849677E+03 0.  0.
        1    1    3    3  502    0 -0.19463716975E+03  0.10190396921E+03  0.20331616023E+02  0.22063866711E+03  0.50400001928E-02 0.  1.
       -1    1    3    3    0  502  0.19463716975E+03 -0.10190396921E+03  0.61512679380E+03  0.65318375612E+03  0.50400001928E-02 0. -1.
</event>
<event>
 5   0  0.1276705E-02  0.6027161E+03  0.7818609E-02  0.9899787E-01
        1   -1    0    0  501    0  0.00000000000E+00  0.00000000000E+00  0.55885701923E+03  0.55885701926E+03  0.50400001928E-02 0. -1.
       -1   -1    0    0    0  501  0.00000000000E+00  0.00000000000E+00 -0.16250431162E+03  0.16250431170E+03  0.50400001928E-02 0.  1.
    10030    2    1    2    0    0  0.00000000000E+00  0.00000000000E+00  0.39635270761E+03  0.72136133095E+03  0.60271610312E+03 0.  0.
        1    1    3    3  502    0  0.85537781130E+02  0.71869063822E+02  0.53315524058E+03  0.54473515117E+03  0.50400001928E-02 0. -1.
       -1    1    3    3    0  502 -0.85537781130E+02 -0.71869063822E+02 -0.13680253296E+03  0.17662617979E+03  0.50400001928E-02 0.  1.
</event>
<event>
 5   0  0.1332555E-02  0.5981667E+03  0.7818609E-02  0.9909217E-01
       -1   -1    0    0    0  501  0.00000000000E+00  0.00000000000E+00  0.37916592730E+03  0.37916592733E+03  0.50400001928E-02 0. -1.
        1   -1    0    0  501    0  0.00000000000E+00  0.00000000000E+00 -0.23591482309E+03  0.23591482314E+03  0.50400001928E-02 0.  1.
    10030    2    1    2    0    0  0.00000000000E+00  0.00000000000E+00  0.14325110421E+03  0.61508075047E+03  0.59816674159E+03 0.  0.
        2    1    3    3  502    0  0.25766502162E+03  0.13728076483E+03  0.13837321408E+03  0.32308577521E+03  0.25500000920E-02 0. -1.
       -2    1    3    3    0  502 -0.25766502162E+03 -0.13728076483E+03  0.48778901288E+01  0.29199497526E+03  0.25500000920E-02 0.  1.
</event>
<event>
 5   0  0.2141800E-02  0.6005956E+03  0.7818609E-02  0.9904171E-01
       -2   -1    0    0    0  501  0.00000000000E+00  0.00000000000E+00  0.46671359405E+03  0.46671359405E+03  0.25500000920E-02 0.  1.
        2   -1    0    0  501    0  0.00000000000E+00  0.00000000000E+00 -0.19322078492E+03  0.19322078493E+03  0.25500000920E-02 0. -1.
    10030    2    1    2    0    0  0.00000000000E+00  0.00000000000E+00  0.27349280913E+03  0.65993437899E+03  0.60059559433E+03 0.  0.
        2    1    3    3  502    0  0.27347597991E+03 -0.11376504993E+02  0.27248368957E+03  0.38622001184E+03  0.25500000920E-02 0.  1.
       -2    1    3    3    0  502 -0.27347597991E+03  0.11376504993E+02  0.10091195562E+01  0.27371436715E+03  0.25500000920E-02 0. -1.
</event>
<event>
 5   0  0.2141800E-02  0.5936536E+03  0.7818609E-02  0.9918661E-01
       -2   -1    0    0    0  501  0.00000000000E+00  0.00000000000E+00  0.17536963972E+03  0.17536963974E+03  0.25500000920E-02 0.  1.
        2   -1    0    0  501    0  0.00000000000E+00  0.00000000000E+00 -0.50240248981E+03  0.50240248981E+03  0.25500000920E-02 0. -1.
    10030    2    1    2    0    0  0.00000000000E+00  0.00000000000E+00 -0.32703285008E+03  0.67777212956E+03  0.59365358128E+03 0.  0.
        2    1    3    3  502    0 -0.28006374902E+03 -0.26555717837E+02 -0.55414997668E+02  0.28672588240E+03  0.25500000920E-02 0.  1.
       -2    1    3    3    0  502  0.28006374902E+03  0.26555717837E+02 -0.27161785241E+03  0.39104624716E+03  0.25500000920E-02 0. -1.
</event>
<event>
 5   0  0.2126207E-02  0.5993457E+03  0.7818609E-02  0.9906765E-01
       -2   -1    0    0    0  501  0.00000000000E+00  0.00000000000E+00  0.14881440927E+03  0.14881440929E+03  0.25500000920E-02 0.  1.
        2   -1    0    0  501    0  0.00000000000E+00  0.00000000000E+00 -0.60346176362E+03  0.60346176363E+03  0.25500000920E-02 0. -1.
    10030    2    1    2    0    0  0.00000000000E+00  0.00000000000E+00 -0.45464735435E+03  0.75227617293E+03  0.59934566281E+03 0.  0.
        5    1    3    3  502    0 -0.22525363024E+03  0.19679440982E+03 -0.24958214264E+03  0.38959026373E+03  0.46999998093E+01 0.  1.
       -5    1    3    3    0  502  0.22525363024E+03 -0.19679440982E+03 -0.20506521171E+03  0.36268590919E+03  0.46999998093E+01 0. -1.
</event>
<event>
 5   0  0.2179625E-02  0.6007056E+03  0.7818609E-02  0.9903943E-01
        2   -1    0    0  501    0  0.00000000000E+00  0.00000000000E+00  0.79131046805E+02  0.79131046846E+02  0.25500000920E-02 0. -1.
       -2   -1    0    0    0  501  0.00000000000E+00  0.00000000000E+00 -0.11400303870E+04  0.11400303870E+04  0.25500000920E-02 0.  1.
    10030    2    1    2    0    0  0.00000000000E+00  0.00000000000E+00 -0.10608993402E+04  0.12191614338E+04  0.60070557826E+03 0.  0.
        1    1    3    3  502    0  0.70980533968E+02 -0.17439213606E+03 -0.55513750674E+02  0.19629729968E+03  0.50400001928E-02 0. -1.
       -1    1    3    3    0  502 -0.70980533968E+02  0.17439213606E+03 -0.10053855895E+04  0.10228641341E+04  0.50400001928E-02 0.  1.
</event>
<event>
 5   0  0.1250390E-02  0.5907763E+03  0.7818609E-02  0.9924729E-01
        1   -1    0    0  501    0  0.00000000000E+00  0.00000000000E+00  0.36586713680E+03  0.36586713683E+03  0.50400001928E-02 0.  1.
       -1   -1    0    0    0  501  0.00000000000E+00  0.00000000000E+00 -0.23848588263E+03  0.23848588268E+03  0.50400001928E-02 0. -1.
    10030    2    1    2    0    0  0.00000000000E+00  0.00000000000E+00  0.12738125417E+03  0.60435301951E+03  0.59077625907E+03 0.  0.
        3    1    3    3  502    0  0.27104383679E+03 -0.18688969692E+02 -0.54905054857E+02  0.27717975088E+03  0.10100000352E+00 0.  1.
       -3    1    3    3    0  502 -0.27104383679E+03  0.18688969692E+02  0.18228630903E+03  0.32717326863E+03  0.10100000352E+00 0. -1.
</event>
<event>
 5   0  0.2142838E-02  0.6005932E+03  0.7818609E-02  0.9904176E-01
        2   -1    0    0  501    0  0.00000000000E+00  0.00000000000E+00  0.11158266528E+04  0.11158266528E+04  0.25500000920E-02 0. -1.
       -2   -1    0    0    0  501  0.00000000000E+00  0.00000000000E+00 -0.80817246089E+02  0.80817246129E+02  0.25500000920E-02 0.  1.
    10030    2    1    2    0    0  0.00000000000E+00  0.00000000000E+00  0.10350094067E+04  0.11966438989E+04  0.60059316419E+03 0.  0.
        4    1    3    3  502    0 -0.10666378912E+03 -0.56205601478E+02  0.10654798402E+04  0.10722803441E+04  0.12699999809E+01 0. -1.
       -4    1    3    3    0  502  0.10666378912E+03  0.56205601478E+02 -0.30470433516E+02  0.12436355482E+03  0.12699999809E+01 0.  1.
</event>
<event>
 5   0  0.2126207E-02  0.5964978E+03  0.7818609E-02  0.9912699E-01
        2   -1    0    0  501    0  0.00000000000E+00  0.00000000000E+00  0.10943819790E+04  0.10943819790E+04  0.25500000920E-02 0.  1.
       -2   -1    0    0    0  501  0.00000000000E+00  0.00000000000E+00 -0.81280946742E+02  0.81280946782E+02  0.25500000920E-02 0. -1.
    10030    2    1    2    0    0  0.00000000000E+00  0.00000000000E+00  0.10131010323E+04  0.11756629258E+04  0.59649779003E+03 0.  0.
        5    1    3    3  502    0  0.47705372652E+01  0.26429782256E+03  0.23448748645E+03  0.35338727812E+03  0.46999998093E+01 0. -1.
       -5    1    3    3    0  502 -0.47705372652E+01 -0.26429782256E+03  0.77861354584E+03  0.82227564770E+03  0.46999998093E+01 0.  1.
</event>
<event>
 5   0  0.2092587E-02  0.5995927E+03  0.7818609E-02  0.9906251E-01
       -2   -1    0    0    0  501  0.00000000000E+00  0.00000000000E+00  0.31263493902E+03  0.31263493903E+03  0.25500000920E-02 0.  1.
        2   -1    0    0  501    0  0.00000000000E+00  0.00000000000E+00 -0.28748501911E+03  0.28748501912E+03  0.25500000920E-02 0. -1.
    10030    2    1    2    0    0  0.00000000000E+00  0.00000000000E+00  0.25149919909E+02  0.60011995814E+03  0.59959273319E+03 0.  0.
        3    1    3    3  502    0  0.20339747385E+03  0.15720661019E+03 -0.14181176965E+03  0.29358991616E+03  0.10100000352E+00 0. -1.
       -3    1    3    3    0  502 -0.20339747385E+03 -0.15720661019E+03  0.16696168956E+03  0.30653004199E+03  0.10100000352E+00 0.  1.
</event>
<event>
 5   0  0.1276705E-02  0.6002928E+03  0.7818609E-02  0.9904799E-01
       -1   -1    0    0    0  501  0.00000000000E+00  0.00000000000E+00  0.14353725052E+03  0.14353725061E+03  0.50400001928E-02 0. -1.
        1   -1    0    0  501    0  0.00000000000E+00  0.00000000000E+00 -0.62762712500E+03  0.62762712502E+03  0.50400001928E-02 0.  1.
    10030    2    1    2    0    0  0.00000000000E+00  0.00000000000E+00 -0.48408987448E+03  0.77116437563E+03  0.60029283492E+03 0.  0.
        1    1    3    3  502    0  0.14975634039E+03 -0.90747386045E+02  0.71118751030E+02  0.18899715959E+03  0.50400001928E-02 0. -1.
       -1    1    3    3    0  502 -0.14975634039E+03  0.90747386045E+02 -0.55520862551E+03  0.58216721603E+03  0.50400001928E-02 0.  1.
</event>
<event>
 5   0  0.8551000E-03  0.6004061E+03  0.7818609E-02  0.9904564E-01
        4   -1    0    0  501    0  0.00000000000E+00  0.00000000000E+00  0.56098840885E+03  0.56098984640E+03  0.12699999809E+01 0. -1.
       -4   -1    0    0    0  501  0.00000000000E+00  0.00000000000E+00 -0.16064422112E+03  0.16064924114E+03  0.12699999809E+01 0.  1.
    10030    2    1    2    0    0  0.00000000000E+00  0.00000000000E+00  0.40034418773E+03  0.72163908753E+03  0.60040611590E+03 0.  0.
        4    1    3    3  502    0  0.26203436084E+03  0.43198723509E+01  0.24184021108E+02  0.26318652575E+03  0.12699999809E+01 0.  1.
       -4    1    3    3    0  502 -0.26203436084E+03 -0.43198723509E+01  0.37616016662E+03  0.45845256179E+03  0.12699999809E+01 0. -1.
</event>
<event>
 5   0  0.1332555E-02  0.5989821E+03  0.7818609E-02  0.9907520E-01
       -1   -1    0    0    0  501  0.00000000000E+00  0.00000000000E+00  0.17565754045E+03  0.17565754052E+03  0.50400001928E-02 0. -1.
        1   -1    0    0  501    0  0.00000000000E+00  0.00000000000E+00 -0.51062362012E+03  0.51062362014E+03  0.50400001928E-02 0.  1.
    10030    2    1    2    0    0  0.00000000000E+00  0.00000000000E+00 -0.33496607967E+03  0.68628116066E+03  0.59898210069E+03 0.  0.
        2    1    3    3  502    0 -0.10579118672E+03  0.21962058946E+03 -0.36682274085E+03  0.44043603589E+03  0.25500000920E-02 0.  1.
       -2    1    3    3    0  502  0.10579118672E+03 -0.21962058946E+03  0.31856661179E+02  0.24584512476E+03  0.25500000920E-02 0. -1.
</event>
<event>
 5   0  0.2141800E-02  0.5995136E+03  0.7818609E-02  0.9906416E-01
       -2   -1    0    0    0  501  0.00000000000E+00  0.00000000000E+00  0.49198557721E+02  0.49198557787E+02  0.25500000920E-02 0.  1.
        2   -1    0    0  501    0  0.00000000000E+00  0.00000000000E+00 -0.18263571142E+04  0.18263571142E+04  0.25500000920E-02 0. -1.
    10030    2    1    2    0    0  0.00000000000E+00  0.00000000000E+00 -0.17771585564E+04  0.18755556719E+04  0.59951358938E+03 0.  0.
        2    1    3    3  502    0  0.24783389829E+03 -0.49443666700E+02 -0.13929104844E+04  0.14156503576E+04  0.25500000920E-02 0. -1.
       -2    1    3    3    0  502 -0.24783389829E+03  0.49443666700E+02 -0.38424807199E+03  0.45990531433E+03  0.25500000920E-02 0.  1.
</event>
<event>
 5   0  0.2142838E-02  0.5991731E+03  0.7818609E-02  0.9907123E-01
        2   -1    0    0  501    0  0.00000000000E+00  0.00000000000E+00  0.12934045261E+04  0.12934045261E+04  0.25500000920E-02 0. -1.
       -2   -1    0    0    0  501  0.00000000000E+00  0.00000000000E+00 -0.69392144222E+02  0.69392144268E+02  0.25500000920E-02 0.  1.
    10030    2    1    2    0    0  0.00000000000E+00  0.00000000000E+00  0.12240123818E+04  0.13627966703E+04  0.59917314173E+03 0.  0.
        4    1    3    3  502    0 -0.24259808645E+03 -0.64797414140E+02  0.98364220944E+03  0.10151877391E+04  0.12699999809E+01 0. -1.
       -4    1    3    3    0  502  0.24259808645E+03  0.64797414140E+02  0.24037017240E+03  0.34760893128E+03  0.12699999809E+01 0.  1.
</event>
<event>
 5   0  0.2126207E-02  0.6010732E+03  0.7818609E-02  0.9903182E-01
       -2   -1    0    0    0  501  0.00000000000E+00  0.00000000000E+00  0.11339503888E+03  0.11339503891E+03  0.25500000920E-02 0.  1.
        2   -1    0    0  501    0  0.00000000000E+00  0.00000000000E+00 -0.79652734495E+03  0.79652734496E+03  0.25500000920E-02 0. -1.
    10030    2    1    2    0    0  0.00000000000E+00  0.00000000000E+00 -0.68313230607E+03  0.90992238386E+03  0.60107320441E+03 0.  0.
        5    1    3    3  502    0  0.24123557102E+03  0.33086310605E+02 -0.60815001072E+03  0.65510138926E+03  0.46999998093E+01 0. -1.
       -5    1    3    3    0  502 -0.24123557102E+03 -0.33086310605E+02 -0.74982295351E+02  0.25482099460E+03  0.46999998093E+01 0.  1.
</event>
<event>
 5   0  0.1303808E-02  0.6001724E+03  0.7818609E-02  0.9905048E-01
       -1   -1    0    0    0  501  0.00000000000E+00  0.00000000000E+00  0.31881442199E+03  0.31881442203E+03  0.50400001928E-02 0. -1.
        1   -1    0    0  501    0  0.00000000000E+00  0.00000000000E+00 -0.28245812515E+03  0.28245812520E+03  0.50400001928E-02 0.  1.
    10030    2    1    2    0    0  0.00000000000E+00  0.00000000000E+00  0.36356296835E+02  0.60127254722E+03  0.60017238834E+03 0.  0.
        4    1    3    3  502    0  0.11115707547E+03 -0.27848041582E+03  0.62032627229E+01  0.29991220513E+03  0.12699999809E+01 0.  1.
       -4    1    3    3    0  502 -0.11115707547E+03  0.27848041582E+03  0.30153034112E+02  0.30136034209E+03  0.12699999809E+01 0. -1.
</event>
<event>
 5   0  0.1303808E-02  0.5942923E+03  0.7818609E-02  0.9917319E-01
       -1   -1    0    0    0  501  0.00000000000E+00  0.00000000000E+00  0.19305391952E+03  0.19305391959E+03  0.50400001928E-02 0. -1.
        1   -1    0    0  501    0  0.00000000000E+00  0.00000000000E+00 -0.45736364490E+03  0.45736364492E+03  0.50400001928E-02 0.  1.
    10030    2    1    2    0    0  0.00000000000E+00  0.00000000000E+00 -0.26430972537E+03  0.65041756451E+03  0.59429233320E+03 0.  0.
        4    1    3    3  502    0 -0.28187353905E+03 -0.46554795085E+02 -0.22156596132E+03  0.36154270713E+03  0.12699999809E+01 0.  1.
       -4    1    3    3    0  502  0.28187353905E+03  0.46554795085E+02 -0.42743764049E+02  0.28887485738E+03  0.12699999809E+01 0. -1.
</event>
<event>
 5   0  0.2141800E-02  0.5997254E+03  0.7818609E-02  0.9905976E-01
        2   -1    0    0  501    0  0.00000000000E+00  0.00000000000E+00  0.18706612894E+03  0.18706612896E+03  0.25500000920E-02 0.  1.
       -2   -1    0    0    0  501  0.00000000000E+00  0.00000000000E+00 -0.48067306563E+03  0.48067306564E+03  0.25500000920E-02 0. -1.
    10030    2    1    2    0    0  0.00000000000E+00  0.00000000000E+00 -0.29360693669E+03  0.66773919460E+03  0.59972543612E+03 0.  0.
        2    1    3    3  502    0 -0.26864583689E+03 -0.12087489123E+03 -0.84449383882E+02  0.30645231840E+03  0.25500000920E-02 0. -1.
       -2    1    3    3    0  502  0.26864583689E+03  0.12087489123E+03 -0.20915755280E+03  0.36128687620E+03  0.25500000920E-02 0.  1.
</event>
<event>
 5   0  0.2179625E-02  0.6047393E+03  0.7818609E-02  0.9895622E-01
        2   -1    0    0  501    0  0.00000000000E+00  0.00000000000E+00  0.54810101314E+03  0.54810101315E+03  0.25500000920E-02 0.  1.
       -2   -1    0    0    0  501  0.00000000000E+00  0.00000000000E+00 -0.16680759128E+03  0.16680759130E+03  0.25500000920E-02 0. -1.
    10030    2    1    2    0    0  0.00000000000E+00  0.00000000000E+00  0.38129342186E+03  0.71490860445E+03  0.60473931505E+03 0.  0.
        1    1    3    3  502    0  0.23117784040E+03 -0.18281861056E+03  0.27049021050E+03  0.40003848848E+03  0.50400001928E-02 0.  1.
       -1    1    3    3    0  502 -0.23117784040E+03  0.18281861056E+03  0.11080321136E+03  0.31487011597E+03  0.50400001928E-02 0. -1.
</event>
<event>
 5   0  0.2179625E-02  0.6021551E+03  0.7818609E-02  0.9900945E-01
        2   -1    0    0  501    0  0.00000000000E+00  0.00000000000E+00  0.57977065411E+03  0.57977065412E+03  0.25500000920E-02 0.  1.
       -2   -1    0    0    0  501  0.00000000000E+00  0.00000000000E+00 -0.15635093697E+03  0.15635093699E+03  0.25500000920E-02 0. -1.
    10030    2    1    2    0    0  0.00000000000E+00  0.00000000000E+00  0.42341971715E+03  0.73612159111E+03  0.60215507972E+03 0.  0.
        1    1    3    3  502    0  0.69621846763E+02  0.36286272943E+01 -0.14634761523E+03  0.16210488269E+03  0.50400001928E-02 0. -1.
       -1    1    3    3    0  502 -0.69621846763E+02 -0.36286272943E+01  0.56976733237E+03  0.57401670842E+03  0.50400001928E-02 0.  1.
</event>
<event>
 5   0  0.8551000E-03  0.5970476E+03  0.7818609E-02  0.9911550E-01
        4   -1    0    0  501    0  0.00000000000E+00  0.00000000000E+00  0.27920261894E+03  0.27920550732E+03  0.12699999809E+01 0.  1.
       -4   -1    0    0    0  501  0.00000000000E+00  0.00000000000E+00 -0.31917617591E+03  0.31917870257E+03  0.12699999809E+01 0. -1.
    10030    2    1    2    0    0  0.00000000000E+00  0.00000000000E+00 -0.39973556979E+02  0.59838420989E+03  0.59704755036E+03 0.  0.
        5    1    3    3  502    0 -0.77679995865E+02  0.25097056818E+03  0.12201297329E+03  0.28970616752E+03  0.46999998093E+01 0.  1.
       -5    1    3    3    0  502  0.77679995865E+02 -0.25097056818E+03 -0.16198653027E+03  0.30867804237E+03  0.46999998093E+01 0. -1.
</event>
<event>
 5   0  0.2126207E-02  0.6007364E+03  0.7818609E-02  0.9903879E-01
       -2   -1    0    0    0  501  0.00000000000E+00  0.00000000000E+00  0.13854675103E+03  0.13854675105E+03  0.25500000920E-02 0.  1.
        2   -1    0    0  501    0  0.00000000000E+00  0.00000000000E+00 -0.65119568792E+03  0.65119568793E+03  0.25500000920E-02 0. -1.
    10030    2    1    2    0    0  0.00000000000E+00  0.00000000000E+00 -0.51264893690E+03  0.78974243897E+03  0.60073637098E+03 0.  0.
        5    1    3    3  502    0 -0.11934755146E+03  0.18973629108E+02 -0.61777463648E+03  0.62950093576E+03  0.46999998093E+01 0. -1.
       -5    1    3    3    0  502  0.11934755146E+03 -0.18973629108E+02  0.10512569959E+03  0.16024150322E+03  0.46999998093E+01 0.  1.
</event>
<event>
 5   0  0.1303808E-02  0.6031187E+03  0.7818609E-02  0.9898957E-01
        1   -1    0    0  501    0  0.00000000000E+00  0.00000000000E+00  0.34838974327E+03  0.34838974331E+03  0.50400001928E-02 0. -1.
       -1   -1    0    0    0  501  0.00000000000E+00  0.00000000000E+00 -0.26102387144E+03  0.26102387149E+03  0.50400001928E-02 0.  1.
    10030    2    1    2    0    0  0.00000000000E+00  0.00000000000E+00  0.87365871824E+02  0.60941361480E+03  0.60311869341E+03 0.  0.
        4    1    3    3  502    0 -0.15566775227E+03 -0.14357322987E+03 -0.17324527765E+03  0.27360785910E+03  0.12699999809E+01 0.  1.
       -4    1    3    3    0  502  0.15566775227E+03  0.14357322987E+03  0.26061114947E+03  0.33580575570E+03  0.12699999809E+01 0. -1.
</event>
<event>
 5   0  0.1276705E-02  0.6035912E+03  0.7818609E-02  0.9897983E-01
        1   -1    0    0  501    0  0.00000000000E+00  0.00000000000E+00  0.33604093611E+03  0.33604093614E+03  0.50400001928E-02 0.  1.
       -1   -1    0    0    0  501  0.00000000000E+00  0.00000000000E+00 -0.27104012645E+03  0.27104012650E+03  0.50400001928E-02 0. -1.
    10030    2    1    2    0    0  0.00000000000E+00  0.00000000000E+00  0.65000809654E+02  0.60708106264E+03  0.60359117900E+03 0.  0.
        1    1    3    3  502    0  0.20966287923E+03  0.20859324273E+03 -0.27937913596E+02  0.29706933683E+03  0.50400001928E-02 0. -1.
       -1    1    3    3    0  502 -0.20966287923E+03 -0.20859324273E+03  0.92938723250E+02  0.31001172582E+03  0.50400001928E-02 0.  1.
</event>
<event>
 5   0  0.1276705E-02  0.5850845E+03  0.7818609E-02  0.9936843E-01
        1   -1    0    0  501    0  0.00000000000E+00  0.00000000000E+00  0.70970922527E+03  0.70970922529E+03  0.50400001928E-02 0.  1.
       -1   -1    0    0    0  501  0.00000000000E+00  0.00000000000E+00 -0.12058597474E+03  0.12058597484E+03  0.50400001928E-02 0. -1.
    10030    2    1    2    0    0  0.00000000000E+00  0.00000000000E+00  0.58912325053E+03  0.83029520013E+03  0.58508453666E+03 0.  0.
        1    1    3    3  502    0  0.14189552938E+03  0.25577536038E+03  0.30174213157E+03  0.42024241841E+03  0.50400001928E-02 0. -1.
       -1    1    3    3    0  502 -0.14189552938E+03 -0.25577536038E+03  0.28738111896E+03  0.41005278172E+03  0.50400001928E-02 0.  1.
</event>
<event>
 5   0  0.8551000E-03  0.5995442E+03  0.7818609E-02  0.9906352E-01
        4   -1    0    0  501    0  0.00000000000E+00  0.00000000000E+00  0.83755630453E+02  0.83765258506E+02  0.12699999809E+01 0. -1.
       -4   -1    0    0    0  501  0.00000000000E+00  0.00000000000E+00 -0.10728511325E+04  0.10728518842E+04  0.12699999809E+01 0.  1.
    10030    2    1    2    0    0  0.00000000000E+00  0.00000000000E+00 -0.98909550203E+03  0.11566171427E+04  0.59954424574E+03 0.  0.
        3    1    3    3  502    0 -0.33445561926E+02  0.29453900846E+03 -0.40845697653E+03  0.50468697724E+03  0.10100000352E+00 0. -1.
       -3    1    3    3    0  502  0.33445561926E+02 -0.29453900846E+03 -0.58063852549E+03  0.65193016544E+03  0.10100000352E+00 0.  1.
</event>
<event>
 5   0  0.8551000E-03  0.6011222E+03  0.7818609E-02  0.9903081E-01
        3   -1    0    0  501    0  0.00000000000E+00  0.00000000000E+00  0.18509465344E+03  0.18509468099E+03  0.10100000352E+00 0. -1.
       -3   -1    0    0    0  501  0.00000000000E+00  0.00000000000E+00 -0.48805811517E+03  0.48805812563E+03  0.10100000352E+00 0.  1.
    10030    2    1    2    0    0  0.00000000000E+00  0.00000000000E+00 -0.30296346174E+03  0.67315280662E+03  0.60112215224E+03 0.  0.
        1    1    3    3  502    0 -0.14819320248E+03  0.25037491948E+03 -0.23593877378E+03  0.37458768074E+03  0.50400001928E-02 0.  1.
       -1    1    3    3    0  502  0.14819320248E+03 -0.25037491948E+03 -0.67024687961E+02  0.29856512588E+03  0.50400001928E-02 0. -1.
</event>
<event>
 5   0  0.1276705E-02  0.5988845E+03  0.7818609E-02  0.9907723E-01
       -1   -1    0    0    0  501  0.00000000000E+00  0.00000000000E+00  0.20579795111E+03  0.20579795117E+03  0.50400001928E-02 0.  1.
        1   -1    0    0  501    0  0.00000000000E+00  0.00000000000E+00 -0.43569758052E+03  0.43569758055E+03  0.50400001928E-02 0. -1.
    10030    2    1    2    0    0  0.00000000000E+00  0.00000000000E+00 -0.22989962941E+03  0.64149553172E+03  0.59888452777E+03 0.  0.
        1    1    3    3  502    0  0.22206353554E+03  0.18253012560E+03 -0.25099438027E+02  0.28854712333E+03  0.50400001928E-02 0.  1.
       -1    1    3    3    0  502 -0.22206353554E+03 -0.18253012560E+03 -0.20480019139E+03  0.35294840839E+03  0.50400001928E-02 0. -1.
</event>
<event>
 5   0  0.2092587E-02  0.5985719E+03  0.7818609E-02  0.9908373E-01
       -2   -1    0    0    0  501  0.00000000000E+00  0.00000000000E+00  0.13145669457E+03  0.13145669460E+03  0.25500000920E-02 0. -1.
        2   -1    0    0  501    0  0.00000000000E+00  0.00000000000E+00 -0.68138081987E+03  0.68138081988E+03  0.25500000920E-02 0.  1.
    10030    2    1    2    0    0  0.00000000000E+00  0.00000000000E+00 -0.54992412530E+03  0.81283751448E+03  0.59857186816E+03 0.  0.
        3    1    3    3  502    0 -0.18836583882E+03 -0.72074582139E+02 -0.57523931998E+03  0.60957093112E+03  0.10100000352E+00 0.  1.
       -3    1    3    3    0  502  0.18836583882E+03  0.72074582139E+02  0.25315194677E+02  0.20326658335E+03  0.10100000352E+00 0. -1.
</event>
<event>
 5   0  0.1276705E-02  0.6011013E+03  0.7818609E-02  0.9903124E-01
        1   -1    0    0  501    0  0.00000000000E+00  0.00000000000E+00  0.51324404676E+03  0.51324404679E+03  0.50400001928E-02 0. -1.
       -1   -1    0    0    0  501  0.00000000000E+00  0.00000000000E+00 -0.17599950343E+03  0.17599950350E+03  0.50400001928E-02 0.  1.
    10030    2    1    2    0    0  0.00000000000E+00  0.00000000000E+00  0.33724454333E+03  0.68924355029E+03  0.60110131393E+03 0.  0.
        1    1    3    3  502    0 -0.44606460520E+01 -0.20036391183E+03 -0.88195981133E+02  0.21896147067E+03  0.50400001928E-02 0.  1.
       -1    1    3    3    0  502  0.44606460520E+01  0.20036391183E+03  0.42544052447E+03  0.47028207962E+03  0.50400001928E-02 0. -1.
</event>
<event>
 5   0  0.2142838E-02  0.5997587E+03  0.7818609E-02  0.9905907E-01
       -2   -1    0    0    0  501  0.00000000000E+00  0.00000000000E+00  0.56182216218E+03  0.56182216218E+03  0.25500000920E-02 0.  1.
        2   -1    0    0  501    0  0.00000000000E+00  0.00000000000E+00 -0.16006423309E+03  0.16006423311E+03  0.25500000920E-02 0. -1.
    10030    2    1    2    0    0  0.00000000000E+00  0.00000000000E+00  0.40175792909E+03  0.72188639530E+03  0.59975872993E+03 0.  0.
        4    1    3    3  502    0  0.13198425809E+03  0.19133544397E+03 -0.27166215571E+02  0.23402716225E+03  0.12699999809E+01 0. -1.
       -4    1    3    3    0  502 -0.13198425809E+03 -0.19133544397E+03  0.42892414466E+03  0.48785923305E+03  0.12699999809E+01 0.  1.
</event>
<event>
 5   0  0.2092587E-02  0.6012797E+03  0.7818609E-02  0.9902755E-01
       -2   -1    0    0    0  501  0.00000000000E+00  0.00000000000E+00  0.63614872497E+02  0.63614872548E+02  0.25500000920E-02 0.  1.
        2   -1    0    0  501    0  0.00000000000E+00  0.00000000000E+00 -0.14208049632E+04  0.14208049632E+04  0.25500000920E-02 0. -1.
    10030    2    1    2    0    0  0.00000000000E+00  0.00000000000E+00 -0.13571900907E+04  0.14844198358E+04  0.60127972399E+03 0.  0.
        3    1    3    3  502    0 -0.22783350956E+02 -0.18827536732E+03 -0.10269121458E+03  0.21566685135E+03  0.10100000352E+00 0.  1.
       -3    1    3    3    0  502  0.22783350956E+02  0.18827536732E+03 -0.12544988762E+04  0.12687529844E+04  0.10100000352E+00 0. -1.
</event>
<event>
 5   0  0.2141800E-02  0.5998713E+03  0.7818609E-02  0.9905673E-01
        2   -1    0    0  501    0  0.00000000000E+00  0.00000000000E+00  0.11843343983E+04  0.11843343983E+04  0.25500000920E-02 0.  1.
       -2   -1    0    0    0  501  0.00000000000E+00  0.00000000000E+00 -0.75959449107E+02  0.75959449149E+02  0.25500000920E-02 0. -1.
    10030    2    1    2    0    0  0.00000000000E+00  0.00000000000E+00  0.11083749492E+04  0.12602938475E+04  0.59987128114E+03 0.  0.
        2    1    3    3  502    0  0.20558725899E+03 -0.34076425729E+00  0.10130164762E+04  0.10336675570E+04  0.25500000920E-02 0.  1.
       -2    1    3    3    0  502 -0.20558725899E+03  0.34076425729E+00  0.95358472989E+02  0.22662629052E+03  0.25500000920E-02 0. -1.
</event>
<event>
 5   0  0.1337051E-02  0.5988382E+03  0.7818609E-02  0.9907819E-01
       -1   -1    0    0    0  501  0.00000000000E+00  0.00000000000E+00  0.14437641785E+03  0.14437641794E+03  0.50400001928E-02 0.  1.
        1   -1    0    0  501    0  0.00000000000E+00  0.00000000000E+00 -0.62095882700E+03  0.62095882702E+03  0.50400001928E-02 0. -1.
    10030    2    1    2    0    0  0.00000000000E+00  0.00000000000E+00 -0.47658240915E+03  0.76533524496E+03  0.59883824566E+03 0.  0.
        5    1    3    3  502    0  0.23900915408E+03  0.49793435224E+02 -0.16837271792E+02  0.24476589968E+03  0.46999998093E+01 0.  1.
       -5    1    3    3    0  502 -0.23900915408E+03 -0.49793435224E+02 -0.45974513736E+03  0.52056934529E+03  0.46999998093E+01 0. -1.
</event>
<event>
 5   0  0.1276705E-02  0.6028973E+03  0.7818609E-02  0.9899413E-01
        1   -1    0    0  501    0  0.00000000000E+00  0.00000000000E+00  0.10095806055E+04  0.10095806055E+04  0.50400001928E-02 0. -1.
       -1   -1    0    0    0  501  0.00000000000E+00  0.00000000000E+00 -0.90008947471E+02  0.90008947612E+02  0.50400001928E-02 0.  1.
    10030    2    1    2    0    0  0.00000000000E+00  0.00000000000E+00  0.91957165802E+03  0.10995895531E+04  0.60289729730E+03 0.  0.
        1    1    3    3  502    0  0.11536555486E+03 -0.19573094813E+03  0.98446490937E+02  0.24761164534E+03  0.50400001928E-02 0.  1.
       -1    1    3    3    0  502 -0.11536555486E+03  0.19573094813E+03  0.82112516709E+03  0.85197790778E+03  0.50400001928E-02 0. -1.
</event>
<event>
 5   0  0.2142838E-02  0.6015264E+03  0.7818609E-02  0.9902244E-01
        2   -1    0    0  501    0  0.00000000000E+00  0.00000000000E+00  0.43342810366E+03  0.43342810367E+03  0.25500000920E-02 0. -1.
       -2   -1    0    0    0  501  0.00000000000E+00  0.00000000000E+00 -0.20870474383E+03  0.20870474385E+03  0.25500000920E-02 0.  1.
    10030    2    1    2    0    0  0.00000000000E+00  0.00000000000E+00  0.22472335983E+03  0.64213284751E+03  0.60152639627E+03 0.  0.
        4    1    3    3  502    0  0.54857174192E+02  0.29087591666E+03  0.16923859918E+03  0.34097129616E+03  0.12699999809E+01 0. -1.
       -4    1    3    3    0  502 -0.54857174192E+02 -0.29087591666E+03  0.55484760650E+02  0.30116155136E+03  0.12699999809E+01 0.  1.
</event>
<event>
 5   0  0.2142838E-02  0.5999489E+03  0.7818609E-02  0.9905512E-01
        2   -1    0    0  501    0  0.00000000000E+00  0.00000000000E+00  0.38911528388E+03  0.38911528389E+03  0.25500000920E-02 0.  1.
       -2   -1    0    0    0  501  0.00000000000E+00  0.00000000000E+00 -0.23125452703E+03  0.23125452705E+03  0.25500000920E-02 0. -1.
    10030    2    1    2    0    0  0.00000000000E+00  0.00000000000E+00  0.15786075685E+03  0.62036981093E+03  0.59994890096E+03 0.  0.
        4    1    3    3  502    0 -0.91521398334E+02 -0.22692554266E+03 -0.10050329872E+03  0.26452579121E+03  0.12699999809E+01 0. -1.
       -4    1    3    3    0  502  0.91521398334E+02  0.22692554266E+03  0.25836405556E+03  0.35584401972E+03  0.12699999809E+01 0.  1.
</event>
<event>
 5   0  0.2126207E-02  0.6006809E+03  0.7818609E-02  0.9903994E-01
       -2   -1    0    0    0  501  0.00000000000E+00  0.00000000000E+00  0.12826200541E+03  0.12826200544E+03  0.25500000920E-02 0.  1.
        2   -1    0    0  501    0  0.00000000000E+00  0.00000000000E+00 -0.70328228346E+03  0.70328228347E+03  0.25500000920E-02 0. -1.
    10030    2    1    2    0    0  0.00000000000E+00  0.00000000000E+00 -0.57502027805E+03  0.83154428891E+03  0.60068093381E+03 0.  0.
        5    1    3    3  502    0 -0.53620891897E+02 -0.22525130049E+03 -0.55223688944E+03  0.59883304892E+03  0.46999998093E+01 0. -1.
       -5    1    3    3    0  502  0.53620891897E+02  0.22525130049E+03 -0.22783388604E+02  0.23271123998E+03  0.46999998093E+01 0.  1.
</event>
<event>
 5   0  0.2092587E-02  0.5969186E+03  0.7818609E-02  0.9911820E-01
        2   -1    0    0  501    0  0.00000000000E+00  0.00000000000E+00  0.13710129311E+04  0.13710129311E+04  0.25500000920E-02 0.  1.
       -2   -1    0    0    0  501  0.00000000000E+00  0.00000000000E+00 -0.64972356676E+02  0.64972356726E+02  0.25500000920E-02 0. -1.
    10030    2    1    2    0    0  0.00000000000E+00  0.00000000000E+00  0.13060405744E+04  0.14359852878E+04  0.59691855795E+03 0.  0.
        3    1    3    3  502    0 -0.10178396904E+03 -0.64310336911E+02  0.13100005395E+04  0.13155216530E+04  0.10100000352E+00 0.  1.
       -3    1    3    3    0  502  0.10178396904E+03  0.64310336911E+02 -0.39599651074E+01  0.12046363481E+03  0.10100000352E+00 0. -1.
</event>
<event>
 5   0  0.8551000E-03  0.5959710E+03  0.7818609E-02  0.9913800E-01
       -3   -1    0    0    0  501  0.00000000000E+00  0.00000000000E+00  0.23321380573E+03  0.23321382760E+03  0.10100000352E+00 0. -1.
        3   -1    0    0  501    0  0.00000000000E+00  0.00000000000E+00 -0.38074648472E+03  0.38074649811E+03  0.10100000352E+00 0.  1.
    10030    2    1    2    0    0  0.00000000000E+00  0.00000000000E+00 -0.14753267899E+03  0.61396032571E+03  0.59597096421E+03 0.  0.
        3    1    3    3  502    0 -0.10718602563E+03 -0.14063626205E+03 -0.32085601507E+03  0.36635501211E+03  0.10100000352E+00 0.  1.
       -3    1    3    3    0  502  0.10718602563E+03  0.14063626205E+03  0.17332333608E+03  0.24760531360E+03  0.10100000352E+00 0. -1.
</event>
<event>
 5   0  0.2142838E-02  0.6068287E+03  0.7818609E-02  0.9891339E-01
       -2   -1    0    0    0  501  0.00000000000E+00  0.00000000000E+00  0.55033677478E+02  0.55033677537E+02  0.25500000920E-02 0. -1.
        2   -1    0    0  501    0  0.00000000000E+00  0.00000000000E+00 -0.16727989230E+04  0.16727989230E+04  0.25500000920E-02 0.  1.
    10030    2    1    2    0    0  0.00000000000E+00  0.00000000000E+00 -0.16177652456E+04  0.17278326006E+04  0.60682872862E+03 0.  0.
        4    1    3    3  502    0  0.15705288126E+03 -0.16512622688E+02 -0.15465537146E+04  0.15545958572E+04  0.12699999809E+01 0.  1.
       -4    1    3    3    0  502 -0.15705288126E+03  0.16512622688E+02 -0.71211531012E+02  0.17323674342E+03  0.12699999809E+01 0. -1.
</event>
<event>
 5   0  0.8551000E-03  0.5953203E+03  0.7818609E-02  0.9915163E-01
       -3   -1    0    0    0  501  0.00000000000E+00  0.00000000000E+00  0.14528491733E+03  0.14528495244E+03  0.10100000352E+00 0.  1.
        3   -1    0    0  501    0  0.00000000000E+00  0.00000000000E+00 -0.60984676168E+03  0.60984677004E+03  0.10100000352E+00 0. -1.
    10030    2    1    2    0    0  0.00000000000E+00  0.00000000000E+00 -0.46456184435E+03  0.75513172248E+03  0.59532025925E+03 0.  0.
        1    1    3    3  502    0 -0.10985926819E+03  0.26267433052E+03 -0.12217650361E+03  0.30982892180E+03  0.50400001928E-02 0.  1.
       -1    1    3    3    0  502  0.10985926819E+03 -0.26267433052E+03 -0.34238534074E+03  0.44530280069E+03  0.50400001928E-02 0. -1.
</event>
<event>
 5   0  0.1337051E-02  0.5998344E+03  0.7818609E-02  0.9905750E-01
        1   -1    0    0  501    0  0.00000000000E+00  0.00000000000E+00  0.13874051888E+03  0.13874051897E+03  0.50400001928E-02 0. -1.
       -1   -1    0    0    0  501  0.00000000000E+00  0.00000000000E+00 -0.64833496788E+03  0.64833496790E+03  0.50400001928E-02 0.  1.
    10030    2    1    2    0    0  0.00000000000E+00  0.00000000000E+00 -0.50959444900E+03  0.78707548688E+03  0.59983441014E+03 0.  0.
        5    1    3    3  502    0 -0.29154716042E+03 -0.29555118507E+02 -0.33835364057E+03  0.44763660246E+03  0.46999998093E+01 0. -1.
       -5    1    3    3    0  502  0.29154716042E+03  0.29555118507E+02 -0.17124080844E+03  0.33943888442E+03  0.46999998093E+01 0.  1.
</event>
<event>
 5   0  0.1332555E-02  0.5986618E+03  0.7818609E-02  0.9908186E-01
       -1   -1    0    0    0  501  0.00000000000E+00  0.00000000000E+00  0.12905782223E+03  0.12905782233E+03  0.50400001928E-02 0.  1.
        1   -1    0    0  501    0  0.00000000000E+00  0.00000000000E+00 -0.69425461423E+03  0.69425461424E+03  0.50400001928E-02 0. -1.
    10030    2    1    2    0    0  0.00000000000E+00  0.00000000000E+00 -0.56519679199E+03  0.82331243657E+03  0.59866180314E+03 0.  0.
        2    1    3    3  502    0 -0.72283346912E+02  0.14705592452E+03 -0.62709532856E+03  0.64815035160E+03  0.25500000920E-02 0. -1.
       -2    1    3    3    0  502  0.72283346912E+02 -0.14705592452E+03  0.61898536566E+02  0.17516208497E+03  0.25500000920E-02 0.  1.
</event>
<event>
 5   0  0.8551000E-03  0.5989119E+03  0.7818609E-02  0.9907666E-01
        3   -1    0    0  501    0  0.00000000000E+00  0.00000000000E+00  0.11321261828E+03  0.11321266333E+03  0.10100000352E+00 0. -1.
       -3   -1    0    0    0  501  0.00000000000E+00  0.00000000000E+00 -0.79208348977E+03  0.79208349621E+03  0.10100000352E+00 0.  1.
    10030    2    1    2    0    0  0.00000000000E+00  0.00000000000E+00 -0.67887087149E+03  0.90529615954E+03  0.59891191032E+03 0.  0.
        4    1    3    3  502    0 -0.19293600086E+03 -0.11722148103E+03 -0.42047782355E+02  0.22964059951E+03  0.12699999809E+01 0. -1.
       -4    1    3    3    0  502  0.19293600086E+03  0.11722148103E+03 -0.63682308913E+03  0.67565556003E+03  0.12699999809E+01 0.  1.
</event>
<event>
 5   0  0.2142838E-02  0.5995513E+03  0.7818609E-02  0.9906337E-01
        2   -1    0    0  501    0  0.00000000000E+00  0.00000000000E+00  0.16283138262E+04  0.16283138262E+04  0.25500000920E-02 0.  1.
       -2   -1    0    0    0  501  0.00000000000E+00  0.00000000000E+00 -0.55189264752E+02  0.55189264811E+02  0.25500000920E-02 0. -1.
    10030    2    1    2    0    0  0.00000000000E+00  0.00000000000E+00  0.15731245614E+04  0.16835030910E+04  0.59955130858E+03 0.  0.
        4    1    3    3  502    0 -0.16963788044E+02  0.32836766689E+02 -0.48759520917E+02  0.61197443830E+02  0.12699999809E+01 0. -1.
       -4    1    3    3    0  502  0.16963788044E+02 -0.32836766689E+02  0.16218840824E+04  0.16223056472E+04  0.12699999809E+01 0.  1.
</event>
<event>
 5   0  0.2092587E-02  0.6006668E+03  0.7818609E-02  0.9904024E-01
       -2   -1    0    0    0  501  0.00000000000E+00  0.00000000000E+00  0.11885841807E+03  0.11885841810E+03  0.25500000920E-02 0.  1.
        2   -1    0    0  501    0  0.00000000000E+00  0.00000000000E+00 -0.75888735402E+03  0.75888735402E+03  0.25500000920E-02 0. -1.
    10030    2    1    2    0    0  0.00000000000E+00  0.00000000000E+00 -0.64002893595E+03  0.87774577211E+03  0.60066679750E+03 0.  0.
        3    1    3    3  502    0 -0.13638258830E+02 -0.28683360371E+03 -0.44857955449E+03  0.53261913712E+03  0.10100000352E+00 0. -1.
       -3    1    3    3    0  502  0.13638258830E+02  0.28683360371E+03 -0.19144938146E+03  0.34512663500E+03  0.10100000352E+00 0.  1.
</event>
<event>
 5   0  0.1337051E-02  0.6020546E+03  0.7818609E-02  0.9901153E-01
       -1   -1    0    0    0  501  0.00000000000E+00  0.00000000000E+00  0.63512745108E+03  0.63512745110E+03  0.50400001928E-02 0. -1.
        1   -1    0    0  501    0  0.00000000000E+00  0.00000000000E+00 -0.14267598892E+03  0.14267598901E+03  0.50400001928E-02 0.  1.
    10030    2    1    2    0    0  0.00000000000E+00  0.00000000000E+00  0.49245146216E+03  0.77780344012E+03  0.60205460622E+03 0.  0.
        5    1    3    3  502    0 -0.21624822085E+03 -0.12821064883E+03  0.46005264382E+03  0.52428216503E+03  0.46999998093E+01 0. -1.
       -5    1    3    3    0  502  0.21624822085E+03  0.12821064883E+03  0.32398818346E+02  0.25352127508E+03  0.46999998093E+01 0.  1.
</event>
<event>
 5   0  0.2141800E-02  0.6002066E+03  0.7818609E-02  0.9904978E-01
        2   -1    0    0  501    0  0.00000000000E+00  0.00000000000E+00  0.11043958310E+04  0.11043958310E+04  0.25500000920E-02 0.  1.
       -2   -1    0    0    0  501  0.00000000000E+00  0.00000000000E+00 -0.81548647911E+02  0.81548647950E+02  0.25500000920E-02 0. -1.
    10030    2    1    2    0    0  0.00000000000E+00  0.00000000000E+00  0.10228471831E+04  0.11859444789E+04  0.60020658710E+03 0.  0.
        2    1    3    3  502    0  0.32326337392E+02  0.28544006645E+03  0.33983950379E+03  0.44498529410E+03  0.25500000920E-02 0.  1.
       -2    1    3    3    0  502 -0.32326337392E+02 -0.28544006645E+03  0.68300767929E+03  0.74095918484E+03  0.25500000920E-02 0. -1.
</event>
<event>
 5   0  0.8551000E-03  0.5982614E+03  0.7818609E-02  0.9909020E-01
        3   -1    0    0  501    0  0.00000000000E+00  0.00000000000E+00  0.59891248651E+03  0.59891249503E+03  0.10100000352E+00 0.  1.
       -3   -1    0    0    0  501  0.00000000000E+00  0.00000000000E+00 -0.14940272214E+03  0.14940275628E+03  0.10100000352E+00 0. -1.
    10030    2    1    2    0    0  0.00000000000E+00  0.00000000000E+00  0.44950976438E+03  0.74831525131E+03  0.59826138691E+03 0.  0.
        3    1    3    3  502    0  0.27510643671E+02 -0.51094532521E+02 -0.14229462148E+03  0.15367256187E+03  0.10100000352E+00 0. -1.
       -3    1    3    3    0  502 -0.27510643671E+02  0.51094532521E+02  0.59180438586E+03  0.59464268943E+03  0.10100000352E+00 0.  1.
</event>
<event>
 5   0  0.2142838E-02  0.5998199E+03  0.7818609E-02  0.9905780E-01
        2   -1    0    0  501    0  0.00000000000E+00  0.00000000000E+00  0.52457694349E+03  0.52457694350E+03  0.25500000920E-02 0.  1.
       -2   -1    0    0    0  501  0.00000000000E+00  0.00000000000E+00 -0.17146384504E+03  0.17146384506E+03  0.25500000920E-02 0. -1.
    10030    2    1    2    0    0  0.00000000000E+00  0.00000000000E+00  0.35311309846E+03  0.69604078856E+03  0.59981990550E+03 0.  0.
        4    1    3    3  502    0 -0.15569131936E+03  0.21841334741E+03  0.20869547044E+02  0.26903778200E+03  0.12699999809E+01 0. -1.
       -4    1    3    3    0  502  0.15569131936E+03 -0.21841334741E+03  0.33224355141E+03  0.42700300655E+03  0.12699999809E+01 0.  1.
</event>
<event>
 5   0  0.1276705E-02  0.6002613E+03  0.7818609E-02  0.9904864E-01
        1   -1    0    0  501    0  0.00000000000E+00  0.00000000000E+00  0.42801927036E+03  0.42801927039E+03  0.50400001928E-02 0. -1.
       -1   -1    0    0    0  501  0.00000000000E+00  0.00000000000E+00 -0.21045406425E+03  0.21045406431E+03  0.50400001928E-02 0.  1.
    10030    2    1    2    0    0  0.00000000000E+00  0.00000000000E+00  0.21756520612E+03  0.63847333470E+03  0.60026125996E+03 0.  0.
        1    1    3    3  502    0 -0.18398794990E+03 -0.18355632158E+03 -0.50886427667E+02  0.26482809037E+03  0.50400001928E-02 0.  1.
       -1    1    3    3    0  502  0.18398794990E+03  0.18355632158E+03  0.26845163378E+03  0.37364524433E+03  0.50400001928E-02 0. -1.
</event>
<event>
 5   0  0.2141800E-02  0.5996958E+03  0.7818609E-02  0.9906037E-01
       -2   -1    0    0    0  501  0.00000000000E+00  0.00000000000E+00  0.13164115068E+03  0.13164115071E+03  0.25500000920E-02 0.  1.
        2   -1    0    0  501    0  0.00000000000E+00  0.00000000000E+00 -0.68298368222E+03  0.68298368222E+03  0.25500000920E-02 0. -1.
    10030    2    1    2    0    0  0.00000000000E+00  0.00000000000E+00 -0.55134253154E+03  0.81462483293E+03  0.59969578233E+03 0.  0.
        2    1    3    3  502    0  0.20425804837E+03  0.69987011105E+02  0.69576287460E+01  0.21602763863E+03  0.25500000920E-02 0.  1.
       -2    1    3    3    0  502 -0.20425804837E+03 -0.69987011105E+02 -0.55830016028E+03  0.59859719430E+03  0.25500000920E-02 0. -1.
</event>
<event>
 5   0  0.1337051E-02  0.6015241E+03  0.7818609E-02  0.9902249E-01
        1   -1    0    0  501    0  0.00000000000E+00  0.00000000000E+00  0.47316812585E+03  0.47316812588E+03  0.50400001928E-02 0.  1.
       -1   -1    0    0    0  501  0.00000000000E+00  0.00000000000E+00 -0.19117478195E+03  0.19117478201E+03  0.50400001928E-02 0. -1.
    10030    2    1    2    0    0  0.00000000000E+00  0.00000000000E+00  0.28199334390E+03  0.66434290789E+03  0.60152410863E+03 0.  0.
        5    1    3    3  502    0  0.13260349194E+03  0.10075149651E+03  0.41754885965E+03  0.44955944025E+03  0.46999998093E+01 0.  1.
       -5    1    3    3    0  502 -0.13260349194E+03 -0.10075149651E+03 -0.13555551575E+03  0.21478346764E+03  0.46999998093E+01 0. -1.
</event>
<event>
 5   0  0.8551000E-03  0.6012751E+03  0.7818609E-02  0.9902764E-01
        3   -1    0    0  501    0  0.00000000000E+00  0.00000000000E+00  0.64792071539E+03  0.64792072326E+03  0.10100000352E+00 0. -1.
       -3   -1    0    0    0  501  0.00000000000E+00  0.00000000000E+00 -0.13949689418E+03  0.13949693074E+03  0.10100000352E+00 0.  1.
    10030    2    1    2    0    0  0.00000000000E+00  0.00000000000E+00  0.50842382122E+03  0.78741765400E+03  0.60127512825E+03 0.  0.
        4    1    3    3  502    0 -0.23641161861E+03  0.85638661266E+02  0.38401698699E+02  0.25436339572E+03  0.12699999809E+01 0.  1.
       -4    1    3    3    0  502  0.23641161861E+03 -0.85638661266E+02  0.47002212252E+03  0.53305425828E+03  0.12699999809E+01 0. -1.
</event>
<event>
 5   0  0.1276705E-02  0.6002397E+03  0.7818609E-02  0.9904909E-01
        1   -1    0    0  501    0  0.00000000000E+00  0.00000000000E+00  0.18838330514E+04  0.18838330514E+04  0.50400001928E-02 0. -1.
       -1   -1    0    0    0  501  0.00000000000E+00  0.00000000000E+00 -0.47813108449E+02  0.47813108715E+02  0.50400001928E-02 0.  1.
    10030    2    1    2    0    0  0.00000000000E+00  0.00000000000E+00  0.18360199429E+04  0.19316461601E+04  0.60023966629E+03 0.  0.
        1    1    3    3  502    0  0.19003325409E+03 -0.76363988195E+02  0.21201603897E+03  0.29477940423E+03  0.50400001928E-02 0.  1.
       -1    1    3    3    0  502 -0.19003325409E+03  0.76363988195E+02  0.16240039039E+04  0.16368667559E+04  0.50400001928E-02 0. -1.
</event>
<event>
 5   0  0.2126207E-02  0.6023031E+03  0.7818609E-02  0.9900639E-01
        2   -1    0    0  501    0  0.00000000000E+00  0.00000000000E+00  0.74277031623E+03  0.74277031624E+03  0.25500000920E-02 0. -1.
       -2   -1    0    0    0  501  0.00000000000E+00  0.00000000000E+00 -0.12210000632E+03  0.12210000634E+03  0.25500000920E-02 0.  1.
    10030    2    1    2    0    0  0.00000000000E+00  0.00000000000E+00  0.62067030992E+03  0.86487032258E+03  0.60230311412E+03 0.  0.
        5    1    3    3  502    0 -0.14405338360E+03  0.41580999370E+02  0.68530439061E+03  0.70153015233E+03  0.46999998093E+01 0. -1.
       -5    1    3    3    0  502  0.14405338360E+03 -0.41580999370E+02 -0.64634080695E+02  0.16334017026E+03  0.46999998093E+01 0.  1.
</event>
<event>
 5   0  0.1337051E-02  0.6087699E+03  0.7818609E-02  0.9887377E-01
        1   -1    0    0  501    0  0.00000000000E+00  0.00000000000E+00  0.84958214524E+03  0.84958214526E+03  0.50400001928E-02 0.  1.
       -1   -1    0    0    0  501  0.00000000000E+00  0.00000000000E+00 -0.10905384282E+03  0.10905384294E+03  0.50400001928E-02 0. -1.
    10030    2    1    2    0    0  0.00000000000E+00  0.00000000000E+00  0.74052830242E+03  0.95863598820E+03  0.60876990002E+03 0.  0.
        5    1    3    3  502    0 -0.20654296976E+03  0.21543531017E+03  0.27636420426E+03  0.40678204806E+03  0.46999998093E+01 0. -1.
       -5    1    3    3    0  502  0.20654296976E+03 -0.21543531017E+03  0.46416409816E+03  0.55185394014E+03  0.46999998093E+01 0.  1.
</event>
<event>
 5   0  0.2092587E-02  0.6006812E+03  0.7818609E-02  0.9903994E-01
        2   -1    0    0  501    0  0.00000000000E+00  0.00000000000E+00  0.66855957911E+03  0.66855957911E+03  0.25500000920E-02 0. -1.
       -2   -1    0    0    0  501  0.00000000000E+00  0.00000000000E+00 -0.13492363617E+03  0.13492363620E+03  0.25500000920E-02 0.  1.
    10030    2    1    2    0    0  0.00000000000E+00  0.00000000000E+00  0.53363594293E+03  0.80348321531E+03  0.60068124466E+03 0.  0.
        3    1    3    3  502    0 -0.10243731502E+03 -0.16453435915E+03  0.57371218406E+03  0.60556637885E+03  0.10100000352E+00 0. -1.
       -3    1    3    3    0  502  0.10243731502E+03  0.16453435915E+03 -0.40076241127E+02  0.19791683646E+03  0.10100000352E+00 0.  1.
</event>
<event>
 5   0  0.1276705E-02  0.6016322E+03  0.7818609E-02  0.9902025E-01
       -1   -1    0    0    0  501  0.00000000000E+00  0.00000000000E+00  0.41988545162E+03  0.41988545165E+03  0.50400001928E-02 0.  1.
        1   -1    0    0  501    0  0.00000000000E+00  0.00000000000E+00 -0.21551196351E+03  0.21551196357E+03  0.50400001928E-02 0. -1.
    10030    2    1    2    0    0  0.00000000000E+00  0.00000000000E+00  0.20437348811E+03  0.63539741523E+03  0.60163224036E+03 0.  0.
        1    1    3    3  502    0  0.28246148441E+03  0.16444702284E+02  0.21007379037E+03  0.35240022110E+03  0.50400001928E-02 0.  1.
       -1    1    3    3    0  502 -0.28246148441E+03 -0.16444702284E+02 -0.57003022580E+01  0.28299719412E+03  0.50400001928E-02 0. -1.
</event>
<event>
 5   0  0.1250390E-02  0.5807028E+03  0.7818609E-02  0.9946271E-01
       -1   -1    0    0    0  501  0.00000000000E+00  0.00000000000E+00  0.99741781908E+02  0.99741782035E+02  0.50400001928E-02 0. -1.
        1   -1    0    0  501    0  0.00000000000E+00  0.00000000000E+00 -0.84522179494E+03  0.84522179495E+03  0.50400001928E-02 0.  1.
    10030    2    1    2    0    0  0.00000000000E+00  0.00000000000E+00 -0.74548001303E+03  0.94496357699E+03  0.58070277424E+03 0.  0.
        3    1    3    3  502    0 -0.18379283400E+03  0.92758307252E+02 -0.39565434174E+02  0.20964098640E+03  0.10100000352E+00 0. -1.
       -3    1    3    3    0  502  0.18379283400E+03 -0.92758307252E+02 -0.70591457885E+03  0.73532259059E+03  0.10100000352E+00 0.  1.
</event>
<event>
 5   0  0.2092587E-02  0.5994038E+03  0.7818609E-02  0.9906644E-01
        2   -1    0    0  501    0  0.00000000000E+00  0.00000000000E+00  0.59180086106E+03  0.59180086107E+03  0.25500000920E-02 0. -1.
       -2   -1    0    0    0  501  0.00000000000E+00  0.00000000000E+00 -0.15177608689E+03  0.15177608691E+03  0.25500000920E-02 0.  1.
    10030    2    1    2    0    0  0.00000000000E+00  0.00000000000E+00  0.44002477417E+03  0.74357694798E+03  0.59940376682E+03 0.  0.
        3    1    3    3  502    0 -0.11868682854E+03  0.26631668062E+03  0.13397599373E+03  0.32087492071E+03  0.10100000352E+00 0.  1.
       -3    1    3    3    0  502  0.11868682854E+03 -0.26631668062E+03  0.30604878044E+03  0.42270202727E+03  0.10100000352E+00 0. -1.
</event>
<event>
 5   0  0.2126207E-02  0.5983391E+03  0.7818609E-02  0.9908858E-01
       -2   -1    0    0    0  501  0.00000000000E+00  0.00000000000E+00  0.69565157179E+02  0.69565157226E+02  0.25500000920E-02 0.  1.
        2   -1    0    0  501    0  0.00000000000E+00  0.00000000000E+00 -0.12865985469E+04  0.12865985469E+04  0.25500000920E-02 0. -1.
    10030    2    1    2    0    0  0.00000000000E+00  0.00000000000E+00 -0.12170333897E+04  0.13561637041E+04  0.59833913518E+03 0.  0.
        5    1    3    3  502    0  0.28727989426E+03 -0.15013644979E+02 -0.79439002651E+03  0.84488623577E+03  0.46999998093E+01 0.  1.
       -5    1    3    3    0  502 -0.28727989426E+03  0.15013644979E+02 -0.42264336318E+03  0.51127746833E+03  0.46999998093E+01 0. -1.
</event>
<event>
 5   0  0.2126207E-02  0.6002518E+03  0.7818609E-02  0.9904884E-01
       -2   -1    0    0    0  501  0.00000000000E+00  0.00000000000E+00  0.62842023512E+02  0.62842023564E+02  0.25500000920E-02 0.  1.
        2   -1    0    0  501    0  0.00000000000E+00  0.00000000000E+00 -0.14333651337E+04  0.14333651337E+04  0.25500000920E-02 0. -1.
    10030    2    1    2    0    0  0.00000000000E+00  0.00000000000E+00 -0.13705231102E+04  0.14962071573E+04  0.60025183206E+03 0.  0.
        5    1    3    3  502    0  0.32690281520E+02  0.18953316341E+03 -0.11107893183E+03  0.22215331110E+03  0.46999998093E+01 0.  1.
       -5    1    3    3    0  502 -0.32690281520E+02 -0.18953316341E+03 -0.12594441783E+04  0.12740538462E+04  0.46999998093E+01 0. -1.
</event>
<event>
 5   0  0.1303808E-02  0.6009915E+03  0.7818609E-02  0.9903351E-01
       -1   -1    0    0    0  501  0.00000000000E+00  0.00000000000E+00  0.46021990469E+03  0.46021990472E+03  0.50400001928E-02 0.  1.
        1   -1    0    0  501    0  0.00000000000E+00  0.00000000000E+00 -0.19620555997E+03  0.19620556003E+03  0.50400001928E-02 0. -1.
    10030    2    1    2    0    0  0.00000000000E+00  0.00000000000E+00  0.26401434472E+03  0.65642546475E+03  0.60099152786E+03 0.  0.
        4    1    3    3  502    0 -0.28097363375E+03 -0.71580217917E+02  0.21819142775E+03  0.36287604289E+03  0.12699999809E+01 0. -1.
       -4    1    3    3    0  502  0.28097363375E+03  0.71580217917E+02  0.45822916970E+02  0.29354942186E+03  0.12699999809E+01 0.  1.
</event>
<event>
 5   0  0.1337051E-02  0.5997081E+03  0.7818609E-02  0.9906012E-01
       -1   -1    0    0    0  501  0.00000000000E+00  0.00000000000E+00  0.19338521688E+03  0.19338521695E+03  0.50400001928E-02 0. -1.
        1   -1    0    0  501    0  0.00000000000E+00  0.00000000000E+00 -0.46493969474E+03  0.46493969477E+03  0.50400001928E-02 0.  1.
    10030    2    1    2    0    0  0.00000000000E+00  0.00000000000E+00 -0.27155447786E+03  0.65832491172E+03  0.59970814147E+03 0.  0.
        5    1    3    3  502    0  0.22618202283E+03 -0.42748259821E+02 -0.34665991563E+03  0.41615010306E+03  0.46999998093E+01 0.  1.
       -5    1    3    3    0  502 -0.22618202283E+03  0.42748259821E+02  0.75105437771E+02  0.24217480866E+03  0.46999998093E+01 0. -1.
</event>
<event>
 5   0  0.1332555E-02  0.6005530E+03  0.7818609E-02  0.9904259E-01
       -1   -1    0    0    0  501  0.00000000000E+00  0.00000000000E+00  0.12683099060E+03  0.12683099070E+03  0.50400001928E-02 0.  1.
        1   -1    0    0  501    0  0.00000000000E+00  0.00000000000E+00 -0.71091442090E+03  0.71091442092E+03  0.50400001928E-02 0. -1.
    10030    2    1    2    0    0  0.00000000000E+00  0.00000000000E+00 -0.58408343031E+03  0.83774541162E+03  0.60055301276E+03 0.  0.
        2    1    3    3  502    0 -0.64474403180E+02 -0.12975045109E+03 -0.65892817841E+03  0.67466915783E+03  0.25500000920E-02 0. -1.
       -2    1    3    3    0  502  0.64474403180E+02  0.12975045109E+03  0.74844748102E+02  0.16307625379E+03  0.25500000920E-02 0.  1.
</event>
<event>
 5   0  0.1276705E-02  0.5980012E+03  0.7818609E-02  0.9909562E-01
       -1   -1    0    0    0  501  0.00000000000E+00  0.00000000000E+00  0.81208157362E+02  0.81208157519E+02  0.50400001928E-02 0.  1.
        1   -1    0    0  501    0  0.00000000000E+00  0.00000000000E+00 -0.11008912867E+04  0.11008912867E+04  0.50400001928E-02 0. -1.
    10030    2    1    2    0    0  0.00000000000E+00  0.00000000000E+00 -0.10196831293E+04  0.11820994442E+04  0.59800118042E+03 0.  0.
        1    1    3    3  502    0 -0.37371768406E+02 -0.10346779362E+02  0.76216435775E+02  0.85514034079E+02  0.50400001928E-02 0.  1.
       -1    1    3    3    0  502  0.37371768406E+02  0.10346779362E+02 -0.10958995651E+04  0.10965854101E+04  0.50400001928E-02 0. -1.
</event>
<event>
 5   0  0.8551000E-03  0.5994119E+03  0.7818609E-02  0.9906627E-01
        3   -1    0    0  501    0  0.00000000000E+00  0.00000000000E+00  0.11653466032E+04  0.11653466076E+04  0.10100000352E+00 0. -1.
       -3   -1    0    0    0  501  0.00000000000E+00  0.00000000000E+00 -0.77078876393E+02  0.77078942566E+02  0.10100000352E+00 0.  1.
    10030    2    1    2    0    0  0.00000000000E+00  0.00000000000E+00  0.10882677268E+04  0.12424255502E+04  0.59941188047E+03 0.  0.
        1    1    3    3  502    0  0.15143326905E+02  0.89841393590E+02  0.11359471563E+04  0.11395949887E+04  0.50400001928E-02 0. -1.
       -1    1    3    3    0  502 -0.15143326905E+02 -0.89841393590E+02 -0.47679429464E+02  0.10283056147E+03  0.50400001928E-02 0.  1.
</event>
<event>
 5   0  0.1303808E-02  0.5966895E+03  0.7818609E-02  0.9912298E-01
        1   -1    0    0  501    0  0.00000000000E+00  0.00000000000E+00  0.11207226958E+04  0.11207226959E+04  0.50400001928E-02 0. -1.
       -1   -1    0    0    0  501  0.00000000000E+00  0.00000000000E+00 -0.79421606686E+02  0.79421606846E+02  0.50400001928E-02 0.  1.
    10030    2    1    2    0    0  0.00000000000E+00  0.00000000000E+00  0.10413010892E+04  0.12001443027E+04  0.59668952482E+03 0.  0.
        4    1    3    3  502    0  0.29426278979E+03 -0.34730824665E+02  0.45065237883E+03  0.53933848285E+03  0.12699999809E+01 0.  1.
       -4    1    3    3    0  502 -0.29426278979E+03  0.34730824665E+02  0.59064871034E+03  0.66080581986E+03  0.12699999809E+01 0. -1.
</event>
<event>
 5   0  0.2092587E-02  0.5991582E+03  0.7818609E-02  0.9907154E-01
        2   -1    0    0  501    0  0.00000000000E+00  0.00000000000E+00  0.30729042671E+03  0.30729042672E+03  0.25500000920E-02 0. -1.
       -2   -1    0    0    0  501  0.00000000000E+00  0.00000000000E+00 -0.29206124386E+03  0.29206124388E+03  0.25500000920E-02 0.  1.
    10030    2    1    2    0    0  0.00000000000E+00  0.00000000000E+00  0.15229182848E+02  0.59935167060E+03  0.59915815695E+03 0.  0.
        3    1    3    3  502    0  0.45169151808E+02 -0.26343615187E+03  0.14296814385E+03  0.30311509158E+03  0.10100000352E+00 0. -1.
       -3    1    3    3    0  502 -0.45169151808E+02  0.26343615187E+03 -0.12773896100E+03  0.29623657902E+03  0.10100000352E+00 0.  1.
</event>
<event>
 5   0  0.2126207E-02  0.6037754E+03  0.7818609E-02  0.9897604E-01
       -2   -1    0    0    0  501  0.00000000000E+00  0.00000000000E+00  0.18389528250E+03  0.18389528252E+03  0.25500000920E-02 0. -1.
        2   -1    0    0  501    0  0.00000000000E+00  0.00000000000E+00 -0.49558746412E+03  0.49558746413E+03  0.25500000920E-02 0.  1.
    10030    2    1    2    0    0  0.00000000000E+00  0.00000000000E+00 -0.31169218162E+03  0.67948274664E+03  0.60377544410E+03 0.  0.
        5    1    3    3  502    0  0.19331958230E+03 -0.39905897557E+02 -0.41284227069E+03  0.45763060652E+03  0.46999998093E+01 0.  1.
       -5    1    3    3    0  502 -0.19331958230E+03  0.39905897557E+02  0.10115008906E+03  0.22185214012E+03  0.46999998093E+01 0. -1.
</event>
<event>
 5   0  0.2126207E-02  0.6020364E+03  0.7818609E-02  0.9901190E-01
       -2   -1    0    0    0  501  0.00000000000E+00  0.00000000000E+00  0.65436059691E+02  0.65436059741E+02  0.25500000920E-02 0.  1.
        2   -1    0    0  501    0  0.00000000000E+00  0.00000000000E+00 -0.13847404260E+04  0.13847404260E+04  0.25500000920E-02 0. -1.
    10030    2    1    2    0    0  0.00000000000E+00  0.00000000000E+00 -0.13193043663E+04  0.14501764858E+04  0.60203640160E+03 0.  0.
        5    1    3    3  502    0 -0.10812897853E+03 -0.24247022900E+03 -0.31809542509E+03  0.41435549642E+03  0.46999998093E+01 0.  1.
       -5    1    3    3    0  502  0.10812897853E+03  0.24247022900E+03 -0.10012089412E+04  0.10358209894E+04  0.46999998093E+01 0. -1.
</event>
<event>
 5   0  0.1276705E-02  0.5983863E+03  0.7818609E-02  0.9908760E-01
        1   -1    0    0  501    0  0.00000000000E+00  0.00000000000E+00  0.29204098924E+03  0.29204098928E+03  0.50400001928E-02 0.  1.
       -1   -1    0    0    0  501  0.00000000000E+00  0.00000000000E+00 -0.30652050965E+03  0.30652050969E+03  0.50400001928E-02 0. -1.
    10030    2    1    2    0    0  0.00000000000E+00  0.00000000000E+00 -0.14479520413E+02  0.59856149897E+03  0.59838633970E+03 0.  0.
        1    1    3    3  502    0  0.26641718430E+02  0.14236344169E+03 -0.26911674215E+03  0.30561569270E+03  0.50400001928E-02 0. -1.
       -1    1    3    3    0  502 -0.26641718430E+02 -0.14236344169E+03  0.25463722174E+03  0.29294580627E+03  0.50400001928E-02 0.  1.
</event>
<event>
 5   0  0.2179625E-02  0.6026569E+03  0.7818609E-02  0.9899909E-01
       -2   -1    0    0    0  501  0.00000000000E+00  0.00000000000E+00  0.86819451222E+02  0.86819451259E+02  0.25500000920E-02 0.  1.
        2   -1    0    0  501    0  0.00000000000E+00  0.00000000000E+00 -0.10458352720E+04  0.10458352720E+04  0.25500000920E-02 0. -1.
    10030    2    1    2    0    0  0.00000000000E+00  0.00000000000E+00 -0.95901582075E+03  0.11326547232E+04  0.60265693194E+03 0.  0.
        1    1    3    3  502    0 -0.53012695960E+02 -0.17353014102E+03 -0.93165094507E+03  0.94915569811E+03  0.50400001928E-02 0. -1.
       -1    1    3    3    0  502  0.53012695960E+02  0.17353014102E+03 -0.27364875682E+02  0.18349902513E+03  0.50400001928E-02 0.  1.
</event>
<event>
 5   0  0.2179625E-02  0.5929214E+03  0.7818609E-02  0.9920202E-01
        2   -1    0    0  501    0  0.00000000000E+00  0.00000000000E+00  0.82718357973E+03  0.82718357973E+03  0.25500000920E-02 0. -1.
       -2   -1    0    0    0  501  0.00000000000E+00  0.00000000000E+00 -0.10625084491E+03  0.10625084494E+03  0.25500000920E-02 0.  1.
    10030    2    1    2    0    0  0.00000000000E+00  0.00000000000E+00  0.72093273482E+03  0.93343442467E+03  0.59292142568E+03 0.  0.
        1    1    3    3  502    0 -0.14391607589E+03 -0.12009603317E+03  0.72205487128E+03  0.74598802353E+03  0.50400001928E-02 0. -1.
       -1    1    3    3    0  502  0.14391607589E+03  0.12009603317E+03 -0.11221364642E+01  0.18744640114E+03  0.50400001928E-02 0.  1.
</event>
<event>
 5   0  0.1276705E-02  0.6005144E+03  0.7818609E-02  0.9904339E-01
        1   -1    0    0  501    0  0.00000000000E+00  0.00000000000E+00  0.23063803119E+03  0.23063803125E+03  0.50400001928E-02 0.  1.
       -1   -1    0    0    0  501  0.00000000000E+00  0.00000000000E+00 -0.39089119212E+03  0.39089119215E+03  0.50400001928E-02 0. -1.
    10030    2    1    2    0    0  0.00000000000E+00  0.00000000000E+00 -0.16025316093E+03  0.62152922340E+03  0.60051436282E+03 0.  0.
        1    1    3    3  502    0 -0.17087316163E+03 -0.11470362421E+03  0.14615607547E+03  0.25242059582E+03  0.50400001928E-02 0.  1.
       -1    1    3    3    0  502  0.17087316163E+03  0.11470362421E+03 -0.30640923640E+03  0.36910862758E+03  0.50400001928E-02 0. -1.
</event>
<event>
 5   0  0.2142838E-02  0.5951505E+03  0.7818609E-02  0.9915519E-01
        2   -1    0    0  501    0  0.00000000000E+00  0.00000000000E+00  0.24437516795E+03  0.24437516796E+03  0.25500000920E-02 0.  1.
       -2   -1    0    0    0  501  0.00000000000E+00  0.00000000000E+00 -0.36235687059E+03  0.36235687060E+03  0.25500000920E-02 0. -1.
    10030    2    1    2    0    0  0.00000000000E+00  0.00000000000E+00 -0.11798170264E+03  0.60673203856E+03  0.59515047211E+03 0.  0.
        4    1    3    3  502    0 -0.23967512766E+03 -0.17214773069E+03 -0.98082854464E+02  0.31096763053E+03  0.12699999809E+01 0. -1.
       -4    1    3    3    0  502  0.23967512766E+03  0.17214773069E+03 -0.19898848181E+02  0.29576440803E+03  0.12699999809E+01 0.  1.
</event>
<event>
 5   0  0.1332555E-02  0.6027914E+03  0.7818609E-02  0.9899632E-01
       -1   -1    0    0    0  501  0.00000000000E+00  0.00000000000E+00  0.77929770591E+03  0.77929770592E+03  0.50400001928E-02 0. -1.
        1   -1    0    0  501    0  0.00000000000E+00  0.00000000000E+00 -0.11656569153E+03  0.11656569164E+03  0.50400001928E-02 0.  1.
    10030    2    1    2    0    0  0.00000000000E+00  0.00000000000E+00  0.66273201437E+03  0.89586339756E+03  0.60279142680E+03 0.  0.
        2    1    3    3  502    0 -0.16023331721E+03 -0.25083160018E+03  0.26089846062E+03  0.39580198882E+03  0.25500000920E-02 0. -1.
       -2    1    3    3    0  502  0.16023331721E+03  0.25083160018E+03  0.40183355375E+03  0.50006140875E+03  0.25500000920E-02 0.  1.
</event>
<event>
 5   0  0.2141800E-02  0.5987116E+03  0.7818609E-02  0.9908083E-01
        2   -1    0    0  501    0  0.00000000000E+00  0.00000000000E+00  0.27189911124E+03  0.27189911125E+03  0.25500000920E-02 0.  1.
       -2   -1    0    0    0  501  0.00000000000E+00  0.00000000000E+00 -0.32958515074E+03  0.32958515075E+03  0.25500000920E-02 0. -1.
    10030    2    1    2    0    0  0.00000000000E+00  0.00000000000E+00 -0.57686039496E+02  0.60148426200E+03  0.59871164869E+03 0.  0.
        2    1    3    3  502    0  0.26855674647E+03  0.10601768811E+03  0.50589138188E+02  0.29312409859E+03  0.25500000920E-02 0.  1.
       -2    1    3    3    0  502 -0.26855674647E+03 -0.10601768811E+03 -0.10827517768E+03  0.30836016341E+03  0.25500000920E-02 0. -1.
</event>
<event>
 5   0  0.1276705E-02  0.5997303E+03  0.7818609E-02  0.9905966E-01
        1   -1    0    0  501    0  0.00000000000E+00  0.00000000000E+00  0.22384593765E+03  0.22384593771E+03  0.50400001928E-02 0.  1.
       -1   -1    0    0    0  501  0.00000000000E+00  0.00000000000E+00 -0.40170085951E+03  0.40170085954E+03  0.50400001928E-02 0. -1.
    10030    2    1    2    0    0  0.00000000000E+00  0.00000000000E+00 -0.17785492186E+03  0.62554679725E+03  0.59973029132E+03 0.  0.
        1    1    3    3  502    0 -0.61423361684E+01 -0.58121066883E+02 -0.39570263072E+03  0.39999544834E+03  0.50400001928E-02 0. -1.
       -1    1    3    3    0  502  0.61423361684E+01  0.58121066883E+02  0.21784770887E+03  0.22555134891E+03  0.50400001928E-02 0.  1.
</event>
<event>
 5   0  0.2141800E-02  0.5978538E+03  0.7818609E-02  0.9909869E-01
        2   -1    0    0  501    0  0.00000000000E+00  0.00000000000E+00  0.14645123742E+03  0.14645123745E+03  0.25500000920E-02 0. -1.
       -2   -1    0    0    0  501  0.00000000000E+00  0.00000000000E+00 -0.61015044034E+03  0.61015044034E+03  0.25500000920E-02 0.  1.
    10030    2    1    2    0    0  0.00000000000E+00  0.00000000000E+00 -0.46369920291E+03  0.75660167779E+03  0.59785378484E+03 0.  0.
        2    1    3    3  502    0  0.50955878060E+01 -0.29844544671E+03 -0.25231980547E+03  0.39084643265E+03  0.25500000920E-02 0.  1.
       -2    1    3    3    0  502 -0.50955878060E+01  0.29844544671E+03 -0.21137939745E+03  0.36575524514E+03  0.25500000920E-02 0. -1.
</event>
<event>
 5   0  0.2126207E-02  0.6013636E+03  0.7818609E-02  0.9902581E-01
       -2   -1    0    0    0  501  0.00000000000E+00  0.00000000000E+00  0.58954442746E+03  0.58954442746E+03  0.25500000920E-02 0. -1.
        2   -1    0    0  501    0  0.00000000000E+00  0.00000000000E+00 -0.15335491137E+03  0.15335491139E+03  0.25500000920E-02 0.  1.
    10030    2    1    2    0    0  0.00000000000E+00  0.00000000000E+00  0.43618951609E+03  0.74289933885E+03  0.60136356202E+03 0.  0.
        5    1    3    3  502    0 -0.51403511853E+02 -0.28763976102E+03  0.30552189970E+03  0.42278206484E+03  0.46999998093E+01 0.  1.
       -5    1    3    3    0  502  0.51403511853E+02  0.28763976102E+03  0.13066761638E+03  0.32011727401E+03  0.46999998093E+01 0. -1.
</event>
<event>
 5   0  0.2126207E-02  0.5981652E+03  0.7818609E-02  0.9909220E-01
       -2   -1    0    0    0  501  0.00000000000E+00  0.00000000000E+00  0.35227228564E+03  0.35227228565E+03  0.25500000920E-02 0. -1.
        2   -1    0    0  501    0  0.00000000000E+00  0.00000000000E+00 -0.25392403616E+03  0.25392403617E+03  0.25500000920E-02 0.  1.
    10030    2    1    2    0    0  0.00000000000E+00  0.00000000000E+00  0.98348249479E+02  0.60619632182E+03  0.59816519659E+03 0.  0.
        5    1    3    3  502    0  0.49295049404E+02  0.18570215823E+02 -0.24914775025E+03  0.25469893259E+03  0.46999998093E+01 0.  1.
       -5    1    3    3    0  502 -0.49295049404E+02 -0.18570215823E+02  0.34749599972E+03  0.35149738923E+03  0.46999998093E+01 0. -1.
</event>
<event>
 5   0  0.2126207E-02  0.5967896E+03  0.7818609E-02  0.9912089E-01
        2   -1    0    0  501    0  0.00000000000E+00  0.00000000000E+00  0.94505144588E+03  0.94505144588E+03  0.25500000920E-02 0. -1.
       -2   -1    0    0    0  501  0.00000000000E+00  0.00000000000E+00 -0.94216532726E+02  0.94216532760E+02  0.25500000920E-02 0.  1.
    10030    2    1    2    0    0  0.00000000000E+00  0.00000000000E+00  0.85083491315E+03  0.10392679786E+04  0.59678964635E+03 0.  0.
        5    1    3    3  502    0 -0.14514183998E+03 -0.12888413185E+03  0.81999707858E+03  0.84267109363E+03  0.46999998093E+01 0. -1.
       -5    1    3    3    0  502  0.14514183998E+03  0.12888413185E+03  0.30837834569E+02  0.19659688501E+03  0.46999998093E+01 0.  1.
</event>
<event>
 5   0  0.1276705E-02  0.6012868E+03  0.7818609E-02  0.9902740E-01
        1   -1    0    0  501    0  0.00000000000E+00  0.00000000000E+00  0.59208714923E+03  0.59208714925E+03  0.50400001928E-02 0. -1.
       -1   -1    0    0    0  501  0.00000000000E+00  0.00000000000E+00 -0.15265732487E+03  0.15265732495E+03  0.50400001928E-02 0.  1.
    10030    2    1    2    0    0  0.00000000000E+00  0.00000000000E+00  0.43942982436E+03  0.74474447421E+03  0.60128675465E+03 0.  0.
        1    1    3    3  502    0  0.13579755472E+03  0.16968828150E+03 -0.37575056361E+02  0.22056058948E+03  0.50400001928E-02 0.  1.
       -1    1    3    3    0  502 -0.13579755472E+03 -0.16968828150E+03  0.47700488072E+03  0.52418388473E+03  0.50400001928E-02 0. -1.
</event>
<event>
 5   0  0.8551000E-03  0.5983235E+03  0.7818609E-02  0.9908890E-01
        3   -1    0    0  501    0  0.00000000000E+00  0.00000000000E+00  0.15711877867E+03  0.15711881113E+03  0.10100000352E+00 0. -1.
       -3   -1    0    0    0  501  0.00000000000E+00  0.00000000000E+00 -0.56961828268E+03  0.56961829163E+03  0.10100000352E+00 0.  1.
    10030    2    1    2    0    0  0.00000000000E+00  0.00000000000E+00 -0.41249950401E+03  0.72673710277E+03  0.59832347082E+03 0.  0.
        5    1    3    3  502    0 -0.12747037546E+03  0.11223253606E+03 -0.50533018263E+03  0.53312805427E+03  0.46999998093E+01 0.  1.
       -5    1    3    3    0  502  0.12747037546E+03 -0.11223253606E+03  0.92830678620E+02  0.19360904850E+03  0.46999998093E+01 0. -1.
</event>
<event>
 5   0  0.1276705E-02  0.6006290E+03  0.7818609E-02  0.9904102E-01
       -1   -1    0    0    0  501  0.00000000000E+00  0.00000000000E+00  0.27115356610E+03  0.27115356615E+03  0.50400001928E-02 0. -1.
        1   -1    0    0  501    0  0.00000000000E+00  0.00000000000E+00 -0.33261155408E+03  0.33261155412E+03  0.50400001928E-02 0.  1.
    10030    2    1    2    0    0  0.00000000000E+00  0.00000000000E+00 -0.61457987980E+02  0.60376512027E+03  0.60062903373E+03 0.  0.
        1    1    3    3  502    0  0.18271152534E+03  0.14489338995E+03 -0.22095558042E+03  0.32124595638E+03  0.50400001928E-02 0.  1.
       -1    1    3    3    0  502 -0.18271152534E+03 -0.14489338995E+03  0.15949759244E+03  0.28251916389E+03  0.50400001928E-02 0. -1.
</event>
<event>
 5   0  0.1250390E-02  0.6125783E+03  0.7818609E-02  0.9879648E-01
        1   -1    0    0  501    0  0.00000000000E+00  0.00000000000E+00  0.86199670430E+03  0.86199670431E+03  0.50400001928E-02 0. -1.
       -1   -1    0    0    0  501  0.00000000000E+00  0.00000000000E+00 -0.10883226820E+03  0.10883226832E+03  0.50400001928E-02 0.  1.
    10030    2    1    2    0    0  0.00000000000E+00  0.00000000000E+00  0.75316443609E+03  0.97082897263E+03  0.61257834299E+03 0.  0.
        3    1    3    3  502    0  0.71094497958E+02 -0.29738299323E+03  0.34814470967E+03  0.46335280443E+03  0.10100000352E+00 0. -1.
       -3    1    3    3    0  502 -0.71094497958E+02  0.29738299323E+03  0.40501972642E+03  0.50747616820E+03  0.10100000352E+00 0.  1.
</event>
<event>
 5   0  0.2179625E-02  0.5993562E+03  0.7818609E-02  0.9906743E-01
       -2   -1    0    0    0  501  0.00000000000E+00  0.00000000000E+00  0.20733712879E+03  0.20733712880E+03  0.25500000920E-02 0. -1.
        2   -1    0    0  501    0  0.00000000000E+00  0.00000000000E+00 -0.43314464152E+03  0.43314464153E+03  0.25500000920E-02 0.  1.
    10030    2    1    2    0    0  0.00000000000E+00  0.00000000000E+00 -0.22580751273E+03  0.64048177033E+03  0.59935620904E+03 0.  0.
        1    1    3    3  502    0  0.20502478040E+03  0.18430033650E+03 -0.23846135042E+03  0.36450732541E+03  0.50400001928E-02 0. -1.
       -1    1    3    3    0  502 -0.20502478040E+03 -0.18430033650E+03  0.12653837683E+02  0.27597444491E+03  0.50400001928E-02 0.  1.
</event>
<event>
 5   0  0.1250390E-02  0.6007471E+03  0.7818609E-02  0.9903857E-01
       -1   -1    0    0    0  501  0.00000000000E+00  0.00000000000E+00  0.58494437598E+02  0.58494437816E+02  0.50400001928E-02 0. -1.
        1   -1    0    0  501    0  0.00000000000E+00  0.00000000000E+00 -0.15424419385E+04  0.15424419385E+04  0.50400001928E-02 0.  1.
    10030    2    1    2    0    0  0.00000000000E+00  0.00000000000E+00 -0.14839475009E+04  0.16009363763E+04  0.60074711451E+03 0.  0.
        3    1    3    3  502    0  0.29963643050E+03 -0.15369961671E+02 -0.70372163078E+03  0.76501135288E+03  0.10100000352E+00 0. -1.
       -3    1    3    3    0  502 -0.29963643050E+03  0.15369961671E+02 -0.78022587007E+03  0.83592502340E+03  0.10100000352E+00 0.  1.
</event>
<event>
 5   0  0.2179625E-02  0.5960758E+03  0.7818609E-02  0.9913581E-01
        2   -1    0    0  501    0  0.00000000000E+00  0.00000000000E+00  0.38698517170E+03  0.38698517171E+03  0.25500000920E-02 0.  1.
       -2   -1    0    0    0  501  0.00000000000E+00  0.00000000000E+00 -0.22953486300E+03  0.22953486302E+03  0.25500000920E-02 0. -1.
    10030    2    1    2    0    0  0.00000000000E+00  0.00000000000E+00  0.15745030870E+03  0.61652003473E+03  0.59607579511E+03 0.  0.
        1    1    3    3  502    0 -0.93360649305E+02 -0.21943133444E+03 -0.10618080433E+03  0.26103770725E+03  0.50400001928E-02 0. -1.
       -1    1    3    3    0  502  0.93360649305E+02  0.21943133444E+03  0.26363111303E+03  0.35548232748E+03  0.50400001928E-02 0.  1.
</event>
<event>
 5   0  0.2092587E-02  0.5939640E+03  0.7818609E-02  0.9918008E-01
        2   -1    0    0  501    0  0.00000000000E+00  0.00000000000E+00  0.87203905164E+03  0.87203905164E+03  0.25500000920E-02 0.  1.
       -2   -1    0    0    0  501  0.00000000000E+00  0.00000000000E+00 -0.10114033350E+03  0.10114033353E+03  0.25500000920E-02 0. -1.
    10030    2    1    2    0    0  0.00000000000E+00  0.00000000000E+00  0.77089871814E+03  0.97317938517E+03  0.59396404107E+03 0.  0.
        3    1    3    3  502    0  0.11703237457E+02 -0.34950936217E+02 -0.97378250208E+02  0.10412044719E+03  0.10100000352E+00 0. -1.
       -3    1    3    3    0  502 -0.11703237457E+02  0.34950936217E+02  0.86827696835E+03  0.86905893798E+03  0.10100000352E+00 0.  1.
</event>
<event>
 5   0  0.2141800E-02  0.5992601E+03  0.7818609E-02  0.9906942E-01
       -2   -1    0    0    0  501  0.00000000000E+00  0.00000000000E+00  0.13255901104E+03  0.13255901107E+03  0.25500000920E-02 0.  1.
        2   -1    0    0  501    0  0.00000000000E+00  0.00000000000E+00 -0.67726932849E+03  0.67726932849E+03  0.25500000920E-02 0. -1.
    10030    2    1    2    0    0  0.00000000000E+00  0.00000000000E+00 -0.54471031744E+03  0.80982833956E+03  0.59926005175E+03 0.  0.
        2    1    3    3  502    0 -0.66243738805E+02 -0.27675548201E+03 -0.39909939493E+03  0.49016543819E+03  0.25500000920E-02 0. -1.
       -2    1    3    3    0  502  0.66243738805E+02  0.27675548201E+03 -0.14561092251E+03  0.31966290138E+03  0.25500000920E-02 0.  1.
</event>
<event>
 5   0  0.1332555E-02  0.6221863E+03  0.7818609E-02  0.9860416E-01
       -1   -1    0    0    0  501  0.00000000000E+00  0.00000000000E+00  0.27470241711E+03  0.27470241716E+03  0.50400001928E-02 0. -1.
        1   -1    0    0  501    0  0.00000000000E+00  0.00000000000E+00 -0.35230464511E+03  0.35230464515E+03  0.50400001928E-02 0.  1.
    10030    2    1    2    0    0  0.00000000000E+00  0.00000000000E+00 -0.77602228002E+02  0.62700706230E+03  0.62218626663E+03 0.  0.
        2    1    3    3  502    0  0.26023822907E+03 -0.10417715076E+03 -0.17476170192E+03  0.33033084487E+03  0.25500000920E-02 0.  1.
       -2    1    3    3    0  502 -0.26023822907E+03  0.10417715076E+03  0.97159473916E+02  0.29667621743E+03  0.25500000920E-02 0. -1.
</event>
<event>
 5   0  0.2126207E-02  0.5786397E+03  0.7818609E-02  0.9950740E-01
        2   -1    0    0  501    0  0.00000000000E+00  0.00000000000E+00  0.17261506551E+04  0.17261506551E+04  0.25500000920E-02 0.  1.
       -2   -1    0    0    0  501  0.00000000000E+00  0.00000000000E+00 -0.48492851540E+02  0.48492851607E+02  0.25500000920E-02 0. -1.
    10030    2    1    2    0    0  0.00000000000E+00  0.00000000000E+00  0.16776578035E+04  0.17746435067E+04  0.57863967203E+03 0.  0.
        5    1    3    3  502    0 -0.17379907237E+03  0.23122396990E+03  0.82767115681E+03  0.87677378817E+03  0.46999998093E+01 0. -1.
       -5    1    3    3    0  502  0.17379907237E+03 -0.23122396990E+03  0.84998664670E+03  0.89786971849E+03  0.46999998093E+01 0.  1.
</event>
<event>
 5   0  0.1337051E-02  0.5996748E+03  0.7818609E-02  0.9906081E-01
        1   -1    0    0  501    0  0.00000000000E+00  0.00000000000E+00  0.97792486729E+03  0.97792486730E+03  0.50400001928E-02 0. -1.
       -1   -1    0    0    0  501  0.00000000000E+00  0.00000000000E+00 -0.91931863278E+02  0.91931863416E+02  0.50400001928E-02 0.  1.
    10030    2    1    2    0    0  0.00000000000E+00  0.00000000000E+00  0.88599300401E+03  0.10698567307E+04  0.59967476277E+03 0.  0.
        5    1    3    3  502    0 -0.27081035147E+03 -0.88733853501E+02  0.60910041963E+03  0.67248595109E+03  0.46999998093E+01 0. -1.
       -5    1    3    3    0  502  0.27081035147E+03  0.88733853501E+02  0.27689258438E+03  0.39737077963E+03  0.46999998093E+01 0.  1.
</event>
<event>
 5   0  0.2126207E-02  0.6002172E+03  0.7818609E-02  0.9904955E-01
        2   -1    0    0  501    0  0.00000000000E+00  0.00000000000E+00  0.56293430207E+03  0.56293430208E+03  0.25500000920E-02 0.  1.
       -2   -1    0    0    0  501  0.00000000000E+00  0.00000000000E+00 -0.15999235757E+03  0.15999235759E+03  0.25500000920E-02 0. -1.
    10030    2    1    2    0    0  0.00000000000E+00  0.00000000000E+00  0.40294194450E+03  0.72292665967E+03  0.60021724785E+03 0.  0.
        5    1    3    3  502    0 -0.12012216425E+03  0.20520320839E+03 -0.18995831545E+02  0.23858043233E+03  0.46999998093E+01 0. -1.
       -5    1    3    3    0  502  0.12012216425E+03 -0.20520320839E+03  0.42193777605E+03  0.48434622734E+03  0.46999998093E+01 0.  1.
</event>
<event>
 5   0  0.2179625E-02  0.6007816E+03  0.7818609E-02  0.9903786E-01
        2   -1    0    0  501    0  0.00000000000E+00  0.00000000000E+00  0.73775182427E+03  0.73775182427E+03  0.25500000920E-02 0.  1.
       -2   -1    0    0    0  501  0.00000000000E+00  0.00000000000E+00 -0.12231028070E+03  0.12231028073E+03  0.25500000920E-02 0. -1.
    10030    2    1    2    0    0  0.00000000000E+00  0.00000000000E+00  0.61544154356E+03  0.86006210501E+03  0.60078160002E+03 0.  0.
        1    1    3    3  502    0 -0.25674885907E+03  0.15174552197E+03  0.35909710852E+03  0.46679483014E+03  0.50400001928E-02 0.  1.
       -1    1    3    3    0  502  0.25674885907E+03 -0.15174552197E+03  0.25634443504E+03  0.39326727486E+03  0.50400001928E-02 0. -1.
</event>
<event>
 5   0  0.2142838E-02  0.5992351E+03  0.7818609E-02  0.9906994E-01
        2   -1    0    0  501    0  0.00000000000E+00  0.00000000000E+00  0.51349676249E+03  0.51349676250E+03  0.25500000920E-02 0. -1.
       -2   -1    0    0    0  501  0.00000000000E+00  0.00000000000E+00 -0.17482230765E+03  0.17482230767E+03  0.25500000920E-02 0.  1.
    10030    2    1    2    0    0  0.00000000000E+00  0.00000000000E+00  0.33867445484E+03  0.68831907017E+03  0.59923514249E+03 0.  0.
        4    1    3    3  502    0 -0.22750608408E+03 -0.68442836443E+02  0.37902917338E+03  0.44733451390E+03  0.12699999809E+01 0. -1.
       -4    1    3    3    0  502  0.22750608408E+03  0.68442836443E+02 -0.40354718534E+02  0.24098455627E+03  0.12699999809E+01 0.  1.
</event>
<event>
 5   0  0.1332555E-02  0.6014316E+03  0.7818609E-02  0.9902440E-01
        1   -1    0    0  501    0  0.00000000000E+00  0.00000000000E+00  0.69586036031E+03  0.69586036033E+03  0.50400001928E-02 0. -1.
       -1   -1    0    0    0  501  0.00000000000E+00  0.00000000000E+00 -0.12995421211E+03  0.12995421221E+03  0.50400001928E-02 0.  1.
    10030    2    1    2    0    0  0.00000000000E+00  0.00000000000E+00  0.56590614819E+03  0.82581457254E+03  0.60143157520E+03 0.  0.
        2    1    3    3  502    0  0.57788849233E+02  0.13735795507E+03 -0.75689995681E+02  0.16713986469E+03  0.25500000920E-02 0.  1.
       -2    1    3    3    0  502 -0.57788849233E+02 -0.13735795507E+03  0.64159614387E+03  0.65867470785E+03  0.25500000920E-02 0. -1.
</event>
<event>
 5   0  0.1332555E-02  0.5996863E+03  0.7818609E-02  0.9906057E-01
       -1   -1    0    0    0  501  0.00000000000E+00  0.00000000000E+00  0.65884843904E+02  0.65884844097E+02  0.50400001928E-02 0. -1.
        1   -1    0    0  501    0  0.00000000000E+00  0.00000000000E+00 -0.13645915612E+04  0.13645915612E+04  0.50400001928E-02 0.  1.
    10030    2    1    2    0    0  0.00000000000E+00  0.00000000000E+00 -0.12987067173E+04  0.14304764053E+04  0.59968625846E+03 0.  0.
        2    1    3    3  502    0  0.25264833332E+02  0.26938067284E+03 -0.95762686726E+03  0.99511480524E+03  0.25500000920E-02 0.  1.
       -2    1    3    3    0  502 -0.25264833332E+02 -0.26938067284E+03 -0.34107985002E+03  0.43536160005E+03  0.25500000920E-02 0. -1.
</event>
<event>
 5   0  0.2126207E-02  0.6030617E+03  0.7818609E-02  0.9899074E-01
       -2   -1    0    0    0  501  0.00000000000E+00  0.00000000000E+00  0.63676343712E+03  0.63676343713E+03  0.25500000920E-02 0.  1.
        2   -1    0    0  501    0  0.00000000000E+00  0.00000000000E+00 -0.14278589719E+03  0.14278589721E+03  0.25500000920E-02 0. -1.
    10030    2    1    2    0    0  0.00000000000E+00  0.00000000000E+00  0.49397753993E+03  0.77954933434E+03  0.60306165084E+03 0.  0.
        5    1    3    3  502    0  0.22693328526E+03  0.26133039441E+02  0.50133967419E+03  0.55094937211E+03  0.46999998093E+01 0.  1.
       -5    1    3    3    0  502 -0.22693328526E+03 -0.26133039441E+02 -0.73621342644E+01  0.22859996223E+03  0.46999998093E+01 0. -1.
</event>
<event>
 5   0  0.2092587E-02  0.6015134E+03  0.7818609E-02  0.9902271E-01
       -2   -1    0    0    0  501  0.00000000000E+00  0.00000000000E+00  0.10069232265E+04  0.10069232265E+04  0.25500000920E-02 0. -1.
        2   -1    0    0  501    0  0.00000000000E+00  0.00000000000E+00 -0.89832653230E+02  0.89832653267E+02  0.25500000920E-02 0.  1.
    10030    2    1    2    0    0  0.00000000000E+00  0.00000000000E+00  0.91709057330E+03  0.10967558798E+04  0.60151337495E+03 0.  0.
        3    1    3    3  502    0  0.91388677127E+02  0.27962905959E+03  0.34452864232E+03  0.45303895733E+03  0.10100000352E+00 0.  1.
       -3    1    3    3    0  502 -0.91388677127E+02 -0.27962905959E+03  0.57256193098E+03  0.64371692248E+03  0.10100000352E+00 0. -1.
</event>
<event>
 5   0  0.1332555E-02  0.6032461E+03  0.7818609E-02  0.9898694E-01
       -1   -1    0    0    0  501  0.00000000000E+00  0.00000000000E+00  0.23082916859E+03  0.23082916864E+03  0.50400001928E-02 0. -1.
        1   -1    0    0  501    0  0.00000000000E+00  0.00000000000E+00 -0.39412904239E+03  0.39412904243E+03  0.50400001928E-02 0.  1.
    10030    2    1    2    0    0  0.00000000000E+00  0.00000000000E+00 -0.16329987381E+03  0.62495821107E+03  0.60324614943E+03 0.  0.
        2    1    3    3  502    0 -0.20273832778E+03 -0.20084897677E+03  0.19503098455E+02  0.28604809364E+03  0.25500000920E-02 0. -1.
       -2    1    3    3    0  502  0.20273832778E+03  0.20084897677E+03 -0.18280297226E+03  0.33891011743E+03  0.25500000920E-02 0.  1.
</event>
<event>
 5   0  0.2142838E-02  0.6006799E+03  0.7818609E-02  0.9903997E-01
       -2   -1    0    0    0  501  0.00000000000E+00  0.00000000000E+00  0.17589881043E+03  0.17589881045E+03  0.25500000920E-02 0.  1.
        2   -1    0    0  501    0  0.00000000000E+00  0.00000000000E+00 -0.51281800223E+03  0.51281800224E+03  0.25500000920E-02 0. -1.
    10030    2    1    2    0    0  0.00000000000E+00  0.00000000000E+00 -0.33691919180E+03  0.68871681269E+03  0.60067987004E+03 0.  0.
        4    1    3    3  502    0  0.80600877393E+02  0.16872969047E+03  0.10100996519E+03  0.21253431687E+03  0.12699999809E+01 0.  1.
       -4    1    3    3    0  502 -0.80600877393E+02 -0.16872969047E+03 -0.43792915699E+03  0.47618249581E+03  0.12699999809E+01 0. -1.
</event>
<event>
 5   0  0.1332555E-02  0.6027538E+03  0.7818609E-02  0.9899709E-01
        1   -1    0    0  501    0  0.00000000000E+00  0.00000000000E+00  0.23536055354E+03  0.23536055359E+03  0.50400001928E-02 0.  1.
       -1   -1    0    0    0  501  0.00000000000E+00  0.00000000000E+00 -0.38591016059E+03  0.38591016062E+03  0.50400001928E-02 0. -1.
    10030    2    1    2    0    0  0.00000000000E+00  0.00000000000E+00 -0.15054960705E+03  0.62127071422E+03  0.60275377739E+03 0.  0.
        2    1    3    3  502    0 -0.20414945906E+03  0.71288401625E+02 -0.29165001026E+03  0.36306854220E+03  0.25500000920E-02 0. -1.
       -2    1    3    3    0  502  0.20414945906E+03 -0.71288401625E+02  0.14110040321E+03  0.25820217202E+03  0.25500000920E-02 0.  1.
</event>
<event>
 5   0  0.8551000E-03  0.5998936E+03  0.7818609E-02  0.9905627E-01
        3   -1    0    0  501    0  0.00000000000E+00  0.00000000000E+00  0.32146937481E+03  0.32146939067E+03  0.10100000352E+00 0. -1.
       -3   -1    0    0    0  501  0.00000000000E+00  0.00000000000E+00 -0.27986514849E+03  0.27986516671E+03  0.10100000352E+00 0.  1.
    10030    2    1    2    0    0  0.00000000000E+00  0.00000000000E+00  0.41604226320E+02  0.60133455738E+03  0.59989360578E+03 0.  0.
        3    1    3    3  502    0 -0.12039458187E+03  0.53798326832E+02  0.29085405049E+03  0.31935122390E+03  0.10100000352E+00 0. -1.
       -3    1    3    3    0  502  0.12039458187E+03 -0.53798326832E+02 -0.24924982417E+03  0.28198333349E+03  0.10100000352E+00 0.  1.
</event>
<event>
 5   0  0.1250390E-02  0.5996273E+03  0.7818609E-02  0.9906180E-01
        1   -1    0    0  501    0  0.00000000000E+00  0.00000000000E+00  0.33305374299E+03  0.33305374303E+03  0.50400001928E-02 0.  1.
       -1   -1    0    0    0  501  0.00000000000E+00  0.00000000000E+00 -0.26989107722E+03  0.26989107727E+03  0.50400001928E-02 0. -1.
    10030    2    1    2    0    0  0.00000000000E+00  0.00000000000E+00  0.63162665766E+02  0.60294482030E+03  0.59962732924E+03 0.  0.
        3    1    3    3  502    0  0.34273092851E+02 -0.20864313264E+03 -0.18215436184E+03  0.27908210876E+03  0.10100000352E+00 0. -1.
       -3    1    3    3    0  502 -0.34273092851E+02  0.20864313264E+03  0.24531702760E+03  0.32386271154E+03  0.10100000352E+00 0.  1.
</event>
<event>
 5   0  0.2179625E-02  0.5988870E+03  0.7818609E-02  0.9907718E-01
        2   -1    0    0  501    0  0.00000000000E+00  0.00000000000E+00  0.76405221019E+03  0.76405221020E+03  0.25500000920E-02 0. -1.
       -2   -1    0    0    0  501  0.00000000000E+00  0.00000000000E+00 -0.11735638909E+03  0.11735638912E+03  0.25500000920E-02 0.  1.
    10030    2    1    2    0    0  0.00000000000E+00  0.00000000000E+00  0.64669582110E+03  0.88140859932E+03  0.59888699596E+03 0.  0.
        1    1    3    3  502    0 -0.12870153391E+03 -0.17896510178E+03  0.25074234456E+02  0.22185876080E+03  0.50400001928E-02 0.  1.
       -1    1    3    3    0  502  0.12870153391E+03  0.17896510178E+03  0.62162158664E+03  0.65954983852E+03  0.50400001928E-02 0. -1.
</event>
<event>
 5   0  0.1332555E-02  0.5959175E+03  0.7818609E-02  0.9913912E-01
       -1   -1    0    0    0  501  0.00000000000E+00  0.00000000000E+00  0.19425754464E+03  0.19425754470E+03  0.50400001928E-02 0.  1.
        1   -1    0    0  501    0  0.00000000000E+00  0.00000000000E+00 -0.45701921988E+03  0.45701921991E+03  0.50400001928E-02 0. -1.
    10030    2    1    2    0    0  0.00000000000E+00  0.00000000000E+00 -0.26276167525E+03  0.65127676461E+03  0.59591754979E+03 0.  0.
        2    1    3    3  502    0  0.14567434458E+02 -0.29489844512E+03 -0.87635872458E+02  0.30798920310E+03  0.25500000920E-02 0. -1.
       -2    1    3    3    0  502 -0.14567434458E+02  0.29489844512E+03 -0.17512580279E+03  0.34328756151E+03  0.25500000920E-02 0.  1.
</event>
<event>
 5   0  0.2179625E-02  0.6059808E+03  0.7818609E-02  0.9893075E-01
        2   -1    0    0  501    0  0.00000000000E+00  0.00000000000E+00  0.18493976344E+04  0.18493976344E+04  0.25500000920E-02 0. -1.
       -2   -1    0    0    0  501  0.00000000000E+00  0.00000000000E+00 -0.49639512566E+02  0.49639512631E+02  0.25500000920E-02 0.  1.
    10030    2    1    2    0    0  0.00000000000E+00  0.00000000000E+00  0.17997581218E+04  0.18990371470E+04  0.60598084846E+03 0.  0.
        1    1    3    3  502    0 -0.18745900341E+03 -0.23588029609E+03  0.10001028933E+04  0.10445028431E+04  0.50400001928E-02 0. -1.
       -1    1    3    3    0  502  0.18745900341E+03  0.23588029609E+03  0.79965522855E+03  0.85453430395E+03  0.50400001928E-02 0.  1.
</event>
<event>
 5   0  0.8551000E-03  0.5978417E+03  0.7818609E-02  0.9909894E-01
        3   -1    0    0  501    0  0.00000000000E+00  0.00000000000E+00  0.66423894432E+03  0.66423895200E+03  0.10100000352E+00 0. -1.
       -3   -1    0    0    0  501  0.00000000000E+00  0.00000000000E+00 -0.13452037127E+03  0.13452040918E+03  0.10100000352E+00 0.  1.
    10030    2    1    2    0    0  0.00000000000E+00  0.00000000000E+00  0.52971857305E+03  0.79875936118E+03  0.59784174364E+03 0.  0.
        5    1    3    3  502    0 -0.16585991631E+03 -0.13003875850E+03  0.54800562954E+03  0.58715572939E+03  0.46999998093E+01 0. -1.
       -5    1    3    3    0  502  0.16585991631E+03  0.13003875850E+03 -0.18287056489E+02  0.21160363179E+03  0.46999998093E+01 0.  1.
</event>
<event>
 5   0  0.2092587E-02  0.5999804E+03  0.7818609E-02  0.9905447E-01
        2   -1    0    0  501    0  0.00000000000E+00  0.00000000000E+00  0.12443468633E+04  0.12443468633E+04  0.25500000920E-02 0.  1.
       -2   -1    0    0    0  501  0.00000000000E+00  0.00000000000E+00 -0.72322378431E+02  0.72322378476E+02  0.25500000920E-02 0. -1.
    10030    2    1    2    0    0  0.00000000000E+00  0.00000000000E+00  0.11720244848E+04  0.13166692417E+04  0.59998041560E+03 0.  0.
        3    1    3    3  502    0 -0.15350268776E+03  0.90873847736E+02  0.56714204964E+02  0.18718344638E+03  0.10100000352E+00 0. -1.
       -3    1    3    3    0  502  0.15350268776E+03 -0.90873847736E+02  0.11153102799E+04  0.11294857954E+04  0.10100000352E+00 0.  1.
</event>
<event>
 5   0  0.1276705E-02  0.5989323E+03  0.7818609E-02  0.9907624E-01
       -1   -1    0    0    0  501  0.00000000000E+00  0.00000000000E+00  0.39639928705E+03  0.39639928708E+03  0.50400001928E-02 0. -1.
        1   -1    0    0  501    0  0.00000000000E+00  0.00000000000E+00 -0.22623650113E+03  0.22623650119E+03  0.50400001928E-02 0.  1.
    10030    2    1    2    0    0  0.00000000000E+00  0.00000000000E+00  0.17016278592E+03  0.62263578826E+03  0.59893234269E+03 0.  0.
        1    1    3    3  502    0  0.28835849913E+03 -0.80773681286E+02  0.87400403861E+02  0.31195166650E+03  0.50400001928E-02 0. -1.
       -1    1    3    3    0  502 -0.28835849913E+03  0.80773681286E+02  0.82762382054E+02  0.31068412177E+03  0.50400001928E-02 0.  1.
</event>
<event>
 5   0  0.1276705E-02  0.5987083E+03  0.7818609E-02  0.9908090E-01
       -1   -1    0    0    0  501  0.00000000000E+00  0.00000000000E+00  0.20993065194E+03  0.20993065200E+03  0.50400001928E-02 0. -1.
        1   -1    0    0  501    0  0.00000000000E+00  0.00000000000E+00 -0.42686903000E+03  0.42686903003E+03  0.50400001928E-02 0.  1.
    10030    2    1    2    0    0  0.00000000000E+00  0.00000000000E+00 -0.21693837806E+03  0.63679968203E+03  0.59870825546E+03 0.  0.
        1    1    3    3  502    0  0.18506438258E+03 -0.17605299552E+03  0.57569809815E+02  0.26183537950E+03  0.50400001928E-02 0.  1.
       -1    1    3    3    0  502 -0.18506438258E+03  0.17605299552E+03 -0.27450818788E+03  0.37496430253E+03  0.50400001928E-02 0. -1.
</event>
<event>
 5   0  0.2179625E-02  0.5990267E+03  0.7818609E-02  0.9907427E-01
       -2   -1    0    0    0  501  0.00000000000E+00  0.00000000000E+00  0.96018509020E+02  0.96018509053E+02  0.25500000920E-02 0.  1.
        2   -1    0    0  501    0  0.00000000000E+00  0.00000000000E+00 -0.93428077560E+03  0.93428077560E+03  0.25500000920E-02 0. -1.
    10030    2    1    2    0    0  0.00000000000E+00  0.00000000000E+00 -0.83826226658E+03  0.10302992847E+04  0.59902670090E+03 0.  0.
        1    1    3    3  502    0 -0.18447925300E+03  0.49132216252E+02 -0.22191341019E+02  0.19219527856E+03  0.50400001928E-02 0.  1.
       -1    1    3    3    0  502  0.18447925300E+03 -0.49132216252E+02 -0.81607092556E+03  0.83810400609E+03  0.50400001928E-02 0. -1.
</event>
<event>
 5   0  0.8551000E-03  0.5998015E+03  0.7818609E-02  0.9905818E-01
       -4   -1    0    0    0  501  0.00000000000E+00  0.00000000000E+00  0.31658171807E+03  0.31658426543E+03  0.12699999809E+01 0. -1.
        4   -1    0    0  501    0  0.00000000000E+00  0.00000000000E+00 -0.28409361695E+03  0.28409645562E+03  0.12699999809E+01 0.  1.
    10030    2    1    2    0    0  0.00000000000E+00  0.00000000000E+00  0.32488101120E+02  0.60068072105E+03  0.59980151044E+03 0.  0.
        5    1    3    3  502    0 -0.25067601711E+03  0.88397727683E+02 -0.12276052282E+03  0.29282223238E+03  0.46999998093E+01 0.  1.
       -5    1    3    3    0  502  0.25067601711E+03 -0.88397727683E+02  0.15524862394E+03  0.30785848867E+03  0.46999998093E+01 0. -1.
</event>
<event>
 5   0  0.1276705E-02  0.6014753E+03  0.7818609E-02  0.9902350E-01
        1   -1    0    0  501    0  0.00000000000E+00  0.00000000000E+00  0.86157080804E+03  0.86157080806E+03  0.50400001928E-02 0.  1.
       -1   -1    0    0    0  501  0.00000000000E+00  0.00000000000E+00 -0.10497468495E+03  0.10497468507E+03  0.50400001928E-02 0. -1.
    10030    2    1    2    0    0  0.00000000000E+00  0.00000000000E+00  0.75659612309E+03  0.96654549313E+03  0.60147526700E+03 0.  0.
        1    1    3    3  502    0  0.55922688643E+02 -0.10322765574E+03 -0.66628616656E+02  0.13499136490E+03  0.50400001928E-02 0. -1.
       -1    1    3    3    0  502 -0.55922688643E+02  0.10322765574E+03  0.82322473975E+03  0.83155412823E+03  0.50400001928E-02 0.  1.
</event>
<event>
 5   0  0.2092587E-02  0.5971425E+03  0.7818609E-02  0.9911352E-01
       -2   -1    0    0    0  501  0.00000000000E+00  0.00000000000E+00  0.58744608459E+02  0.58744608514E+02  0.25500000920E-02 0. -1.
        2   -1    0    0  501    0  0.00000000000E+00  0.00000000000E+00 -0.15174973590E+04  0.15174973590E+04  0.25500000920E-02 0.  1.
    10030    2    1    2    0    0  0.00000000000E+00  0.00000000000E+00 -0.14587527505E+04  0.15762419675E+04  0.59714248964E+03 0.  0.
        3    1    3    3  502    0 -0.15734635379E+03  0.25285976636E+03 -0.78529950062E+03  0.83987573626E+03  0.10100000352E+00 0.  1.
       -3    1    3    3    0  502  0.15734635379E+03 -0.25285976636E+03 -0.67345324988E+03  0.73636623121E+03  0.10100000352E+00 0. -1.
</event>
<event>
 5   0  0.1303808E-02  0.6024880E+03  0.7818609E-02  0.9900258E-01
        1   -1    0    0  501    0  0.00000000000E+00  0.00000000000E+00  0.73562830374E+03  0.73562830376E+03  0.50400001928E-02 0.  1.
       -1   -1    0    0    0  501  0.00000000000E+00  0.00000000000E+00 -0.12336115862E+03  0.12336115872E+03  0.50400001928E-02 0. -1.
    10030    2    1    2    0    0  0.00000000000E+00  0.00000000000E+00  0.61226714512E+03  0.85898946248E+03  0.60248804109E+03 0.  0.
        4    1    3    3  502    0 -0.66889063729E+01  0.28178533212E+03  0.45768231607E+03  0.53751505115E+03  0.12699999809E+01 0.  1.
       -4    1    3    3    0  502  0.66889063729E+01 -0.28178533212E+03  0.15458482905E+03  0.32147441133E+03  0.12699999809E+01 0. -1.
</event>
<event>
 5   0  0.1303808E-02  0.6004658E+03  0.7818609E-02  0.9904440E-01
       -1   -1    0    0    0  501  0.00000000000E+00  0.00000000000E+00  0.30017619704E+03  0.30017619708E+03  0.50400001928E-02 0. -1.
        1   -1    0    0  501    0  0.00000000000E+00  0.00000000000E+00 -0.30028966275E+03  0.30028966279E+03  0.50400001928E-02 0.  1.
    10030    2    1    2    0    0  0.00000000000E+00  0.00000000000E+00 -0.11346570701E+00  0.60046585987E+03  0.60046584915E+03 0.  0.
        4    1    3    3  502    0  0.77483242904E+02 -0.22183483655E+02 -0.28926675897E+03  0.30028757987E+03  0.12699999809E+01 0.  1.
       -4    1    3    3    0  502 -0.77483242904E+02  0.22183483655E+02  0.28915329326E+03  0.30017828000E+03  0.12699999809E+01 0. -1.
</event>
<event>
 5   0  0.1303808E-02  0.6003064E+03  0.7818609E-02  0.9904771E-01
        1   -1    0    0  501    0  0.00000000000E+00  0.00000000000E+00  0.79398900734E+03  0.79398900735E+03  0.50400001928E-02 0. -1.
       -1   -1    0    0    0  501  0.00000000000E+00  0.00000000000E+00 -0.11346747829E+03  0.11346747840E+03  0.50400001928E-02 0.  1.
    10030    2    1    2    0    0  0.00000000000E+00  0.00000000000E+00  0.68052152905E+03  0.90745648575E+03  0.60030635682E+03 0.  0.
        4    1    3    3  502    0  0.62423483248E+02 -0.18259901163E+03  0.68778124590E+03  0.71434147676E+03  0.12699999809E+01 0. -1.
       -4    1    3    3    0  502 -0.62423483248E+02  0.18259901163E+03 -0.72597168521E+01  0.19311500899E+03  0.12699999809E+01 0.  1.
</event>
<event>
 5   0  0.2141800E-02  0.5993568E+03  0.7818609E-02  0.9906741E-01
       -2   -1    0    0    0  501  0.00000000000E+00  0.00000000000E+00  0.35761398219E+03  0.35761398220E+03  0.25500000920E-02 0. -1.
        2   -1    0    0  501    0  0.00000000000E+00  0.00000000000E+00 -0.25112874959E+03  0.25112874960E+03  0.25500000920E-02 0.  1.
    10030    2    1    2    0    0  0.00000000000E+00  0.00000000000E+00  0.10648523260E+03  0.60874273180E+03  0.59935682924E+03 0.  0.
        2    1    3    3  502    0  0.82290021304E+02 -0.23551387081E+03 -0.11539584919E+03  0.27487203016E+03  0.25500000920E-02 0.  1.
       -2    1    3    3    0  502 -0.82290021304E+02  0.23551387081E+03  0.22188108179E+03  0.33387070164E+03  0.25500000920E-02 0. -1.
</event>
<event>
 5   0  0.2142838E-02  0.6213157E+03  0.7818609E-02  0.9862144E-01
        2   -1    0    0  501    0  0.00000000000E+00  0.00000000000E+00  0.73303374528E+03  0.73303374528E+03  0.25500000920E-02 0. -1.
       -2   -1    0    0    0  501  0.00000000000E+00  0.00000000000E+00 -0.13165601093E+03  0.13165601095E+03  0.25500000920E-02 0.  1.
    10030    2    1    2    0    0  0.00000000000E+00  0.00000000000E+00  0.60137773435E+03  0.86468975623E+03  0.62131569686E+03 0.  0.
        4    1    3    3  502    0 -0.25999757185E+03  0.14269511969E+02  0.53647686356E+03  0.59633161444E+03  0.12699999809E+01 0. -1.
       -4    1    3    3    0  502  0.25999757185E+03 -0.14269511969E+02  0.64900870789E+02  0.26835814180E+03  0.12699999809E+01 0.  1.
</event>
<event>
 5   0  0.2092587E-02  0.6005214E+03  0.7818609E-02  0.9904325E-01
        2   -1    0    0  501    0  0.00000000000E+00  0.00000000000E+00  0.14470899669E+04  0.14470899669E+04  0.25500000920E-02 0. -1.
       -2   -1    0    0    0  501  0.00000000000E+00  0.00000000000E+00 -0.62301925494E+02  0.62301925546E+02  0.25500000920E-02 0.  1.
    10030    2    1    2    0    0  0.00000000000E+00  0.00000000000E+00  0.13847880414E+04  0.15093918924E+04  0.60052141125E+03 0.  0.
        3    1    3    3  502    0 -0.46176614492E+02  0.12279665555E+02  0.14374729114E+04  0.14382668220E+04  0.10100000352E+00 0. -1.
       -3    1    3    3    0  502  0.46176614492E+02 -0.12279665555E+02 -0.52684870051E+02  0.71125070442E+02  0.10100000352E+00 0.  1.
</event>
<event>
 5   0  0.1250390E-02  0.6001796E+03  0.7818609E-02  0.9905033E-01
        1   -1    0    0  501    0  0.00000000000E+00  0.00000000000E+00  0.27166151697E+03  0.27166151702E+03  0.50400001928E-02 0. -1.
       -1   -1    0    0    0  501  0.00000000000E+00  0.00000000000E+00 -0.33149300299E+03  0.33149300303E+03  0.50400001928E-02 0.  1.
    10030    2    1    2    0    0  0.00000000000E+00  0.00000000000E+00 -0.59831486016E+02  0.60315452005E+03  0.60017961340E+03 0.  0.
        3    1    3    3  502    0  0.36229809078E+02  0.29690052060E+03 -0.54354250164E+02  0.30400150149E+03  0.10100000352E+00 0.  1.
       -3    1    3    3    0  502 -0.36229809078E+02 -0.29690052060E+03 -0.54772358523E+01  0.29915301856E+03  0.10100000352E+00 0. -1.
</event>
<event>
 5   0  0.2126207E-02  0.6031665E+03  0.7818609E-02  0.9898858E-01
       -2   -1    0    0    0  501  0.00000000000E+00  0.00000000000E+00  0.11423364133E+03  0.11423364136E+03  0.25500000920E-02 0.  1.
        2   -1    0    0  501    0  0.00000000000E+00  0.00000000000E+00 -0.79619673537E+03  0.79619673537E+03  0.25500000920E-02 0. -1.
    10030    2    1    2    0    0  0.00000000000E+00  0.00000000000E+00 -0.68196309404E+03  0.91043037673E+03  0.60316648551E+03 0.  0.
        5    1    3    3  502    0 -0.23122735827E+03 -0.13765973913E+03 -0.54636263808E+03  0.60905707227E+03  0.46999998093E+01 0. -1.
       -5    1    3    3    0  502  0.23122735827E+03  0.13765973913E+03 -0.13560045596E+03  0.30137330446E+03  0.46999998093E+01 0.  1.
</event>
<event>
 5   0  0.8551000E-03  0.5996622E+03  0.7818609E-02  0.9906107E-01
       -3   -1    0    0    0  501  0.00000000000E+00  0.00000000000E+00  0.77645703193E+02  0.77645768883E+02  0.10100000352E+00 0.  1.
        3   -1    0    0  501    0  0.00000000000E+00  0.00000000000E+00 -0.11578056216E+04  0.11578056260E+04  0.10100000352E+00 0. -1.
    10030    2    1    2    0    0  0.00000000000E+00  0.00000000000E+00 -0.10801599184E+04  0.12354513949E+04  0.59966215472E+03 0.  0.
        1    1    3    3  502    0 -0.15986270197E+03 -0.25013564260E+02 -0.20028419390E+02  0.16304263089E+03  0.50400001928E-02 0.  1.
       -1    1    3    3    0  502  0.15986270197E+03  0.25013564260E+02 -0.10601314990E+04  0.10724087640E+04  0.50400001928E-02 0. -1.
</event>
<event>
 5   0  0.2141800E-02  0.6008209E+03  0.7818609E-02  0.9903704E-01
        2   -1    0    0  501    0  0.00000000000E+00  0.00000000000E+00  0.40000360397E+03  0.40000360398E+03  0.25500000920E-02 0.  1.
       -2   -1    0    0    0  501  0.00000000000E+00  0.00000000000E+00 -0.22561409404E+03  0.22561409406E+03  0.25500000920E-02 0. -1.
    10030    2    1    2    0    0  0.00000000000E+00  0.00000000000E+00  0.17438950993E+03  0.62561769804E+03  0.60082094082E+03 0.  0.
        2    1    3    3  502    0  0.86048610425E+02 -0.11589965441E+03  0.36152454873E+03  0.38927765488E+03  0.25500000920E-02 0.  1.
       -2    1    3    3    0  502 -0.86048610425E+02  0.11589965441E+03 -0.18713503880E+03  0.23634004316E+03  0.25500000920E-02 0. -1.
</event>
<event>
 5   0  0.1250390E-02  0.5967697E+03  0.7818609E-02  0.9912131E-01
       -1   -1    0    0    0  501  0.00000000000E+00  0.00000000000E+00  0.59871734590E+03  0.59871734592E+03  0.50400001928E-02 0. -1.
        1   -1    0    0  501    0  0.00000000000E+00  0.00000000000E+00 -0.14870709357E+03  0.14870709366E+03  0.50400001928E-02 0.  1.
    10030    2    1    2    0    0  0.00000000000E+00  0.00000000000E+00  0.45001025233E+03  0.74742443957E+03  0.59676969232E+03 0.  0.
        3    1    3    3  502    0 -0.11725571983E+02  0.37261664264E+02  0.59550100904E+03  0.59678084976E+03  0.10100000352E+00 0. -1.
       -3    1    3    3    0  502  0.11725571983E+02 -0.37261664264E+02 -0.14549075672E+03  0.15064358982E+03  0.10100000352E+00 0.  1.
</event>
<event>
 5   0  0.2126207E-02  0.5920469E+03  0.7818609E-02  0.9922045E-01
        2   -1    0    0  501    0  0.00000000000E+00  0.00000000000E+00  0.17473273137E+04  0.17473273137E+04  0.25500000920E-02 0.  1.
       -2   -1    0    0    0  501  0.00000000000E+00  0.00000000000E+00 -0.50150813746E+02  0.50150813811E+02  0.25500000920E-02 0. -1.
    10030    2    1    2    0    0  0.00000000000E+00  0.00000000000E+00  0.16971764999E+04  0.17974781275E+04  0.59204691274E+03 0.  0.
        5    1    3    3  502    0  0.19634165750E+03 -0.16444011208E+03  0.39809474354E+03  0.47338368346E+03  0.46999998093E+01 0. -1.
       -5    1    3    3    0  502 -0.19634165750E+03  0.16444011208E+03  0.12990817564E+04  0.13240944440E+04  0.46999998093E+01 0.  1.
</event>
<event>
 5   0  0.1337051E-02  0.5986130E+03  0.7818609E-02  0.9908288E-01
       -1   -1    0    0    0  501  0.00000000000E+00  0.00000000000E+00  0.74948456505E+02  0.74948456674E+02  0.50400001928E-02 0.  1.
        1   -1    0    0  501    0  0.00000000000E+00  0.00000000000E+00 -0.11952799391E+04  0.11952799391E+04  0.50400001928E-02 0. -1.
    10030    2    1    2    0    0  0.00000000000E+00  0.00000000000E+00 -0.11203314825E+04  0.12702283957E+04  0.59861301903E+03 0.  0.
        5    1    3    3  502    0 -0.21156501077E+03  0.18083157554E+03 -0.79360447585E+03  0.84100533089E+03  0.46999998093E+01 0. -1.
       -5    1    3    3    0  502  0.21156501077E+03 -0.18083157554E+03 -0.32672700669E+03  0.42922306485E+03  0.46999998093E+01 0.  1.
</event>
<event>
 5   0  0.2126207E-02  0.6059505E+03  0.7818609E-02  0.9893137E-01
       -2   -1    0    0    0  501  0.00000000000E+00  0.00000000000E+00  0.22710564550E+03  0.22710564551E+03  0.25500000920E-02 0. -1.
        2   -1    0    0  501    0  0.00000000000E+00  0.00000000000E+00 -0.40419073286E+03  0.40419073287E+03  0.25500000920E-02 0.  1.
    10030    2    1    2    0    0  0.00000000000E+00  0.00000000000E+00 -0.17708508736E+03  0.63129637838E+03  0.60595048410E+03 0.  0.
        5    1    3    3  502    0 -0.20160509596E+03 -0.13188146284E+03 -0.27989487843E+03  0.36932447512E+03  0.46999998093E+01 0.  1.
       -5    1    3    3    0  502  0.20160509596E+03  0.13188146284E+03  0.10280979106E+03  0.26197190325E+03  0.46999998093E+01 0. -1.
</event>
<event>
 5   0  0.2179625E-02  0.6008752E+03  0.7818609E-02  0.9903592E-01
       -2   -1    0    0    0  501  0.00000000000E+00  0.00000000000E+00  0.67343904870E+02  0.67343904918E+02  0.25500000920E-02 0. -1.
        2   -1    0    0  501    0  0.00000000000E+00  0.00000000000E+00 -0.13403255841E+04  0.13403255841E+04  0.25500000920E-02 0.  1.
    10030    2    1    2    0    0  0.00000000000E+00  0.00000000000E+00 -0.12729816792E+04  0.14076694890E+04  0.60087522386E+03 0.  0.
        1    1    3    3  502    0 -0.11760523716E+03  0.24683059060E+03 -0.92821490774E+03  0.96764624075E+03  0.50400001928E-02 0. -1.
       -1    1    3    3    0  502  0.11760523716E+03 -0.24683059060E+03 -0.34476677146E+03  0.44002324824E+03  0.50400001928E-02 0.  1.
</event>
<event>
 5   0  0.2142838E-02  0.5968615E+03  0.7818609E-02  0.9911939E-01
       -2   -1    0    0    0  501  0.00000000000E+00  0.00000000000E+00  0.86611627812E+03  0.86611627812E+03  0.25500000920E-02 0. -1.
        2   -1    0    0  501    0  0.00000000000E+00  0.00000000000E+00 -0.10282789544E+03  0.10282789547E+03  0.25500000920E-02 0.  1.
    10030    2    1    2    0    0  0.00000000000E+00  0.00000000000E+00  0.76328838268E+03  0.96894417360E+03  0.59686150522E+03 0.  0.
        4    1    3    3  502    0 -0.29825751585E+03  0.77960013935E+01  0.39203620070E+03  0.49265842017E+03  0.12699999809E+01 0.  1.
       -4    1    3    3    0  502  0.29825751585E+03 -0.77960013935E+01  0.37125218198E+03  0.47628575343E+03  0.12699999809E+01 0. -1.
</event>
<event>
 5   0  0.1250390E-02  0.5996428E+03  0.7818609E-02  0.9906147E-01
       -1   -1    0    0    0  501  0.00000000000E+00  0.00000000000E+00  0.34931357523E+03  0.34931357527E+03  0.50400001928E-02 0.  1.
        1   -1    0    0  501    0  0.00000000000E+00  0.00000000000E+00 -0.25734145997E+03  0.25734146002E+03  0.50400001928E-02 0. -1.
    10030    2    1    2    0    0  0.00000000000E+00  0.00000000000E+00  0.91972115257E+02  0.60665503529E+03  0.59964277854E+03 0.  0.
        3    1    3    3  502    0  0.12335593136E+03 -0.25063630463E+03  0.15615211859E+03  0.32002927576E+03  0.10100000352E+00 0. -1.
       -3    1    3    3    0  502 -0.12335593136E+03  0.25063630463E+03 -0.64180003328E+02  0.28662575954E+03  0.10100000352E+00 0.  1.
</event>
<event>
 5   0  0.1303808E-02  0.5881266E+03  0.7818609E-02  0.9930351E-01
       -1   -1    0    0    0  501  0.00000000000E+00  0.00000000000E+00  0.10371551318E+03  0.10371551330E+03  0.50400001928E-02 0. -1.
        1   -1    0    0  501    0  0.00000000000E+00  0.00000000000E+00 -0.83375386795E+03  0.83375386797E+03  0.50400001928E-02 0.  1.
    10030    2    1    2    0    0  0.00000000000E+00  0.00000000000E+00 -0.73003835477E+03  0.93746938127E+03  0.58812655219E+03 0.  0.
        4    1    3    3  502    0  0.91639742218E+02 -0.27730299209E+03 -0.41970045860E+03  0.51131680945E+03  0.12699999809E+01 0.  1.
       -4    1    3    3    0  502 -0.91639742218E+02  0.27730299209E+03 -0.31033789617E+03  0.42615257183E+03  0.12699999809E+01 0. -1.
</event>
<event>
 5   0  0.2179625E-02  0.5984453E+03  0.7818609E-02  0.9908637E-01
       -2   -1    0    0    0  501  0.00000000000E+00  0.00000000000E+00  0.17371549018E+03  0.17371549020E+03  0.25500000920E-02 0. -1.
        2   -1    0    0  501    0  0.00000000000E+00  0.00000000000E+00 -0.51540709129E+03  0.51540709130E+03  0.25500000920E-02 0.  1.
    10030    2    1    2    0    0  0.00000000000E+00  0.00000000000E+00 -0.34169160111E+03  0.68912258149E+03  0.59844530415E+03 0.  0.
        1    1    3    3  502    0 -0.11803128506E+03  0.17279044960E+03  0.75445952867E+02  0.22244103837E+03  0.50400001928E-02 0. -1.
       -1    1    3    3    0  502  0.11803128506E+03 -0.17279044960E+03 -0.41713755398E+03  0.46668154312E+03  0.50400001928E-02 0.  1.
</event>
<event>
 5   0  0.1303808E-02  0.6011725E+03  0.7818609E-02  0.9902976E-01
       -1   -1    0    0    0  501  0.00000000000E+00  0.00000000000E+00  0.25066419510E+03  0.25066419515E+03  0.50400001928E-02 0.  1.
        1   -1    0    0  501    0  0.00000000000E+00  0.00000000000E+00 -0.36045075609E+03  0.36045075613E+03  0.50400001928E-02 0. -1.
    10030    2    1    2    0    0  0.00000000000E+00  0.00000000000E+00 -0.10978656100E+03  0.61111495127E+03  0.60117251658E+03 0.  0.
        4    1    3    3  502    0  0.13324045053E+03  0.11323074769E+03 -0.30342863824E+03  0.35020675505E+03  0.12699999809E+01 0. -1.
       -4    1    3    3    0  502 -0.13324045053E+03 -0.11323074769E+03  0.19364207724E+03  0.26090819623E+03  0.12699999809E+01 0.  1.
</event>
<event>
 5   0  0.2142838E-02  0.6068273E+03  0.7818609E-02  0.9891342E-01
       -2   -1    0    0    0  501  0.00000000000E+00  0.00000000000E+00  0.55735984599E+02  0.55735984657E+02  0.25500000920E-02 0.  1.
        2   -1    0    0  501    0  0.00000000000E+00  0.00000000000E+00 -0.16517127093E+04  0.16517127093E+04  0.25500000920E-02 0. -1.
    10030    2    1    2    0    0  0.00000000000E+00  0.00000000000E+00 -0.15959767247E+04  0.17074486939E+04  0.60682727090E+03 0.  0.
        4    1    3    3  502    0 -0.17498207536E+03  0.19979591605E+03 -0.12107645822E+04  0.12395521857E+04  0.12699999809E+01 0. -1.
       -4    1    3    3    0  502  0.17498207536E+03 -0.19979591605E+03 -0.38521214247E+03  0.46789650819E+03  0.12699999809E+01 0.  1.
</event>
<event>
 5   0  0.2126207E-02  0.5864168E+03  0.7818609E-02  0.9933995E-01
       -2   -1    0    0    0  501  0.00000000000E+00  0.00000000000E+00  0.12539530330E+03  0.12539530333E+03  0.25500000920E-02 0. -1.
        2   -1    0    0  501    0  0.00000000000E+00  0.00000000000E+00 -0.68560116405E+03  0.68560116405E+03  0.25500000920E-02 0.  1.
    10030    2    1    2    0    0  0.00000000000E+00  0.00000000000E+00 -0.56020586074E+03  0.81099646738E+03  0.58641680032E+03 0.  0.
        5    1    3    3  502    0  0.12831868490E+03  0.22357351133E+03 -0.86990305950E+02  0.27210329508E+03  0.46999998093E+01 0. -1.
       -5    1    3    3    0  502 -0.12831868490E+03 -0.22357351133E+03 -0.47321555479E+03  0.53889317231E+03  0.46999998093E+01 0.  1.
</event>
<event>
 5   0  0.2126207E-02  0.5982323E+03  0.7818609E-02  0.9909080E-01
       -2   -1    0    0    0  501  0.00000000000E+00  0.00000000000E+00  0.11185431311E+03  0.11185431314E+03  0.25500000920E-02 0. -1.
        2   -1    0    0  501    0  0.00000000000E+00  0.00000000000E+00 -0.79988388004E+03  0.79988388004E+03  0.25500000920E-02 0.  1.
    10030    2    1    2    0    0  0.00000000000E+00  0.00000000000E+00 -0.68802956693E+03  0.91173819318E+03  0.59823226922E+03 0.  0.
        5    1    3    3  502    0  0.13334779125E+03 -0.15156614848E+03 -0.77046095826E+01  0.20207766280E+03  0.46999998093E+01 0. -1.
       -5    1    3    3    0  502 -0.13334779125E+03  0.15156614848E+03 -0.68032495734E+03  0.70966053038E+03  0.46999998093E+01 0.  1.
</event>
<event>
 5   0  0.1332555E-02  0.5748514E+03  0.7818609E-02  0.9959000E-01
        1   -1    0    0  501    0  0.00000000000E+00  0.00000000000E+00  0.20354912323E+03  0.20354912330E+03  0.50400001928E-02 0. -1.
       -1   -1    0    0    0  501  0.00000000000E+00  0.00000000000E+00 -0.40586533926E+03  0.40586533929E+03  0.50400001928E-02 0.  1.
    10030    2    1    2    0    0  0.00000000000E+00  0.00000000000E+00 -0.20231621603E+03  0.60941446259E+03  0.57485140336E+03 0.  0.
        2    1    3    3  502    0 -0.94845510632E+02 -0.16407146840E+03 -0.33024921837E+03  0.38076195172E+03  0.25500000920E-02 0.  1.
       -2    1    3    3    0  502  0.94845510632E+02  0.16407146840E+03  0.12793300235E+03  0.22865251087E+03  0.25500000920E-02 0. -1.
</event>
<event>
 5   0  0.1303808E-02  0.6014520E+03  0.7818609E-02  0.9902398E-01
        1   -1    0    0  501    0  0.00000000000E+00  0.00000000000E+00  0.10770690534E+04  0.10770690534E+04  0.50400001928E-02 0. -1.
       -1   -1    0    0    0  501  0.00000000000E+00  0.00000000000E+00 -0.83965029088E+02  0.83965029239E+02  0.50400001928E-02 0.  1.
    10030    2    1    2    0    0  0.00000000000E+00  0.00000000000E+00  0.99310402434E+03  0.11610340827E+04  0.60145202467E+03 0.  0.
        4    1    3    3  502    0  0.13785598620E+03 -0.21618146223E+03  0.19319381213E+03  0.32103607194E+03  0.12699999809E+01 0.  1.
       -4    1    3    3    0  502 -0.13785598620E+03  0.21618146223E+03  0.79991021221E+03  0.83999801074E+03  0.12699999809E+01 0. -1.
</event>
<event>
 5   0  0.8551000E-03  0.6014507E+03  0.7818609E-02  0.9902401E-01
        3   -1    0    0  501    0  0.00000000000E+00  0.00000000000E+00  0.25314719949E+03  0.25314721964E+03  0.10100000352E+00 0. -1.
       -3   -1    0    0    0  501  0.00000000000E+00  0.00000000000E+00 -0.35724564638E+03  0.35724566065E+03  0.10100000352E+00 0.  1.
    10030    2    1    2    0    0  0.00000000000E+00  0.00000000000E+00 -0.10409844688E+03  0.61039288030E+03  0.60145073088E+03 0.  0.
        4    1    3    3  502    0  0.65918917915E+02  0.17440330150E+03 -0.29150705828E+03  0.34603438159E+03  0.12699999809E+01 0.  1.
       -4    1    3    3    0  502 -0.65918917915E+02 -0.17440330150E+03  0.18740861139E+03  0.26435849871E+03  0.12699999809E+01 0. -1.
</event>
<event>
 5   0  0.1276705E-02  0.5991881E+03  0.7818609E-02  0.9907092E-01
        1   -1    0    0  501    0  0.00000000000E+00  0.00000000000E+00  0.98848992568E+02  0.98848992696E+02  0.50400001928E-02 0.  1.
       -1   -1    0    0    0  501  0.00000000000E+00  0.00000000000E+00 -0.90801718198E+03  0.90801718199E+03  0.50400001928E-02 0. -1.
    10030    2    1    2    0    0  0.00000000000E+00  0.00000000000E+00 -0.80916818941E+03  0.10068661747E+04  0.59918806311E+03 0.  0.
        1    1    3    3  502    0 -0.22255846637E+03 -0.44314497765E+02 -0.75895878214E+02  0.23928274075E+03  0.50400001928E-02 0.  1.
       -1    1    3    3    0  502  0.22255846637E+03  0.44314497765E+02 -0.73327231120E+03  0.76758343394E+03  0.50400001928E-02 0. -1.
</event>
<event>
 5   0  0.2126207E-02  0.5993370E+03  0.7818609E-02  0.9906783E-01
        2   -1    0    0  501    0  0.00000000000E+00  0.00000000000E+00  0.44091946214E+03  0.44091946215E+03  0.25500000920E-02 0. -1.
       -2   -1    0    0    0  501  0.00000000000E+00  0.00000000000E+00 -0.20366805298E+03  0.20366805300E+03  0.25500000920E-02 0.  1.
    10030    2    1    2    0    0  0.00000000000E+00  0.00000000000E+00  0.23725140916E+03  0.64458751515E+03  0.59933699497E+03 0.  0.
        5    1    3    3  502    0 -0.20214545834E+03  0.16037695384E+03  0.28242547126E+03  0.38258305042E+03  0.46999998093E+01 0. -1.
       -5    1    3    3    0  502  0.20214545834E+03 -0.16037695384E+03 -0.45174062107E+02  0.26200446473E+03  0.46999998093E+01 0.  1.
</event>
<event>
 5   0  0.2142838E-02  0.6008163E+03  0.7818609E-02  0.9903714E-01
        2   -1    0    0  501    0  0.00000000000E+00  0.00000000000E+00  0.96770687850E+03  0.96770687850E+03  0.25500000920E-02 0. -1.
       -2   -1    0    0    0  501  0.00000000000E+00  0.00000000000E+00 -0.93256589419E+02  0.93256589454E+02  0.25500000920E-02 0.  1.
    10030    2    1    2    0    0  0.00000000000E+00  0.00000000000E+00  0.87445028908E+03  0.10609634680E+04  0.60081625499E+03 0.  0.
        4    1    3    3  502    0 -0.11497659471E+03  0.18455720302E+03  0.80324385315E+03  0.83215580214E+03  0.12699999809E+01 0. -1.
       -4    1    3    3    0  502  0.11497659471E+03 -0.18455720302E+03  0.71206435929E+02  0.22880766581E+03  0.12699999809E+01 0.  1.
</event>
<event>
 5   0  0.2179625E-02  0.5982683E+03  0.7818609E-02  0.9909005E-01
       -2   -1    0    0    0  501  0.00000000000E+00  0.00000000000E+00  0.91862389475E+02  0.91862389510E+02  0.25500000920E-02 0.  1.
        2   -1    0    0  501    0  0.00000000000E+00  0.00000000000E+00 -0.97407903773E+03  0.97407903773E+03  0.25500000920E-02 0. -1.
    10030    2    1    2    0    0  0.00000000000E+00  0.00000000000E+00 -0.88221664825E+03  0.10659414272E+04  0.59826826078E+03 0.  0.
        1    1    3    3  502    0 -0.71638921312E+02  0.50322287110E+02  0.68525820405E+02  0.11117668692E+03  0.50400001928E-02 0.  1.
       -1    1    3    3    0  502  0.71638921312E+02 -0.50322287110E+02 -0.95074246866E+03  0.95476474032E+03  0.50400001928E-02 0. -1.
</event>
<event>
 5   0  0.2179625E-02  0.6020416E+03  0.7818609E-02  0.9901179E-01
        2   -1    0    0  501    0  0.00000000000E+00  0.00000000000E+00  0.19744516002E+04  0.19744516002E+04  0.25500000920E-02 0. -1.
       -2   -1    0    0    0  501  0.00000000000E+00  0.00000000000E+00 -0.45893006160E+02  0.45893006231E+02  0.25500000920E-02 0.  1.
    10030    2    1    2    0    0  0.00000000000E+00  0.00000000000E+00  0.19285585940E+04  0.20203446064E+04  0.60204159167E+03 0.  0.
        1    1    3    3  502    0 -0.70118117743E+02  0.16455664487E+03  0.17767631726E+04  0.17857443298E+04  0.50400001928E-02 0. -1.
       -1    1    3    3    0  502  0.70118117743E+02 -0.16455664487E+03  0.15179542141E+03  0.23460027663E+03  0.50400001928E-02 0.  1.
</event>
<event>
 5   0  0.1332555E-02  0.6005866E+03  0.7818609E-02  0.9904190E-01
        1   -1    0    0  501    0  0.00000000000E+00  0.00000000000E+00  0.60380780311E+03  0.60380780313E+03  0.50400001928E-02 0.  1.
       -1   -1    0    0    0  501  0.00000000000E+00  0.00000000000E+00 -0.14934562770E+03  0.14934562778E+03  0.50400001928E-02 0. -1.
    10030    2    1    2    0    0  0.00000000000E+00  0.00000000000E+00  0.45446217542E+03  0.75315343091E+03  0.60058656463E+03 0.  0.
        2    1    3    3  502    0 -0.18093789262E+03 -0.22182749775E+03  0.34099651115E+03  0.44522419113E+03  0.25500000920E-02 0.  1.
       -2    1    3    3    0  502  0.18093789262E+03  0.22182749775E+03  0.11346566427E+03  0.30792923979E+03  0.25500000920E-02 0. -1.
</event>
<event>
 5   0  0.1337051E-02  0.6025195E+03  0.7818609E-02  0.9900193E-01
        1   -1    0    0  501    0  0.00000000000E+00  0.00000000000E+00  0.28429308569E+03  0.28429308573E+03  0.50400001928E-02 0.  1.
       -1   -1    0    0    0  501  0.00000000000E+00  0.00000000000E+00 -0.31923894608E+03  0.31923894612E+03  0.50400001928E-02 0. -1.
    10030    2    1    2    0    0  0.00000000000E+00  0.00000000000E+00 -0.34945860389E+02  0.60353203185E+03  0.60251946053E+03 0.  0.
        5    1    3    3  502    0  0.12823416827E+03 -0.16139230917E+03  0.20254103651E+03  0.28902671303E+03  0.46999998093E+01 0.  1.
       -5    1    3    3    0  502 -0.12823416827E+03  0.16139230917E+03 -0.23748689690E+03  0.31450531883E+03  0.46999998093E+01 0. -1.
</event>
<event>
 5   0  0.2126207E-02  0.6226762E+03  0.7818609E-02  0.9859446E-01
       -2   -1    0    0    0  501  0.00000000000E+00  0.00000000000E+00  0.22777235034E+03  0.22777235035E+03  0.25500000920E-02 0.  1.
        2   -1    0    0  501    0  0.00000000000E+00  0.00000000000E+00 -0.42556268803E+03  0.42556268804E+03  0.25500000920E-02 0. -1.
    10030    2    1    2    0    0  0.00000000000E+00  0.00000000000E+00 -0.19779033769E+03  0.65333503839E+03  0.62267620374E+03 0.  0.
        5    1    3    3  502    0 -0.26713587391E+03  0.74583827052E+02  0.49433729558E+02  0.28176249929E+03  0.46999998093E+01 0.  1.
       -5    1    3    3    0  502  0.26713587391E+03 -0.74583827052E+02 -0.24722406725E+03  0.37157253910E+03  0.46999998093E+01 0. -1.
</event>
<event>
 5   0  0.1303808E-02  0.6001353E+03  0.7818609E-02  0.9905125E-01
        1   -1    0    0  501    0  0.00000000000E+00  0.00000000000E+00  0.14011352032E+04  0.14011352032E+04  0.50400001928E-02 0. -1.
       -1   -1    0    0    0  501  0.00000000000E+00  0.00000000000E+00 -0.64262610495E+02  0.64262610693E+02  0.50400001928E-02 0.  1.
    10030    2    1    2    0    0  0.00000000000E+00  0.00000000000E+00  0.13368725927E+04  0.14653978139E+04  0.60013533796E+03 0.  0.
        4    1    3    3  502    0  0.15890222458E+01 -0.10200963413E+03 -0.20606295118E+02  0.10408997428E+03  0.12699999809E+01 0.  1.
       -4    1    3    3    0  502 -0.15890222458E+01  0.10200963413E+03  0.13574788878E+04  0.13613078397E+04  0.12699999809E+01 0. -1.
</event>
<event>
 5   0  0.2141800E-02  0.6024286E+03  0.7818609E-02  0.9900380E-01
        2   -1    0    0  501    0  0.00000000000E+00  0.00000000000E+00  0.25180162046E+03  0.25180162047E+03  0.25500000920E-02 0.  1.
       -2   -1    0    0    0  501  0.00000000000E+00  0.00000000000E+00 -0.36032359360E+03  0.36032359361E+03  0.25500000920E-02 0. -1.
    10030    2    1    2    0    0  0.00000000000E+00  0.00000000000E+00 -0.10852197314E+03  0.61212521408E+03  0.60242863399E+03 0.  0.
        2    1    3    3  502    0 -0.24359223065E+03  0.17170878355E+03 -0.98658129659E+01  0.29819191044E+03  0.25500000920E-02 0. -1.
       -2    1    3    3    0  502  0.24359223065E+03 -0.17170878355E+03 -0.98656160179E+02  0.31393330363E+03  0.25500000920E-02 0.  1.
</event>
<event>
 5   0  0.1276705E-02  0.6055228E+03  0.7818609E-02  0.9894014E-01
        1   -1    0    0  501    0  0.00000000000E+00  0.00000000000E+00  0.70515704288E+03  0.70515704289E+03  0.50400001928E-02 0.  1.
       -1   -1    0    0    0  501  0.00000000000E+00  0.00000000000E+00 -0.12999154584E+03  0.12999154594E+03  0.50400001928E-02 0. -1.
    10030    2    1    2    0    0  0.00000000000E+00  0.00000000000E+00  0.57516549703E+03  0.83514858883E+03  0.60552276295E+03 0.  0.
        1    1    3    3  502    0 -0.78142733126E+02  0.66635658248E+02 -0.10523536941E+03  0.14704108504E+03  0.50400001928E-02 0. -1.
       -1    1    3    3    0  502  0.78142733126E+02 -0.66635658248E+02  0.68040086644E+03  0.68810750379E+03  0.50400001928E-02 0.  1.
</event>
<event>
 5   0  0.2092587E-02  0.6000403E+03  0.7818609E-02  0.9905322E-01
       -2   -1    0    0    0  501  0.00000000000E+00  0.00000000000E+00  0.99880186865E+02  0.99880186898E+02  0.25500000920E-02 0.  1.
        2   -1    0    0  501    0  0.00000000000E+00  0.00000000000E+00 -0.90120071384E+03  0.90120071385E+03  0.25500000920E-02 0. -1.
    10030    2    1    2    0    0  0.00000000000E+00  0.00000000000E+00 -0.80132052698E+03  0.10010809007E+04  0.60004031771E+03 0.  0.
        3    1    3    3  502    0 -0.23279625738E+03 -0.11529255841E+03 -0.15026445040E+03  0.30010979112E+03  0.10100000352E+00 0.  1.
       -3    1    3    3    0  502  0.23279625738E+03  0.11529255841E+03 -0.65105607658E+03  0.70097110962E+03  0.10100000352E+00 0. -1.
</event>
<event>
 5   0  0.2126207E-02  0.5967496E+03  0.7818609E-02  0.9912173E-01
       -2   -1    0    0    0  501  0.00000000000E+00  0.00000000000E+00  0.16546736212E+03  0.16546736214E+03  0.25500000920E-02 0.  1.
        2   -1    0    0  501    0  0.00000000000E+00  0.00000000000E+00 -0.53803673511E+03  0.53803673511E+03  0.25500000920E-02 0. -1.
    10030    2    1    2    0    0  0.00000000000E+00  0.00000000000E+00 -0.37256937299E+03  0.70350409725E+03  0.59674959335E+03 0.  0.
        5    1    3    3  502    0  0.10473375258E+01  0.44827014412E+02  0.16142863056E+03  0.16760623765E+03  0.46999998093E+01 0.  1.
       -5    1    3    3    0  502 -0.10473375258E+01 -0.44827014412E+02 -0.53399800354E+03  0.53589785960E+03  0.46999998093E+01 0. -1.
</event>
<event>
 5   0  0.1276705E-02  0.6001392E+03  0.7818609E-02  0.9905117E-01
        1   -1    0    0  501    0  0.00000000000E+00  0.00000000000E+00  0.27591992013E+03  0.27591992017E+03  0.50400001928E-02 0.  1.
       -1   -1    0    0    0  501  0.00000000000E+00  0.00000000000E+00 -0.32633295686E+03  0.32633295690E+03  0.50400001928E-02 0. -1.
    10030    2    1    2    0    0  0.00000000000E+00  0.00000000000E+00 -0.50413036737E+02  0.60225287707E+03  0.60013919525E+03 0.  0.
        1    1    3    3  502    0 -0.18278879738E+03 -0.10049971066E+03 -0.24167397337E+03  0.31924637150E+03  0.50400001928E-02 0. -1.
       -1    1    3    3    0  502  0.18278879738E+03  0.10049971066E+03  0.19126093663E+03  0.28300650557E+03  0.50400001928E-02 0.  1.
</event>
<event>
 5   0  0.1303808E-02  0.6023735E+03  0.7818609E-02  0.9900494E-01
       -1   -1    0    0    0  501  0.00000000000E+00  0.00000000000E+00  0.37908907797E+03  0.37908907801E+03  0.50400001928E-02 0. -1.
        1   -1    0    0  501    0  0.00000000000E+00  0.00000000000E+00 -0.23929327853E+03  0.23929327858E+03  0.50400001928E-02 0.  1.
    10030    2    1    2    0    0  0.00000000000E+00  0.00000000000E+00  0.13979579945E+03  0.61838235659E+03  0.60237353311E+03 0.  0.
        4    1    3    3  502    0  0.21982459507E+03 -0.19207848101E+03 -0.61994485769E+01  0.29198808456E+03  0.12699999809E+01 0.  1.
       -4    1    3    3    0  502 -0.21982459507E+03  0.19207848101E+03  0.14599524802E+03  0.32639427202E+03  0.12699999809E+01 0. -1.
</event>
<event>
 5   0  0.1337051E-02  0.5987259E+03  0.7818609E-02  0.9908053E-01
        1   -1    0    0  501    0  0.00000000000E+00  0.00000000000E+00  0.66278766248E+03  0.66278766249E+03  0.50400001928E-02 0. -1.
       -1   -1    0    0    0  501  0.00000000000E+00  0.00000000000E+00 -0.13521400936E+03  0.13521400945E+03  0.50400001928E-02 0.  1.
    10030    2    1    2    0    0  0.00000000000E+00  0.00000000000E+00  0.52757365312E+03  0.79800167194E+03  0.59872590470E+03 0.  0.
        5    1    3    3  502    0  0.20303823920E+02 -0.41101474736E+02  0.65803179185E+03  0.65964346853E+03  0.46999998093E+01 0. -1.
       -5    1    3    3    0  502 -0.20303823920E+02  0.41101474736E+02 -0.13045813873E+03  0.13835820341E+03  0.46999998093E+01 0.  1.
</event>
<event>
 5   0  0.1337051E-02  0.5733013E+03  0.7818609E-02  0.9962400E-01
       -1   -1    0    0    0  501  0.00000000000E+00  0.00000000000E+00  0.10665184198E+03  0.10665184210E+03  0.50400001928E-02 0.  1.
        1   -1    0    0  501    0  0.00000000000E+00  0.00000000000E+00 -0.77043761275E+03  0.77043761276E+03  0.50400001928E-02 0. -1.
    10030    2    1    2    0    0  0.00000000000E+00  0.00000000000E+00 -0.66378577076E+03  0.87708945486E+03  0.57330128411E+03 0.  0.
        5    1    3    3  502    0  0.93576276547E+02  0.24446451596E+03 -0.51048505022E+03  0.57370418823E+03  0.46999998093E+01 0. -1.
       -5    1    3    3    0  502 -0.93576276547E+02 -0.24446451596E+03 -0.15330072055E+03  0.30338526664E+03  0.46999998093E+01 0.  1.
</event>
<event>
 5   0  0.2126207E-02  0.6040805E+03  0.7818609E-02  0.9896976E-01
       -2   -1    0    0    0  501  0.00000000000E+00  0.00000000000E+00  0.30227148001E+03  0.30227148002E+03  0.25500000920E-02 0. -1.
        2   -1    0    0  501    0  0.00000000000E+00  0.00000000000E+00 -0.30180919819E+03  0.30180919820E+03  0.25500000920E-02 0.  1.
    10030    2    1    2    0    0  0.00000000000E+00  0.00000000000E+00  0.46228182060E+00  0.60408067822E+03  0.60408050133E+03 0.  0.
        5    1    3    3  502    0 -0.43389903611E+01  0.16784403312E+02  0.30173691736E+03  0.30227107094E+03  0.46999998093E+01 0. -1.
       -5    1    3    3    0  502  0.43389903611E+01 -0.16784403312E+02 -0.30127463553E+03  0.30180960728E+03  0.46999998093E+01 0.  1.
</event>
<event>
 5   0  0.2126207E-02  0.5984804E+03  0.7818609E-02  0.9908564E-01
        2   -1    0    0  501    0  0.00000000000E+00  0.00000000000E+00  0.56560399357E+03  0.56560399357E+03  0.25500000920E-02 0.  1.
       -2   -1    0    0    0  501  0.00000000000E+00  0.00000000000E+00 -0.15831692777E+03  0.15831692779E+03  0.25500000920E-02 0. -1.
    10030    2    1    2    0    0  0.00000000000E+00  0.00000000000E+00  0.40728706580E+03  0.72392092136E+03  0.59848036427E+03 0.  0.
        5    1    3    3  502    0 -0.25720064982E+02 -0.10037640798E+02 -0.15672814600E+03  0.15921079651E+03  0.46999998093E+01 0. -1.
       -5    1    3    3    0  502  0.25720064982E+02  0.10037640798E+02  0.56401521180E+03  0.56471012486E+03  0.46999998093E+01 0.  1.
</event>
<event>
 5   0  0.2092587E-02  0.5996489E+03  0.7818609E-02  0.9906135E-01
        2   -1    0    0  501    0  0.00000000000E+00  0.00000000000E+00  0.61514953774E+03  0.61514953775E+03  0.25500000920E-02 0.  1.
       -2   -1    0    0    0  501  0.00000000000E+00  0.00000000000E+00 -0.14613473281E+03  0.14613473283E+03  0.25500000920E-02 0. -1.
    10030    2    1    2    0    0  0.00000000000E+00  0.00000000000E+00  0.46901480494E+03  0.76128427058E+03  0.59964894178E+03 0.  0.
        3    1    3    3  502    0  0.37361647798E+02  0.26954788887E+03  0.74711729507E+02  0.28219463114E+03  0.10100000352E+00 0. -1.
       -3    1    3    3    0  502 -0.37361647798E+02 -0.26954788887E+03  0.39430307543E+03  0.47908963943E+03  0.10100000352E+00 0.  1.
</event>
<event>
 5   0  0.2126207E-02  0.6036397E+03  0.7818609E-02  0.9897883E-01
       -2   -1    0    0    0  501  0.00000000000E+00  0.00000000000E+00  0.13280145421E+03  0.13280145423E+03  0.25500000920E-02 0. -1.
        2   -1    0    0  501    0  0.00000000000E+00  0.00000000000E+00 -0.68595050185E+03  0.68595050186E+03  0.25500000920E-02 0.  1.
    10030    2    1    2    0    0  0.00000000000E+00  0.00000000000E+00 -0.55314904764E+03  0.81875195609E+03  0.60363970769E+03 0.  0.
        5    1    3    3  502    0  0.14802940840E+03  0.26174363177E+03 -0.31117362665E+03  0.43275114147E+03  0.46999998093E+01 0.  1.
       -5    1    3    3    0  502 -0.14802940840E+03 -0.26174363177E+03 -0.24197542099E+03  0.38600081462E+03  0.46999998093E+01 0. -1.
</event>
<event>
 5   0  0.1332555E-02  0.5994378E+03  0.7818609E-02  0.9906573E-01
        1   -1    0    0  501    0  0.00000000000E+00  0.00000000000E+00  0.29259077921E+03  0.29259077926E+03  0.50400001928E-02 0.  1.
       -1   -1    0    0    0  501  0.00000000000E+00  0.00000000000E+00 -0.30702071210E+03  0.30702071214E+03  0.50400001928E-02 0. -1.
    10030    2    1    2    0    0  0.00000000000E+00  0.00000000000E+00 -0.14429932886E+02  0.59961149139E+03  0.59943783468E+03 0.  0.
        2    1    3    3  502    0  0.26623461486E+03 -0.11706589579E+03 -0.79666159267E+02  0.30154931777E+03  0.25500000920E-02 0. -1.
       -2    1    3    3    0  502 -0.26623461486E+03  0.11706589579E+03  0.65236226381E+02  0.29806217363E+03  0.25500000920E-02 0.  1.
</event>
<event>
 5   0  0.2092587E-02  0.5896614E+03  0.7818609E-02  0.9927091E-01
        2   -1    0    0  501    0  0.00000000000E+00  0.00000000000E+00  0.27922668957E+03  0.27922668958E+03  0.25500000920E-02 0.  1.
       -2   -1    0    0    0  501  0.00000000000E+00  0.00000000000E+00 -0.31130672136E+03  0.31130672137E+03  0.25500000920E-02 0. -1.
    10030    2    1    2    0    0  0.00000000000E+00  0.00000000000E+00 -0.32080031790E+02  0.59053341096E+03  0.58966141218E+03 0.  0.
        3    1    3    3  502    0 -0.13204941103E+03 -0.24892903656E+03 -0.10290017831E+03  0.29998528146E+03  0.10100000352E+00 0. -1.
       -3    1    3    3    0  502  0.13204941103E+03  0.24892903656E+03  0.70820146519E+02  0.29054812949E+03  0.10100000352E+00 0.  1.
</event>
<event>
 5   0  0.2142838E-02  0.5945543E+03  0.7818609E-02  0.9916769E-01
        2   -1    0    0  501    0  0.00000000000E+00  0.00000000000E+00  0.17746665378E+04  0.17746665378E+04  0.25500000920E-02 0.  1.
       -2   -1    0    0    0  501  0.00000000000E+00  0.00000000000E+00 -0.49797362873E+02  0.49797362938E+02  0.25500000920E-02 0. -1.
    10030    2    1    2    0    0  0.00000000000E+00  0.00000000000E+00  0.17248691749E+04  0.18244639007E+04  0.59455433267E+03 0.  0.
        4    1    3    3  502    0  0.47979918929E+02 -0.28902179429E+03  0.10169796776E+04  0.10583406577E+04  0.12699999809E+01 0.  1.
       -4    1    3    3    0  502 -0.47979918929E+02  0.28902179429E+03  0.70788949730E+03  0.76612324301E+03  0.12699999809E+01 0. -1.
</event>
<event>
 5   0  0.2092587E-02  0.6002136E+03  0.7818609E-02  0.9904963E-01
        2   -1    0    0  501    0  0.00000000000E+00  0.00000000000E+00  0.78922245429E+03  0.78922245430E+03  0.25500000920E-02 0. -1.
       -2   -1    0    0    0  501  0.00000000000E+00  0.00000000000E+00 -0.11411751287E+03  0.11411751290E+03  0.25500000920E-02 0.  1.
    10030    2    1    2    0    0  0.00000000000E+00  0.00000000000E+00  0.67510494142E+03  0.90333996720E+03  0.60021364064E+03 0.  0.
        3    1    3    3  502    0  0.76774588863E+02 -0.14872403026E+03 -0.37351009892E+02  0.17148843347E+03  0.10100000352E+00 0.  1.
       -3    1    3    3    0  502 -0.76774588863E+02  0.14872403026E+03  0.71245595131E+03  0.73185153373E+03  0.10100000352E+00 0. -1.
</event>
<event>
 5   0  0.8551000E-03  0.5995437E+03  0.7818609E-02  0.9906353E-01
        4   -1    0    0  501    0  0.00000000000E+00  0.00000000000E+00  0.12003768709E+03  0.12004440521E+03  0.12699999809E+01 0.  1.
       -4   -1    0    0    0  501  0.00000000000E+00  0.00000000000E+00 -0.74859636518E+03  0.74859744246E+03  0.12699999809E+01 0. -1.
    10030    2    1    2    0    0  0.00000000000E+00  0.00000000000E+00 -0.62855867809E+03  0.86864184766E+03  0.59954369959E+03 0.  0.
        3    1    3    3  502    0 -0.63415566513E+02 -0.20208885097E+03 -0.62163019862E+03  0.65672334495E+03  0.10100000352E+00 0. -1.
       -3    1    3    3    0  502  0.63415566513E+02  0.20208885097E+03 -0.69284794680E+01  0.21191850272E+03  0.10100000352E+00 0.  1.
</event>
<event>
 5   0  0.2141800E-02  0.5994310E+03  0.7818609E-02  0.9906587E-01
        2   -1    0    0  501    0  0.00000000000E+00  0.00000000000E+00  0.48491271140E+03  0.48491271141E+03  0.25500000920E-02 0.  1.
       -2   -1    0    0    0  501  0.00000000000E+00  0.00000000000E+00 -0.18524853370E+03  0.18524853372E+03  0.25500000920E-02 0. -1.
    10030    2    1    2    0    0  0.00000000000E+00  0.00000000000E+00  0.29966417770E+03  0.67016124513E+03  0.59943095939E+03 0.  0.
        2    1    3    3  502    0 -0.11242320697E+03  0.14189051452E+03  0.41688444077E+03  0.45449371012E+03  0.25500000920E-02 0.  1.
       -2    1    3    3    0  502  0.11242320697E+03 -0.14189051452E+03 -0.11722026308E+03  0.21566753501E+03  0.25500000920E-02 0. -1.
</event>
<event>
 5   0  0.1303808E-02  0.5947513E+03  0.7818609E-02  0.9916356E-01
        1   -1    0    0  501    0  0.00000000000E+00  0.00000000000E+00  0.23300080467E+03  0.23300080473E+03  0.50400001928E-02 0. -1.
       -1   -1    0    0    0  501  0.00000000000E+00  0.00000000000E+00 -0.37953639711E+03  0.37953639714E+03  0.50400001928E-02 0.  1.
    10030    2    1    2    0    0  0.00000000000E+00  0.00000000000E+00 -0.14653559244E+03  0.61253720187E+03  0.59475132940E+03 0.  0.
        4    1    3    3  502    0  0.42339221765E+02 -0.23356624497E+03 -0.25774691193E+03  0.35040103310E+03  0.12699999809E+01 0.  1.
       -4    1    3    3    0  502 -0.42339221765E+02  0.23356624497E+03  0.11121131950E+03  0.26213616876E+03  0.12699999809E+01 0. -1.
</event>
<event>
 5   0  0.1332555E-02  0.6037774E+03  0.7818609E-02  0.9897600E-01
        1   -1    0    0  501    0  0.00000000000E+00  0.00000000000E+00  0.68607441981E+03  0.68607441983E+03  0.50400001928E-02 0.  1.
       -1   -1    0    0    0  501  0.00000000000E+00  0.00000000000E+00 -0.13283803623E+03  0.13283803633E+03  0.50400001928E-02 0. -1.
    10030    2    1    2    0    0  0.00000000000E+00  0.00000000000E+00  0.55323638358E+03  0.81891245615E+03  0.60377737183E+03 0.  0.
        2    1    3    3  502    0  0.33352805979E+02  0.13798688360E+03 -0.84742446686E+02  0.16533019080E+03  0.25500000920E-02 0. -1.
       -2    1    3    3    0  502 -0.33352805979E+02 -0.13798688360E+03  0.63797883026E+03  0.65358226535E+03  0.25500000920E-02 0.  1.
</event>
<event>
 5   0  0.2142838E-02  0.6003362E+03  0.7818609E-02  0.9904709E-01
        2   -1    0    0  501    0  0.00000000000E+00  0.00000000000E+00  0.45373344142E+03  0.45373344142E+03  0.25500000920E-02 0.  1.
       -2   -1    0    0    0  501  0.00000000000E+00  0.00000000000E+00 -0.19857672741E+03  0.19857672743E+03  0.25500000920E-02 0. -1.
    10030    2    1    2    0    0  0.00000000000E+00  0.00000000000E+00  0.25515671400E+03  0.65231016885E+03  0.60033624552E+03 0.  0.
        4    1    3    3  502    0 -0.28086193909E+02  0.29436966423E+03  0.18358657119E+03  0.34806317750E+03  0.12699999809E+01 0.  1.
       -4    1    3    3    0  502  0.28086193909E+02 -0.29436966423E+03  0.71570142815E+02  0.30424699136E+03  0.12699999809E+01 0. -1.
</event>
<event>
 5   0  0.8551000E-03  0.5987135E+03  0.7818609E-02  0.9908079E-01
       -3   -1    0    0    0  501  0.00000000000E+00  0.00000000000E+00  0.16829363992E+03  0.16829367023E+03  0.10100000352E+00 0.  1.
        3   -1    0    0  501    0  0.00000000000E+00  0.00000000000E+00 -0.53248854187E+03  0.53248855145E+03  0.10100000352E+00 0. -1.
    10030    2    1    2    0    0  0.00000000000E+00  0.00000000000E+00 -0.36419490194E+03  0.70078222168E+03  0.59871345034E+03 0.  0.
        5    1    3    3  502    0  0.42126349488E+02 -0.15467979892E+03 -0.47795790970E+03  0.50414910786E+03  0.46999998093E+01 0. -1.
       -5    1    3    3    0  502 -0.42126349488E+02  0.15467979892E+03  0.11376300776E+03  0.19663311381E+03  0.46999998093E+01 0.  1.
</event>
<event>
 5   0  0.1250390E-02  0.6002916E+03  0.7818609E-02  0.9904801E-01
        1   -1    0    0  501    0  0.00000000000E+00  0.00000000000E+00  0.83839069335E+03  0.83839069336E+03  0.50400001928E-02 0. -1.
       -1   -1    0    0    0  501  0.00000000000E+00  0.00000000000E+00 -0.10745289419E+03  0.10745289430E+03  0.50400001928E-02 0.  1.
    10030    2    1    2    0    0  0.00000000000E+00  0.00000000000E+00  0.73093779916E+03  0.94584358767E+03  0.60029161754E+03 0.  0.
        3    1    3    3  502    0  0.28220902083E+02  0.28157680934E+03  0.52307685096E+03  0.59471953144E+03  0.10100000352E+00 0. -1.
       -3    1    3    3    0  502 -0.28220902083E+02 -0.28157680934E+03  0.20786094820E+03  0.35112405623E+03  0.10100000352E+00 0.  1.
</event>
<event>
 5   0  0.8551000E-03  0.5968435E+03  0.7818609E-02  0.9911977E-01
       -4   -1    0    0    0  501  0.00000000000E+00  0.00000000000E+00  0.53953623403E+03  0.53953772873E+03  0.12699999809E+01 0.  1.
        4   -1    0    0  501    0  0.00000000000E+00  0.00000000000E+00 -0.16505525877E+03  0.16506014464E+03  0.12699999809E+01 0. -1.
    10030    2    1    2    0    0  0.00000000000E+00  0.00000000000E+00  0.37448097525E+03  0.70459787338E+03  0.59684349903E+03 0.  0.
        1    1    3    3  502    0 -0.13108216643E+03 -0.13953144876E+03 -0.83007830960E+02  0.20866686267E+03  0.50400001928E-02 0. -1.
       -1    1    3    3    0  502  0.13108216643E+03  0.13953144876E+03  0.45748880621E+03  0.49593101071E+03  0.50400001928E-02 0.  1.
</event>
<event>
 5   0  0.2092587E-02  0.5991998E+03  0.7818609E-02  0.9907068E-01
        2   -1    0    0  501    0  0.00000000000E+00  0.00000000000E+00  0.19005988778E+04  0.19005988778E+04  0.25500000920E-02 0. -1.
       -2   -1    0    0    0  501  0.00000000000E+00  0.00000000000E+00 -0.47227276068E+02  0.47227276137E+02  0.25500000920E-02 0.  1.
    10030    2    1    2    0    0  0.00000000000E+00  0.00000000000E+00  0.18533716017E+04  0.19478261539E+04  0.59919982632E+03 0.  0.
        3    1    3    3  502    0  0.29804827170E+02 -0.32937883182E+01 -0.42336828601E+02  0.51880574603E+02  0.10100000352E+00 0.  1.
       -3    1    3    3    0  502 -0.29804827170E+02  0.32937883182E+01  0.18957084303E+04  0.18959455793E+04  0.10100000352E+00 0. -1.
</event>
<event>
 5   0  0.2092587E-02  0.6013079E+03  0.7818609E-02  0.9902696E-01
        2   -1    0    0  501    0  0.00000000000E+00  0.00000000000E+00  0.69401033899E+03  0.69401033899E+03  0.25500000920E-02 0.  1.
       -2   -1    0    0    0  501  0.00000000000E+00  0.00000000000E+00 -0.13024705579E+03  0.13024705582E+03  0.25500000920E-02 0. -1.
    10030    2    1    2    0    0  0.00000000000E+00  0.00000000000E+00  0.56376328319E+03  0.82425739481E+03  0.60130791897E+03 0.  0.
        3    1    3    3  502    0 -0.13115108777E+03  0.68857209397E+01  0.65261150787E+03  0.66569498374E+03  0.10100000352E+00 0.  1.
       -3    1    3    3    0  502  0.13115108777E+03 -0.68857209397E+01 -0.88848224672E+02  0.15856241107E+03  0.10100000352E+00 0. -1.
</event>
<event>
 5   0  0.2142838E-02  0.5979902E+03  0.7818609E-02  0.9909585E-01
       -2   -1    0    0    0  501  0.00000000000E+00  0.00000000000E+00  0.84065104545E+02  0.84065104583E+02  0.25500000920E-02 0.  1.
        2   -1    0    0  501    0  0.00000000000E+00  0.00000000000E+00 -0.10634385070E+04  0.10634385070E+04  0.25500000920E-02 0. -1.
    10030    2    1    2    0    0  0.00000000000E+00  0.00000000000E+00 -0.97937340245E+03  0.11475036116E+04  0.59799019822E+03 0.  0.
        4    1    3    3  502    0 -0.24741049880E+03  0.14698720641E+03 -0.64533651558E+03  0.70659608335E+03  0.12699999809E+01 0. -1.
       -4    1    3    3    0  502  0.24741049880E+03 -0.14698720641E+03 -0.33403688687E+03  0.44090752823E+03  0.12699999809E+01 0.  1.
</event>
<event>
 5   0  0.1276705E-02  0.6003656E+03  0.7818609E-02  0.9904648E-01
       -1   -1    0    0    0  501  0.00000000000E+00  0.00000000000E+00  0.17070337904E+03  0.17070337912E+03  0.50400001928E-02 0.  1.
        1   -1    0    0  501    0  0.00000000000E+00  0.00000000000E+00 -0.52787307775E+03  0.52787307777E+03  0.50400001928E-02 0. -1.
    10030    2    1    2    0    0  0.00000000000E+00  0.00000000000E+00 -0.35716969871E+03  0.69857645689E+03  0.60036561565E+03 0.  0.
        1    1    3    3  502    0 -0.16319139786E+03 -0.22176065800E+03 -0.31773179866E+03  0.42043158501E+03  0.50400001928E-02 0. -1.
       -1    1    3    3    0  502  0.16319139786E+03  0.22176065800E+03 -0.39437900045E+02  0.27814487188E+03  0.50400001928E-02 0.  1.
</event>
<event>
 5   0  0.2142838E-02  0.5967248E+03  0.7818609E-02  0.9912224E-01
       -2   -1    0    0    0  501  0.00000000000E+00  0.00000000000E+00  0.13457606370E+03  0.13457606373E+03  0.25500000920E-02 0.  1.
        2   -1    0    0  501    0  0.00000000000E+00  0.00000000000E+00 -0.66148563759E+03  0.66148563759E+03  0.25500000920E-02 0. -1.
    10030    2    1    2    0    0  0.00000000000E+00  0.00000000000E+00 -0.52690957388E+03  0.79606170132E+03  0.59672483881E+03 0.  0.
        4    1    3    3  502    0  0.68782218104E+02  0.16268707144E+03 -0.58423924934E+03  0.61035660896E+03  0.12699999809E+01 0. -1.
       -4    1    3    3    0  502 -0.68782218104E+02 -0.16268707144E+03  0.57329675453E+02  0.18570509236E+03  0.12699999809E+01 0.  1.
</event>
<event>
 5   0  0.1250390E-02  0.6014007E+03  0.7818609E-02  0.9902504E-01
        1   -1    0    0  501    0  0.00000000000E+00  0.00000000000E+00  0.48619972759E+03  0.48619972761E+03  0.50400001928E-02 0. -1.
       -1   -1    0    0    0  501  0.00000000000E+00  0.00000000000E+00 -0.18597438507E+03  0.18597438514E+03  0.50400001928E-02 0.  1.
    10030    2    1    2    0    0  0.00000000000E+00  0.00000000000E+00  0.30022534252E+03  0.67217411275E+03  0.60140068304E+03 0.  0.
        3    1    3    3  502    0  0.25211061427E+03  0.92175634082E+02 -0.13509432802E+01  0.26843610896E+03  0.10100000352E+00 0.  1.
       -3    1    3    3    0  502 -0.25211061427E+03 -0.92175634082E+02  0.30157628580E+03  0.40373800379E+03  0.10100000352E+00 0. -1.
</event>
<event>
 5   0  0.2092587E-02  0.6002425E+03  0.7818609E-02  0.9904903E-01
        2   -1    0    0  501    0  0.00000000000E+00  0.00000000000E+00  0.40573747156E+03  0.40573747157E+03  0.25500000920E-02 0. -1.
       -2   -1    0    0    0  501  0.00000000000E+00  0.00000000000E+00 -0.22199762780E+03  0.22199762782E+03  0.25500000920E-02 0.  1.
    10030    2    1    2    0    0  0.00000000000E+00  0.00000000000E+00  0.18373984376E+03  0.62773509939E+03  0.60024247169E+03 0.  0.
        3    1    3    3  502    0  0.18750925586E+03  0.14690032623E+03  0.28280642783E+03  0.36975520645E+03  0.10100000352E+00 0. -1.
       -3    1    3    3    0  502 -0.18750925586E+03 -0.14690032623E+03 -0.99066584068E+02  0.25797989294E+03  0.10100000352E+00 0.  1.
</event>
<event>
 5   0  0.2092587E-02  0.5991651E+03  0.7818609E-02  0.9907140E-01
       -2   -1    0    0    0  501  0.00000000000E+00  0.00000000000E+00  0.70389671492E+02  0.70389671538E+02  0.25500000920E-02 0.  1.
        2   -1    0    0  501    0  0.00000000000E+00  0.00000000000E+00 -0.12750408609E+04  0.12750408609E+04  0.25500000920E-02 0. -1.
    10030    2    1    2    0    0  0.00000000000E+00  0.00000000000E+00 -0.12046511894E+04  0.13454305324E+04  0.59916511036E+03 0.  0.
        3    1    3    3  502    0  0.18492886314E+03 -0.15528826956E+03 -0.20418880240E+03  0.31623758207E+03  0.10100000352E+00 0.  1.
       -3    1    3    3    0  502 -0.18492886314E+03  0.15528826956E+03 -0.10004623870E+04  0.10291929503E+04  0.10100000352E+00 0. -1.
</event>
<event>
 5   0  0.1303808E-02  0.5983385E+03  0.7818609E-02  0.9908859E-01
        1   -1    0    0  501    0  0.00000000000E+00  0.00000000000E+00  0.47744719799E+03  0.47744719802E+03  0.50400001928E-02 0. -1.
       -1   -1    0    0    0  501  0.00000000000E+00  0.00000000000E+00 -0.18745997119E+03  0.18745997126E+03  0.50400001928E-02 0.  1.
    10030    2    1    2    0    0  0.00000000000E+00  0.00000000000E+00  0.28998722680E+03  0.66490716928E+03  0.59833849287E+03 0.  0.
        4    1    3    3  502    0 -0.21987788598E+03  0.44036457288E+02 -0.75066284173E+02  0.23647844348E+03  0.12699999809E+01 0. -1.
       -4    1    3    3    0  502  0.21987788598E+03 -0.44036457288E+02  0.36505351097E+03  0.42842872579E+03  0.12699999809E+01 0.  1.
</event>
<event>
 5   0  0.1276705E-02  0.5966271E+03  0.7818609E-02  0.9912429E-01
        1   -1    0    0  501    0  0.00000000000E+00  0.00000000000E+00  0.62641474865E+02  0.62641475067E+02  0.50400001928E-02 0.  1.
       -1   -1    0    0    0  501  0.00000000000E+00  0.00000000000E+00 -0.14206397793E+04  0.14206397793E+04  0.50400001928E-02 0. -1.
    10030    2    1    2    0    0  0.00000000000E+00  0.00000000000E+00 -0.13579983044E+04  0.14832812544E+04  0.59662709017E+03 0.  0.
        1    1    3    3  502    0  0.90079294751E+02  0.21943317467E+03 -0.11287432790E+04  0.11533978443E+04  0.50400001928E-02 0. -1.
       -1    1    3    3    0  502 -0.90079294751E+02 -0.21943317467E+03 -0.22925502545E+03  0.32988341002E+03  0.50400001928E-02 0.  1.
</event>
<event>
 5   0  0.2179625E-02  0.5991922E+03  0.7818609E-02  0.9907083E-01
        2   -1    0    0  501    0  0.00000000000E+00  0.00000000000E+00  0.28239268587E+03  0.28239268588E+03  0.25500000920E-02 0.  1.
       -2   -1    0    0    0  501  0.00000000000E+00  0.00000000000E+00 -0.31784753314E+03  0.31784753315E+03  0.25500000920E-02 0. -1.
    10030    2    1    2    0    0  0.00000000000E+00  0.00000000000E+00 -0.35454847276E+02  0.60024021903E+03  0.59919218482E+03 0.  0.
        1    1    3    3  502    0 -0.57707471995E+02 -0.21828475664E+02  0.27595968467E+03  0.28277266887E+03  0.50400001928E-02 0.  1.
       -1    1    3    3    0  502  0.57707471995E+02  0.21828475664E+02 -0.31141453194E+03  0.31746755016E+03  0.50400001928E-02 0. -1.
</event>
<event>
 5   0  0.1332555E-02  0.6098028E+03  0.7818609E-02  0.9885275E-01
        1   -1    0    0  501    0  0.00000000000E+00  0.00000000000E+00  0.50504945692E+03  0.50504945695E+03  0.50400001928E-02 0. -1.
       -1   -1    0    0    0  501  0.00000000000E+00  0.00000000000E+00 -0.18407080548E+03  0.18407080554E+03  0.50400001928E-02 0.  1.
    10030    2    1    2    0    0  0.00000000000E+00  0.00000000000E+00  0.32097865145E+03  0.68912026249E+03  0.60980278902E+03 0.  0.
        2    1    3    3  502    0 -0.36066940631E+02  0.11409204155E+03  0.47740725572E+03  0.49217426382E+03  0.25500000920E-02 0. -1.
       -2    1    3    3    0  502  0.36066940631E+02 -0.11409204155E+03 -0.15642860427E+03  0.19694599867E+03  0.25500000920E-02 0.  1.
</event>
<event>
 5   0  0.2126207E-02  0.6005112E+03  0.7818609E-02  0.9904346E-01
       -2   -1    0    0    0  501  0.00000000000E+00  0.00000000000E+00  0.58556153444E+02  0.58556153500E+02  0.25500000920E-02 0. -1.
        2   -1    0    0  501    0  0.00000000000E+00  0.00000000000E+00 -0.15396061741E+04  0.15396061741E+04  0.25500000920E-02 0.  1.
    10030    2    1    2    0    0  0.00000000000E+00  0.00000000000E+00 -0.14810500206E+04  0.15981623276E+04  0.60051116699E+03 0.  0.
        5    1    3    3  502    0 -0.13627002990E+03  0.23897091810E+03 -0.10604914381E+04  0.10956006576E+04  0.46999998093E+01 0. -1.
       -5    1    3    3    0  502  0.13627002990E+03 -0.23897091810E+03 -0.42055858255E+03  0.50256166995E+03  0.46999998093E+01 0.  1.
</event>
<event>
 5   0  0.1332555E-02  0.5997557E+03  0.7818609E-02  0.9905913E-01
        1   -1    0    0  501    0  0.00000000000E+00  0.00000000000E+00  0.31466105614E+03  0.31466105618E+03  0.50400001928E-02 0.  1.
       -1   -1    0    0    0  501  0.00000000000E+00  0.00000000000E+00 -0.28578918907E+03  0.28578918912E+03  0.50400001928E-02 0. -1.
    10030    2    1    2    0    0  0.00000000000E+00  0.00000000000E+00  0.28871867068E+02  0.60045024530E+03  0.59975571058E+03 0.  0.
        2    1    3    3  502    0 -0.28857519570E+03  0.87392604447E+01 -0.66742549286E+02  0.29632176116E+03  0.25500000920E-02 0. -1.
       -2    1    3    3    0  502  0.28857519570E+03 -0.87392604447E+01  0.95614416354E+02  0.30412848414E+03  0.25500000920E-02 0.  1.
</event>
<event>
 5   0  0.1337051E-02  0.5840835E+03  0.7818609E-02  0.9938989E-01
       -1   -1    0    0    0  501  0.00000000000E+00  0.00000000000E+00  0.54017244823E+02  0.54017245058E+02  0.50400001928E-02 0. -1.
        1   -1    0    0  501    0  0.00000000000E+00  0.00000000000E+00 -0.15789100535E+04  0.15789100535E+04  0.50400001928E-02 0.  1.
    10030    2    1    2    0    0  0.00000000000E+00  0.00000000000E+00 -0.15248928087E+04  0.16329272986E+04  0.58408345675E+03 0.  0.
        5    1    3    3  502    0 -0.27393668319E+03  0.16785872356E+02 -0.48367050070E+03  0.55613156281E+03  0.46999998093E+01 0. -1.
       -5    1    3    3    0  502  0.27393668319E+03 -0.16785872356E+02 -0.10412223080E+04  0.10767957357E+04  0.46999998093E+01 0.  1.
</event>
<event>
 5   0  0.1276705E-02  0.6006177E+03  0.7818609E-02  0.9904125E-01
       -1   -1    0    0    0  501  0.00000000000E+00  0.00000000000E+00  0.18324665215E+03  0.18324665222E+03  0.50400001928E-02 0. -1.
        1   -1    0    0  501    0  0.00000000000E+00  0.00000000000E+00 -0.49215311636E+03  0.49215311639E+03  0.50400001928E-02 0.  1.
    10030    2    1    2    0    0  0.00000000000E+00  0.00000000000E+00 -0.30890646421E+03  0.67539976861E+03  0.60061771852E+03 0.  0.
        1    1    3    3  502    0  0.25220528609E+03 -0.16087132741E+03 -0.12473724250E+03  0.32410873177E+03  0.50400001928E-02 0.  1.
       -1    1    3    3    0  502 -0.25220528609E+03  0.16087132741E+03 -0.18416922171E+03  0.35129103684E+03  0.50400001928E-02 0. -1.
</event>
<event>
 5   0  0.2126207E-02  0.6003397E+03  0.7818609E-02  0.9904701E-01
        2   -1    0    0  501    0  0.00000000000E+00  0.00000000000E+00  0.73159377894E+03  0.73159377895E+03  0.25500000920E-02 0. -1.
       -2   -1    0    0    0  501  0.00000000000E+00  0.00000000000E+00 -0.12315843592E+03  0.12315843594E+03  0.25500000920E-02 0.  1.
    10030    2    1    2    0    0  0.00000000000E+00  0.00000000000E+00  0.60843534302E+03  0.85475221489E+03  0.60033972234E+03 0.  0.
        5    1    3    3  502    0 -0.80012680564E+02  0.24697678687E+03  0.89796587319E+02  0.27474548112E+03  0.46999998093E+01 0.  1.
       -5    1    3    3    0  502  0.80012680564E+02 -0.24697678687E+03  0.51863875571E+03  0.58000673377E+03  0.46999998093E+01 0. -1.
</event>
<event>
 5   0  0.1332555E-02  0.6013351E+03  0.7818609E-02  0.9902640E-01
       -1   -1    0    0    0  501  0.00000000000E+00  0.00000000000E+00  0.23359894671E+03  0.23359894677E+03  0.50400001928E-02 0. -1.
        1   -1    0    0  501    0  0.00000000000E+00  0.00000000000E+00 -0.38699223552E+03  0.38699223555E+03  0.50400001928E-02 0.  1.
    10030    2    1    2    0    0  0.00000000000E+00  0.00000000000E+00 -0.15339328881E+03  0.62059118232E+03  0.60133511000E+03 0.  0.
        2    1    3    3  502    0 -0.59993301695E+02  0.19593831553E+03 -0.30376488550E+03  0.36642069457E+03  0.25500000920E-02 0.  1.
       -2    1    3    3    0  502  0.59993301695E+02 -0.19593831553E+03  0.15037159669E+03  0.25417048775E+03  0.25500000920E-02 0. -1.
</event>
<event>
 5   0  0.1250390E-02  0.6001202E+03  0.7818609E-02  0.9905157E-01
       -1   -1    0    0    0  501  0.00000000000E+00  0.00000000000E+00  0.12423698855E+03  0.12423698866E+03  0.50400001928E-02 0.  1.
        1   -1    0    0  501    0  0.00000000000E+00  0.00000000000E+00 -0.72471217910E+03  0.72471217912E+03  0.50400001928E-02 0. -1.
    10030    2    1    2    0    0  0.00000000000E+00  0.00000000000E+00 -0.60047519055E+03  0.84894916778E+03  0.60012018380E+03 0.  0.
        3    1    3    3  502    0 -0.16637540174E+03  0.12579612712E+03 -0.60538720583E+03  0.64031173586E+03  0.10100000352E+00 0. -1.
       -3    1    3    3    0  502  0.16637540174E+03 -0.12579612712E+03  0.49120152785E+01  0.20863743191E+03  0.10100000352E+00 0.  1.
</event>
<event>
 5   0  0.2092587E-02  0.6128637E+03  0.7818609E-02  0.9879072E-01
       -2   -1    0    0    0  501  0.00000000000E+00  0.00000000000E+00  0.12323394813E+03  0.12323394816E+03  0.25500000920E-02 0.  1.
        2   -1    0    0  501    0  0.00000000000E+00  0.00000000000E+00 -0.76196932152E+03  0.76196932152E+03  0.25500000920E-02 0. -1.
    10030    2    1    2    0    0  0.00000000000E+00  0.00000000000E+00 -0.63873537339E+03  0.88520326968E+03  0.61286372991E+03 0.  0.
        3    1    3    3  502    0  0.48997182537E+02 -0.12255718867E+03  0.80072337129E+02  0.15437803524E+03  0.10100000352E+00 0.  1.
       -3    1    3    3    0  502 -0.48997182537E+02  0.12255718867E+03 -0.71880771052E+03  0.73082523444E+03  0.10100000352E+00 0. -1.
</event>
<event>
 5   0  0.2126207E-02  0.6001601E+03  0.7818609E-02  0.9905074E-01
       -2   -1    0    0    0  501  0.00000000000E+00  0.00000000000E+00  0.11968625569E+03  0.11968625572E+03  0.25500000920E-02 0.  1.
        2   -1    0    0  501    0  0.00000000000E+00  0.00000000000E+00 -0.75236732916E+03  0.75236732916E+03  0.25500000920E-02 0. -1.
    10030    2    1    2    0    0  0.00000000000E+00  0.00000000000E+00 -0.63268107346E+03  0.87205358488E+03  0.60016007380E+03 0.  0.
        5    1    3    3  502    0  0.25261856577E+01  0.66253053337E+02  0.10885556229E+03  0.12754400076E+03  0.46999998093E+01 0.  1.
       -5    1    3    3    0  502 -0.25261856577E+01 -0.66253053337E+02 -0.74153663575E+03  0.74450958412E+03  0.46999998093E+01 0. -1.
</event>
<event>
 5   0  0.2179625E-02  0.5935112E+03  0.7818609E-02  0.9918960E-01
       -2   -1    0    0    0  501  0.00000000000E+00  0.00000000000E+00  0.85766766143E+02  0.85766766181E+02  0.25500000920E-02 0.  1.
        2   -1    0    0  501    0  0.00000000000E+00  0.00000000000E+00 -0.10267834799E+04  0.10267834799E+04  0.25500000920E-02 0. -1.
    10030    2    1    2    0    0  0.00000000000E+00  0.00000000000E+00 -0.94101671378E+03  0.11125502461E+04  0.59351124210E+03 0.  0.
        1    1    3    3  502    0 -0.21073521138E+03 -0.61546973812E+02 -0.96229794028E+02  0.23970300912E+03  0.50400001928E-02 0.  1.
       -1    1    3    3    0  502  0.21073521138E+03  0.61546973812E+02 -0.84478691975E+03  0.87284723698E+03  0.50400001928E-02 0. -1.
</event>
<event>
 5   0  0.1303808E-02  0.6005018E+03  0.7818609E-02  0.9904365E-01
       -1   -1    0    0    0  501  0.00000000000E+00  0.00000000000E+00  0.90487319396E+02  0.90487319537E+02  0.50400001928E-02 0.  1.
        1   -1    0    0  501    0  0.00000000000E+00  0.00000000000E+00 -0.99627895255E+03  0.99627895256E+03  0.50400001928E-02 0. -1.
    10030    2    1    2    0    0  0.00000000000E+00  0.00000000000E+00 -0.90579163315E+03  0.10867662721E+04  0.60050182971E+03 0.  0.
        4    1    3    3  502    0 -0.17950686877E+03 -0.82393793570E+02 -0.43642924287E+02  0.20228141510E+03  0.12699999809E+01 0.  1.
       -4    1    3    3    0  502  0.17950686877E+03  0.82393793570E+02 -0.86214870886E+03  0.88448485699E+03  0.12699999809E+01 0. -1.
</event>
<event>
 5   0  0.1250390E-02  0.5977386E+03  0.7818609E-02  0.9910109E-01
        1   -1    0    0  501    0  0.00000000000E+00  0.00000000000E+00  0.18612357045E+03  0.18612357052E+03  0.50400001928E-02 0. -1.
       -1   -1    0    0    0  501  0.00000000000E+00  0.00000000000E+00 -0.47991160354E+03  0.47991160356E+03  0.50400001928E-02 0.  1.
    10030    2    1    2    0    0  0.00000000000E+00  0.00000000000E+00 -0.29378803308E+03  0.66603517408E+03  0.59773860904E+03 0.  0.
        3    1    3    3  502    0  0.72020408978E+01  0.19663227265E+03 -0.39755688126E+03  0.44358494573E+03  0.10100000352E+00 0.  1.
       -3    1    3    3    0  502 -0.72020408978E+01 -0.19663227265E+03  0.10376884818E+03  0.22245022835E+03  0.10100000352E+00 0. -1.
</event>
<event>
 5   0  0.1276705E-02  0.6013611E+03  0.7818609E-02  0.9902586E-01
        1   -1    0    0  501    0  0.00000000000E+00  0.00000000000E+00  0.12254826433E+04  0.12254826433E+04  0.50400001928E-02 0. -1.
       -1   -1    0    0    0  501  0.00000000000E+00  0.00000000000E+00 -0.73774034329E+02  0.73774034501E+02  0.50400001928E-02 0.  1.
    10030    2    1    2    0    0  0.00000000000E+00  0.00000000000E+00  0.11517086090E+04  0.12992566778E+04  0.60136111851E+03 0.  0.
        1    1    3    3  502    0  0.13260725051E+03 -0.61371579199E+02  0.11436152230E+04  0.11529123696E+04  0.50400001928E-02 0. -1.
       -1    1    3    3    0  502 -0.13260725051E+03  0.61371579199E+02  0.80933859343E+01  0.14634430820E+03  0.50400001928E-02 0.  1.
</event>
<event>
 5   0  0.2141800E-02  0.6012454E+03  0.7818609E-02  0.9902826E-01
        2   -1    0    0  501    0  0.00000000000E+00  0.00000000000E+00  0.67923557269E+03  0.67923557269E+03  0.25500000920E-02 0.  1.
       -2   -1    0    0    0  501  0.00000000000E+00  0.00000000000E+00 -0.13305250904E+03  0.13305250907E+03  0.25500000920E-02 0. -1.
    10030    2    1    2    0    0  0.00000000000E+00  0.00000000000E+00  0.54618306364E+03  0.81228808176E+03  0.60124536485E+03 0.  0.
        2    1    3    3  502    0 -0.28376476389E+02  0.10376125450E+03  0.65234363050E+03  0.66115341231E+03  0.25500000920E-02 0.  1.
       -2    1    3    3    0  502  0.28376476389E+02 -0.10376125450E+03 -0.10616056685E+03  0.15113466945E+03  0.25500000920E-02 0. -1.
</event>
<event>
 5   0  0.1276705E-02  0.5941135E+03  0.7818609E-02  0.9917694E-01
       -1   -1    0    0    0  501  0.00000000000E+00  0.00000000000E+00  0.55858633751E+02  0.55858633979E+02  0.50400001928E-02 0. -1.
        1   -1    0    0  501    0  0.00000000000E+00  0.00000000000E+00 -0.15797507724E+04  0.15797507724E+04  0.50400001928E-02 0.  1.
    10030    2    1    2    0    0  0.00000000000E+00  0.00000000000E+00 -0.15238921387E+04  0.16356094064E+04  0.59411352453E+03 0.  0.
        1    1    3    3  502    0  0.37399615500E+02  0.17692576197E+03 -0.14107568212E+04  0.14222996397E+04  0.50400001928E-02 0.  1.
       -1    1    3    3    0  502 -0.37399615500E+02 -0.17692576197E+03 -0.11313531745E+03  0.21330976669E+03  0.50400001928E-02 0. -1.
</event>
<event>
 5   0  0.8551000E-03  0.5992426E+03  0.7818609E-02  0.9906979E-01
        4   -1    0    0  501    0  0.00000000000E+00  0.00000000000E+00  0.20133256437E+03  0.20133656989E+03  0.12699999809E+01 0. -1.
       -4   -1    0    0    0  501  0.00000000000E+00  0.00000000000E+00 -0.44588439344E+03  0.44588620208E+03  0.12699999809E+01 0.  1.
    10030    2    1    2    0    0  0.00000000000E+00  0.00000000000E+00 -0.24455182907E+03  0.64722277198E+03  0.59924262153E+03 0.  0.
        4    1    3    3  502    0 -0.13238364134E+02  0.24117817349E+03 -0.31375327003E+03  0.39596072155E+03  0.12699999809E+01 0.  1.
       -4    1    3    3    0  502  0.13238364134E+02 -0.24117817349E+03  0.69201440967E+02  0.25126205043E+03  0.12699999809E+01 0. -1.
</event>
<event>
 5   0  0.1303808E-02  0.6014991E+03  0.7818609E-02  0.9902301E-01
       -1   -1    0    0    0  501  0.00000000000E+00  0.00000000000E+00  0.13394761606E+03  0.13394761615E+03  0.50400001928E-02 0. -1.
        1   -1    0    0  501    0  0.00000000000E+00  0.00000000000E+00 -0.67526614561E+03  0.67526614563E+03  0.50400001928E-02 0.  1.
    10030    2    1    2    0    0  0.00000000000E+00  0.00000000000E+00 -0.54131852955E+03  0.80921376178E+03  0.60149909545E+03 0.  0.
        4    1    3    3  502    0 -0.29943724779E+03 -0.17843391306E+02 -0.24156700813E+03  0.38514579616E+03  0.12699999809E+01 0.  1.
       -4    1    3    3    0  502  0.29943724779E+03  0.17843391306E+02 -0.29975152142E+03  0.42406796563E+03  0.12699999809E+01 0. -1.
</event>
<event>
 5   0  0.2092587E-02  0.6002941E+03  0.7818609E-02  0.9904796E-01
        2   -1    0    0  501    0  0.00000000000E+00  0.00000000000E+00  0.36669367648E+03  0.36669367649E+03  0.25500000920E-02 0.  1.
       -2   -1    0    0    0  501  0.00000000000E+00  0.00000000000E+00 -0.24567713836E+03  0.24567713838E+03  0.25500000920E-02 0. -1.
    10030    2    1    2    0    0  0.00000000000E+00  0.00000000000E+00  0.12101653812E+03  0.61237081487E+03  0.60029410492E+03 0.  0.
        3    1    3    3  502    0  0.20691733723E+03  0.98113354447E+02  0.25844067731E+03  0.34530075102E+03  0.10100000352E+00 0.  1.
       -3    1    3    3    0  502 -0.20691733723E+03 -0.98113354447E+02 -0.13742413920E+03  0.26707006384E+03  0.10100000352E+00 0. -1.
</event>
<event>
 5   0  0.2092587E-02  0.5966180E+03  0.7818609E-02  0.9912448E-01
        2   -1    0    0  501    0  0.00000000000E+00  0.00000000000E+00  0.15827398519E+04  0.15827398519E+04  0.25500000920E-02 0. -1.
       -2   -1    0    0    0  501  0.00000000000E+00  0.00000000000E+00 -0.56224182232E+02  0.56224182290E+02  0.25500000920E-02 0.  1.
    10030    2    1    2    0    0  0.00000000000E+00  0.00000000000E+00  0.15265156697E+04  0.16389640342E+04  0.59661798132E+03 0.  0.
        3    1    3    3  502    0 -0.13380640049E+03 -0.10670079912E+03  0.92050453603E+02  0.19432578202E+03  0.10100000352E+00 0.  1.
       -3    1    3    3    0  502  0.13380640049E+03  0.10670079912E+03  0.14344652161E+04  0.14446382522E+04  0.10100000352E+00 0. -1.
</event>
<event>
 5   0  0.8551000E-03  0.6003205E+03  0.7818609E-02  0.9904741E-01
       -4   -1    0    0    0  501  0.00000000000E+00  0.00000000000E+00  0.19021238363E+03  0.19021662332E+03  0.12699999809E+01 0.  1.
        4   -1    0    0  501    0  0.00000000000E+00  0.00000000000E+00 -0.47365053778E+03  0.47365224041E+03  0.12699999809E+01 0. -1.
    10030    2    1    2    0    0  0.00000000000E+00  0.00000000000E+00 -0.28343815415E+03  0.66386886372E+03  0.60032048190E+03 0.  0.
        5    1    3    3  502    0 -0.76229068782E+02  0.26873838084E+03 -0.20362160125E+02  0.28012121631E+03  0.46999998093E+01 0.  1.
       -5    1    3    3    0  502  0.76229068782E+02 -0.26873838084E+03 -0.26307599403E+03  0.38374764741E+03  0.46999998093E+01 0. -1.
</event>
<event>
 5   0  0.8551000E-03  0.6008492E+03  0.7818609E-02  0.9903646E-01
       -3   -1    0    0    0  501  0.00000000000E+00  0.00000000000E+00  0.64030221181E+03  0.64030221978E+03  0.10100000352E+00 0.  1.
        3   -1    0    0  501    0  0.00000000000E+00  0.00000000000E+00 -0.14095675079E+03  0.14095678698E+03  0.10100000352E+00 0. -1.
    10030    2    1    2    0    0  0.00000000000E+00  0.00000000000E+00  0.49934546102E+03  0.78125900676E+03  0.60084918757E+03 0.  0.
        2    1    3    3  502    0 -0.15532177331E+03 -0.13404411403E+03  0.53502608499E+03  0.57301447573E+03  0.25500000920E-02 0.  1.
       -2    1    3    3    0  502  0.15532177331E+03  0.13404411403E+03 -0.35680623967E+02  0.20824453103E+03  0.25500000920E-02 0. -1.
</event>
<event>
 5   0  0.1337051E-02  0.5978569E+03  0.7818609E-02  0.9909862E-01
        1   -1    0    0  501    0  0.00000000000E+00  0.00000000000E+00  0.30362879439E+03  0.30362879443E+03  0.50400001928E-02 0. -1.
       -1   -1    0    0    0  501  0.00000000000E+00  0.00000000000E+00 -0.29430089233E+03  0.29430089237E+03  0.50400001928E-02 0.  1.
    10030    2    1    2    0    0  0.00000000000E+00  0.00000000000E+00  0.93279020641E+01  0.59792968680E+03  0.59785692319E+03 0.  0.
        5    1    3    3  502    0 -0.84636587593E+02  0.13538572216E+03 -0.24803949339E+03  0.29502258558E+03  0.46999998093E+01 0.  1.
       -5    1    3    3    0  502  0.84636587593E+02 -0.13538572216E+03  0.25736739546E+03  0.30290710122E+03  0.46999998093E+01 0. -1.
</event>
<event>
 5   0  0.2126207E-02  0.6007167E+03  0.7818609E-02  0.9903920E-01
       -2   -1    0    0    0  501  0.00000000000E+00  0.00000000000E+00  0.16908521884E+03  0.16908521886E+03  0.25500000920E-02 0. -1.
        2   -1    0    0  501    0  0.00000000000E+00  0.00000000000E+00 -0.53354831748E+03  0.53354831748E+03  0.25500000920E-02 0.  1.
    10030    2    1    2    0    0  0.00000000000E+00  0.00000000000E+00 -0.36446309864E+03  0.70263353634E+03  0.60071668540E+03 0.  0.
        5    1    3    3  502    0 -0.73230346957E+02 -0.28548296862E+02  0.15679875008E+03  0.17545833407E+03  0.46999998093E+01 0. -1.
       -5    1    3    3    0  502  0.73230346957E+02  0.28548296862E+02 -0.52126184872E+03  0.52717520228E+03  0.46999998093E+01 0.  1.
</event>
<event>
 5   0  0.2179625E-02  0.6029954E+03  0.7818609E-02  0.9899211E-01
        2   -1    0    0  501    0  0.00000000000E+00  0.00000000000E+00  0.82345155685E+03  0.82345155685E+03  0.25500000920E-02 0.  1.
       -2   -1    0    0    0  501  0.00000000000E+00  0.00000000000E+00 -0.11039006489E+03  0.11039006492E+03  0.25500000920E-02 0. -1.
    10030    2    1    2    0    0  0.00000000000E+00  0.00000000000E+00  0.71306149196E+03  0.93384162177E+03  0.60299542556E+03 0.  0.
        1    1    3    3  502    0 -0.16076752580E+03 -0.25483416337E+03  0.33997932629E+03  0.45428250076E+03  0.50400001928E-02 0.  1.
       -1    1    3    3    0  502  0.16076752580E+03  0.25483416337E+03  0.37308216567E+03  0.47955912101E+03  0.50400001928E-02 0. -1.
</event>
<event>
 5   0  0.1337051E-02  0.6010978E+03  0.7818609E-02  0.9903131E-01
        1   -1    0    0  501    0  0.00000000000E+00  0.00000000000E+00  0.71432133832E+03  0.71432133833E+03  0.50400001928E-02 0. -1.
       -1   -1    0    0    0  501  0.00000000000E+00  0.00000000000E+00 -0.12645519729E+03  0.12645519739E+03  0.50400001928E-02 0.  1.
    10030    2    1    2    0    0  0.00000000000E+00  0.00000000000E+00  0.58786614103E+03  0.84077653572E+03  0.60109781504E+03 0.  0.
        5    1    3    3  502    0  0.25634661058E+03 -0.34623570668E+02  0.50787633766E+03  0.56997617560E+03  0.46999998093E+01 0. -1.
       -5    1    3    3    0  502 -0.25634661058E+03  0.34623570668E+02  0.79989803371E+02  0.27080036012E+03  0.46999998093E+01 0.  1.
</event>
<event>
 5   0  0.1332555E-02  0.5997937E+03  0.7818609E-02  0.9905834E-01
       -1   -1    0    0    0  501  0.00000000000E+00  0.00000000000E+00  0.40130546218E+03  0.40130546221E+03  0.50400001928E-02 0.  1.
        1   -1    0    0  501    0  0.00000000000E+00  0.00000000000E+00 -0.22411390116E+03  0.22411390122E+03  0.50400001928E-02 0. -1.
    10030    2    1    2    0    0  0.00000000000E+00  0.00000000000E+00  0.17719156101E+03  0.62541936343E+03  0.59979374026E+03 0.  0.
        2    1    3    3  502    0  0.22838788140E+03 -0.19024119113E+03  0.13011397734E+03  0.32447246767E+03  0.25500000920E-02 0.  1.
       -2    1    3    3    0  502 -0.22838788140E+03  0.19024119113E+03  0.47077583675E+02  0.30094689575E+03  0.25500000920E-02 0. -1.
</event>
<event>
 5   0  0.2142838E-02  0.5999523E+03  0.7818609E-02  0.9905505E-01
       -2   -1    0    0    0  501  0.00000000000E+00  0.00000000000E+00  0.11562061576E+03  0.11562061579E+03  0.25500000920E-02 0. -1.
        2   -1    0    0  501    0  0.00000000000E+00  0.00000000000E+00 -0.77828425589E+03  0.77828425590E+03  0.25500000920E-02 0.  1.
    10030    2    1    2    0    0  0.00000000000E+00  0.00000000000E+00 -0.66266364013E+03  0.89390487168E+03  0.59995234783E+03 0.  0.
        4    1    3    3  502    0 -0.24293635122E+03  0.14318351310E+03 -0.17891466638E+03  0.33396356076E+03  0.12699999809E+01 0. -1.
       -4    1    3    3    0  502  0.24293635122E+03 -0.14318351310E+03 -0.48374897375E+03  0.55994131092E+03  0.12699999809E+01 0.  1.
</event>
<event>
 5   0  0.2092587E-02  0.6000778E+03  0.7818609E-02  0.9905245E-01
       -2   -1    0    0    0  501  0.00000000000E+00  0.00000000000E+00  0.22563297300E+03  0.22563297301E+03  0.25500000920E-02 0. -1.
        2   -1    0    0  501    0  0.00000000000E+00  0.00000000000E+00 -0.39898134450E+03  0.39898134451E+03  0.25500000920E-02 0.  1.
    10030    2    1    2    0    0  0.00000000000E+00  0.00000000000E+00 -0.17334837150E+03  0.62461431752E+03  0.60007781808E+03 0.  0.
        3    1    3    3  502    0  0.14348849863E+03  0.86735192963E+02  0.17231978396E+03  0.24042891067E+03  0.10100000352E+00 0. -1.
       -3    1    3    3    0  502 -0.14348849863E+03 -0.86735192963E+02 -0.34566815546E+03  0.38418540685E+03  0.10100000352E+00 0.  1.
</event>
<event>
 5   0  0.2126207E-02  0.6023075E+03  0.7818609E-02  0.9900630E-01
        2   -1    0    0  501    0  0.00000000000E+00  0.00000000000E+00  0.20843562927E+03  0.20843562928E+03  0.25500000920E-02 0.  1.
       -2   -1    0    0    0  501  0.00000000000E+00  0.00000000000E+00 -0.43511560549E+03  0.43511560550E+03  0.25500000920E-02 0. -1.
    10030    2    1    2    0    0  0.00000000000E+00  0.00000000000E+00 -0.22667997622E+03  0.64355123478E+03  0.60230754617E+03 0.  0.
        5    1    3    3  502    0 -0.18250335996E+03 -0.16735181382E+03 -0.29641269865E+03  0.38625986578E+03  0.46999998093E+01 0. -1.
       -5    1    3    3    0  502  0.18250335996E+03  0.16735181382E+03  0.69732722434E+02  0.25729136900E+03  0.46999998093E+01 0.  1.
</event>
<event>
 5   0  0.2126207E-02  0.5995355E+03  0.7818609E-02  0.9906370E-01
        2   -1    0    0  501    0  0.00000000000E+00  0.00000000000E+00  0.15528149132E+04  0.15528149132E+04  0.25500000920E-02 0. -1.
       -2   -1    0    0    0  501  0.00000000000E+00  0.00000000000E+00 -0.57869557288E+02  0.57869557344E+02  0.25500000920E-02 0.  1.
    10030    2    1    2    0    0  0.00000000000E+00  0.00000000000E+00  0.14949453559E+04  0.16106844706E+04  0.59953552564E+03 0.  0.
        5    1    3    3  502    0 -0.11257211169E+02 -0.74526960602E+02 -0.31894827628E+02  0.81977818265E+02  0.46999998093E+01 0.  1.
       -5    1    3    3    0  502  0.11257211169E+02  0.74526960602E+02  0.15268401836E+04  0.15287066523E+04  0.46999998093E+01 0. -1.
</event>
<event>
 5   0  0.2126207E-02  0.5996050E+03  0.7818609E-02  0.9906226E-01
       -2   -1    0    0    0  501  0.00000000000E+00  0.00000000000E+00  0.10820974345E+03  0.10820974348E+03  0.25500000920E-02 0.  1.
        2   -1    0    0  501    0  0.00000000000E+00  0.00000000000E+00 -0.83062332273E+03  0.83062332273E+03  0.25500000920E-02 0. -1.
    10030    2    1    2    0    0  0.00000000000E+00  0.00000000000E+00 -0.72241357928E+03  0.93883306621E+03  0.59960499222E+03 0.  0.
        5    1    3    3  502    0 -0.45423052801E+02  0.14280534063E+03  0.45294750431E+02  0.15662159319E+03  0.46999998093E+01 0.  1.
       -5    1    3    3    0  502  0.45423052801E+02 -0.14280534063E+03 -0.76770832971E+03  0.78221147303E+03  0.46999998093E+01 0. -1.
</event>
<event>
 5   0  0.1337051E-02  0.5977208E+03  0.7818609E-02  0.9910146E-01
       -1   -1    0    0    0  501  0.00000000000E+00  0.00000000000E+00  0.11104488453E+03  0.11104488465E+03  0.50400001928E-02 0. -1.
        1   -1    0    0  501    0  0.00000000000E+00  0.00000000000E+00 -0.80433726630E+03  0.80433726631E+03  0.50400001928E-02 0.  1.
    10030    2    1    2    0    0  0.00000000000E+00  0.00000000000E+00 -0.69329238176E+03  0.91538215096E+03  0.59772080078E+03 0.  0.
        5    1    3    3  502    0  0.16335465154E+03 -0.17417849314E+03 -0.62176531096E+03  0.66606086926E+03  0.46999998093E+01 0.  1.
       -5    1    3    3    0  502 -0.16335465154E+03  0.17417849314E+03 -0.71527070808E+02  0.24932128170E+03  0.46999998093E+01 0. -1.
</event>
<event>
 5   0  0.2179625E-02  0.6068275E+03  0.7818609E-02  0.9891342E-01
       -2   -1    0    0    0  501  0.00000000000E+00  0.00000000000E+00  0.50604919713E+03  0.50604919713E+03  0.25500000920E-02 0. -1.
        2   -1    0    0  501    0  0.00000000000E+00  0.00000000000E+00 -0.18191888509E+03  0.18191888511E+03  0.25500000920E-02 0.  1.
    10030    2    1    2    0    0  0.00000000000E+00  0.00000000000E+00  0.32413031204E+03  0.68796808224E+03  0.60682750679E+03 0.  0.
        1    1    3    3  502    0 -0.28963231614E+03 -0.58992446373E+02  0.84400301183E+02  0.30739290516E+03  0.50400001928E-02 0.  1.
       -1    1    3    3    0  502  0.28963231614E+03  0.58992446373E+02  0.23973001085E+03  0.38057517708E+03  0.50400001928E-02 0. -1.
</event>
<event>
 5   0  0.1332555E-02  0.6041890E+03  0.7818609E-02  0.9896753E-01
       -1   -1    0    0    0  501  0.00000000000E+00  0.00000000000E+00  0.19674007815E+03  0.19674007822E+03  0.50400001928E-02 0.  1.
        1   -1    0    0  501    0  0.00000000000E+00  0.00000000000E+00 -0.46386621846E+03  0.46386621848E+03  0.50400001928E-02 0. -1.
    10030    2    1    2    0    0  0.00000000000E+00  0.00000000000E+00 -0.26712614030E+03  0.66060629670E+03  0.60418896416E+03 0.  0.
        2    1    3    3  502    0 -0.25378981293E+02 -0.40338277100E+02 -0.45973009524E+03  0.46219371455E+03  0.25500000920E-02 0. -1.
       -2    1    3    3    0  502  0.25378981293E+02  0.40338277100E+02  0.19260395494E+03  0.19841258215E+03  0.25500000920E-02 0.  1.
</event>
<event>
 5   0  0.1332555E-02  0.6016877E+03  0.7818609E-02  0.9901911E-01
        1   -1    0    0  501    0  0.00000000000E+00  0.00000000000E+00  0.66584522218E+03  0.66584522220E+03  0.50400001928E-02 0.  1.
       -1   -1    0    0    0  501  0.00000000000E+00  0.00000000000E+00 -0.13592804016E+03  0.13592804025E+03  0.50400001928E-02 0. -1.
    10030    2    1    2    0    0  0.00000000000E+00  0.00000000000E+00  0.52991718202E+03  0.80177326245E+03  0.60168774674E+03 0.  0.
        2    1    3    3  502    0  0.26227088061E+03  0.16827996387E+02  0.46006472038E+03  0.52983841238E+03  0.25500000920E-02 0.  1.
       -2    1    3    3    0  502 -0.26227088061E+03 -0.16827996387E+02  0.69852461637E+02  0.27193485007E+03  0.25500000920E-02 0. -1.
</event>
<event>
 5   0  0.1250390E-02  0.5997566E+03  0.7818609E-02  0.9905911E-01
       -1   -1    0    0    0  501  0.00000000000E+00  0.00000000000E+00  0.25589647350E+03  0.25589647355E+03  0.50400001928E-02 0. -1.
        1   -1    0    0  501    0  0.00000000000E+00  0.00000000000E+00 -0.35141946898E+03  0.35141946902E+03  0.50400001928E-02 0.  1.
    10030    2    1    2    0    0  0.00000000000E+00  0.00000000000E+00 -0.95522995480E+02  0.60731594257E+03  0.59975662684E+03 0.  0.
        3    1    3    3  502    0 -0.64924837487E+02  0.12684732546E+03 -0.31494605843E+03  0.34568267012E+03  0.10100000352E+00 0.  1.
       -3    1    3    3    0  502  0.64924837487E+02 -0.12684732546E+03  0.21942306295E+03  0.26163327245E+03  0.10100000352E+00 0. -1.
</event>
<event>
 5   0  0.2179625E-02  0.5998293E+03  0.7818609E-02  0.9905760E-01
        2   -1    0    0  501    0  0.00000000000E+00  0.00000000000E+00  0.59072275987E+03  0.59072275988E+03  0.25500000920E-02 0. -1.
       -2   -1    0    0    0  501  0.00000000000E+00  0.00000000000E+00 -0.15226907747E+03  0.15226907749E+03  0.25500000920E-02 0.  1.
    10030    2    1    2    0    0  0.00000000000E+00  0.00000000000E+00  0.43845368240E+03  0.74299183737E+03  0.59982934139E+03 0.  0.
        1    1    3    3  502    0 -0.96653227245E+02 -0.14674562176E+03 -0.81830828115E+02  0.19383603457E+03  0.50400001928E-02 0.  1.
       -1    1    3    3    0  502  0.96653227245E+02  0.14674562176E+03  0.52028451052E+03  0.54915580280E+03  0.50400001928E-02 0. -1.
</event>
<event>
 5   0  0.1303808E-02  0.6004682E+03  0.7818609E-02  0.9904435E-01
       -1   -1    0    0    0  501  0.00000000000E+00  0.00000000000E+00  0.14817678234E+03  0.14817678243E+03  0.50400001928E-02 0. -1.
        1   -1    0    0  501    0  0.00000000000E+00  0.00000000000E+00 -0.60833083282E+03  0.60833083284E+03  0.50400001928E-02 0.  1.
    10030    2    1    2    0    0  0.00000000000E+00  0.00000000000E+00 -0.46015405048E+03  0.75650761527E+03  0.60046816884E+03 0.  0.
        4    1    3    3  502    0  0.87024625414E+02  0.27575824167E+03 -0.12832408228E+03  0.31636146457E+03  0.12699999809E+01 0. -1.
       -4    1    3    3    0  502 -0.87024625414E+02 -0.27575824167E+03 -0.33182996820E+03  0.44014615070E+03  0.12699999809E+01 0.  1.
</event>
<event>
 5   0  0.1303808E-02  0.5603409E+03  0.7818609E-02  0.9991284E-01
        1   -1    0    0  501    0  0.00000000000E+00  0.00000000000E+00  0.10521427344E+03  0.10521427356E+03  0.50400001928E-02 0. -1.
       -1   -1    0    0    0  501  0.00000000000E+00  0.00000000000E+00 -0.74605355382E+03  0.74605355384E+03  0.50400001928E-02 0.  1.
    10030    2    1    2    0    0  0.00000000000E+00  0.00000000000E+00 -0.64083928038E+03  0.85126782740E+03  0.56034090578E+03 0.  0.
        4    1    3    3  502    0 -0.12631494825E+03  0.12803396102E+03  0.59273045486E+01  0.17995807058E+03  0.12699999809E+01 0. -1.
       -4    1    3    3    0  502  0.12631494825E+03 -0.12803396102E+03 -0.64676658493E+03  0.67130975682E+03  0.12699999809E+01 0.  1.
</event>
<event>
 5   0  0.1337051E-02  0.5987324E+03  0.7818609E-02  0.9908039E-01
       -1   -1    0    0    0  501  0.00000000000E+00  0.00000000000E+00  0.89574365068E+02  0.89574365210E+02  0.50400001928E-02 0.  1.
        1   -1    0    0  501    0  0.00000000000E+00  0.00000000000E+00 -0.10005107716E+04  0.10005107716E+04  0.50400001928E-02 0. -1.
    10030    2    1    2    0    0  0.00000000000E+00  0.00000000000E+00 -0.91093640653E+03  0.10900851368E+04  0.59873238494E+03 0.  0.
        5    1    3    3  502    0  0.16538552566E+03  0.63418874112E+02 -0.89478476360E+03  0.91216017719E+03  0.46999998093E+01 0. -1.
       -5    1    3    3    0  502 -0.16538552566E+03 -0.63418874112E+02 -0.16151642936E+02  0.17792495963E+03  0.46999998093E+01 0.  1.
</event>
<event>
 5   0  0.2141800E-02  0.5991700E+03  0.7818609E-02  0.9907130E-01
        2   -1    0    0  501    0  0.00000000000E+00  0.00000000000E+00  0.13245850625E+04  0.13245850625E+04  0.25500000920E-02 0.  1.
       -2   -1    0    0    0  501  0.00000000000E+00  0.00000000000E+00 -0.67757943637E+02  0.67757943685E+02  0.25500000920E-02 0. -1.
    10030    2    1    2    0    0  0.00000000000E+00  0.00000000000E+00  0.12568271188E+04  0.13923430062E+04  0.59916995933E+03 0.  0.
        2    1    3    3  502    0  0.15805075673E+02  0.27590491109E+03  0.35963835565E+03  0.45355602437E+03  0.25500000920E-02 0. -1.
       -2    1    3    3    0  502 -0.15805075673E+02 -0.27590491109E+03  0.89718876320E+03  0.93878698180E+03  0.25500000920E-02 0.  1.
</event>
<event>
 5   0  0.2142838E-02  0.6023284E+03  0.7818609E-02  0.9900587E-01
        2   -1    0    0  501    0  0.00000000000E+00  0.00000000000E+00  0.88062245823E+03  0.88062245823E+03  0.25500000920E-02 0.  1.
       -2   -1    0    0    0  501  0.00000000000E+00  0.00000000000E+00 -0.10299518570E+03  0.10299518573E+03  0.25500000920E-02 0. -1.
    10030    2    1    2    0    0  0.00000000000E+00  0.00000000000E+00  0.77762727253E+03  0.98361764396E+03  0.60232839425E+03 0.  0.
        4    1    3    3  502    0  0.24507613448E+03  0.12973449048E+03  0.58068483094E+03  0.64349812392E+03  0.12699999809E+01 0.  1.
       -4    1    3    3    0  502 -0.24507613448E+03 -0.12973449048E+03  0.19694244160E+03  0.34011952004E+03  0.12699999809E+01 0. -1.
</event>
<event>
 5   0  0.2126207E-02  0.6052438E+03  0.7818609E-02  0.9894586E-01
        2   -1    0    0  501    0  0.00000000000E+00  0.00000000000E+00  0.10054630001E+04  0.10054630001E+04  0.25500000920E-02 0.  1.
       -2   -1    0    0    0  501  0.00000000000E+00  0.00000000000E+00 -0.91082423971E+02  0.91082424006E+02  0.25500000920E-02 0. -1.
    10030    2    1    2    0    0  0.00000000000E+00  0.00000000000E+00  0.91438057616E+03  0.10965454241E+04  0.60524377662E+03 0.  0.
        5    1    3    3  502    0 -0.81724455363E+02 -0.27918287445E+03  0.30630413906E+03  0.42245269510E+03  0.46999998093E+01 0.  1.
       -5    1    3    3    0  502  0.81724455363E+02  0.27918287445E+03  0.60807643710E+03  0.67409272904E+03  0.46999998093E+01 0. -1.
</event>
<event>
 5   0  0.2092587E-02  0.5970432E+03  0.7818609E-02  0.9911560E-01
        2   -1    0    0  501    0  0.00000000000E+00  0.00000000000E+00  0.36971501274E+03  0.36971501275E+03  0.25500000920E-02 0.  1.
       -2   -1    0    0    0  501  0.00000000000E+00  0.00000000000E+00 -0.24103739830E+03  0.24103739831E+03  0.25500000920E-02 0. -1.
    10030    2    1    2    0    0  0.00000000000E+00  0.00000000000E+00  0.12867761444E+03  0.61075241106E+03  0.59704319706E+03 0.  0.
        3    1    3    3  502    0  0.50549098755E+01 -0.13751280292E+03 -0.20665884890E+03  0.24828051295E+03  0.10100000352E+00 0. -1.
       -3    1    3    3    0  502 -0.50549098755E+01  0.13751280292E+03  0.33533646333E+03  0.36247189811E+03  0.10100000352E+00 0.  1.
</event>
<event>
 5   0  0.2126207E-02  0.5994469E+03  0.7818609E-02  0.9906554E-01
       -2   -1    0    0    0  501  0.00000000000E+00  0.00000000000E+00  0.15298321368E+03  0.15298321370E+03  0.25500000920E-02 0.  1.
        2   -1    0    0  501    0  0.00000000000E+00  0.00000000000E+00 -0.58721571303E+03  0.58721571303E+03  0.25500000920E-02 0. -1.
    10030    2    1    2    0    0  0.00000000000E+00  0.00000000000E+00 -0.43423249935E+03  0.74019892673E+03  0.59944690144E+03 0.  0.
        5    1    3    3  502    0  0.29465211681E+03  0.43450098213E+02 -0.17608294108E+03  0.34602756120E+03  0.46999998093E+01 0.  1.
       -5    1    3    3    0  502 -0.29465211681E+03 -0.43450098213E+02 -0.25814955827E+03  0.39417136553E+03  0.46999998093E+01 0. -1.
</event>
<event>
 5   0  0.2141800E-02  0.6004899E+03  0.7818609E-02  0.9904390E-01
       -2   -1    0    0    0  501  0.00000000000E+00  0.00000000000E+00  0.30403953539E+03  0.30403953540E+03  0.25500000920E-02 0. -1.
        2   -1    0    0  501    0  0.00000000000E+00  0.00000000000E+00 -0.29649776925E+03  0.29649776926E+03  0.25500000920E-02 0.  1.
    10030    2    1    2    0    0  0.00000000000E+00  0.00000000000E+00  0.75417661439E+01  0.60053730466E+03  0.60048994667E+03 0.  0.
        2    1    3    3  502    0  0.35478620560E+02  0.78045944357E+02  0.29153850158E+03  0.30388254287E+03  0.25500000920E-02 0. -1.
       -2    1    3    3    0  502 -0.35478620560E+02 -0.78045944357E+02 -0.28399673544E+03  0.29665476179E+03  0.25500000920E-02 0.  1.
</event>
<event>
 5   0  0.1276705E-02  0.5992502E+03  0.7818609E-02  0.9906963E-01
       -1   -1    0    0    0  501  0.00000000000E+00  0.00000000000E+00  0.13151178849E+03  0.13151178858E+03  0.50400001928E-02 0.  1.
        1   -1    0    0  501    0  0.00000000000E+00  0.00000000000E+00 -0.68263991033E+03  0.68263991034E+03  0.50400001928E-02 0. -1.
    10030    2    1    2    0    0  0.00000000000E+00  0.00000000000E+00 -0.55112812184E+03  0.81415169893E+03  0.59925018330E+03 0.  0.
        1    1    3    3  502    0 -0.87779421995E+02  0.27058194699E+03 -0.14771406347E+03  0.32052965781E+03  0.50400001928E-02 0.  1.
       -1    1    3    3    0  502  0.87779421995E+02 -0.27058194699E+03 -0.40341405837E+03  0.49362204112E+03  0.50400001928E-02 0. -1.
</event>
<event>
 5   0  0.1303808E-02  0.5970727E+03  0.7818609E-02  0.9911498E-01
        1   -1    0    0  501    0  0.00000000000E+00  0.00000000000E+00  0.15768096936E+04  0.15768096936E+04  0.50400001928E-02 0.  1.
       -1   -1    0    0    0  501  0.00000000000E+00  0.00000000000E+00 -0.56521685526E+02  0.56521685750E+02  0.50400001928E-02 0. -1.
    10030    2    1    2    0    0  0.00000000000E+00  0.00000000000E+00  0.15202880081E+04  0.16333313794E+04  0.59707266501E+03 0.  0.
        4    1    3    3  502    0 -0.21653994075E+03 -0.20637943505E+02  0.13194775707E+04  0.13372876067E+04  0.12699999809E+01 0.  1.
       -4    1    3    3    0  502  0.21653994075E+03  0.20637943505E+02  0.20081043739E+03  0.29604377263E+03  0.12699999809E+01 0. -1.
</event>
<event>
 5   0  0.2142838E-02  0.6010955E+03  0.7818609E-02  0.9903136E-01
        2   -1    0    0  501    0  0.00000000000E+00  0.00000000000E+00  0.17195971189E+04  0.17195971190E+04  0.25500000920E-02 0. -1.
       -2   -1    0    0    0  501  0.00000000000E+00  0.00000000000E+00 -0.52529143421E+02  0.52529143483E+02  0.25500000920E-02 0.  1.
    10030    2    1    2    0    0  0.00000000000E+00  0.00000000000E+00  0.16670679755E+04  0.17721262624E+04  0.60109554563E+03 0.  0.
        4    1    3    3  502    0  0.71252378137E+02  0.11522417202E+03  0.16244647879E+04  0.16301045891E+04  0.12699999809E+01 0. -1.
       -4    1    3    3    0  502 -0.71252378137E+02 -0.11522417202E+03  0.42603187592E+02  0.14202167335E+03  0.12699999809E+01 0.  1.
</event>
<event>
 5   0  0.2142838E-02  0.5996078E+03  0.7818609E-02  0.9906220E-01
       -2   -1    0    0    0  501  0.00000000000E+00  0.00000000000E+00  0.21656038588E+03  0.21656038590E+03  0.25500000920E-02 0.  1.
        2   -1    0    0  501    0  0.00000000000E+00  0.00000000000E+00 -0.41504528507E+03  0.41504528507E+03  0.25500000920E-02 0. -1.
    10030    2    1    2    0    0  0.00000000000E+00  0.00000000000E+00 -0.19848489918E+03  0.63160567097E+03  0.59960776212E+03 0.  0.
        4    1    3    3  502    0 -0.13802405492E+03  0.18361713899E+03 -0.30217545725E+03  0.37957543826E+03  0.12699999809E+01 0. -1.
       -4    1    3    3    0  502  0.13802405492E+03 -0.18361713899E+03  0.10369055806E+03  0.25203023271E+03  0.12699999809E+01 0.  1.
</event>
<event>
 5   0  0.1332555E-02  0.5974338E+03  0.7818609E-02  0.9910744E-01
        1   -1    0    0  501    0  0.00000000000E+00  0.00000000000E+00  0.35917753663E+03  0.35917753667E+03  0.50400001928E-02 0.  1.
       -1   -1    0    0    0  501  0.00000000000E+00  0.00000000000E+00 -0.24843364427E+03  0.24843364432E+03  0.50400001928E-02 0. -1.
    10030    2    1    2    0    0  0.00000000000E+00  0.00000000000E+00  0.11074389236E+03  0.60761118099E+03  0.59743379346E+03 0.  0.
        2    1    3    3  502    0 -0.46335219127E+02 -0.29024207692E+03  0.10961309926E+03  0.31369164363E+03  0.25500000920E-02 0.  1.
       -2    1    3    3    0  502  0.46335219127E+02  0.29024207692E+03  0.11307931057E+01  0.29391953737E+03  0.25500000920E-02 0. -1.
</event>
<event>
 5   0  0.8551000E-03  0.6018617E+03  0.7818609E-02  0.9901551E-01
        4   -1    0    0  501    0  0.00000000000E+00  0.00000000000E+00  0.18574669562E+03  0.18575103723E+03  0.12699999809E+01 0.  1.
       -4   -1    0    0    0  501  0.00000000000E+00  0.00000000000E+00 -0.48753151957E+03  0.48753317372E+03  0.12699999809E+01 0. -1.
    10030    2    1    2    0    0  0.00000000000E+00  0.00000000000E+00 -0.30178482396E+03  0.67328421095E+03  0.60186173557E+03 0.  0.
        3    1    3    3  502    0 -0.29289809387E+02  0.27495782619E+03 -0.18059316875E+02  0.27710259516E+03  0.10100000352E+00 0.  1.
       -3    1    3    3    0  502  0.29289809387E+02 -0.27495782619E+03 -0.28372550708E+03  0.39618161579E+03  0.10100000352E+00 0. -1.
</event>
<event>
 5   0  0.2141800E-02  0.5997409E+03  0.7818609E-02  0.9905944E-01
        2   -1    0    0  501    0  0.00000000000E+00  0.00000000000E+00  0.10979230307E+04  0.10979230307E+04  0.25500000920E-02 0. -1.
       -2   -1    0    0    0  501  0.00000000000E+00  0.00000000000E+00 -0.81902173876E+02  0.81902173915E+02  0.25500000920E-02 0.  1.
    10030    2    1    2    0    0  0.00000000000E+00  0.00000000000E+00  0.10160208568E+04  0.11798252046E+04  0.59974088735E+03 0.  0.
        2    1    3    3  502    0  0.13569806840E+03  0.69787948006E+02  0.10158363404E+04  0.10272330767E+04  0.25500000920E-02 0. -1.
       -2    1    3    3    0  502 -0.13569806840E+03 -0.69787948006E+02  0.18451647067E+00  0.15259212793E+03  0.25500000920E-02 0.  1.
</event>
<event>
 5   0  0.2092587E-02  0.6003741E+03  0.7818609E-02  0.9904630E-01
       -2   -1    0    0    0  501  0.00000000000E+00  0.00000000000E+00  0.26266713261E+03  0.26266713262E+03  0.25500000920E-02 0.  1.
        2   -1    0    0  501    0  0.00000000000E+00  0.00000000000E+00 -0.34306636238E+03  0.34306636239E+03  0.25500000920E-02 0. -1.
    10030    2    1    2    0    0  0.00000000000E+00  0.00000000000E+00 -0.80399229773E+02  0.60573349501E+03  0.60037407575E+03 0.  0.
        3    1    3    3  502    0 -0.16775903222E+03  0.10669185067E+03 -0.26712069581E+03  0.33298606611E+03  0.10100000352E+00 0. -1.
       -3    1    3    3    0  502  0.16775903222E+03 -0.10669185067E+03  0.18672146604E+03  0.27274742890E+03  0.10100000352E+00 0.  1.
</event>
<event>
 5   0  0.8551000E-03  0.6006086E+03  0.7818609E-02  0.9904144E-01
        3   -1    0    0  501    0  0.00000000000E+00  0.00000000000E+00  0.12206536251E+03  0.12206540429E+03  0.10100000352E+00 0. -1.
       -3   -1    0    0    0  501  0.00000000000E+00  0.00000000000E+00 -0.73880625964E+03  0.73880626654E+03  0.10100000352E+00 0.  1.
    10030    2    1    2    0    0  0.00000000000E+00  0.00000000000E+00 -0.61674089713E+03  0.86087167084E+03  0.60060860754E+03 0.  0.
        5    1    3    3  502    0  0.18905916860E+03  0.15112485774E+03 -0.53662460781E+02  0.24795935464E+03  0.46999998093E+01 0. -1.
       -5    1    3    3    0  502 -0.18905916860E+03 -0.15112485774E+03 -0.56307843635E+03  0.61291231619E+03  0.46999998093E+01 0.  1.
</event>
<event>
 5   0  0.8551000E-03  0.5990572E+03  0.7818609E-02  0.9907364E-01
        3   -1    0    0  501    0  0.00000000000E+00  0.00000000000E+00  0.23055508112E+03  0.23055510324E+03  0.10100000352E+00 0.  1.
       -3   -1    0    0    0  501  0.00000000000E+00  0.00000000000E+00 -0.38913638787E+03  0.38913640098E+03  0.10100000352E+00 0. -1.
    10030    2    1    2    0    0  0.00000000000E+00  0.00000000000E+00 -0.15858130675E+03  0.61969150422E+03  0.59905720057E+03 0.  0.
        1    1    3    3  502    0 -0.28157545219E+03 -0.38140869640E+02 -0.17730623985E+03  0.33492829670E+03  0.50400001928E-02 0. -1.
       -1    1    3    3    0  502  0.28157545219E+03  0.38140869640E+02  0.18724933101E+02  0.28476320752E+03  0.50400001928E-02 0.  1.
</event>
<event>
 5   0  0.2141800E-02  0.6011715E+03  0.7818609E-02  0.9902979E-01
        2   -1    0    0  501    0  0.00000000000E+00  0.00000000000E+00  0.15003338491E+04  0.15003338491E+04  0.25500000920E-02 0.  1.
       -2   -1    0    0    0  501  0.00000000000E+00  0.00000000000E+00 -0.60221121160E+02  0.60221121214E+02  0.25500000920E-02 0. -1.
    10030    2    1    2    0    0  0.00000000000E+00  0.00000000000E+00  0.14401127279E+04  0.15605549703E+04  0.60117147820E+03 0.  0.
        2    1    3    3  502    0  0.30047139129E+03  0.80962047683E+01  0.72468618859E+03  0.78454998404E+03  0.25500000920E-02 0. -1.
       -2    1    3    3    0  502 -0.30047139129E+03 -0.80962047683E+01  0.71542653934E+03  0.77600498626E+03  0.25500000920E-02 0.  1.
</event>
<event>
 5   0  0.2179625E-02  0.5998153E+03  0.7818609E-02  0.9905789E-01
       -2   -1    0    0    0  501  0.00000000000E+00  0.00000000000E+00  0.51817528479E+02  0.51817528542E+02  0.25500000920E-02 0.  1.
        2   -1    0    0  501    0  0.00000000000E+00  0.00000000000E+00 -0.17357949867E+04  0.17357949867E+04  0.25500000920E-02 0. -1.
    10030    2    1    2    0    0  0.00000000000E+00  0.00000000000E+00 -0.16839774582E+04  0.17876125152E+04  0.59981532563E+03 0.  0.
        1    1    3    3  502    0  0.56305937766E+02  0.65989959901E+02  0.13611728042E+02  0.87808385711E+02  0.50400001928E-02 0.  1.
       -1    1    3    3    0  502 -0.56305937766E+02 -0.65989959901E+02 -0.16975891863E+04  0.16998041295E+04  0.50400001928E-02 0. -1.
</event>
<event>
 5   0  0.1250390E-02  0.5792386E+03  0.7818609E-02  0.9949441E-01
        1   -1    0    0  501    0  0.00000000000E+00  0.00000000000E+00  0.64474729855E+02  0.64474730052E+02  0.50400001928E-02 0.  1.
       -1   -1    0    0    0  501  0.00000000000E+00  0.00000000000E+00 -0.13009647641E+04  0.13009647641E+04  0.50400001928E-02 0. -1.
    10030    2    1    2    0    0  0.00000000000E+00  0.00000000000E+00 -0.12364900342E+04  0.13654394942E+04  0.57923864462E+03 0.  0.
        3    1    3    3  502    0 -0.24623430252E+02  0.37876843957E+02 -0.12926075374E+04  0.12933967777E+04  0.10100000352E+00 0. -1.
       -3    1    3    3    0  502  0.24623430252E+02 -0.37876843957E+02  0.56117503186E+02  0.72042716428E+02  0.10100000352E+00 0.  1.
</event>
<event>
 5   0  0.2126207E-02  0.6009568E+03  0.7818609E-02  0.9903423E-01
       -2   -1    0    0    0  501  0.00000000000E+00  0.00000000000E+00  0.51666773347E+02  0.51666773410E+02  0.25500000920E-02 0.  1.
        2   -1    0    0  501    0  0.00000000000E+00  0.00000000000E+00 -0.17474917508E+04  0.17474917508E+04  0.25500000920E-02 0. -1.
    10030    2    1    2    0    0  0.00000000000E+00  0.00000000000E+00 -0.16958249774E+04  0.17991585242E+04  0.60095677140E+03 0.  0.
        5    1    3    3  502    0  0.26121754869E+03 -0.58378558825E+02 -0.43936244262E+03  0.51449403287E+03  0.46999998093E+01 0.  1.
       -5    1    3    3    0  502 -0.26121754869E+03  0.58378558825E+02 -0.12564625348E+04  0.12846644913E+04  0.46999998093E+01 0. -1.
</event>
<event>
 5   0  0.2142838E-02  0.6005220E+03  0.7818609E-02  0.9904324E-01
       -2   -1    0    0    0  501  0.00000000000E+00  0.00000000000E+00  0.12943033200E+03  0.12943033202E+03  0.25500000920E-02 0.  1.
        2   -1    0    0  501    0  0.00000000000E+00  0.00000000000E+00 -0.69656513316E+03  0.69656513317E+03  0.25500000920E-02 0. -1.
    10030    2    1    2    0    0  0.00000000000E+00  0.00000000000E+00 -0.56713480116E+03  0.82599546519E+03  0.60052196115E+03 0.  0.
        4    1    3    3  502    0 -0.18605067010E+03 -0.19477856094E+03 -0.46605092366E+03  0.53829231463E+03  0.12699999809E+01 0. -1.
       -4    1    3    3    0  502  0.18605067010E+03  0.19477856094E+03 -0.10108387750E+03  0.28770315056E+03  0.12699999809E+01 0.  1.
</event>
<event>
 5   0  0.2141800E-02  0.6001038E+03  0.7818609E-02  0.9905191E-01
        2   -1    0    0  501    0  0.00000000000E+00  0.00000000000E+00  0.79398910794E+03  0.79398910795E+03  0.25500000920E-02 0. -1.
       -2   -1    0    0    0  501  0.00000000000E+00  0.00000000000E+00 -0.11339088968E+03  0.11339088971E+03  0.25500000920E-02 0.  1.
    10030    2    1    2    0    0  0.00000000000E+00  0.00000000000E+00  0.68059821826E+03  0.90737999766E+03  0.60010376224E+03 0.  0.
        2    1    3    3  502    0  0.26207928073E+03 -0.14368782943E+03  0.30031177509E+03  0.42369671226E+03  0.25500000920E-02 0.  1.
       -2    1    3    3    0  502 -0.26207928073E+03  0.14368782943E+03  0.38028644317E+03  0.48368328540E+03  0.25500000920E-02 0. -1.
</event>
<event>
 5   0  0.1250390E-02  0.6012902E+03  0.7818609E-02  0.9902733E-01
       -1   -1    0    0    0  501  0.00000000000E+00  0.00000000000E+00  0.49394998191E+03  0.49394998193E+03  0.50400001928E-02 0.  1.
        1   -1    0    0  501    0  0.00000000000E+00  0.00000000000E+00 -0.18298915196E+03  0.18298915203E+03  0.50400001928E-02 0. -1.
    10030    2    1    2    0    0  0.00000000000E+00  0.00000000000E+00  0.31096082995E+03  0.67693913396E+03  0.60129024051E+03 0.  0.
        3    1    3    3  502    0 -0.16683580438E+03  0.11105411539E+03  0.40777330635E+03  0.45436360081E+03  0.10100000352E+00 0.  1.
       -3    1    3    3    0  502  0.16683580438E+03 -0.11105411539E+03 -0.96812476400E+02  0.22257553315E+03  0.10100000352E+00 0. -1.
</event>
<event>
 5   0  0.1337051E-02  0.5965875E+03  0.7818609E-02  0.9912511E-01
       -1   -1    0    0    0  501  0.00000000000E+00  0.00000000000E+00  0.27632943834E+03  0.27632943839E+03  0.50400001928E-02 0.  1.
        1   -1    0    0  501    0  0.00000000000E+00  0.00000000000E+00 -0.32200390221E+03  0.32200390225E+03  0.50400001928E-02 0. -1.
    10030    2    1    2    0    0  0.00000000000E+00  0.00000000000E+00 -0.45674463868E+02  0.59833334063E+03  0.59658748718E+03 0.  0.
        5    1    3    3  502    0  0.70421997335E+01  0.29610751163E+02 -0.32040513694E+03  0.32188185866E+03  0.46999998093E+01 0. -1.
       -5    1    3    3    0  502 -0.70421997335E+01 -0.29610751163E+02  0.27473067307E+03  0.27645148197E+03  0.46999998093E+01 0.  1.
</event>
<event>
 5   0  0.2179625E-02  0.5992927E+03  0.7818609E-02  0.9906875E-01
        2   -1    0    0  501    0  0.00000000000E+00  0.00000000000E+00  0.15908829967E+04  0.15908829967E+04  0.25500000920E-02 0.  1.
       -2   -1    0    0    0  501  0.00000000000E+00  0.00000000000E+00 -0.56439047507E+02  0.56439047565E+02  0.25500000920E-02 0. -1.
    10030    2    1    2    0    0  0.00000000000E+00  0.00000000000E+00  0.15344439492E+04  0.16473220442E+04  0.59929265331E+03 0.  0.
        1    1    3    3  502    0  0.86081851474E+02  0.81197090464E+01 -0.21403653165E+02  0.89073740364E+02  0.50400001928E-02 0. -1.
       -1    1    3    3    0  502 -0.86081851474E+02 -0.81197090464E+01  0.15558476023E+04  0.15582483039E+04  0.50400001928E-02 0.  1.
</event>
<event>
 5   0  0.2126207E-02  0.5975257E+03  0.7818609E-02  0.9910553E-01
        2   -1    0    0  501    0  0.00000000000E+00  0.00000000000E+00  0.14467116097E+03  0.14467116099E+03  0.25500000920E-02 0.  1.
       -2   -1    0    0    0  501  0.00000000000E+00  0.00000000000E+00 -0.61698015049E+03  0.61698015050E+03  0.25500000920E-02 0. -1.
    10030    2    1    2    0    0  0.00000000000E+00  0.00000000000E+00 -0.47230898952E+03  0.76165131149E+03  0.59752568038E+03 0.  0.
        5    1    3    3  502    0 -0.22186440880E+03  0.64408366415E+02 -0.47755288936E+03  0.53051965628E+03  0.46999998093E+01 0.  1.
       -5    1    3    3    0  502  0.22186440880E+03 -0.64408366415E+02  0.52438998436E+01  0.23113165521E+03  0.46999998093E+01 0. -1.
</event>
<event>
 5   0  0.2126207E-02  0.6009183E+03  0.7818609E-02  0.9903503E-01
       -2   -1    0    0    0  501  0.00000000000E+00  0.00000000000E+00  0.84363869287E+02  0.84363869325E+02  0.25500000920E-02 0.  1.
        2   -1    0    0  501    0  0.00000000000E+00  0.00000000000E+00 -0.10700753872E+04  0.10700753872E+04  0.25500000920E-02 0. -1.
    10030    2    1    2    0    0  0.00000000000E+00  0.00000000000E+00 -0.98571151795E+03  0.11544392566E+04  0.60091829767E+03 0.  0.
        5    1    3    3  502    0 -0.11232324233E+03  0.10163326727E+03 -0.99126752491E+03  0.10027857337E+04  0.46999998093E+01 0. -1.
       -5    1    3    3    0  502  0.11232324233E+03 -0.10163326727E+03  0.55560069604E+01  0.15165352286E+03  0.46999998093E+01 0.  1.
</event>
<event>
 5   0  0.1303808E-02  0.5993764E+03  0.7818609E-02  0.9906701E-01
       -1   -1    0    0    0  501  0.00000000000E+00  0.00000000000E+00  0.13348958247E+04  0.13348958247E+04  0.50400001928E-02 0. -1.
        1   -1    0    0  501    0  0.00000000000E+00  0.00000000000E+00 -0.67280914726E+02  0.67280914915E+02  0.50400001928E-02 0.  1.
    10030    2    1    2    0    0  0.00000000000E+00  0.00000000000E+00  0.12676149099E+04  0.14021767396E+04  0.59937638354E+03 0.  0.
        4    1    3    3  502    0  0.23839728838E+03  0.10802903315E+03  0.97529357140E+03  0.10098032989E+04  0.12699999809E+01 0. -1.
       -4    1    3    3    0  502 -0.23839728838E+03 -0.10802903315E+03  0.29232133853E+03  0.39237344070E+03  0.12699999809E+01 0.  1.
</event>
<event>
 5   0  0.1303808E-02  0.5973149E+03  0.7818609E-02  0.9910993E-01
        1   -1    0    0  501    0  0.00000000000E+00  0.00000000000E+00  0.68988277859E+03  0.68988277861E+03  0.50400001928E-02 0.  1.
       -1   -1    0    0    0  501  0.00000000000E+00  0.00000000000E+00 -0.12929190485E+03  0.12929190494E+03  0.50400001928E-02 0. -1.
    10030    2    1    2    0    0  0.00000000000E+00  0.00000000000E+00  0.56059087375E+03  0.81917468355E+03  0.59731485370E+03 0.  0.
        4    1    3    3  502    0 -0.16728062086E+03 -0.19756757086E+03  0.48453654369E+03  0.54935692062E+03  0.12699999809E+01 0. -1.
       -4    1    3    3    0  502  0.16728062086E+03  0.19756757086E+03  0.76054330061E+02  0.26981776293E+03  0.12699999809E+01 0.  1.
</event>
<event>
 5   0  0.1332555E-02  0.6008765E+03  0.7818609E-02  0.9903589E-01
       -1   -1    0    0    0  501  0.00000000000E+00  0.00000000000E+00  0.45799073591E+02  0.45799073868E+02  0.50400001928E-02 0. -1.
        1   -1    0    0  501    0  0.00000000000E+00  0.00000000000E+00 -0.19708511091E+04  0.19708511091E+04  0.50400001928E-02 0.  1.
    10030    2    1    2    0    0  0.00000000000E+00  0.00000000000E+00 -0.19250520355E+04  0.20166501830E+04  0.60087654396E+03 0.  0.
        2    1    3    3  502    0 -0.24830593747E+03 -0.16357932620E+03 -0.11068464935E+04  0.11460903955E+04  0.25500000920E-02 0.  1.
       -2    1    3    3    0  502  0.24830593747E+03  0.16357932620E+03 -0.81820554204E+03  0.87055978748E+03  0.25500000920E-02 0. -1.
</event>
<event>
 5   0  0.2179625E-02  0.6025232E+03  0.7818609E-02  0.9900185E-01
       -2   -1    0    0    0  501  0.00000000000E+00  0.00000000000E+00  0.16703144172E+03  0.16703144174E+03  0.25500000920E-02 0. -1.
        2   -1    0    0  501    0  0.00000000000E+00  0.00000000000E+00 -0.54336214469E+03  0.54336214469E+03  0.25500000920E-02 0.  1.
    10030    2    1    2    0    0  0.00000000000E+00  0.00000000000E+00 -0.37633070297E+03  0.71039358643E+03  0.60252323578E+03 0.  0.
        1    1    3    3  502    0 -0.23845696514E+03 -0.45363062352E+02 -0.39854569081E+03  0.46664568930E+03  0.50400001928E-02 0.  1.
       -1    1    3    3    0  502  0.23845696514E+03  0.45363062352E+02  0.22214987845E+02  0.24374789714E+03  0.50400001928E-02 0. -1.
</event>
<event>
 5   0  0.2126207E-02  0.6028736E+03  0.7818609E-02  0.9899462E-01
       -2   -1    0    0    0  501  0.00000000000E+00  0.00000000000E+00  0.56258535527E+03  0.56258535527E+03  0.25500000920E-02 0.  1.
        2   -1    0    0  501    0  0.00000000000E+00  0.00000000000E+00 -0.16151176437E+03  0.16151176439E+03  0.25500000920E-02 0. -1.
    10030    2    1    2    0    0  0.00000000000E+00  0.00000000000E+00  0.40107359090E+03  0.72409711966E+03  0.60287362969E+03 0.  0.
        5    1    3    3  502    0  0.55847330138E+02 -0.12696032796E+03 -0.12085872816E+03  0.18402926759E+03  0.46999998093E+01 0. -1.
       -5    1    3    3    0  502 -0.55847330138E+02  0.12696032796E+03  0.52193231906E+03  0.54006785207E+03  0.46999998093E+01 0.  1.
</event>
<event>
 5   0  0.2092587E-02  0.6025951E+03  0.7818609E-02  0.9900037E-01
        2   -1    0    0  501    0  0.00000000000E+00  0.00000000000E+00  0.11371727234E+04  0.11371727234E+04  0.25500000920E-02 0.  1.
       -2   -1    0    0    0  501  0.00000000000E+00  0.00000000000E+00 -0.79829754532E+02  0.79829754572E+02  0.25500000920E-02 0. -1.
    10030    2    1    2    0    0  0.00000000000E+00  0.00000000000E+00  0.10573429689E+04  0.12170024780E+04  0.60259511913E+03 0.  0.
        3    1    3    3  502    0  0.18480951110E+03 -0.10776827832E+03  0.10019368090E+03  0.23623577438E+03  0.10100000352E+00 0. -1.
       -3    1    3    3    0  502 -0.18480951110E+03  0.10776827832E+03  0.95714928801E+03  0.98076670363E+03  0.10100000352E+00 0.  1.
</event>
<event>
 5   0  0.1303808E-02  0.6008554E+03  0.7818609E-02  0.9903633E-01
        1   -1    0    0  501    0  0.00000000000E+00  0.00000000000E+00  0.94846177424E+03  0.94846177425E+03  0.50400001928E-02 0. -1.
       -1   -1    0    0    0  501  0.00000000000E+00  0.00000000000E+00 -0.95161251113E+02  0.95161251246E+02  0.50400001928E-02 0.  1.
    10030    2    1    2    0    0  0.00000000000E+00  0.00000000000E+00  0.85330052313E+03  0.10436230255E+04  0.60085542070E+03 0.  0.
        4    1    3    3  502    0 -0.11881293594E+03  0.88067753779E+02  0.88085008396E+03  0.89318023170E+03  0.12699999809E+01 0. -1.
       -4    1    3    3    0  502  0.11881293594E+03 -0.88067753779E+02 -0.27549560829E+02  0.15044279379E+03  0.12699999809E+01 0.  1.
</event>
<event>
 5   0  0.2179625E-02  0.6013068E+03  0.7818609E-02  0.9902699E-01
        2   -1    0    0  501    0  0.00000000000E+00  0.00000000000E+00  0.19357692643E+04  0.19357692643E+04  0.25500000920E-02 0. -1.
       -2   -1    0    0    0  501  0.00000000000E+00  0.00000000000E+00 -0.46695884923E+02  0.46695884993E+02  0.25500000920E-02 0.  1.
    10030    2    1    2    0    0  0.00000000000E+00  0.00000000000E+00  0.18890733794E+04  0.19824651493E+04  0.60130677320E+03 0.  0.
        1    1    3    3  502    0 -0.97027881082E+02 -0.15854122529E+03  0.16543744632E+03  0.24883584648E+03  0.50400001928E-02 0.  1.
       -1    1    3    3    0  502  0.97027881082E+02  0.15854122529E+03  0.17236359331E+04  0.17336293028E+04  0.50400001928E-02 0. -1.
</event>
<event>
 5   0  0.1303808E-02  0.6016459E+03  0.7818609E-02  0.9901997E-01
       -1   -1    0    0    0  501  0.00000000000E+00  0.00000000000E+00  0.10510128406E+04  0.10510128407E+04  0.50400001928E-02 0. -1.
        1   -1    0    0  501    0  0.00000000000E+00  0.00000000000E+00 -0.86102135007E+02  0.86102135154E+02  0.50400001928E-02 0.  1.
    10030    2    1    2    0    0  0.00000000000E+00  0.00000000000E+00  0.96491070563E+03  0.11371149758E+04  0.60164590779E+03 0.  0.
        4    1    3    3  502    0  0.14948917630E+03 -0.19807652999E+03  0.16109018104E+03  0.29585973854E+03  0.12699999809E+01 0.  1.
       -4    1    3    3    0  502 -0.14948917630E+03  0.19807652999E+03  0.80382052459E+03  0.84125523726E+03  0.12699999809E+01 0. -1.
</event>
<event>
 5   0  0.2092587E-02  0.5994602E+03  0.7818609E-02  0.9906527E-01
        2   -1    0    0  501    0  0.00000000000E+00  0.00000000000E+00  0.55804459411E+03  0.55804459412E+03  0.25500000920E-02 0.  1.
       -2   -1    0    0    0  501  0.00000000000E+00  0.00000000000E+00 -0.16098735460E+03  0.16098735462E+03  0.25500000920E-02 0. -1.
    10030    2    1    2    0    0  0.00000000000E+00  0.00000000000E+00  0.39705723951E+03  0.71903194874E+03  0.59946016704E+03 0.  0.
        3    1    3    3  502    0  0.23013927539E+03 -0.12898514960E+03  0.27897045274E+02  0.26529136856E+03  0.10100000352E+00 0.  1.
       -3    1    3    3    0  502 -0.23013927539E+03  0.12898514960E+03  0.36916019424E+03  0.45374058019E+03  0.10100000352E+00 0. -1.
</event>
<event>
 5   0  0.2142838E-02  0.6013580E+03  0.7818609E-02  0.9902593E-01
        2   -1    0    0  501    0  0.00000000000E+00  0.00000000000E+00  0.11279300327E+04  0.11279300327E+04  0.25500000920E-02 0.  1.
       -2   -1    0    0    0  501  0.00000000000E+00  0.00000000000E+00 -0.80153774421E+02  0.80153774462E+02  0.25500000920E-02 0. -1.
    10030    2    1    2    0    0  0.00000000000E+00  0.00000000000E+00  0.10477762583E+04  0.12080838072E+04  0.60135796139E+03 0.  0.
        4    1    3    3  502    0  0.29495554472E+03 -0.50475303159E+02  0.58279137340E+03  0.65512893952E+03  0.12699999809E+01 0.  1.
       -4    1    3    3    0  502 -0.29495554472E+03  0.50475303159E+02  0.46498488492E+03  0.55295486768E+03  0.12699999809E+01 0. -1.
</event>
<event>
 5   0  0.1276705E-02  0.5989763E+03  0.7818609E-02  0.9907532E-01
       -1   -1    0    0    0  501  0.00000000000E+00  0.00000000000E+00  0.51251097209E+03  0.51251097212E+03  0.50400001928E-02 0.  1.
        1   -1    0    0  501    0  0.00000000000E+00  0.00000000000E+00 -0.17500730054E+03  0.17500730061E+03  0.50400001928E-02 0. -1.
    10030    2    1    2    0    0  0.00000000000E+00  0.00000000000E+00  0.33750367155E+03  0.68751827273E+03  0.59897633261E+03 0.  0.
        1    1    3    3  502    0 -0.98356091481E+01 -0.11988081543E+03 -0.14606338200E+03  0.18921591028E+03  0.50400001928E-02 0. -1.
       -1    1    3    3    0  502  0.98356091481E+01  0.11988081543E+03  0.48356705355E+03  0.49830236245E+03  0.50400001928E-02 0.  1.
</event>
<event>
 5   0  0.2179625E-02  0.5982030E+03  0.7818609E-02  0.9909141E-01
        2   -1    0    0  501    0  0.00000000000E+00  0.00000000000E+00  0.55582625201E+03  0.55582625202E+03  0.25500000920E-02 0. -1.
       -2   -1    0    0    0  501  0.00000000000E+00  0.00000000000E+00 -0.16095266028E+03  0.16095266030E+03  0.25500000920E-02 0.  1.
    10030    2    1    2    0    0  0.00000000000E+00  0.00000000000E+00  0.39487359173E+03  0.71677891232E+03  0.59820302214E+03 0.  0.
        1    1    3    3  502    0 -0.25745345029E+03  0.30645387669E+02  0.18744063628E+02  0.25994760780E+03  0.50400001928E-02 0.  1.
       -1    1    3    3    0  502  0.25745345029E+03 -0.30645387669E+02  0.37612952810E+03  0.45683130452E+03  0.50400001928E-02 0. -1.
</event>
<event>
 5   0  0.1250390E-02  0.6019453E+03  0.7818609E-02  0.9901378E-01
        1   -1    0    0  501    0  0.00000000000E+00  0.00000000000E+00  0.57483327368E+03  0.57483327370E+03  0.50400001928E-02 0.  1.
       -1   -1    0    0    0  501  0.00000000000E+00  0.00000000000E+00 -0.15758402327E+03  0.15758402335E+03  0.50400001928E-02 0. -1.
    10030    2    1    2    0    0  0.00000000000E+00  0.00000000000E+00  0.41724925041E+03  0.73241729705E+03  0.60194531318E+03 0.  0.
        3    1    3    3  502    0 -0.15993918696E+03  0.39077482710E+02 -0.97931172969E+02  0.19156752862E+03  0.10100000352E+00 0. -1.
       -3    1    3    3    0  502  0.15993918696E+03 -0.39077482710E+02  0.51518042338E+03  0.54084976844E+03  0.10100000352E+00 0.  1.
</event>
<event>
 5   0  0.1337051E-02  0.6163282E+03  0.7818609E-02  0.9872097E-01
        1   -1    0    0  501    0  0.00000000000E+00  0.00000000000E+00  0.98631829328E+03  0.98631829329E+03  0.50400001928E-02 0.  1.
       -1   -1    0    0    0  501  0.00000000000E+00  0.00000000000E+00 -0.96282431643E+02  0.96282431775E+02  0.50400001928E-02 0. -1.
    10030    2    1    2    0    0  0.00000000000E+00  0.00000000000E+00  0.89003586163E+03  0.10826007251E+04  0.61632823635E+03 0.  0.
        5    1    3    3  502    0 -0.10797855338E+03  0.28788610125E+03  0.48037874760E+03  0.57037146355E+03  0.46999998093E+01 0.  1.
       -5    1    3    3    0  502  0.10797855338E+03 -0.28788610125E+03  0.40965711403E+03  0.51222926152E+03  0.46999998093E+01 0. -1.
</event>
<event>
 5   0  0.1303808E-02  0.6086816E+03  0.7818609E-02  0.9887556E-01
        1   -1    0    0  501    0  0.00000000000E+00  0.00000000000E+00  0.30936622853E+03  0.30936622857E+03  0.50400001928E-02 0. -1.
       -1   -1    0    0    0  501  0.00000000000E+00  0.00000000000E+00 -0.29939701693E+03  0.29939701697E+03  0.50400001928E-02 0.  1.
    10030    2    1    2    0    0  0.00000000000E+00  0.00000000000E+00  0.99692116029E+01  0.60876324554E+03  0.60868161131E+03 0.  0.
        4    1    3    3  502    0 -0.85676034095E+02  0.22398233460E+03 -0.18242580804E+03  0.30131255760E+03  0.12699999809E+01 0.  1.
       -4    1    3    3    0  502  0.85676034095E+02 -0.22398233460E+03  0.19239501964E+03  0.30745068794E+03  0.12699999809E+01 0. -1.
</event>
<event>
 5   0  0.1250390E-02  0.6008942E+03  0.7818609E-02  0.9903553E-01
       -1   -1    0    0    0  501  0.00000000000E+00  0.00000000000E+00  0.60678872686E+02  0.60678872896E+02  0.50400001928E-02 0.  1.
        1   -1    0    0  501    0  0.00000000000E+00  0.00000000000E+00 -0.14876421933E+04  0.14876421933E+04  0.50400001928E-02 0. -1.
    10030    2    1    2    0    0  0.00000000000E+00  0.00000000000E+00 -0.14269633206E+04  0.15483210662E+04  0.60089417177E+03 0.  0.
        3    1    3    3  502    0 -0.10315541164E+03 -0.18496716428E+03 -0.16437015850E+03  0.26808851154E+03  0.10100000352E+00 0.  1.
       -3    1    3    3    0  502  0.10315541164E+03  0.18496716428E+03 -0.12625931621E+04  0.12802325546E+04  0.10100000352E+00 0. -1.
</event>
<event>
 5   0  0.1250390E-02  0.6025983E+03  0.7818609E-02  0.9900030E-01
       -1   -1    0    0    0  501  0.00000000000E+00  0.00000000000E+00  0.22525552945E+03  0.22525552950E+03  0.50400001928E-02 0.  1.
        1   -1    0    0  501    0  0.00000000000E+00  0.00000000000E+00 -0.40301424732E+03  0.40301424735E+03  0.50400001928E-02 0. -1.
    10030    2    1    2    0    0  0.00000000000E+00  0.00000000000E+00 -0.17775871787E+03  0.62826977685E+03  0.60259833283E+03 0.  0.
        3    1    3    3  502    0  0.78218776835E+02  0.20975819981E+03 -0.29912449165E+03  0.37362033020E+03  0.10100000352E+00 0. -1.
       -3    1    3    3    0  502 -0.78218776835E+02 -0.20975819981E+03  0.12136577377E+03  0.25464944665E+03  0.10100000352E+00 0.  1.
</event>
<event>
 5   0  0.1303808E-02  0.6008162E+03  0.7818609E-02  0.9903714E-01
        1   -1    0    0  501    0  0.00000000000E+00  0.00000000000E+00  0.37660644582E+03  0.37660644586E+03  0.50400001928E-02 0. -1.
       -1   -1    0    0    0  501  0.00000000000E+00  0.00000000000E+00 -0.23962684967E+03  0.23962684973E+03  0.50400001928E-02 0.  1.
    10030    2    1    2    0    0  0.00000000000E+00  0.00000000000E+00  0.13697959615E+03  0.61623329558E+03  0.60081616558E+03 0.  0.
        4    1    3    3  502    0  0.60828379950E+01  0.21852086611E+02  0.37572409516E+03  0.37641031228E+03  0.12699999809E+01 0. -1.
       -4    1    3    3    0  502 -0.60828379950E+01 -0.21852086611E+02 -0.23874449902E+03  0.23982298330E+03  0.12699999809E+01 0.  1.
</event>
<event>
 5   0  0.1250390E-02  0.5997784E+03  0.7818609E-02  0.9905866E-01
       -1   -1    0    0    0  501  0.00000000000E+00  0.00000000000E+00  0.95987415132E+02  0.95987415265E+02  0.50400001928E-02 0.  1.
        1   -1    0    0  501    0  0.00000000000E+00  0.00000000000E+00 -0.93693044432E+03  0.93693044433E+03  0.50400001928E-02 0. -1.
    10030    2    1    2    0    0  0.00000000000E+00  0.00000000000E+00 -0.84094302919E+03  0.10329178596E+04  0.59977839769E+03 0.  0.
        3    1    3    3  502    0  0.15130625266E+03 -0.15795770843E+03 -0.77378549854E+03  0.80410709965E+03  0.10100000352E+00 0. -1.
       -3    1    3    3    0  502 -0.15130625266E+03  0.15795770843E+03 -0.67157530643E+02  0.22881075995E+03  0.10100000352E+00 0.  1.
</event>
<event>
 5   0  0.1276705E-02  0.6014439E+03  0.7818609E-02  0.9902415E-01
       -1   -1    0    0    0  501  0.00000000000E+00  0.00000000000E+00  0.15761565149E+03  0.15761565157E+03  0.50400001928E-02 0. -1.
        1   -1    0    0  501    0  0.00000000000E+00  0.00000000000E+00 -0.57376090150E+03  0.57376090153E+03  0.50400001928E-02 0.  1.
    10030    2    1    2    0    0  0.00000000000E+00  0.00000000000E+00 -0.41614525002E+03  0.73137655309E+03  0.60144392365E+03 0.  0.
        1    1    3    3  502    0 -0.11901746408E+03  0.10774988489E+03 -0.51728631777E+03  0.54162748179E+03  0.50400001928E-02 0.  1.
       -1    1    3    3    0  502  0.11901746408E+03 -0.10774988489E+03  0.10114106775E+03  0.18974907131E+03  0.50400001928E-02 0. -1.
</event>
<event>
 5   0  0.1250390E-02  0.5990632E+03  0.7818609E-02  0.9907352E-01
       -1   -1    0    0    0  501  0.00000000000E+00  0.00000000000E+00  0.33735310821E+03  0.33735310825E+03  0.50400001928E-02 0. -1.
        1   -1    0    0  501    0  0.00000000000E+00  0.00000000000E+00 -0.26595031987E+03  0.26595031992E+03  0.50400001928E-02 0.  1.
    10030    2    1    2    0    0  0.00000000000E+00  0.00000000000E+00  0.71402788342E+02  0.60330342817E+03  0.59906315882E+03 0.  0.
        3    1    3    3  502    0  0.28740898468E+03  0.50218179989E+02 -0.32552705734E+02  0.29357363459E+03  0.10100000352E+00 0.  1.
       -3    1    3    3    0  502 -0.28740898468E+03 -0.50218179989E+02  0.10395549408E+03  0.30972979357E+03  0.10100000352E+00 0. -1.
</event>
<event>
 5   0  0.2092587E-02  0.6003786E+03  0.7818609E-02  0.9904621E-01
        2   -1    0    0  501    0  0.00000000000E+00  0.00000000000E+00  0.15477005640E+04  0.15477005640E+04  0.25500000920E-02 0.  1.
       -2   -1    0    0    0  501  0.00000000000E+00  0.00000000000E+00 -0.58224188749E+02  0.58224188805E+02  0.25500000920E-02 0. -1.
    10030    2    1    2    0    0  0.00000000000E+00  0.00000000000E+00  0.14894763753E+04  0.16059247528E+04  0.60037857994E+03 0.  0.
        3    1    3    3  502    0 -0.26741484973E+03 -0.10632626760E+03  0.51623582125E+03  0.59102911128E+03  0.10100000352E+00 0. -1.
       -3    1    3    3    0  502  0.26741484973E+03  0.10632626760E+03  0.97324055400E+03  0.10148956415E+04  0.10100000352E+00 0.  1.
</event>
<event>
 5   0  0.2141800E-02  0.5977075E+03  0.7818609E-02  0.9910174E-01
       -2   -1    0    0    0  501  0.00000000000E+00  0.00000000000E+00  0.28198918011E+03  0.28198918012E+03  0.25500000920E-02 0. -1.
        2   -1    0    0  501    0  0.00000000000E+00  0.00000000000E+00 -0.31672687305E+03  0.31672687306E+03  0.25500000920E-02 0.  1.
    10030    2    1    2    0    0  0.00000000000E+00  0.00000000000E+00 -0.34737692942E+02  0.59871605318E+03  0.59770745772E+03 0.  0.
        2    1    3    3  502    0 -0.70571310484E+02  0.65541125793E+02  0.26601772240E+03  0.28291584910E+03  0.25500000920E-02 0. -1.
       -2    1    3    3    0  502  0.70571310484E+02 -0.65541125793E+02 -0.30075541534E+03  0.31580020408E+03  0.25500000920E-02 0.  1.
</event>
<event>
 5   0  0.1337051E-02  0.5993321E+03  0.7818609E-02  0.9906793E-01
       -1   -1    0    0    0  501  0.00000000000E+00  0.00000000000E+00  0.11009727642E+03  0.11009727654E+03  0.50400001928E-02 0. -1.
        1   -1    0    0  501    0  0.00000000000E+00  0.00000000000E+00 -0.81564007402E+03  0.81564007404E+03  0.50400001928E-02 0.  1.
    10030    2    1    2    0    0  0.00000000000E+00  0.00000000000E+00 -0.70554279760E+03  0.92573735057E+03  0.59933213079E+03 0.  0.
        5    1    3    3  502    0 -0.21231802923E+03 -0.60843398215E+01 -0.26343078047E+02  0.21408412479E+03  0.46999998093E+01 0. -1.
       -5    1    3    3    0  502  0.21231802923E+03  0.60843398215E+01 -0.67919971955E+03  0.71165322578E+03  0.46999998093E+01 0.  1.
</event>
<event>
 5   0  0.2092587E-02  0.5999870E+03  0.7818609E-02  0.9905433E-01
        2   -1    0    0  501    0  0.00000000000E+00  0.00000000000E+00  0.27517823512E+03  0.27517823513E+03  0.25500000920E-02 0. -1.
       -2   -1    0    0    0  501  0.00000000000E+00  0.00000000000E+00 -0.32704658657E+03  0.32704658658E+03  0.25500000920E-02 0.  1.
    10030    2    1    2    0    0  0.00000000000E+00  0.00000000000E+00 -0.51868351448E+02  0.60222482171E+03  0.59998700819E+03 0.  0.
        3    1    3    3  502    0  0.23105302870E+03  0.43367161462E+02  0.16112044622E+03  0.28500179149E+03  0.10100000352E+00 0. -1.
       -3    1    3    3    0  502 -0.23105302870E+03 -0.43367161462E+02 -0.21298879767E+03  0.31722303021E+03  0.10100000352E+00 0.  1.
</event>
<event>
 5   0  0.2179625E-02  0.6025445E+03  0.7818609E-02  0.9900141E-01
        2   -1    0    0  501    0  0.00000000000E+00  0.00000000000E+00  0.85246505457E+03  0.85246505458E+03  0.25500000920E-02 0.  1.
       -2   -1    0    0    0  501  0.00000000000E+00  0.00000000000E+00 -0.10647355333E+03  0.10647355336E+03  0.25500000920E-02 0. -1.
    10030    2    1    2    0    0  0.00000000000E+00  0.00000000000E+00  0.74599150125E+03  0.95893860793E+03  0.60254454927E+03 0.  0.
        1    1    3    3  502    0 -0.19913794014E+03  0.68325387115E+02  0.30029767154E+02  0.21266420636E+03  0.50400001928E-02 0. -1.
       -1    1    3    3    0  502  0.19913794014E+03 -0.68325387115E+02  0.71596173409E+03  0.74627440157E+03  0.50400001928E-02 0.  1.
</event>
<event>
 5   0  0.2142838E-02  0.6014411E+03  0.7818609E-02  0.9902421E-01
        2   -1    0    0  501    0  0.00000000000E+00  0.00000000000E+00  0.15067590477E+04  0.15067590477E+04  0.25500000920E-02 0.  1.
       -2   -1    0    0    0  501  0.00000000000E+00  0.00000000000E+00 -0.60018116575E+02  0.60018116629E+02  0.25500000920E-02 0. -1.
    10030    2    1    2    0    0  0.00000000000E+00  0.00000000000E+00  0.14467409312E+04  0.15667771644E+04  0.60144107017E+03 0.  0.
        4    1    3    3  502    0 -0.13312303550E+03 -0.19610937530E+03  0.12054827849E+04  0.12285646044E+04  0.12699999809E+01 0.  1.
       -4    1    3    3    0  502  0.13312303550E+03  0.19610937530E+03  0.24125814625E+03  0.33821255993E+03  0.12699999809E+01 0. -1.
</event>
<event>
 5   0  0.2141800E-02  0.5998652E+03  0.7818609E-02  0.9905686E-01
       -2   -1    0    0    0  501  0.00000000000E+00  0.00000000000E+00  0.28052643160E+03  0.28052643161E+03  0.25500000920E-02 0.  1.
        2   -1    0    0  501    0  0.00000000000E+00  0.00000000000E+00 -0.32068123531E+03  0.32068123532E+03  0.25500000920E-02 0. -1.
    10030    2    1    2    0    0  0.00000000000E+00  0.00000000000E+00 -0.40154803706E+02  0.60120766693E+03  0.59986519362E+03 0.  0.
        2    1    3    3  502    0  0.29236693001E+03  0.43647613229E+02  0.30790758119E+02  0.29720633691E+03  0.25500000920E-02 0.  1.
       -2    1    3    3    0  502 -0.29236693001E+03 -0.43647613229E+02 -0.70945561826E+02  0.30400133002E+03  0.25500000920E-02 0. -1.
</event>
<event>
 5   0  0.1337051E-02  0.6015416E+03  0.7818609E-02  0.9902213E-01
        1   -1    0    0  501    0  0.00000000000E+00  0.00000000000E+00  0.15788680299E+03  0.15788680307E+03  0.50400001928E-02 0.  1.
       -1   -1    0    0    0  501  0.00000000000E+00  0.00000000000E+00 -0.57296152460E+03  0.57296152462E+03  0.50400001928E-02 0. -1.
    10030    2    1    2    0    0  0.00000000000E+00  0.00000000000E+00 -0.41507472161E+03  0.73084832769E+03  0.60154156429E+03 0.  0.
        5    1    3    3  502    0 -0.27880266757E+03  0.26801737274E+01 -0.70603006797E+02  0.28765428094E+03  0.46999998093E+01 0.  1.
       -5    1    3    3    0  502  0.27880266757E+03 -0.26801737274E+01 -0.34447171481E+03  0.44319404675E+03  0.46999998093E+01 0. -1.
</event>
<event>
 5   0  0.2141800E-02  0.6002135E+03  0.7818609E-02  0.9904963E-01
       -2   -1    0    0    0  501  0.00000000000E+00  0.00000000000E+00  0.10162675941E+03  0.10162675944E+03  0.25500000920E-02 0. -1.
        2   -1    0    0  501    0  0.00000000000E+00  0.00000000000E+00 -0.88622378788E+03  0.88622378788E+03  0.25500000920E-02 0.  1.
    10030    2    1    2    0    0  0.00000000000E+00  0.00000000000E+00 -0.78459702847E+03  0.98785054733E+03  0.60021346767E+03 0.  0.
        2    1    3    3  502    0  0.29241188899E+03  0.15920591337E+02 -0.50029662268E+03  0.57970241394E+03  0.25500000920E-02 0.  1.
       -2    1    3    3    0  502 -0.29241188899E+03 -0.15920591337E+02 -0.28430040579E+03  0.40814813339E+03  0.25500000920E-02 0. -1.
</event>
<event>
 5   0  0.1337051E-02  0.5799407E+03  0.7818609E-02  0.9947919E-01
        1   -1    0    0  501    0  0.00000000000E+00  0.00000000000E+00  0.14647422309E+03  0.14647422318E+03  0.50400001928E-02 0. -1.
       -1   -1    0    0    0  501  0.00000000000E+00  0.00000000000E+00 -0.57404499540E+03  0.57404499543E+03  0.50400001928E-02 0.  1.
    10030    2    1    2    0    0  0.00000000000E+00  0.00000000000E+00 -0.42757077231E+03  0.72051921860E+03  0.57994066855E+03 0.  0.
        5    1    3    3  502    0  0.19496386507E+01  0.26817588888E+02  0.14487450582E+03  0.14742352797E+03  0.46999998093E+01 0. -1.
       -5    1    3    3    0  502 -0.19496386507E+01 -0.26817588888E+02 -0.57244527813E+03  0.57309569063E+03  0.46999998093E+01 0.  1.
</event>
<event>
 5   0  0.1332555E-02  0.5998825E+03  0.7818609E-02  0.9905650E-01
        1   -1    0    0  501    0  0.00000000000E+00  0.00000000000E+00  0.14233523359E+03  0.14233523368E+03  0.50400001928E-02 0.  1.
       -1   -1    0    0    0  501  0.00000000000E+00  0.00000000000E+00 -0.63206249484E+03  0.63206249486E+03  0.50400001928E-02 0. -1.
    10030    2    1    2    0    0  0.00000000000E+00  0.00000000000E+00 -0.48972726125E+03  0.77439772854E+03  0.59988253146E+03 0.  0.
        2    1    3    3  502    0  0.12710025121E+03  0.25673620731E+03 -0.35957954431E+03  0.45974493221E+03  0.25500000920E-02 0.  1.
       -2    1    3    3    0  502 -0.12710025121E+03 -0.25673620731E+03 -0.13014771694E+03  0.31465279632E+03  0.25500000920E-02 0. -1.
</event>
<event>
 5   0  0.1332555E-02  0.5989036E+03  0.7818609E-02  0.9907683E-01
        1   -1    0    0  501    0  0.00000000000E+00  0.00000000000E+00  0.16968332613E+03  0.16968332620E+03  0.50400001928E-02 0.  1.
       -1   -1    0    0    0  501  0.00000000000E+00  0.00000000000E+00 -0.52846309062E+03  0.52846309064E+03  0.50400001928E-02 0. -1.
    10030    2    1    2    0    0  0.00000000000E+00  0.00000000000E+00 -0.35877976449E+03  0.69814641684E+03  0.59890358151E+03 0.  0.
        2    1    3    3  502    0  0.38747215485E+02 -0.28472201922E+03 -0.27763766091E+03  0.39956306848E+03  0.25500000920E-02 0. -1.
       -2    1    3    3    0  502 -0.38747215485E+02  0.28472201922E+03 -0.81142103588E+02  0.29858334836E+03  0.25500000920E-02 0.  1.
</event>
<event>
 5   0  0.1332555E-02  0.5948076E+03  0.7818609E-02  0.9916238E-01
        1   -1    0    0  501    0  0.00000000000E+00  0.00000000000E+00  0.98825347332E+03  0.98825347333E+03  0.50400001928E-02 0. -1.
       -1   -1    0    0    0  501  0.00000000000E+00  0.00000000000E+00 -0.89500327401E+02  0.89500327543E+02  0.50400001928E-02 0.  1.
    10030    2    1    2    0    0  0.00000000000E+00  0.00000000000E+00  0.89875314592E+03  0.10777538009E+04  0.59480756384E+03 0.  0.
        2    1    3    3  502    0  0.78355374152E+02  0.13041543865E+03  0.91240094898E+03  0.92499905028E+03  0.25500000920E-02 0. -1.
       -2    1    3    3    0  502 -0.78355374152E+02 -0.13041543865E+03 -0.13647803066E+02  0.15275475060E+03  0.25500000920E-02 0.  1.
</event>
<event>
 5   0  0.2179625E-02  0.6007253E+03  0.7818609E-02  0.9903902E-01
       -2   -1    0    0    0  501  0.00000000000E+00  0.00000000000E+00  0.95698618233E+02  0.95698618267E+02  0.25500000920E-02 0. -1.
        2   -1    0    0  501    0  0.00000000000E+00  0.00000000000E+00 -0.94272745722E+03  0.94272745722E+03  0.25500000920E-02 0.  1.
    10030    2    1    2    0    0  0.00000000000E+00  0.00000000000E+00 -0.84702883899E+03  0.10384260755E+04  0.60072527846E+03 0.  0.
        1    1    3    3  502    0 -0.14977813365E+03  0.21868395899E+03 -0.66774319240E+03  0.71842684684E+03  0.50400001928E-02 0.  1.
       -1    1    3    3    0  502  0.14977813365E+03 -0.21868395899E+03 -0.17928564659E+03  0.31999922865E+03  0.50400001928E-02 0. -1.
</event>
<event>
 5   0  0.2142838E-02  0.5996743E+03  0.7818609E-02  0.9906082E-01
        2   -1    0    0  501    0  0.00000000000E+00  0.00000000000E+00  0.83048788052E+03  0.83048788052E+03  0.25500000920E-02 0. -1.
       -2   -1    0    0    0  501  0.00000000000E+00  0.00000000000E+00 -0.10825241644E+03  0.10825241647E+03  0.25500000920E-02 0.  1.
    10030    2    1    2    0    0  0.00000000000E+00  0.00000000000E+00  0.72223546408E+03  0.93874029699E+03  0.59967431129E+03 0.  0.
        4    1    3    3  502    0 -0.69548285034E+02  0.83890963445E+01  0.81749345174E+03  0.82049040057E+03  0.12699999809E+01 0. -1.
       -4    1    3    3    0  502  0.69548285034E+02 -0.83890963445E+01 -0.95257987666E+02  0.11824989642E+03  0.12699999809E+01 0.  1.
</event>
<event>
 5   0  0.8551000E-03  0.5990687E+03  0.7818609E-02  0.9907340E-01
       -3   -1    0    0    0  501  0.00000000000E+00  0.00000000000E+00  0.15143005213E+03  0.15143008581E+03  0.10100000352E+00 0. -1.
        3   -1    0    0  501    0  0.00000000000E+00  0.00000000000E+00 -0.59249012346E+03  0.59249013207E+03  0.10100000352E+00 0.  1.
    10030    2    1    2    0    0  0.00000000000E+00  0.00000000000E+00 -0.44106007133E+03  0.74392021788E+03  0.59906869727E+03 0.  0.
        5    1    3    3  502    0  0.16887148165E+03  0.24349029211E+03 -0.16649219018E+03  0.33992181315E+03  0.46999998093E+01 0. -1.
       -5    1    3    3    0  502 -0.16887148165E+03 -0.24349029211E+03 -0.27456788115E+03  0.40399840473E+03  0.46999998093E+01 0.  1.
</event>
<event>
 5   0  0.1250390E-02  0.5986595E+03  0.7818609E-02  0.9908191E-01
        1   -1    0    0  501    0  0.00000000000E+00  0.00000000000E+00  0.34950099173E+03  0.34950099177E+03  0.50400001928E-02 0.  1.
       -1   -1    0    0    0  501  0.00000000000E+00  0.00000000000E+00 -0.25636063598E+03  0.25636063603E+03  0.50400001928E-02 0. -1.
    10030    2    1    2    0    0  0.00000000000E+00  0.00000000000E+00  0.93140355751E+02  0.60586162779E+03  0.59865949100E+03 0.  0.
        3    1    3    3  502    0 -0.22861475144E+03  0.92416787816E+02  0.21829572762E+03  0.32933053631E+03  0.10100000352E+00 0.  1.
       -3    1    3    3    0  502  0.22861475144E+03 -0.92416787816E+02 -0.12515537187E+03  0.27653109148E+03  0.10100000352E+00 0. -1.
</event>
<event>
 5   0  0.2092587E-02  0.5945692E+03  0.7818609E-02  0.9916738E-01
        2   -1    0    0  501    0  0.00000000000E+00  0.00000000000E+00  0.13601292085E+04  0.13601292085E+04  0.25500000920E-02 0.  1.
       -2   -1    0    0    0  501  0.00000000000E+00  0.00000000000E+00 -0.64977747496E+02  0.64977747546E+02  0.25500000920E-02 0. -1.
    10030    2    1    2    0    0  0.00000000000E+00  0.00000000000E+00  0.12951514610E+04  0.14251069560E+04  0.59456919634E+03 0.  0.
        3    1    3    3  502    0  0.21006387827E+03  0.12015808857E+03  0.23371878651E+03  0.33643614635E+03  0.10100000352E+00 0. -1.
       -3    1    3    3    0  502 -0.21006387827E+03 -0.12015808857E+03  0.10614326745E+04  0.10886708097E+04  0.10100000352E+00 0.  1.
</event>
<event>
 5   0  0.1250390E-02  0.6101001E+03  0.7818609E-02  0.9884670E-01
       -1   -1    0    0    0  501  0.00000000000E+00  0.00000000000E+00  0.12679718553E+03  0.12679718563E+03  0.50400001928E-02 0. -1.
        1   -1    0    0  501    0  0.00000000000E+00  0.00000000000E+00 -0.73389264473E+03  0.73389264475E+03  0.50400001928E-02 0.  1.
    10030    2    1    2    0    0  0.00000000000E+00  0.00000000000E+00 -0.60709545921E+03  0.86068983038E+03  0.61010006353E+03 0.  0.
        3    1    3    3  502    0  0.25825762237E+03 -0.11598406327E+03 -0.46381504126E+03  0.54339093215E+03  0.10100000352E+00 0.  1.
       -3    1    3    3    0  502 -0.25825762237E+03  0.11598406327E+03 -0.14328041795E+03  0.31729889823E+03  0.10100000352E+00 0. -1.
</event>
<event>
 5   0  0.1332555E-02  0.5993194E+03  0.7818609E-02  0.9906819E-01
        1   -1    0    0  501    0  0.00000000000E+00  0.00000000000E+00  0.81489486070E+03  0.81489486071E+03  0.50400001928E-02 0.  1.
       -1   -1    0    0    0  501  0.00000000000E+00  0.00000000000E+00 -0.11019328483E+03  0.11019328494E+03  0.50400001928E-02 0. -1.
    10030    2    1    2    0    0  0.00000000000E+00  0.00000000000E+00  0.70470157587E+03  0.92508814566E+03  0.59931941918E+03 0.  0.
        2    1    3    3  502    0 -0.60975589887E+02 -0.25335521151E+03  0.12398119390E+03  0.28857966354E+03  0.25500000920E-02 0.  1.
       -2    1    3    3    0  502  0.60975589887E+02  0.25335521151E+03  0.58072038197E+03  0.63650848211E+03  0.25500000920E-02 0. -1.
</event>
<event>
 5   0  0.2141800E-02  0.6009993E+03  0.7818609E-02  0.9903335E-01
       -2   -1    0    0    0  501  0.00000000000E+00  0.00000000000E+00  0.11500880777E+03  0.11500880780E+03  0.25500000920E-02 0.  1.
        2   -1    0    0  501    0  0.00000000000E+00  0.00000000000E+00 -0.78515756446E+03  0.78515756446E+03  0.25500000920E-02 0. -1.
    10030    2    1    2    0    0  0.00000000000E+00  0.00000000000E+00 -0.67014875669E+03  0.90016637226E+03  0.60099928590E+03 0.  0.
        2    1    3    3  502    0 -0.76206081515E+02  0.61441938890E+02  0.90458217380E+02  0.13328603758E+03  0.25500000920E-02 0.  1.
       -2    1    3    3    0  502  0.76206081515E+02 -0.61441938890E+02 -0.76060697407E+03  0.76688033468E+03  0.25500000920E-02 0. -1.
</event>
<event>
 5   0  0.1337051E-02  0.5979482E+03  0.7818609E-02  0.9909672E-01
       -1   -1    0    0    0  501  0.00000000000E+00  0.00000000000E+00  0.10028807299E+03  0.10028807311E+03  0.50400001928E-02 0.  1.
        1   -1    0    0  501    0  0.00000000000E+00  0.00000000000E+00 -0.89128752877E+03  0.89128752878E+03  0.50400001928E-02 0. -1.
    10030    2    1    2    0    0  0.00000000000E+00  0.00000000000E+00 -0.79099945578E+03  0.99157560189E+03  0.59794818774E+03 0.  0.
        5    1    3    3  502    0 -0.12364551184E+03  0.61167295972E+02 -0.83528858441E+03  0.84661606407E+03  0.46999998093E+01 0. -1.
       -5    1    3    3    0  502  0.12364551184E+03 -0.61167295972E+02  0.44289128625E+02  0.14495953783E+03  0.46999998093E+01 0.  1.
</event>
<event>
 5   0  0.1276705E-02  0.6000757E+03  0.7818609E-02  0.9905249E-01
        1   -1    0    0  501    0  0.00000000000E+00  0.00000000000E+00  0.14203026586E+03  0.14203026595E+03  0.50400001928E-02 0. -1.
       -1   -1    0    0    0  501  0.00000000000E+00  0.00000000000E+00 -0.63382762445E+03  0.63382762447E+03  0.50400001928E-02 0.  1.
    10030    2    1    2    0    0  0.00000000000E+00  0.00000000000E+00 -0.49179735859E+03  0.77585789043E+03  0.60007568208E+03 0.  0.
        1    1    3    3  502    0  0.38582169049E+02  0.16441988819E+03 -0.56653631519E+03  0.59117330780E+03  0.50400001928E-02 0.  1.
       -1    1    3    3    0  502 -0.38582169049E+02 -0.16441988819E+03  0.74738956597E+02  0.18468458263E+03  0.50400001928E-02 0. -1.
</event>
<event>
 5   0  0.2142838E-02  0.6008653E+03  0.7818609E-02  0.9903612E-01
        2   -1    0    0  501    0  0.00000000000E+00  0.00000000000E+00  0.57807915593E+03  0.57807915594E+03  0.25500000920E-02 0.  1.
       -2   -1    0    0    0  501  0.00000000000E+00  0.00000000000E+00 -0.15613740591E+03  0.15613740593E+03  0.25500000920E-02 0. -1.
    10030    2    1    2    0    0  0.00000000000E+00  0.00000000000E+00  0.42194175002E+03  0.73421656187E+03  0.60086530879E+03 0.  0.
        4    1    3    3  502    0 -0.23487217794E+03 -0.11948554304E+03  0.38727001422E+03  0.46842439281E+03  0.12699999809E+01 0.  1.
       -4    1    3    3    0  502  0.23487217794E+03  0.11948554304E+03  0.34671735800E+02  0.26579216905E+03  0.12699999809E+01 0. -1.
</event>
<event>
 5   0  0.1276705E-02  0.5997374E+03  0.7818609E-02  0.9905951E-01
        1   -1    0    0  501    0  0.00000000000E+00  0.00000000000E+00  0.66212265775E+03  0.66212265777E+03  0.50400001928E-02 0.  1.
       -1   -1    0    0    0  501  0.00000000000E+00  0.00000000000E+00 -0.13580752162E+03  0.13580752171E+03  0.50400001928E-02 0. -1.
    10030    2    1    2    0    0  0.00000000000E+00  0.00000000000E+00  0.52631513614E+03  0.79793017948E+03  0.59973739987E+03 0.  0.
        1    1    3    3  502    0  0.19818327828E+03 -0.20455109271E+03  0.13832415418E+03  0.31662490896E+03  0.50400001928E-02 0.  1.
       -1    1    3    3    0  502 -0.19818327828E+03  0.20455109271E+03  0.38799098196E+03  0.48130527052E+03  0.50400001928E-02 0. -1.
</event>
<event>
 5   0  0.2142838E-02  0.6260312E+03  0.7818609E-02  0.9852824E-01
       -2   -1    0    0    0  501  0.00000000000E+00  0.00000000000E+00  0.33795860118E+03  0.33795860119E+03  0.25500000920E-02 0. -1.
        2   -1    0    0  501    0  0.00000000000E+00  0.00000000000E+00 -0.28991347987E+03  0.28991347988E+03  0.25500000920E-02 0.  1.
    10030    2    1    2    0    0  0.00000000000E+00  0.00000000000E+00  0.48045121317E+02  0.62787208107E+03  0.62603116257E+03 0.  0.
        4    1    3    3  502    0 -0.24214509550E+03  0.10935339200E+03  0.18999250514E+03  0.32663615312E+03  0.12699999809E+01 0. -1.
       -4    1    3    3    0  502  0.24214509550E+03 -0.10935339200E+03 -0.14194738383E+03  0.30123592795E+03  0.12699999809E+01 0.  1.
</event>
<event>
 5   0  0.2126207E-02  0.6047455E+03  0.7818609E-02  0.9895609E-01
       -2   -1    0    0    0  501  0.00000000000E+00  0.00000000000E+00  0.83205014589E+02  0.83205014628E+02  0.25500000920E-02 0.  1.
        2   -1    0    0  501    0  0.00000000000E+00  0.00000000000E+00 -0.10988434460E+04  0.10988434460E+04  0.25500000920E-02 0. -1.
    10030    2    1    2    0    0  0.00000000000E+00  0.00000000000E+00 -0.10156384314E+04  0.11820484606E+04  0.60474551665E+03 0.  0.
        5    1    3    3  502    0  0.10274843464E+03  0.24333965363E+03 -0.22031198361E+03  0.34399256964E+03  0.46999998093E+01 0.  1.
       -5    1    3    3    0  502 -0.10274843464E+03 -0.24333965363E+03 -0.79532644775E+03  0.83805589094E+03  0.46999998093E+01 0. -1.
</event>
<event>
 5   0  0.1303808E-02  0.6005021E+03  0.7818609E-02  0.9904365E-01
       -1   -1    0    0    0  501  0.00000000000E+00  0.00000000000E+00  0.41372128226E+03  0.41372128229E+03  0.50400001928E-02 0. -1.
        1   -1    0    0  501    0  0.00000000000E+00  0.00000000000E+00 -0.21790198532E+03  0.21790198538E+03  0.50400001928E-02 0.  1.
    10030    2    1    2    0    0  0.00000000000E+00  0.00000000000E+00  0.19581929694E+03  0.63162326767E+03  0.60050208593E+03 0.  0.
        4    1    3    3  502    0 -0.24351199414E+03  0.10230720204E+03  0.24808223453E+03  0.36236895958E+03  0.12699999809E+01 0. -1.
       -4    1    3    3    0  502  0.24351199414E+03 -0.10230720204E+03 -0.52262937593E+02  0.26925430809E+03  0.12699999809E+01 0.  1.
</event>
<event>
 5   0  0.2126207E-02  0.6003394E+03  0.7818609E-02  0.9904702E-01
        2   -1    0    0  501    0  0.00000000000E+00  0.00000000000E+00  0.42067905625E+03  0.42067905625E+03  0.25500000920E-02 0. -1.
       -2   -1    0    0    0  501  0.00000000000E+00  0.00000000000E+00 -0.21418192675E+03  0.21418192676E+03  0.25500000920E-02 0.  1.
    10030    2    1    2    0    0  0.00000000000E+00  0.00000000000E+00  0.20649712950E+03  0.63486098302E+03  0.60033940672E+03 0.  0.
        5    1    3    3  502    0 -0.26539529437E+03 -0.10441793291E+03  0.43734425388E+01  0.28527001943E+03  0.46999998093E+01 0.  1.
       -5    1    3    3    0  502  0.26539529437E+03  0.10441793291E+03  0.20212368696E+03  0.34959096358E+03  0.46999998093E+01 0. -1.
</event>
<event>
 5   0  0.8551000E-03  0.6013440E+03  0.7818609E-02  0.9902622E-01
        4   -1    0    0  501    0  0.00000000000E+00  0.00000000000E+00  0.16623430045E+03  0.16623915166E+03  0.12699999809E+01 0. -1.
       -4   -1    0    0    0  501  0.00000000000E+00  0.00000000000E+00 -0.54381916829E+03  0.54382065122E+03  0.12699999809E+01 0.  1.
    10030    2    1    2    0    0  0.00000000000E+00  0.00000000000E+00 -0.37758486784E+03  0.71005980289E+03  0.60134398746E+03 0.  0.
        1    1    3    3  502    0  0.88807351451E+02  0.56786607749E+02 -0.52128898333E+03  0.53183989006E+03  0.50400001928E-02 0.  1.
       -1    1    3    3    0  502 -0.88807351451E+02 -0.56786607749E+02  0.14370411550E+03  0.17821991282E+03  0.50400001928E-02 0. -1.
</event>
<event>
 5   0  0.8551000E-03  0.5969675E+03  0.7818609E-02  0.9911717E-01
       -3   -1    0    0    0  501  0.00000000000E+00  0.00000000000E+00  0.22546771816E+03  0.22546774078E+03  0.10100000352E+00 0. -1.
        3   -1    0    0  501    0  0.00000000000E+00  0.00000000000E+00 -0.39514549161E+03  0.39514550452E+03  0.10100000352E+00 0.  1.
    10030    2    1    2    0    0  0.00000000000E+00  0.00000000000E+00 -0.16967777345E+03  0.62061324530E+03  0.59696754806E+03 0.  0.
        5    1    3    3  502    0  0.14684470622E+03 -0.12088886596E+03 -0.32393326608E+03  0.37567583969E+03  0.46999998093E+01 0.  1.
       -5    1    3    3    0  502 -0.14684470622E+03  0.12088886596E+03  0.15425549263E+03  0.24493740561E+03  0.46999998093E+01 0. -1.
</event>
<event>
 5   0  0.2141800E-02  0.6016355E+03  0.7818609E-02  0.9902019E-01
        2   -1    0    0  501    0  0.00000000000E+00  0.00000000000E+00  0.19343641746E+03  0.19343641747E+03  0.25500000920E-02 0.  1.
       -2   -1    0    0    0  501  0.00000000000E+00  0.00000000000E+00 -0.46780909969E+03  0.46780909969E+03  0.25500000920E-02 0. -1.
    10030    2    1    2    0    0  0.00000000000E+00  0.00000000000E+00 -0.27437268223E+03  0.66124551717E+03  0.60163549199E+03 0.  0.
        2    1    3    3  502    0  0.45646692721E+01 -0.20703252152E+02 -0.46698699334E+03  0.46746798052E+03  0.25500000920E-02 0. -1.
       -2    1    3    3    0  502 -0.45646692721E+01  0.20703252152E+02  0.19261431111E+03  0.19377753664E+03  0.25500000920E-02 0.  1.
</event>
<event>
 5   0  0.1250390E-02  0.6015558E+03  0.7818609E-02  0.9902184E-01
        1   -1    0    0  501    0  0.00000000000E+00  0.00000000000E+00  0.17398715282E+03  0.17398715289E+03  0.50400001928E-02 0.  1.
       -1   -1    0    0    0  501  0.00000000000E+00  0.00000000000E+00 -0.51996565301E+03  0.51996565303E+03  0.50400001928E-02 0. -1.
    10030    2    1    2    0    0  0.00000000000E+00  0.00000000000E+00 -0.34597850019E+03  0.69395280592E+03  0.60155579479E+03 0.  0.
        3    1    3    3  502    0  0.11419255879E+03 -0.11621042237E+03  0.11867352341E+03  0.20156442670E+03  0.10100000352E+00 0.  1.
       -3    1    3    3    0  502 -0.11419255879E+03  0.11621042237E+03 -0.46465202360E+03  0.49238837922E+03  0.10100000352E+00 0. -1.
</event>
</LesHouchesEvents>
