<LesHouchesEvents version="3.0">
<header>
<!--
#*********************************************************************
#                                                                    *
#                        MadGraph5_aMC@NLO                           *
#                                                                    *
#                           Going Beyond                             *
#                                                                    *
#                   http://madgraph.hep.uiuc.edu                     *
#                   http://madgraph.phys.ucl.ac.be                   *
#                   http://amcatnlo.cern.ch                          *
#                                                                    *
#                     The MadGraph5_aMC@NLO team                     *
#                                                                    *
#....................................................................*
#                                                                    *
# This file contains all the information necessary to reproduce      *
# the events generated:                                              *
#                                                                    *
# 1. software version                                                *
# 2. proc_card          : code generation info including model       *
# 3. param_card         : model primary parameters in the LH format  *
# 4. run_card           : running parameters (collider and cuts)     *
# 5. pythia_card        : present only if pythia has been run        *
# 6. pgs_card           : present only if pgs has been run           *
# 7. delphes_cards      : present only if delphes has been run       *
#                                                                    *
#                                                                    *
#*********************************************************************
-->
<MGVersion>
#5.2.2.3
</MGVersion>
<MG5ProcCard>
#************************************************************
#*                     MadGraph5_aMC@NLO                    *
#*                                                          *
#*                *                       *                 *
#*                  *        * *        *                   *
#*                    * * * * 5 * * * *                     *
#*                  *        * *        *                   *
#*                *                       *                 *
#*                                                          *
#*                                                          *
#*         VERSION 2.2.3                 2015-02-10         *
#*                                                          *
#*    The MadGraph5_aMC@NLO Development Team - Find us at   *
#*    https://server06.fynu.ucl.ac.be/projects/madgraph     *
#*                                                          *
#************************************************************
#*                                                          *
#*               Command File for MadGraph5_aMC@NLO         *
#*                                                          *
#*     run as ./bin/mg5_aMC  filename                       *
#*                                                          *
#************************************************************
set group_subprocesses Auto
set ignore_six_quark_processes False
set loop_optimized_output True
set gauge unitary
set complex_mass_scheme False
import model sm
define p = g u c d s u~ c~ d~ s~
define j = g u c d s u~ c~ d~ s~
define l+ = e+ mu+
define l- = e- mu-
define vl = ve vm vt
define vl~ = ve~ vm~ vt~
import model Zprime_UFO
generate p p > zph, zph > j j
add process p p > zph, zph > b b~
output Dijet_signal
</MG5ProcCard>
<MGProcCard>
#*********************************************************************
#                        MadGraph/MadEvent                           *
#                   http://madgraph.hep.uiuc.edu                     *
#                                                                    *
#                          proc_card.dat                             *
#*********************************************************************
#                                                                    *
#            This Files is generated by MADGRAPH 5                   *
#                                                                    *
# WARNING: This Files is generated for MADEVENT (compatibility issue)*
#          This files is NOT a valid MG4 proc_card.dat               *
#          Running this in MG4 will NEVER reproduce the result of MG5*
#                                                                    *
#*********************************************************************
#*********************************************************************
# Process(es) requested : mg2 input                                  *
#*********************************************************************
# Begin PROCESS # This is TAG. Do not modify this line
p p > zph , zph > j j           #Process
# Be carefull the coupling are here in MG5 convention
          
end_coup           # End the couplings input

done               # this tells MG there are no more procs
# End PROCESS  # This is TAG. Do not modify this line
#*********************************************************************
# Model information                                                  *
#*********************************************************************
# Begin MODEL  # This is TAG. Do not modify this line
Zprime_UFO
# End   MODEL  # This is TAG. Do not modify this line
#*********************************************************************
# Start multiparticle definitions                                    *
#*********************************************************************
# Begin MULTIPARTICLES # This is TAG. Do not modify this line

# End  MULTIPARTICLES # This is TAG. Do not modify this line
</MGProcCard>
<MGRunCard>
#*********************************************************************
#                       MadGraph5_aMC@NLO                            *
#                                                                    *
#                     run_card.dat MadEvent                          *
#                                                                    *
#  This file is used to set the parameters of the run.               *
#                                                                    *
#  Some notation/conventions:                                        *
#                                                                    *
#   Lines starting with a '# ' are info or comments                  *
#                                                                    *
#   mind the format:   value    = variable     ! comment             *
#*********************************************************************
#
#*******************                                                 
# Running parameters
#*******************                                                 
#                                                                    
#*********************************************************************
# Tag name for the run (one word)                                    *
#*********************************************************************
  tag_1     = run_tag ! name of the run 
#*********************************************************************
# Run to generate the grid pack                                      *
#*********************************************************************
  .false.     = gridpack  !True = setting up the grid pack
#*********************************************************************
# Number of events and rnd seed                                      *
# Warning: Do not generate more than 1M events in a single run       *
# If you want to run Pythia, avoid more than 50k events in a run.    *
#*********************************************************************
  2000 = nevents ! Number of unweighted events requested 
 795 = iseed   ! rnd seed (0=assigned automatically=default))
#*********************************************************************
# Collider type and energy                                           *
# lpp: 0=No PDF, 1=proton, -1=antiproton, 2=photon from proton,      *
#                                         3=photon from electron     *
#*********************************************************************
        1     = lpp1    ! beam 1 type 
        1     = lpp2    ! beam 2 type
     4000     = ebeam1  ! beam 1 total energy in GeV
     4000     = ebeam2  ! beam 2 total energy in GeV
#*********************************************************************
# Beam polarization from -100 (left-handed) to 100 (right-handed)    *
#*********************************************************************
        0     = polbeam1 ! beam polarization for beam 1
        0     = polbeam2 ! beam polarization for beam 2
#*********************************************************************
# PDF CHOICE: this automatically fixes also alpha_s and its evol.    *
#*********************************************************************
 'nn23lo1'    = pdlabel     ! PDF set                                     
 230000    = lhaid     ! if pdlabel=lhapdf, this is the lhapdf number
#*********************************************************************
# Renormalization and factorization scales                           *
#*********************************************************************
 F        = fixed_ren_scale  ! if .true. use fixed ren scale
 F        = fixed_fac_scale  ! if .true. use fixed fac scale
 91.1880  = scale            ! fixed ren scale
 91.1880  = dsqrt_q2fact1    ! fixed fact scale for pdf1
 91.1880  = dsqrt_q2fact2    ! fixed fact scale for pdf2
 1        = scalefact        ! scale factor for event-by-event scales
#*********************************************************************
# Matching - Warning! ickkw > 1 is still beta
#*********************************************************************
 0        = ickkw            ! 0 no matching, 1 MLM, 2 CKKW matching
 1        = highestmult      ! for ickkw=2, highest mult group
 1        = ktscheme         ! for ickkw=1, 1 Durham kT, 2 Pythia pTE
 1        = alpsfact         ! scale factor for QCD emission vx
 F        = chcluster        ! cluster only according to channel diag
 T        = pdfwgt           ! for ickkw=1, perform pdf reweighting
 5        = asrwgtflavor     ! highest quark flavor for a_s reweight
 T        = clusinfo         ! include clustering tag in output
 3.0      = lhe_version       ! Change the way clustering information pass to shower.        
#*********************************************************************
#**********************************************************
#
#**********************************************************
# Automatic ptj and mjj cuts if xqcut > 0
# (turn off for VBF and single top processes)
#**********************************************************
   T  = auto_ptj_mjj  ! Automatic setting of ptj and mjj
#**********************************************************
#                                                                    
#**********************************
# BW cutoff (M+/-bwcutoff*Gamma)
#**********************************
  15  = bwcutoff      ! (M+/-bwcutoff*Gamma)
#**********************************************************
# Apply pt/E/eta/dr/mij cuts on decay products or not
# (note that etmiss/ptll/ptheavy/ht/sorted cuts always apply)
#**********************************************************
   T  = cut_decays    ! Cut decay products 
#*************************************************************
# Number of helicities to sum per event (0 = all helicities)
# 0 gives more stable result, but longer run time (needed for
# long decay chains e.g.).
# Use >=2 if most helicities contribute, e.g. pure QCD.
#*************************************************************
   0  = nhel          ! Number of helicities used per event
#*******************                                                 
# Standard Cuts
#*******************                                                 
#                                                                    
#*********************************************************************
# Minimum and maximum pt's (for max, -1 means no cut)                *
#*********************************************************************
 20  = ptj       ! minimum pt for the jets 
  0  = ptb       ! minimum pt for the b 
 10  = pta       ! minimum pt for the photons 
 10  = ptl       ! minimum pt for the charged leptons 
  0  = misset    ! minimum missing Et (sum of neutrino's momenta)
  0  = ptheavy   ! minimum pt for one heavy final state
 1.0 = ptonium   ! minimum pt for the quarkonium states
 -1  = ptjmax    ! maximum pt for the jets
 -1  = ptbmax    ! maximum pt for the b
 -1  = ptamax    ! maximum pt for the photons
 -1  = ptlmax    ! maximum pt for the charged leptons
 -1  = missetmax ! maximum missing Et (sum of neutrino's momenta)
#*********************************************************************
# Minimum and maximum E's (in the center of mass frame)              *
#*********************************************************************
  0  = ej     ! minimum E for the jets 
  0  = eb     ! minimum E for the b 
  0  = ea     ! minimum E for the photons 
  0  = el     ! minimum E for the charged leptons 
 -1   = ejmax ! maximum E for the jets
 -1   = ebmax ! maximum E for the b
 -1   = eamax ! maximum E for the photons
 -1   = elmax ! maximum E for the charged leptons
#*********************************************************************
# Maximum and minimum absolute rapidity (for max, -1 means no cut)   *
#*********************************************************************
   5  = etaj    ! max rap for the jets 
  -1  = etab    ! max rap for the b
 2.5  = etaa    ! max rap for the photons 
 2.5  = etal    ! max rap for the charged leptons 
 0.6  = etaonium ! max rap for the quarkonium states
   0  = etajmin ! min rap for the jets
   0  = etabmin ! min rap for the b
   0  = etaamin ! min rap for the photons
   0  = etalmin ! main rap for the charged leptons
#*********************************************************************
# Minimum and maximum DeltaR distance                                *
#*********************************************************************
 0.4 = drjj    ! min distance between jets 
 0   = drbb    ! min distance between b's 
 0.4 = drll    ! min distance between leptons 
 0.4 = draa    ! min distance between gammas 
 0   = drbj    ! min distance between b and jet 
 0.4 = draj    ! min distance between gamma and jet 
 0.4 = drjl    ! min distance between jet and lepton 
 0   = drab    ! min distance between gamma and b 
 0   = drbl    ! min distance between b and lepton 
 0.4 = dral    ! min distance between gamma and lepton 
 -1  = drjjmax ! max distance between jets
 -1  = drbbmax ! max distance between b's
 -1  = drllmax ! max distance between leptons
 -1  = draamax ! max distance between gammas
 -1  = drbjmax ! max distance between b and jet
 -1  = drajmax ! max distance between gamma and jet
 -1  = drjlmax ! max distance between jet and lepton
 -1  = drabmax ! max distance between gamma and b
 -1  = drblmax ! max distance between b and lepton
 -1  = dralmax ! maxdistance between gamma and lepton
#*********************************************************************
# Minimum and maximum invariant mass for pairs                       *
# WARNING: for four lepton final state mmll cut require to have      *
#          different lepton masses for each flavor!                  *           
#*********************************************************************
 0   = mmjj    ! min invariant mass of a jet pair 
 0   = mmbb    ! min invariant mass of a b pair 
 0   = mmaa    ! min invariant mass of gamma gamma pair
 0   = mmll    ! min invariant mass of l+l- (same flavour) lepton pair
 -1  = mmjjmax ! max invariant mass of a jet pair
 -1  = mmbbmax ! max invariant mass of a b pair
 -1  = mmaamax ! max invariant mass of gamma gamma pair
 -1  = mmllmax ! max invariant mass of l+l- (same flavour) lepton pair
#*********************************************************************
# Minimum and maximum invariant mass for all letpons                 *
#*********************************************************************
 0   = mmnl    ! min invariant mass for all letpons (l+- and vl) 
 -1  = mmnlmax ! max invariant mass for all letpons (l+- and vl) 
#*********************************************************************
# Minimum and maximum pt for 4-momenta sum of leptons                *
#*********************************************************************
 0   = ptllmin  ! Minimum pt for 4-momenta sum of leptons(l and vl)
 -1  = ptllmax  ! Maximum pt for 4-momenta sum of leptons(l and vl)
#*********************************************************************
# Inclusive cuts                                                     *
#*********************************************************************
 0  = xptj ! minimum pt for at least one jet  
 0  = xptb ! minimum pt for at least one b 
 0  = xpta ! minimum pt for at least one photon 
 0  = xptl ! minimum pt for at least one charged lepton 
#*********************************************************************
# Control the pt's of the jets sorted by pt                          *
#*********************************************************************
 0   = ptj1min ! minimum pt for the leading jet in pt
 0   = ptj2min ! minimum pt for the second jet in pt
 0   = ptj3min ! minimum pt for the third jet in pt
 0   = ptj4min ! minimum pt for the fourth jet in pt
 -1  = ptj1max ! maximum pt for the leading jet in pt 
 -1  = ptj2max ! maximum pt for the second jet in pt
 -1  = ptj3max ! maximum pt for the third jet in pt
 -1  = ptj4max ! maximum pt for the fourth jet in pt
 0   = cutuse  ! reject event if fails any (0) / all (1) jet pt cuts
#*********************************************************************
# Control the pt's of leptons sorted by pt                           *
#*********************************************************************
 0   = ptl1min ! minimum pt for the leading lepton in pt
 0   = ptl2min ! minimum pt for the second lepton in pt
 0   = ptl3min ! minimum pt for the third lepton in pt
 0   = ptl4min ! minimum pt for the fourth lepton in pt
 -1  = ptl1max ! maximum pt for the leading lepton in pt 
 -1  = ptl2max ! maximum pt for the second lepton in pt
 -1  = ptl3max ! maximum pt for the third lepton in pt
 -1  = ptl4max ! maximum pt for the fourth lepton in pt
#*********************************************************************
# Control the Ht(k)=Sum of k leading jets                            *
#*********************************************************************
 0   = htjmin ! minimum jet HT=Sum(jet pt)
 -1  = htjmax ! maximum jet HT=Sum(jet pt)
 0   = ihtmin  !inclusive Ht for all partons (including b)
 -1  = ihtmax  !inclusive Ht for all partons (including b)
 0   = ht2min ! minimum Ht for the two leading jets
 0   = ht3min ! minimum Ht for the three leading jets
 0   = ht4min ! minimum Ht for the four leading jets
 -1  = ht2max ! maximum Ht for the two leading jets
 -1  = ht3max ! maximum Ht for the three leading jets
 -1  = ht4max ! maximum Ht for the four leading jets
#***********************************************************************
# Photon-isolation cuts, according to hep-ph/9801442                   *
# When ptgmin=0, all the other parameters are ignored                  *
# When ptgmin>0, pta and draj are not going to be used                 *
#***********************************************************************
   0 = ptgmin ! Min photon transverse momentum
 0.4 = R0gamma ! Radius of isolation code
 1.0 = xn ! n parameter of eq.(3.4) in hep-ph/9801442
 1.0 = epsgamma ! epsilon_gamma parameter of eq.(3.4) in hep-ph/9801442
 .true. = isoEM ! isolate photons from EM energy (photons and leptons)
#*********************************************************************
# WBF cuts                                                           *
#*********************************************************************
 0   = xetamin ! minimum rapidity for two jets in the WBF case  
 0   = deltaeta ! minimum rapidity for two jets in the WBF case 
#*********************************************************************
# KT DURHAM CUT                                                      *
#*********************************************************************
 -1    =  ktdurham        
 0.4  =  dparameter 
#*********************************************************************
# maximal pdg code for quark to be considered as a light jet         *
# (otherwise b cuts are applied)                                     *
#*********************************************************************
 4 = maxjetflavor    ! Maximum jet pdg code
#*********************************************************************
# Jet measure cuts                                                   *
#*********************************************************************
 0   = xqcut   ! minimum kt jet measure between partons
#*********************************************************************
#
#*********************************************************************
# Store info for systematics studies                                 *
# WARNING: If use_syst is T, matched Pythia output is                *
#          meaningful ONLY if plotted taking matchscale              *
#          reweighting into account!                                 *
#*********************************************************************
   F  = use_syst      ! Enable systematics studies
#
#**************************************
# Parameter of the systematics study
#  will be used by SysCalc (if installed)
#**************************************                                  
#
0.5 1 2 = sys_scalefact  # factorization/renormalization scale factor
0.5 1 2 = sys_alpsfact  # \alpha_s emission scale factors
30 50 = sys_matchscale # variation of merging scale
# PDF sets and number of members (0 or none for all members).
CT10nlo.LHgrid = sys_pdf # matching scales
# MSTW2008nlo68cl.LHgrid 1  = sys_pdf
</MGRunCard>
<slha>
######################################################################
## PARAM_CARD AUTOMATICALY GENERATED BY MG5 FOLLOWING UFO MODEL   ####
######################################################################
##                                                                  ##
##  Width set on Auto will be computed following the information    ##
##        present in the decay.py files of the model.               ##
##        See  arXiv:1402.1178 for more details.                    ##
##                                                                  ##
######################################################################

###################################
## INFORMATION FOR CKMBLOCK
###################################
Block ckmblock 
    1 2.277360e-01 # cabi 

###################################
## INFORMATION FOR FRBLOCK
###################################
Block frblock 
    1 2.000000e-01 # gz 

###################################
## INFORMATION FOR MASS
###################################
Block mass 
    1 5.040000e-03 # MD 
    2 2.550000e-03 # MU 
    3 1.010000e-01 # MS 
    4 1.270000e+00 # MC 
    5 4.700000e+00 # MB 
    6 1.720000e+02 # MT 
   11 5.110000e-04 # Me 
   13 1.056600e-01 # MM 
   15 1.777000e+00 # MTA 
   23 9.118760e+01 # MZ 
   25 1.200000e+02 # MH 
  10030 3.800000e+03 # MZph 
  10031 3.000000e+02 # MZpl 
## Dependent parameters, given by model restrictions.
## Those values should be edited following the 
## analytical expression. MG5 ignores those values 
## but they are important for interfacing the output of MG5
## to external program such as Pythia.
  12 0.000000 # ve : 0.0 
  14 0.000000 # vm : 0.0 
  16 0.000000 # vt : 0.0 
  21 0.000000 # g : 0.0 
  22 0.000000 # a : 0.0 
  24 79.824360 # w+ : cmath.sqrt(MZ__exp__2/2. + cmath.sqrt(MZ__exp__4/4. - (aEW*cmath.pi*MZ__exp__2)/(Gf*sqrt__2))) 

###################################
## INFORMATION FOR SMINPUTS
###################################
Block sminputs 
    1 1.279000e+02 # aEWM1 
    2 1.166370e-05 # Gf 
    3 1.184000e-01 # aS 

###################################
## INFORMATION FOR YUKAWA
###################################
Block yukawa 
    1 5.040000e-03 # ymdo 
    2 2.550000e-03 # ymup 
    3 1.010000e-01 # yms 
    4 1.270000e+00 # ymc 
    5 4.700000e+00 # ymb 
    6 1.720000e+02 # ymt 
   11 5.110000e-04 # yme 
   13 1.056600e-01 # ymm 
   15 1.777000e+00 # ymtau 

###################################
## INFORMATION FOR DECAY
###################################
DECAY   6 1.508336e+00 # WT 
DECAY  23 2.495200e+00 # WZ 
DECAY  24 2.085000e+00 # WW 
DECAY  25 5.753088e-03 # WH 
## Dependent parameters, given by model restrictions.
## Those values should be edited following the 
## analytical expression. MG5 ignores those values 
## but they are important for interfacing the output of MG5
## to external program such as Pythia.
DECAY  1 0.000000 # d : 0.0 
DECAY  2 0.000000 # u : 0.0 
DECAY  3 0.000000 # s : 0.0 
DECAY  4 0.000000 # c : 0.0 
DECAY  5 0.000000 # b : 0.0 
DECAY  11 0.000000 # e- : 0.0 
DECAY  12 0.000000 # ve : 0.0 
DECAY  13 0.000000 # mu- : 0.0 
DECAY  14 0.000000 # vm : 0.0 
DECAY  15 0.000000 # ta- : 0.0 
DECAY  16 0.000000 # vt : 0.0 
DECAY  21 0.000000 # g : 0.0 
DECAY  22 0.000000 # a : 0.0 
DECAY  10030 0.308725 # zph : (gz__exp__2*MZph*(5 + cmath.sqrt(1 - (4*MT__exp__2)/MZph__exp__2)))/(144.*cmath.pi) 
DECAY  10031 0.132629 # zpl : (5*gz__exp__2*MZpl)/(144.*cmath.pi) 
#===========================================================
# QUANTUM NUMBERS OF NEW STATE(S) (NON SM PDG CODE)
#===========================================================

Block QNUMBERS 10030  # zph 
        1 0  # 3 times electric charge
        2 3  # number of spin states (2S+1)
        3 1  # colour rep (1: singlet, 3: triplet, 8: octet)
        4 0  # Particle/Antiparticle distinction (0=own anti)
Block QNUMBERS 10031  # zpl 
        1 0  # 3 times electric charge
        2 3  # number of spin states (2S+1)
        3 1  # colour rep (1: singlet, 3: triplet, 8: octet)
        4 0  # Particle/Antiparticle distinction (0=own anti)
</slha>
## END BANNER##
<MGGenerationInfo>
#  Number of Events        :         3856
#  Integrated weight (pb)  :  0.32574E-05
#  Max wgt                 :  0.13272E-08
#  Average wgt             :  0.84476E-09
</MGGenerationInfo>
</header>
<init>
     2212     2212  0.40000000000E+04  0.40000000000E+04 0 0  247000  247000 2   1
  0.32603340210E-05  0.61934735951E-08  0.13272490000E-08   0
</init>
<event>
 5   0  0.1327249E-08  0.3798364E+04  0.7818609E-02  0.8046506E-01
        2   -1    0    0  501    0  0.00000000000E+00  0.00000000000E+00  0.32571411216E+04  0.32571411216E+04  0.25500000920E-02 0.  1.
       -2   -1    0    0    0  501  0.00000000000E+00  0.00000000000E+00 -0.11073799225E+04  0.11073799225E+04  0.25500000920E-02 0. -1.
    10030    2    1    2    0    0  0.00000000000E+00  0.00000000000E+00  0.21497611991E+04  0.43645210441E+04  0.37983642178E+04 0.  0.
        1    1    3    3  502    0  0.34970874478E+03  0.90961586766E+03  0.29479407997E+04  0.31048433441E+04  0.50400001928E-02 0.  1.
       -1    1    3    3    0  502 -0.34970874478E+03 -0.90961586766E+03 -0.79817960064E+03  0.12596777000E+04  0.50400001928E-02 0. -1.
</event>
<event>
 5   0  0.1327249E-08  0.3808417E+04  0.7818609E-02  0.8044351E-01
       -2   -1    0    0    0  501  0.00000000000E+00  0.00000000000E+00  0.14166208824E+04  0.14166208824E+04  0.25500000920E-02 0.  1.
        2   -1    0    0  501    0  0.00000000000E+00  0.00000000000E+00 -0.25596197413E+04  0.25596197413E+04  0.25500000920E-02 0. -1.
    10030    2    1    2    0    0  0.00000000000E+00  0.00000000000E+00 -0.11429988590E+04  0.39762406237E+04  0.38084174018E+04 0.  0.
        1    1    3    3  502    0 -0.17123655121E+04 -0.18144210289E+03  0.27727832068E+03  0.17441330657E+04  0.50400001928E-02 0.  1.
       -1    1    3    3    0  502  0.17123655121E+04  0.18144210289E+03 -0.14202771796E+04  0.22321075580E+04  0.50400001928E-02 0. -1.
</event>
<event>
 5   0  0.1305088E-08  0.3803305E+04  0.7818609E-02  0.8045446E-01
       -2   -1    0    0    0  501  0.00000000000E+00  0.00000000000E+00  0.17294255689E+04  0.17294255689E+04  0.25500000920E-02 0.  1.
        2   -1    0    0  501    0  0.00000000000E+00  0.00000000000E+00 -0.20910311119E+04  0.20910311119E+04  0.25500000920E-02 0. -1.
    10030    2    1    2    0    0  0.00000000000E+00  0.00000000000E+00 -0.36160554296E+03  0.38204566809E+04  0.38033052312E+04 0.  0.
        3    1    3    3  502    0 -0.45931122915E+03  0.17890292267E+04  0.27366460164E+03  0.18672130847E+04  0.10100000352E+00 0.  1.
       -3    1    3    3    0  502  0.45931122915E+03 -0.17890292267E+04 -0.63527014460E+03  0.19532435962E+04  0.10100000352E+00 0. -1.
</event>
<event>
 5   0  0.1327249E-08  0.3800091E+04  0.7818609E-02  0.8046135E-01
        2   -1    0    0  501    0  0.00000000000E+00  0.00000000000E+00  0.26703464591E+04  0.26703464591E+04  0.25500000920E-02 0.  1.
       -2   -1    0    0    0  501  0.00000000000E+00  0.00000000000E+00 -0.13519493507E+04  0.13519493507E+04  0.25500000920E-02 0. -1.
    10030    2    1    2    0    0  0.00000000000E+00  0.00000000000E+00  0.13183971084E+04  0.40222958098E+04  0.38000911366E+04 0.  0.
        1    1    3    3  502    0  0.22439705862E+03  0.84130758106E+02 -0.13358881602E+04  0.13572137639E+04  0.50400001928E-02 0. -1.
       -1    1    3    3    0  502 -0.22439705862E+03 -0.84130758106E+02  0.26542852686E+04  0.26650820459E+04  0.50400001928E-02 0.  1.
</event>
<event>
 5   0  0.1305088E-08  0.3800822E+04  0.7818609E-02  0.8045978E-01
       -2   -1    0    0    0  501  0.00000000000E+00  0.00000000000E+00  0.13310523444E+04  0.13310523444E+04  0.25500000920E-02 0.  1.
        2   -1    0    0  501    0  0.00000000000E+00  0.00000000000E+00 -0.27133139298E+04  0.27133139298E+04  0.25500000920E-02 0. -1.
    10030    2    1    2    0    0  0.00000000000E+00  0.00000000000E+00 -0.13822615853E+04  0.40443662742E+04  0.38008224727E+04 0.  0.
        3    1    3    3  502    0 -0.26141841585E+03 -0.11570096746E+04  0.88878178645E+03  0.14822091787E+04  0.10100000352E+00 0.  1.
       -3    1    3    3    0  502  0.26141841585E+03  0.11570096746E+04 -0.22710433718E+04  0.25621570955E+04  0.10100000352E+00 0. -1.
</event>
<event>
 5   0  0.4071750E-09  0.3802764E+04  0.7818609E-02  0.8045562E-01
        1   -1    0    0  501    0  0.00000000000E+00  0.00000000000E+00  0.14422051484E+04  0.14422051484E+04  0.50400001928E-02 0.  1.
       -1   -1    0    0    0  501  0.00000000000E+00  0.00000000000E+00 -0.25067539607E+04  0.25067539607E+04  0.50400001928E-02 0. -1.
    10030    2    1    2    0    0  0.00000000000E+00  0.00000000000E+00 -0.10645488124E+04  0.39489591091E+04  0.38027639779E+04 0.  0.
        1    1    3    3  502    0  0.13547003484E+04 -0.88580605185E+03  0.50377265115E+03  0.16951850281E+04  0.50400001928E-02 0.  1.
       -1    1    3    3    0  502 -0.13547003484E+04  0.88580605185E+03 -0.15683214635E+04  0.22537740810E+04  0.50400001928E-02 0. -1.
</event>
<event>
 5   0  0.4071750E-09  0.3799309E+04  0.7818609E-02  0.8046303E-01
        1   -1    0    0  501    0  0.00000000000E+00  0.00000000000E+00  0.13053012083E+04  0.13053012083E+04  0.50400001928E-02 0.  1.
       -1   -1    0    0    0  501  0.00000000000E+00  0.00000000000E+00 -0.27646394210E+04  0.27646394210E+04  0.50400001928E-02 0. -1.
    10030    2    1    2    0    0  0.00000000000E+00  0.00000000000E+00 -0.14593382127E+04  0.40699406293E+04  0.37993089775E+04 0.  0.
        3    1    3    3  502    0  0.96792464364E+03  0.13138728897E+04  0.31198861903E+03  0.16614683249E+04  0.10100000352E+00 0.  1.
       -3    1    3    3    0  502 -0.96792464364E+03 -0.13138728897E+04 -0.17713268318E+04  0.24084723044E+04  0.10100000352E+00 0. -1.
</event>
<event>
 5   0  0.1327249E-08  0.3800909E+04  0.7818609E-02  0.8045960E-01
        2   -1    0    0  501    0  0.00000000000E+00  0.00000000000E+00  0.16374199873E+04  0.16374199873E+04  0.25500000920E-02 0.  1.
       -2   -1    0    0    0  501  0.00000000000E+00  0.00000000000E+00 -0.22057428117E+04  0.22057428117E+04  0.25500000920E-02 0. -1.
    10030    2    1    2    0    0  0.00000000000E+00  0.00000000000E+00 -0.56832282437E+03  0.38431627990E+04  0.38009090316E+04 0.  0.
        1    1    3    3  502    0 -0.10591388115E+04 -0.13903787392E+04  0.47032365564E+03  0.18100089507E+04  0.50400001928E-02 0.  1.
       -1    1    3    3    0  502  0.10591388115E+04  0.13903787392E+04 -0.10386464800E+04  0.20331538483E+04  0.50400001928E-02 0. -1.
</event>
<event>
 5   0  0.4071750E-09  0.3800955E+04  0.7818609E-02  0.8045950E-01
       -1   -1    0    0    0  501  0.00000000000E+00  0.00000000000E+00  0.16786570537E+04  0.16786570537E+04  0.50400001928E-02 0.  1.
        1   -1    0    0  501    0  0.00000000000E+00  0.00000000000E+00 -0.21516092585E+04  0.21516092585E+04  0.50400001928E-02 0. -1.
    10030    2    1    2    0    0  0.00000000000E+00  0.00000000000E+00 -0.47295220476E+03  0.38302663122E+04  0.38009546477E+04 0.  0.
        2    1    3    3  502    0  0.99459655323E+03  0.46679083805E+03  0.13261913273E+04  0.17221786861E+04  0.25500000920E-02 0.  1.
       -2    1    3    3    0  502 -0.99459655323E+03 -0.46679083805E+03 -0.17991435321E+04  0.21080876261E+04  0.25500000920E-02 0. -1.
</event>
<event>
 5   0  0.1327249E-08  0.3805043E+04  0.7818609E-02  0.8045074E-01
        2   -1    0    0  501    0  0.00000000000E+00  0.00000000000E+00  0.15876377650E+04  0.15876377650E+04  0.25500000920E-02 0.  1.
       -2   -1    0    0    0  501  0.00000000000E+00  0.00000000000E+00 -0.22798571948E+04  0.22798571948E+04  0.25500000920E-02 0. -1.
    10030    2    1    2    0    0  0.00000000000E+00  0.00000000000E+00 -0.69221942989E+03  0.38674949598E+04  0.38050426443E+04 0.  0.
        1    1    3    3  502    0 -0.83730280996E+03 -0.74221836447E+03  0.12178534827E+04  0.16538232074E+04  0.50400001928E-02 0.  1.
       -1    1    3    3    0  502  0.83730280996E+03  0.74221836447E+03 -0.19100729125E+04  0.22136717524E+04  0.50400001928E-02 0. -1.
</event>
<event>
 5   0  0.4071750E-09  0.3788980E+04  0.7818609E-02  0.8048524E-01
        1   -1    0    0  501    0  0.00000000000E+00  0.00000000000E+00  0.22135638157E+04  0.22135638157E+04  0.50400001928E-02 0.  1.
       -1   -1    0    0    0  501  0.00000000000E+00  0.00000000000E+00 -0.16214093840E+04  0.16214093840E+04  0.50400001928E-02 0. -1.
    10030    2    1    2    0    0  0.00000000000E+00  0.00000000000E+00  0.59215443171E+03  0.38349731997E+04  0.37889804131E+04 0.  0.
        2    1    3    3  502    0 -0.95111966087E+03 -0.55680299858E+03 -0.12635475091E+04  0.16766664833E+04  0.25500000920E-02 0. -1.
       -2    1    3    3    0  502  0.95111966087E+03  0.55680299858E+03  0.18557019408E+04  0.21583067163E+04  0.25500000920E-02 0.  1.
</event>
<event>
 5   0  0.1293993E-08  0.3799075E+04  0.7818609E-02  0.8046353E-01
        2   -1    0    0  501    0  0.00000000000E+00  0.00000000000E+00  0.11498629702E+04  0.11498629702E+04  0.25500000920E-02 0. -1.
       -2   -1    0    0    0  501  0.00000000000E+00  0.00000000000E+00 -0.31379768591E+04  0.31379768591E+04  0.25500000920E-02 0.  1.
    10030    2    1    2    0    0  0.00000000000E+00  0.00000000000E+00 -0.19881138889E+04  0.42878398292E+04  0.37990753567E+04 0.  0.
        5    1    3    3  502    0  0.80515669025E+03 -0.80674984209E+03  0.72101322865E+03  0.13487048489E+04  0.46999998093E+01 0. -1.
       -5    1    3    3    0  502 -0.80515669025E+03  0.80674984209E+03 -0.27091271175E+04  0.29391349803E+04  0.46999998093E+01 0.  1.
</event>
<event>
 5   0  0.4071750E-09  0.3795119E+04  0.7818609E-02  0.8047203E-01
        1   -1    0    0  501    0  0.00000000000E+00  0.00000000000E+00  0.24778356967E+04  0.24778356967E+04  0.50400001928E-02 0. -1.
       -1   -1    0    0    0  501  0.00000000000E+00  0.00000000000E+00 -0.14531762356E+04  0.14531762356E+04  0.50400001928E-02 0.  1.
    10030    2    1    2    0    0  0.00000000000E+00  0.00000000000E+00  0.10246594611E+04  0.39310119323E+04  0.37951189442E+04 0.  0.
        5    1    3    3  502    0  0.12896040895E+04 -0.99290990050E+03  0.15228451422E+04  0.22289073994E+04  0.46999998093E+01 0. -1.
       -5    1    3    3    0  502 -0.12896040895E+04  0.99290990050E+03 -0.49818568111E+03  0.17021045329E+04  0.46999998093E+01 0.  1.
</event>
<event>
 5   0  0.4071750E-09  0.3801112E+04  0.7818609E-02  0.8045916E-01
        1   -1    0    0  501    0  0.00000000000E+00  0.00000000000E+00  0.15661734728E+04  0.15661734728E+04  0.50400001928E-02 0. -1.
       -1   -1    0    0    0  501  0.00000000000E+00  0.00000000000E+00 -0.23063303690E+04  0.23063303690E+04  0.50400001928E-02 0.  1.
    10030    2    1    2    0    0  0.00000000000E+00  0.00000000000E+00 -0.74015689625E+03  0.38725038418E+04  0.38011121759E+04 0.  0.
        1    1    3    3  502    0 -0.10290338110E+04 -0.73565712613E+03  0.10750165407E+04  0.16600489614E+04  0.50400001928E-02 0. -1.
       -1    1    3    3    0  502  0.10290338110E+04  0.73565712613E+03 -0.18151734370E+04  0.22124548804E+04  0.50400001928E-02 0.  1.
</event>
<event>
 5   0  0.4071750E-09  0.3799304E+04  0.7818609E-02  0.8046304E-01
       -1   -1    0    0    0  501  0.00000000000E+00  0.00000000000E+00  0.19712279749E+04  0.19712279749E+04  0.50400001928E-02 0.  1.
        1   -1    0    0  501    0  0.00000000000E+00  0.00000000000E+00 -0.18306751113E+04  0.18306751113E+04  0.50400001928E-02 0. -1.
    10030    2    1    2    0    0  0.00000000000E+00  0.00000000000E+00  0.14055286361E+03  0.38019030863E+04  0.37993041428E+04 0.  0.
        3    1    3    3  502    0 -0.88631178645E+03 -0.57018669547E+03 -0.15113162072E+04  0.18424815166E+04  0.10100000352E+00 0. -1.
       -3    1    3    3    0  502  0.88631178645E+03  0.57018669547E+03  0.16518690708E+04  0.19594215697E+04  0.10100000352E+00 0.  1.
</event>
<event>
 5   0  0.4071750E-09  0.3799496E+04  0.7818609E-02  0.8046263E-01
        1   -1    0    0  501    0  0.00000000000E+00  0.00000000000E+00  0.21742593717E+04  0.21742593717E+04  0.50400001928E-02 0. -1.
       -1   -1    0    0    0  501  0.00000000000E+00  0.00000000000E+00 -0.16598949728E+04  0.16598949728E+04  0.50400001928E-02 0.  1.
    10030    2    1    2    0    0  0.00000000000E+00  0.00000000000E+00  0.51436439886E+03  0.38341543445E+04  0.37994958617E+04 0.  0.
        3    1    3    3  502    0  0.12304623884E+04 -0.14213319898E+04 -0.18845145020E+02  0.18800471974E+04  0.10100000352E+00 0.  1.
       -3    1    3    3    0  502 -0.12304623884E+04  0.14213319898E+04  0.53320954388E+03  0.19541071471E+04  0.10100000352E+00 0. -1.
</event>
<event>
 5   0  0.1327249E-08  0.3800480E+04  0.7818609E-02  0.8046052E-01
       -2   -1    0    0    0  501  0.00000000000E+00  0.00000000000E+00  0.12662775183E+04  0.12662775183E+04  0.25500000920E-02 0. -1.
        2   -1    0    0  501    0  0.00000000000E+00  0.00000000000E+00 -0.28515960004E+04  0.28515960004E+04  0.25500000920E-02 0.  1.
    10030    2    1    2    0    0  0.00000000000E+00  0.00000000000E+00 -0.15853184821E+04  0.41178735188E+04  0.38004799206E+04 0.  0.
        1    1    3    3  502    0  0.28457546704E+03 -0.21093124802E+03 -0.28155068283E+04  0.28377022197E+04  0.50400001928E-02 0.  1.
       -1    1    3    3    0  502 -0.28457546704E+03  0.21093124802E+03  0.12301883462E+04  0.12801712990E+04  0.50400001928E-02 0. -1.
</event>
<event>
 5   0  0.4071750E-09  0.3801260E+04  0.7818609E-02  0.8045885E-01
       -1   -1    0    0    0  501  0.00000000000E+00  0.00000000000E+00  0.27102797665E+04  0.27102797665E+04  0.50400001928E-02 0.  1.
        1   -1    0    0  501    0  0.00000000000E+00  0.00000000000E+00 -0.13328492609E+04  0.13328492610E+04  0.50400001928E-02 0. -1.
    10030    2    1    2    0    0  0.00000000000E+00  0.00000000000E+00  0.13774305055E+04  0.40431290274E+04  0.38012599931E+04 0.  0.
        4    1    3    3  502    0 -0.17277492004E+02  0.78904487515E+03  0.25277480845E+04  0.26480940916E+04  0.12699999809E+01 0.  1.
       -4    1    3    3    0  502  0.17277492004E+02 -0.78904487515E+03 -0.11503175789E+04  0.13950349358E+04  0.12699999809E+01 0. -1.
</event>
<event>
 5   0  0.4071750E-09  0.3799704E+04  0.7818609E-02  0.8046218E-01
       -1   -1    0    0    0  501  0.00000000000E+00  0.00000000000E+00  0.28378691036E+04  0.28378691036E+04  0.50400001928E-02 0. -1.
        1   -1    0    0  501    0  0.00000000000E+00  0.00000000000E+00 -0.12718831319E+04  0.12718831319E+04  0.50400001928E-02 0.  1.
    10030    2    1    2    0    0  0.00000000000E+00  0.00000000000E+00  0.15659859717E+04  0.41097522354E+04  0.37997041165E+04 0.  0.
        1    1    3    3  502    0 -0.17692407436E+04  0.44347680860E+03  0.20806149765E+03  0.18358033869E+04  0.50400001928E-02 0.  1.
       -1    1    3    3    0  502  0.17692407436E+04 -0.44347680860E+03  0.13579244741E+04  0.22739488485E+04  0.50400001928E-02 0. -1.
</event>
<event>
 5   0  0.1261152E-08  0.3800462E+04  0.7818609E-02  0.8046056E-01
        2   -1    0    0  501    0  0.00000000000E+00  0.00000000000E+00  0.28617057542E+04  0.28617057542E+04  0.25500000920E-02 0.  1.
       -2   -1    0    0    0  501  0.00000000000E+00  0.00000000000E+00 -0.12617922153E+04  0.12617922153E+04  0.25500000920E-02 0. -1.
    10030    2    1    2    0    0  0.00000000000E+00  0.00000000000E+00  0.15999135389E+04  0.41234979695E+04  0.38004620999E+04 0.  0.
        2    1    3    3  502    0 -0.73190054900E+03  0.61912590736E+03  0.25801102515E+04  0.27524469500E+04  0.25500000920E-02 0.  1.
       -2    1    3    3    0  502  0.73190054900E+03 -0.61912590736E+03 -0.98019671256E+03  0.13710510195E+04  0.25500000920E-02 0. -1.
</event>
<event>
 5   0  0.4071750E-09  0.3800310E+04  0.7818609E-02  0.8046088E-01
       -1   -1    0    0    0  501  0.00000000000E+00  0.00000000000E+00  0.25649040556E+04  0.25649040556E+04  0.50400001928E-02 0.  1.
        1   -1    0    0  501    0  0.00000000000E+00  0.00000000000E+00 -0.14076898114E+04  0.14076898114E+04  0.50400001928E-02 0. -1.
    10030    2    1    2    0    0  0.00000000000E+00  0.00000000000E+00  0.11572142442E+04  0.39725938670E+04  0.38003101485E+04 0.  0.
        3    1    3    3  502    0  0.84222635017E+02  0.12953250162E+04  0.20291862667E+04  0.24088497805E+04  0.10100000352E+00 0.  1.
       -3    1    3    3    0  502 -0.84222635017E+02 -0.12953250162E+04 -0.87197202251E+03  0.15637440865E+04  0.10100000352E+00 0. -1.
</event>
<event>
 5   0  0.1305088E-08  0.3801025E+04  0.7818609E-02  0.8045935E-01
       -2   -1    0    0    0  501  0.00000000000E+00  0.00000000000E+00  0.19434417118E+04  0.19434417118E+04  0.25500000920E-02 0. -1.
        2   -1    0    0  501    0  0.00000000000E+00  0.00000000000E+00 -0.18585312585E+04  0.18585312585E+04  0.25500000920E-02 0.  1.
    10030    2    1    2    0    0  0.00000000000E+00  0.00000000000E+00  0.84910453313E+02  0.38019729703E+04  0.38010246884E+04 0.  0.
        3    1    3    3  502    0 -0.17521594028E+04  0.51853033237E+02 -0.69202753122E+03  0.18845830903E+04  0.10100000352E+00 0.  1.
       -3    1    3    3    0  502  0.17521594028E+04 -0.51853033237E+02  0.77693798454E+03  0.19173898800E+04  0.10100000352E+00 0. -1.
</event>
<event>
 5   0  0.4071750E-09  0.3799735E+04  0.7818609E-02  0.8046212E-01
        1   -1    0    0  501    0  0.00000000000E+00  0.00000000000E+00  0.19304984097E+04  0.19304984097E+04  0.50400001928E-02 0. -1.
       -1   -1    0    0    0  501  0.00000000000E+00  0.00000000000E+00 -0.18697227118E+04  0.18697227118E+04  0.50400001928E-02 0.  1.
    10030    2    1    2    0    0  0.00000000000E+00  0.00000000000E+00  0.60775697892E+02  0.38002211216E+04  0.37997351075E+04 0.  0.
        1    1    3    3  502    0  0.20750363296E+03  0.39934109041E+02  0.19187088569E+04  0.19303098633E+04  0.50400001928E-02 0. -1.
       -1    1    3    3    0  502 -0.20750363296E+03 -0.39934109041E+02 -0.18579331590E+04  0.18699112583E+04  0.50400001928E-02 0.  1.
</event>
<event>
 5   0  0.1261152E-08  0.3800216E+04  0.7818609E-02  0.8046109E-01
       -2   -1    0    0    0  501  0.00000000000E+00  0.00000000000E+00  0.20911966141E+04  0.20911966141E+04  0.25500000920E-02 0.  1.
        2   -1    0    0  501    0  0.00000000000E+00  0.00000000000E+00 -0.17264804308E+04  0.17264804308E+04  0.25500000920E-02 0. -1.
    10030    2    1    2    0    0  0.00000000000E+00  0.00000000000E+00  0.36471618327E+03  0.38176770449E+04  0.38002157997E+04 0.  0.
        2    1    3    3  502    0 -0.12016738436E+04  0.46950699887E+03 -0.12190257999E+04  0.17749593655E+04  0.25500000920E-02 0. -1.
       -2    1    3    3    0  502  0.12016738436E+04 -0.46950699887E+03  0.15837419831E+04  0.20427176794E+04  0.25500000920E-02 0.  1.
</event>
<event>
 5   0  0.4071750E-09  0.3798716E+04  0.7818609E-02  0.8046431E-01
       -1   -1    0    0    0  501  0.00000000000E+00  0.00000000000E+00  0.20225961099E+04  0.20225961099E+04  0.50400001928E-02 0.  1.
        1   -1    0    0  501    0  0.00000000000E+00  0.00000000000E+00 -0.17836284279E+04  0.17836284280E+04  0.50400001928E-02 0. -1.
    10030    2    1    2    0    0  0.00000000000E+00  0.00000000000E+00  0.23896768199E+03  0.38062245379E+04  0.37987155303E+04 0.  0.
        2    1    3    3  502    0  0.67562108434E+03  0.16053153231E+04 -0.63968052662E+03  0.18554493559E+04  0.25500000920E-02 0. -1.
       -2    1    3    3    0  502 -0.67562108434E+03 -0.16053153231E+04  0.87864820861E+03  0.19507751820E+04  0.25500000920E-02 0.  1.
</event>
<event>
 5   0  0.1305088E-08  0.3796771E+04  0.7818609E-02  0.8046848E-01
        2   -1    0    0  501    0  0.00000000000E+00  0.00000000000E+00  0.16445974844E+04  0.16445974844E+04  0.25500000920E-02 0.  1.
       -2   -1    0    0    0  501  0.00000000000E+00  0.00000000000E+00 -0.21913366586E+04  0.21913366586E+04  0.25500000920E-02 0. -1.
    10030    2    1    2    0    0  0.00000000000E+00  0.00000000000E+00 -0.54673917417E+03  0.38359341430E+04  0.37967706047E+04 0.  0.
        3    1    3    3  502    0  0.89304888348E+03  0.37082957752E+03 -0.19238717166E+04  0.21532146377E+04  0.10100000352E+00 0. -1.
       -3    1    3    3    0  502 -0.89304888348E+03 -0.37082957752E+03  0.13771325424E+04  0.16827195053E+04  0.10100000352E+00 0.  1.
</event>
<event>
 5   0  0.1293993E-08  0.3799167E+04  0.7818609E-02  0.8046334E-01
        2   -1    0    0  501    0  0.00000000000E+00  0.00000000000E+00  0.22547129072E+04  0.22547129072E+04  0.25500000920E-02 0.  1.
       -2   -1    0    0    0  501  0.00000000000E+00  0.00000000000E+00 -0.16003886981E+04  0.16003886981E+04  0.25500000920E-02 0. -1.
    10030    2    1    2    0    0  0.00000000000E+00  0.00000000000E+00  0.65432420909E+03  0.38551016052E+04  0.37991667792E+04 0.  0.
        5    1    3    3  502    0  0.27034612833E+03 -0.16181571641E+04 -0.64447169276E+03  0.17626359492E+04  0.46999998093E+01 0. -1.
       -5    1    3    3    0  502 -0.27034612833E+03  0.16181571641E+04  0.12987959019E+04  0.20924656560E+04  0.46999998093E+01 0.  1.
</event>
<event>
 5   0  0.4071750E-09  0.3799691E+04  0.7818609E-02  0.8046221E-01
        1   -1    0    0  501    0  0.00000000000E+00  0.00000000000E+00  0.13492955073E+04  0.13492955073E+04  0.50400001928E-02 0.  1.
       -1   -1    0    0    0  501  0.00000000000E+00  0.00000000000E+00 -0.26750349033E+04  0.26750349033E+04  0.50400001928E-02 0. -1.
    10030    2    1    2    0    0  0.00000000000E+00  0.00000000000E+00 -0.13257393961E+04  0.40243304106E+04  0.37996908174E+04 0.  0.
        2    1    3    3  502    0 -0.13157322657E+04  0.12005420053E+04  0.37240252320E+02  0.17815272487E+04  0.25500000920E-02 0.  1.
       -2    1    3    3    0  502  0.13157322657E+04 -0.12005420053E+04 -0.13629796484E+04  0.22428031619E+04  0.25500000920E-02 0. -1.
</event>
<event>
 5   0  0.1305088E-08  0.3800334E+04  0.7818609E-02  0.8046083E-01
        2   -1    0    0  501    0  0.00000000000E+00  0.00000000000E+00  0.17842833568E+04  0.17842833568E+04  0.25500000920E-02 0.  1.
       -2   -1    0    0    0  501  0.00000000000E+00  0.00000000000E+00 -0.20235773064E+04  0.20235773064E+04  0.25500000920E-02 0. -1.
    10030    2    1    2    0    0  0.00000000000E+00  0.00000000000E+00 -0.23929394963E+03  0.38078606633E+04  0.38003343585E+04 0.  0.
        3    1    3    3  502    0  0.12213836243E+04 -0.61993051683E+02  0.13375420255E+04  0.18123575190E+04  0.10100000352E+00 0.  1.
       -3    1    3    3    0  502 -0.12213836243E+04  0.61993051683E+02 -0.15768359752E+04  0.19955031443E+04  0.10100000352E+00 0. -1.
</event>
<event>
 5   0  0.1327249E-08  0.3799799E+04  0.7818609E-02  0.8046198E-01
       -2   -1    0    0    0  501  0.00000000000E+00  0.00000000000E+00  0.12758621239E+04  0.12758621239E+04  0.25500000920E-02 0. -1.
        2   -1    0    0  501    0  0.00000000000E+00  0.00000000000E+00 -0.28291595524E+04  0.28291595524E+04  0.25500000920E-02 0.  1.
    10030    2    1    2    0    0  0.00000000000E+00  0.00000000000E+00 -0.15532974285E+04  0.41050216764E+04  0.37997986870E+04 0.  0.
        1    1    3    3  502    0 -0.61333939250E+02 -0.14665754325E+04 -0.20797800207E+04  0.25456021461E+04  0.50400001928E-02 0.  1.
       -1    1    3    3    0  502  0.61333939250E+02  0.14665754325E+04  0.52648259226E+03  0.15594195303E+04  0.50400001928E-02 0. -1.
</event>
<event>
 5   0  0.4071750E-09  0.3798440E+04  0.7818609E-02  0.8046490E-01
       -1   -1    0    0    0  501  0.00000000000E+00  0.00000000000E+00  0.12336629134E+04  0.12336629134E+04  0.50400001928E-02 0.  1.
        1   -1    0    0  501    0  0.00000000000E+00  0.00000000000E+00 -0.29238433293E+04  0.29238433293E+04  0.50400001928E-02 0. -1.
    10030    2    1    2    0    0  0.00000000000E+00  0.00000000000E+00 -0.16901804160E+04  0.41575062427E+04  0.37984402483E+04 0.  0.
        5    1    3    3  502    0 -0.10215743700E+04  0.16010437923E+04 -0.83664232945E+03  0.20753187456E+04  0.46999998093E+01 0.  1.
       -5    1    3    3    0  502  0.10215743700E+04 -0.16010437923E+04 -0.85353808651E+03  0.20821874972E+04  0.46999998093E+01 0. -1.
</event>
<event>
 5   0  0.1305088E-08  0.3800722E+04  0.7818609E-02  0.8046000E-01
       -2   -1    0    0    0  501  0.00000000000E+00  0.00000000000E+00  0.15519320312E+04  0.15519320312E+04  0.25500000920E-02 0.  1.
        2   -1    0    0  501    0  0.00000000000E+00  0.00000000000E+00 -0.23270170546E+04  0.23270170546E+04  0.25500000920E-02 0. -1.
    10030    2    1    2    0    0  0.00000000000E+00  0.00000000000E+00 -0.77508502344E+03  0.38789490858E+04  0.38007221967E+04 0.  0.
        3    1    3    3  502    0  0.11005427618E+04  0.13918393909E+04  0.30687421179E+03  0.18007173717E+04  0.10100000352E+00 0.  1.
       -3    1    3    3    0  502 -0.11005427618E+04 -0.13918393909E+04 -0.10819592352E+04  0.20782317141E+04  0.10100000352E+00 0. -1.
</event>
<event>
 5   0  0.4071750E-09  0.3799769E+04  0.7818609E-02  0.8046204E-01
       -1   -1    0    0    0  501  0.00000000000E+00  0.00000000000E+00  0.24797536927E+04  0.24797536927E+04  0.50400001928E-02 0.  1.
        1   -1    0    0  501    0  0.00000000000E+00  0.00000000000E+00 -0.14556128058E+04  0.14556128058E+04  0.50400001928E-02 0. -1.
    10030    2    1    2    0    0  0.00000000000E+00  0.00000000000E+00  0.10241408869E+04  0.39353664985E+04  0.37997690615E+04 0.  0.
        4    1    3    3  502    0  0.23392627484E+03 -0.10782823362E+04 -0.10897792455E+04  0.15508174346E+04  0.12699999809E+01 0. -1.
       -4    1    3    3    0  502 -0.23392627484E+03  0.10782823362E+04  0.21139201324E+04  0.23845490638E+04  0.12699999809E+01 0.  1.
</event>
<event>
 5   0  0.4071750E-09  0.3800382E+04  0.7818609E-02  0.8046073E-01
        1   -1    0    0  501    0  0.00000000000E+00  0.00000000000E+00  0.18823950868E+04  0.18823950868E+04  0.50400001928E-02 0.  1.
       -1   -1    0    0    0  501  0.00000000000E+00  0.00000000000E+00 -0.19181552412E+04  0.19181552412E+04  0.50400001928E-02 0. -1.
    10030    2    1    2    0    0  0.00000000000E+00  0.00000000000E+00 -0.35760154385E+02  0.38005503280E+04  0.38003820870E+04 0.  0.
        1    1    3    3  502    0  0.28455258829E+03 -0.12418342228E+03  0.18568586956E+04  0.18826353639E+04  0.50400001928E-02 0.  1.
       -1    1    3    3    0  502 -0.28455258829E+03  0.12418342228E+03 -0.18926188500E+04  0.19179149641E+04  0.50400001928E-02 0. -1.
</event>
<event>
 5   0  0.4071750E-09  0.3798133E+04  0.7818609E-02  0.8046556E-01
        1   -1    0    0  501    0  0.00000000000E+00  0.00000000000E+00  0.15566883562E+04  0.15566883562E+04  0.50400001928E-02 0. -1.
       -1   -1    0    0    0  501  0.00000000000E+00  0.00000000000E+00 -0.23167472293E+04  0.23167472293E+04  0.50400001928E-02 0.  1.
    10030    2    1    2    0    0  0.00000000000E+00  0.00000000000E+00 -0.76005887311E+03  0.38734355855E+04  0.37981329287E+04 0.  0.
        5    1    3    3  502    0 -0.17004751712E+04 -0.17393520572E+03 -0.12238159854E+04  0.21022884959E+04  0.46999998093E+01 0. -1.
       -5    1    3    3    0  502  0.17004751712E+04  0.17393520572E+03  0.46375711228E+03  0.17711470896E+04  0.46999998093E+01 0.  1.
</event>
<event>
 5   0  0.1264013E-08  0.3801176E+04  0.7818609E-02  0.8045903E-01
        2   -1    0    0  501    0  0.00000000000E+00  0.00000000000E+00  0.21634653338E+04  0.21634653338E+04  0.25500000920E-02 0.  1.
       -2   -1    0    0    0  501  0.00000000000E+00  0.00000000000E+00 -0.16696524719E+04  0.16696524719E+04  0.25500000920E-02 0. -1.
    10030    2    1    2    0    0  0.00000000000E+00  0.00000000000E+00  0.49381286185E+03  0.38331178057E+04  0.38011762614E+04 0.  0.
        4    1    3    3  502    0 -0.54482972018E+03 -0.17980318192E+04 -0.42692784899E+02  0.18792504180E+04  0.12699999809E+01 0.  1.
       -4    1    3    3    0  502  0.54482972018E+03  0.17980318192E+04  0.53650564675E+03  0.19538673877E+04  0.12699999809E+01 0. -1.
</event>
<event>
 5   0  0.1264013E-08  0.3792431E+04  0.7818609E-02  0.8047781E-01
       -2   -1    0    0    0  501  0.00000000000E+00  0.00000000000E+00  0.18662349563E+04  0.18662349563E+04  0.25500000920E-02 0. -1.
        2   -1    0    0  501    0  0.00000000000E+00  0.00000000000E+00 -0.19266773992E+04  0.19266773992E+04  0.25500000920E-02 0.  1.
    10030    2    1    2    0    0  0.00000000000E+00  0.00000000000E+00 -0.60442442949E+02  0.37929123555E+04  0.37924307307E+04 0.  0.
        4    1    3    3  502    0 -0.73425616180E+03 -0.10891097716E+04  0.13375557982E+04  0.18746597910E+04  0.12699999809E+01 0. -1.
       -4    1    3    3    0  502  0.73425616180E+03  0.10891097716E+04 -0.13979982412E+04  0.19182525645E+04  0.12699999809E+01 0.  1.
</event>
<event>
 5   0  0.4071750E-09  0.3799984E+04  0.7818609E-02  0.8046158E-01
       -1   -1    0    0    0  501  0.00000000000E+00  0.00000000000E+00  0.22189155074E+04  0.22189155074E+04  0.50400001928E-02 0. -1.
        1   -1    0    0  501    0  0.00000000000E+00  0.00000000000E+00 -0.16269075938E+04  0.16269075938E+04  0.50400001928E-02 0.  1.
    10030    2    1    2    0    0  0.00000000000E+00  0.00000000000E+00  0.59200791357E+03  0.38458231012E+04  0.37999844678E+04 0.  0.
        2    1    3    3  502    0 -0.16284579197E+04  0.37953558878E+03 -0.61712580300E+03  0.17823486516E+04  0.25500000920E-02 0.  1.
       -2    1    3    3    0  502  0.16284579197E+04 -0.37953558878E+03  0.12091337166E+04  0.20634744495E+04  0.25500000920E-02 0. -1.
</event>
<event>
 5   0  0.4071750E-09  0.3801727E+04  0.7818609E-02  0.8045784E-01
        1   -1    0    0  501    0  0.00000000000E+00  0.00000000000E+00  0.12429891875E+04  0.12429891875E+04  0.50400001928E-02 0.  1.
       -1   -1    0    0    0  501  0.00000000000E+00  0.00000000000E+00 -0.29069288334E+04  0.29069288334E+04  0.50400001928E-02 0. -1.
    10030    2    1    2    0    0  0.00000000000E+00  0.00000000000E+00 -0.16639396460E+04  0.41499180209E+04  0.38017265071E+04 0.  0.
        5    1    3    3  502    0  0.15037690032E+04  0.11566465041E+04 -0.70232031352E+03  0.20229751019E+04  0.46999998093E+01 0.  1.
       -5    1    3    3    0  502 -0.15037690032E+04 -0.11566465041E+04 -0.96161933243E+03  0.21269429190E+04  0.46999998093E+01 0. -1.
</event>
<event>
 5   0  0.4071750E-09  0.3792153E+04  0.7818609E-02  0.8047841E-01
        1   -1    0    0  501    0  0.00000000000E+00  0.00000000000E+00  0.22459858302E+04  0.22459858302E+04  0.50400001928E-02 0.  1.
       -1   -1    0    0    0  501  0.00000000000E+00  0.00000000000E+00 -0.16006806559E+04  0.16006806559E+04  0.50400001928E-02 0. -1.
    10030    2    1    2    0    0  0.00000000000E+00  0.00000000000E+00  0.64530517435E+03  0.38466664861E+04  0.37921529883E+04 0.  0.
        5    1    3    3  502    0 -0.72201281071E+03  0.16689767929E+04 -0.22199985995E+03  0.18319639903E+04  0.46999998093E+01 0. -1.
       -5    1    3    3    0  502  0.72201281071E+03 -0.16689767929E+04  0.86730503430E+03  0.20147024958E+04  0.46999998093E+01 0.  1.
</event>
<event>
 5   0  0.1261152E-08  0.3806799E+04  0.7818609E-02  0.8044697E-01
       -2   -1    0    0    0  501  0.00000000000E+00  0.00000000000E+00  0.16289482820E+04  0.16289482820E+04  0.25500000920E-02 0.  1.
        2   -1    0    0  501    0  0.00000000000E+00  0.00000000000E+00 -0.22240909860E+04  0.22240909860E+04  0.25500000920E-02 0. -1.
    10030    2    1    2    0    0  0.00000000000E+00  0.00000000000E+00 -0.59514270400E+03  0.38530392680E+04  0.38067987552E+04 0.  0.
        2    1    3    3  502    0  0.46341983752E+03  0.13541973531E+04 -0.15675316076E+04  0.21226784395E+04  0.25500000920E-02 0.  1.
       -2    1    3    3    0  502 -0.46341983752E+03 -0.13541973531E+04  0.97238890356E+03  0.17303608285E+04  0.25500000920E-02 0. -1.
</event>
<event>
 5   0  0.1305088E-08  0.3797387E+04  0.7818609E-02  0.8046716E-01
        2   -1    0    0  501    0  0.00000000000E+00  0.00000000000E+00  0.21925848636E+04  0.21925848636E+04  0.25500000920E-02 0.  1.
       -2   -1    0    0    0  501  0.00000000000E+00  0.00000000000E+00 -0.16441952735E+04  0.16441952735E+04  0.25500000920E-02 0. -1.
    10030    2    1    2    0    0  0.00000000000E+00  0.00000000000E+00  0.54838959013E+03  0.38367801372E+04  0.37973873490E+04 0.  0.
        3    1    3    3  502    0 -0.12293247918E+04 -0.13412537630E+04  0.82281611499E+03  0.19968043144E+04  0.10100000352E+00 0.  1.
       -3    1    3    3    0  502  0.12293247918E+04  0.13412537630E+04 -0.27442652485E+03  0.18399758228E+04  0.10100000352E+00 0. -1.
</event>
<event>
 5   0  0.1327249E-08  0.3800071E+04  0.7818609E-02  0.8046140E-01
        2   -1    0    0  501    0  0.00000000000E+00  0.00000000000E+00  0.31903569836E+04  0.31903569836E+04  0.25500000920E-02 0.  1.
       -2   -1    0    0    0  501  0.00000000000E+00  0.00000000000E+00 -0.11315771432E+04  0.11315771432E+04  0.25500000920E-02 0. -1.
    10030    2    1    2    0    0  0.00000000000E+00  0.00000000000E+00  0.20587798404E+04  0.43219341268E+04  0.38000710737E+04 0.  0.
        1    1    3    3  502    0  0.11317027121E+04  0.11589414000E+04  0.21588671389E+04  0.26990004670E+04  0.50400001928E-02 0.  1.
       -1    1    3    3    0  502 -0.11317027121E+04 -0.11589414000E+04 -0.10008729852E+03  0.16229336599E+04  0.50400001928E-02 0. -1.
</event>
<event>
 5   0  0.1261152E-08  0.3800236E+04  0.7818609E-02  0.8046104E-01
        2   -1    0    0  501    0  0.00000000000E+00  0.00000000000E+00  0.21244110036E+04  0.21244110036E+04  0.25500000920E-02 0.  1.
       -2   -1    0    0    0  501  0.00000000000E+00  0.00000000000E+00 -0.16995060347E+04  0.16995060347E+04  0.25500000920E-02 0. -1.
    10030    2    1    2    0    0  0.00000000000E+00  0.00000000000E+00  0.42490496887E+03  0.38239170383E+04  0.38002364772E+04 0.  0.
        2    1    3    3  502    0  0.49127591895E+03 -0.15448715321E+04 -0.78491985720E+03  0.18011327717E+04  0.25500000920E-02 0.  1.
       -2    1    3    3    0  502 -0.49127591895E+03  0.15448715321E+04  0.12098248261E+04  0.20227842665E+04  0.25500000920E-02 0. -1.
</event>
<event>
 5   0  0.1305088E-08  0.3799011E+04  0.7818609E-02  0.8046367E-01
        2   -1    0    0  501    0  0.00000000000E+00  0.00000000000E+00  0.17744428342E+04  0.17744428342E+04  0.25500000920E-02 0. -1.
       -2   -1    0    0    0  501  0.00000000000E+00  0.00000000000E+00 -0.20333827377E+04  0.20333827377E+04  0.25500000920E-02 0.  1.
    10030    2    1    2    0    0  0.00000000000E+00  0.00000000000E+00 -0.25893990358E+03  0.38078255719E+04  0.37990111493E+04 0.  0.
        3    1    3    3  502    0 -0.17125122561E+04  0.74297853124E+03  0.22263714544E+03  0.18799687853E+04  0.10100000352E+00 0. -1.
       -3    1    3    3    0  502  0.17125122561E+04 -0.74297853124E+03 -0.48157704902E+03  0.19278567865E+04  0.10100000352E+00 0.  1.
</event>
<event>
 5   0  0.4071750E-09  0.3798419E+04  0.7818609E-02  0.8046494E-01
       -1   -1    0    0    0  501  0.00000000000E+00  0.00000000000E+00  0.13698837540E+04  0.13698837540E+04  0.50400001928E-02 0.  1.
        1   -1    0    0  501    0  0.00000000000E+00  0.00000000000E+00 -0.26330673439E+04  0.26330673439E+04  0.50400001928E-02 0. -1.
    10030    2    1    2    0    0  0.00000000000E+00  0.00000000000E+00 -0.12631835899E+04  0.40029510978E+04  0.37984187118E+04 0.  0.
        5    1    3    3  502    0 -0.46649699860E+03  0.17168648826E+04 -0.13320072253E+04  0.22225008016E+04  0.46999998093E+01 0. -1.
       -5    1    3    3    0  502  0.46649699860E+03 -0.17168648826E+04  0.68823635428E+02  0.17804502963E+04  0.46999998093E+01 0.  1.
</event>
<event>
 5   0  0.1293993E-08  0.3798359E+04  0.7818609E-02  0.8046507E-01
       -2   -1    0    0    0  501  0.00000000000E+00  0.00000000000E+00  0.21100460416E+04  0.21100460416E+04  0.25500000920E-02 0. -1.
        2   -1    0    0  501    0  0.00000000000E+00  0.00000000000E+00 -0.17093862457E+04  0.17093862457E+04  0.25500000920E-02 0.  1.
    10030    2    1    2    0    0  0.00000000000E+00  0.00000000000E+00  0.40065979595E+03  0.38194322873E+04  0.37983594782E+04 0.  0.
        5    1    3    3  502    0  0.18603523355E+04  0.17346070494E+03  0.54260362748E+03  0.19456207788E+04  0.46999998093E+01 0. -1.
       -5    1    3    3    0  502 -0.18603523355E+04 -0.17346070494E+03 -0.14194383153E+03  0.18738115085E+04  0.46999998093E+01 0.  1.
</event>
<event>
 5   0  0.4071750E-09  0.3800264E+04  0.7818609E-02  0.8046098E-01
        1   -1    0    0  501    0  0.00000000000E+00  0.00000000000E+00  0.14015623656E+04  0.14015623656E+04  0.50400001928E-02 0. -1.
       -1   -1    0    0    0  501  0.00000000000E+00  0.00000000000E+00 -0.25760547854E+04  0.25760547854E+04  0.50400001928E-02 0.  1.
    10030    2    1    2    0    0  0.00000000000E+00  0.00000000000E+00 -0.11744924198E+04  0.39776171510E+04  0.38002639061E+04 0.  0.
        5    1    3    3  502    0  0.44106430662E+03  0.15506716295E+04  0.46535028881E+03  0.16780027433E+04  0.46999998093E+01 0. -1.
       -5    1    3    3    0  502 -0.44106430662E+03 -0.15506716295E+04 -0.16398427086E+04  0.22996144077E+04  0.46999998093E+01 0.  1.
</event>
<event>
 5   0  0.4071750E-09  0.3800542E+04  0.7818609E-02  0.8046038E-01
        1   -1    0    0  501    0  0.00000000000E+00  0.00000000000E+00  0.27449008480E+04  0.27449008480E+04  0.50400001928E-02 0. -1.
       -1   -1    0    0    0  501  0.00000000000E+00  0.00000000000E+00 -0.13155413889E+04  0.13155413890E+04  0.50400001928E-02 0.  1.
    10030    2    1    2    0    0  0.00000000000E+00  0.00000000000E+00  0.14293594591E+04  0.40604422370E+04  0.38005424214E+04 0.  0.
        3    1    3    3  502    0 -0.83192253595E+03 -0.16878494224E+04  0.99754941424E+03  0.21297970848E+04  0.10100000352E+00 0. -1.
       -3    1    3    3    0  502  0.83192253595E+03  0.16878494224E+04  0.43181004482E+03  0.19306451521E+04  0.10100000352E+00 0.  1.
</event>
<event>
 5   0  0.1305088E-08  0.3799249E+04  0.7818609E-02  0.8046316E-01
       -2   -1    0    0    0  501  0.00000000000E+00  0.00000000000E+00  0.17750059153E+04  0.17750059153E+04  0.25500000920E-02 0.  1.
        2   -1    0    0  501    0  0.00000000000E+00  0.00000000000E+00 -0.20329927688E+04  0.20329927688E+04  0.25500000920E-02 0. -1.
    10030    2    1    2    0    0  0.00000000000E+00  0.00000000000E+00 -0.25798685348E+03  0.38079986840E+04  0.37992494997E+04 0.  0.
        3    1    3    3  502    0 -0.75049129418E+03 -0.51432003398E+01  0.16201070890E+04  0.17855001050E+04  0.10100000352E+00 0.  1.
       -3    1    3    3    0  502  0.75049129418E+03  0.51432003398E+01 -0.18780939425E+04  0.20224985790E+04  0.10100000352E+00 0. -1.
</event>
<event>
 5   0  0.4071750E-09  0.3796881E+04  0.7818609E-02  0.8046825E-01
        1   -1    0    0  501    0  0.00000000000E+00  0.00000000000E+00  0.23262218573E+04  0.23262218573E+04  0.50400001928E-02 0.  1.
       -1   -1    0    0    0  501  0.00000000000E+00  0.00000000000E+00 -0.15493259035E+04  0.15493259035E+04  0.50400001928E-02 0. -1.
    10030    2    1    2    0    0  0.00000000000E+00  0.00000000000E+00  0.77689595384E+03  0.38755477608E+04  0.37968807097E+04 0.  0.
        1    1    3    3  502    0 -0.61366242830E+03  0.12314801194E+04 -0.94668621033E+03  0.16701316239E+04  0.50400001928E-02 0. -1.
       -1    1    3    3    0  502  0.61366242830E+03 -0.12314801194E+04  0.17235821642E+04  0.22054161369E+04  0.50400001928E-02 0.  1.
</event>
<event>
 5   0  0.4071750E-09  0.3801739E+04  0.7818609E-02  0.8045782E-01
       -1   -1    0    0    0  501  0.00000000000E+00  0.00000000000E+00  0.13786354784E+04  0.13786354785E+04  0.50400001928E-02 0. -1.
        1   -1    0    0  501    0  0.00000000000E+00  0.00000000000E+00 -0.26209278175E+04  0.26209278175E+04  0.50400001928E-02 0.  1.
    10030    2    1    2    0    0  0.00000000000E+00  0.00000000000E+00 -0.12422923390E+04  0.39995632959E+04  0.38017385895E+04 0.  0.
        5    1    3    3  502    0 -0.56476313341E+03 -0.46432414069E+03 -0.24670792864E+04  0.25731413875E+04  0.46999998093E+01 0.  1.
       -5    1    3    3    0  502  0.56476313341E+03  0.46432414069E+03  0.12247869474E+04  0.14264219085E+04  0.46999998093E+01 0. -1.
</event>
<event>
 5   0  0.4071750E-09  0.3799842E+04  0.7818609E-02  0.8046189E-01
        1   -1    0    0  501    0  0.00000000000E+00  0.00000000000E+00  0.18365190658E+04  0.18365190658E+04  0.50400001928E-02 0.  1.
       -1   -1    0    0    0  501  0.00000000000E+00  0.00000000000E+00 -0.19655120785E+04  0.19655120785E+04  0.50400001928E-02 0. -1.
    10030    2    1    2    0    0  0.00000000000E+00  0.00000000000E+00 -0.12899301266E+03  0.38020311443E+04  0.37998423158E+04 0.  0.
        4    1    3    3  502    0 -0.44715121780E+02 -0.13187278426E+04 -0.14322719477E+04  0.19474206299E+04  0.12699999809E+01 0. -1.
       -4    1    3    3    0  502  0.44715121780E+02  0.13187278426E+04  0.13032789350E+04  0.18546105144E+04  0.12699999809E+01 0.  1.
</event>
<event>
 5   0  0.4071750E-09  0.3798748E+04  0.7818609E-02  0.8046424E-01
       -1   -1    0    0    0  501  0.00000000000E+00  0.00000000000E+00  0.16716261055E+04  0.16716261055E+04  0.50400001928E-02 0. -1.
        1   -1    0    0  501    0  0.00000000000E+00  0.00000000000E+00 -0.21581515067E+04  0.21581515067E+04  0.50400001928E-02 0.  1.
    10030    2    1    2    0    0  0.00000000000E+00  0.00000000000E+00 -0.48652540122E+03  0.38297776122E+04  0.37987484246E+04 0.  0.
        5    1    3    3  502    0 -0.86110374832E+03  0.12590431706E+04 -0.13842806861E+04  0.20598408867E+04  0.46999998093E+01 0.  1.
       -5    1    3    3    0  502  0.86110374832E+03 -0.12590431706E+04  0.89775528485E+03  0.17699367255E+04  0.46999998093E+01 0. -1.
</event>
<event>
 5   0  0.1264013E-08  0.3799641E+04  0.7818609E-02  0.8046232E-01
       -2   -1    0    0    0  501  0.00000000000E+00  0.00000000000E+00  0.19207179447E+04  0.19207179447E+04  0.25500000920E-02 0.  1.
        2   -1    0    0  501    0  0.00000000000E+00  0.00000000000E+00 -0.18791504364E+04  0.18791504364E+04  0.25500000920E-02 0. -1.
    10030    2    1    2    0    0  0.00000000000E+00  0.00000000000E+00  0.41567508362E+02  0.37998683811E+04  0.37996410167E+04 0.  0.
        4    1    3    3  502    0 -0.32212023086E+03  0.17822093262E+04 -0.55308403061E+03  0.18936565379E+04  0.12699999809E+01 0. -1.
       -4    1    3    3    0  502  0.32212023086E+03 -0.17822093262E+04  0.59465153897E+03  0.19062118432E+04  0.12699999809E+01 0.  1.
</event>
<event>
 5   0  0.1327249E-08  0.3800038E+04  0.7818609E-02  0.8046147E-01
       -2   -1    0    0    0  501  0.00000000000E+00  0.00000000000E+00  0.19453522373E+04  0.19453522373E+04  0.25500000920E-02 0.  1.
        2   -1    0    0  501    0  0.00000000000E+00  0.00000000000E+00 -0.18557422966E+04  0.18557422966E+04  0.25500000920E-02 0. -1.
    10030    2    1    2    0    0  0.00000000000E+00  0.00000000000E+00  0.89609940682E+02  0.38010945340E+04  0.38000381201E+04 0.  0.
        1    1    3    3  502    0 -0.13294589422E+04  0.10441150137E+04 -0.82286639670E+03  0.18800921115E+04  0.50400001928E-02 0.  1.
       -1    1    3    3    0  502  0.13294589422E+04 -0.10441150137E+04  0.91247633738E+03  0.19210024225E+04  0.50400001928E-02 0. -1.
</event>
<event>
 5   0  0.4071750E-09  0.3799942E+04  0.7818609E-02  0.8046167E-01
        1   -1    0    0  501    0  0.00000000000E+00  0.00000000000E+00  0.14755072870E+04  0.14755072870E+04  0.50400001928E-02 0. -1.
       -1   -1    0    0    0  501  0.00000000000E+00  0.00000000000E+00 -0.24465420182E+04  0.24465420182E+04  0.50400001928E-02 0.  1.
    10030    2    1    2    0    0  0.00000000000E+00  0.00000000000E+00 -0.97103473113E+03  0.39220493052E+04  0.37999424079E+04 0.  0.
        4    1    3    3  502    0  0.87992901226E+03  0.10698056678E+04 -0.18277398099E+04  0.22933367958E+04  0.12699999809E+01 0.  1.
       -4    1    3    3    0  502 -0.87992901226E+03 -0.10698056678E+04  0.85670507877E+03  0.16287125094E+04  0.12699999809E+01 0. -1.
</event>
<event>
 5   0  0.1261152E-08  0.3799668E+04  0.7818609E-02  0.8046226E-01
       -2   -1    0    0    0  501  0.00000000000E+00  0.00000000000E+00  0.17954605323E+04  0.17954605323E+04  0.25500000920E-02 0.  1.
        2   -1    0    0  501    0  0.00000000000E+00  0.00000000000E+00 -0.20102752259E+04  0.20102752259E+04  0.25500000920E-02 0. -1.
    10030    2    1    2    0    0  0.00000000000E+00  0.00000000000E+00 -0.21481469356E+03  0.38057357582E+04  0.37996683156E+04 0.  0.
        2    1    3    3  502    0 -0.14206908415E+03 -0.16699947995E+03 -0.19975607967E+04  0.20095575601E+04  0.25500000920E-02 0. -1.
       -2    1    3    3    0  502  0.14206908415E+03  0.16699947995E+03  0.17827461031E+04  0.17961781981E+04  0.25500000920E-02 0.  1.
</event>
<event>
 5   0  0.4071750E-09  0.3800827E+04  0.7818609E-02  0.8045977E-01
       -1   -1    0    0    0  501  0.00000000000E+00  0.00000000000E+00  0.21115274282E+04  0.21115274282E+04  0.50400001928E-02 0.  1.
        1   -1    0    0  501    0  0.00000000000E+00  0.00000000000E+00 -0.17104069170E+04  0.17104069170E+04  0.50400001928E-02 0. -1.
    10030    2    1    2    0    0  0.00000000000E+00  0.00000000000E+00  0.40112051126E+03  0.38219343452E+04  0.38008268146E+04 0.  0.
        5    1    3    3  502    0  0.80779283336E+03  0.15179295500E+04  0.10143193127E+04  0.19963729958E+04  0.46999998093E+01 0.  1.
       -5    1    3    3    0  502 -0.80779283336E+03 -0.15179295500E+04 -0.61319880141E+03  0.18255613494E+04  0.46999998093E+01 0. -1.
</event>
<event>
 5   0  0.1261152E-08  0.3790751E+04  0.7818609E-02  0.8048143E-01
        2   -1    0    0  501    0  0.00000000000E+00  0.00000000000E+00  0.24857713906E+04  0.24857713906E+04  0.25500000920E-02 0.  1.
       -2   -1    0    0    0  501  0.00000000000E+00  0.00000000000E+00 -0.14452042527E+04  0.14452042527E+04  0.25500000920E-02 0. -1.
    10030    2    1    2    0    0  0.00000000000E+00  0.00000000000E+00  0.10405671379E+04  0.39309756433E+04  0.37907505245E+04 0.  0.
        2    1    3    3  502    0 -0.98205374581E+03  0.49864719822E+03  0.21198638074E+04  0.23889121269E+04  0.25500000920E-02 0.  1.
       -2    1    3    3    0  502  0.98205374581E+03 -0.49864719822E+03 -0.10792966694E+04  0.15420635164E+04  0.25500000920E-02 0. -1.
</event>
<event>
 5   0  0.4071750E-09  0.3802597E+04  0.7818609E-02  0.8045598E-01
       -1   -1    0    0    0  501  0.00000000000E+00  0.00000000000E+00  0.17055272802E+04  0.17055272802E+04  0.50400001928E-02 0. -1.
        1   -1    0    0  501    0  0.00000000000E+00  0.00000000000E+00 -0.21195413790E+04  0.21195413790E+04  0.50400001928E-02 0.  1.
    10030    2    1    2    0    0  0.00000000000E+00  0.00000000000E+00 -0.41401409881E+03  0.38250686593E+04  0.38025968198E+04 0.  0.
        4    1    3    3  502    0  0.55076779282E+03 -0.12869801476E+04 -0.15011835314E+04  0.20526121577E+04  0.12699999809E+01 0.  1.
       -4    1    3    3    0  502 -0.55076779282E+03  0.12869801476E+04  0.10871694326E+04  0.17724565016E+04  0.12699999809E+01 0. -1.
</event>
<event>
 5   0  0.4071750E-09  0.3800725E+04  0.7818609E-02  0.8045999E-01
        1   -1    0    0  501    0  0.00000000000E+00  0.00000000000E+00  0.24973524031E+04  0.24973524031E+04  0.50400001928E-02 0.  1.
       -1   -1    0    0    0  501  0.00000000000E+00  0.00000000000E+00 -0.14460823091E+04  0.14460823091E+04  0.50400001928E-02 0. -1.
    10030    2    1    2    0    0  0.00000000000E+00  0.00000000000E+00  0.10512700940E+04  0.39434347122E+04  0.38007247360E+04 0.  0.
        4    1    3    3  502    0 -0.90807346007E+03  0.32798956819E+03  0.22239212524E+04  0.24244590976E+04  0.12699999809E+01 0.  1.
       -4    1    3    3    0  502  0.90807346007E+03 -0.32798956819E+03 -0.11726511585E+04  0.15189756147E+04  0.12699999809E+01 0. -1.
</event>
<event>
 5   0  0.4071750E-09  0.3800724E+04  0.7818609E-02  0.8045999E-01
       -1   -1    0    0    0  501  0.00000000000E+00  0.00000000000E+00  0.14664172795E+04  0.14664172796E+04  0.50400001928E-02 0. -1.
        1   -1    0    0  501    0  0.00000000000E+00  0.00000000000E+00 -0.24627207265E+04  0.24627207265E+04  0.50400001928E-02 0.  1.
    10030    2    1    2    0    0  0.00000000000E+00  0.00000000000E+00 -0.99630344691E+03  0.39291380060E+04  0.38007242615E+04 0.  0.
        4    1    3    3  502    0  0.10282168073E+04 -0.39851455971E+03 -0.20981285175E+04  0.23702718295E+04  0.12699999809E+01 0.  1.
       -4    1    3    3    0  502 -0.10282168073E+04  0.39851455971E+03  0.11018250706E+04  0.15588661765E+04  0.12699999809E+01 0. -1.
</event>
<event>
 5   0  0.1261152E-08  0.3802176E+04  0.7818609E-02  0.8045688E-01
       -2   -1    0    0    0  501  0.00000000000E+00  0.00000000000E+00  0.18496125960E+04  0.18496125960E+04  0.25500000920E-02 0.  1.
        2   -1    0    0  501    0  0.00000000000E+00  0.00000000000E+00 -0.19539962555E+04  0.19539962555E+04  0.25500000920E-02 0. -1.
    10030    2    1    2    0    0  0.00000000000E+00  0.00000000000E+00 -0.10438365949E+03  0.38036088516E+04  0.38021762646E+04 0.  0.
        2    1    3    3  502    0 -0.15944257794E+04  0.90684466803E+03  0.44757148895E+03  0.18880892605E+04  0.25500000920E-02 0.  1.
       -2    1    3    3    0  502  0.15944257794E+04 -0.90684466803E+03 -0.55195514845E+03  0.19155195911E+04  0.25500000920E-02 0. -1.
</event>
<event>
 5   0  0.1293993E-08  0.3799815E+04  0.7818609E-02  0.8046195E-01
       -2   -1    0    0    0  501  0.00000000000E+00  0.00000000000E+00  0.25137861284E+04  0.25137861284E+04  0.25500000920E-02 0.  1.
        2   -1    0    0  501    0  0.00000000000E+00  0.00000000000E+00 -0.14359408424E+04  0.14359408424E+04  0.25500000920E-02 0. -1.
    10030    2    1    2    0    0  0.00000000000E+00  0.00000000000E+00  0.10778452860E+04  0.39497269708E+04  0.37998148222E+04 0.  0.
        5    1    3    3  502    0  0.14639917639E+04  0.10989975700E+04  0.10674702174E+04  0.21190994075E+04  0.46999998093E+01 0.  1.
       -5    1    3    3    0  502 -0.14639917639E+04 -0.10989975700E+04  0.10375068590E+02  0.18306275633E+04  0.46999998093E+01 0. -1.
</event>
<event>
 5   0  0.1293993E-08  0.3800800E+04  0.7818609E-02  0.8045983E-01
        2   -1    0    0  501    0  0.00000000000E+00  0.00000000000E+00  0.15609713865E+04  0.15609713865E+04  0.25500000920E-02 0.  1.
       -2   -1    0    0    0  501  0.00000000000E+00  0.00000000000E+00 -0.23136366421E+04  0.23136366421E+04  0.25500000920E-02 0. -1.
    10030    2    1    2    0    0  0.00000000000E+00  0.00000000000E+00 -0.75266525564E+03  0.38746080286E+04  0.38008002300E+04 0.  0.
        5    1    3    3  502    0 -0.13182129117E+04  0.89958670846E+03  0.67547710773E+03  0.17329838256E+04  0.46999998093E+01 0.  1.
       -5    1    3    3    0  502  0.13182129117E+04 -0.89958670846E+03 -0.14281423634E+04  0.21416242030E+04  0.46999998093E+01 0. -1.
</event>
<event>
 5   0  0.1264013E-08  0.3800586E+04  0.7818609E-02  0.8046029E-01
        2   -1    0    0  501    0  0.00000000000E+00  0.00000000000E+00  0.25225486213E+04  0.25225486213E+04  0.25500000920E-02 0.  1.
       -2   -1    0    0    0  501  0.00000000000E+00  0.00000000000E+00 -0.14315336257E+04  0.14315336257E+04  0.25500000920E-02 0. -1.
    10030    2    1    2    0    0  0.00000000000E+00  0.00000000000E+00  0.10910149956E+04  0.39540822470E+04  0.38005858359E+04 0.  0.
        4    1    3    3  502    0  0.15703102733E+04 -0.43168284561E+03  0.15642839481E+04  0.22581431126E+04  0.12699999809E+01 0. -1.
       -4    1    3    3    0  502 -0.15703102733E+04  0.43168284561E+03 -0.47326895257E+03  0.16959391345E+04  0.12699999809E+01 0.  1.
</event>
<event>
 5   0  0.4071750E-09  0.3800251E+04  0.7818609E-02  0.8046101E-01
       -1   -1    0    0    0  501  0.00000000000E+00  0.00000000000E+00  0.30699623622E+04  0.30699623622E+04  0.50400001928E-02 0. -1.
        1   -1    0    0  501    0  0.00000000000E+00  0.00000000000E+00 -0.11760657174E+04  0.11760657174E+04  0.50400001928E-02 0.  1.
    10030    2    1    2    0    0  0.00000000000E+00  0.00000000000E+00  0.18938966448E+04  0.42460280796E+04  0.38002513011E+04 0.  0.
        4    1    3    3  502    0 -0.78786255665E+03 -0.17240398740E+04  0.10944786366E+04  0.21888184014E+04  0.12699999809E+01 0. -1.
       -4    1    3    3    0  502  0.78786255665E+03  0.17240398740E+04  0.79941800816E+03  0.20572096782E+04  0.12699999809E+01 0.  1.
</event>
<event>
 5   0  0.4071750E-09  0.3799903E+04  0.7818609E-02  0.8046176E-01
       -1   -1    0    0    0  501  0.00000000000E+00  0.00000000000E+00  0.18172202430E+04  0.18172202430E+04  0.50400001928E-02 0. -1.
        1   -1    0    0  501    0  0.00000000000E+00  0.00000000000E+00 -0.19864490462E+04  0.19864490462E+04  0.50400001928E-02 0.  1.
    10030    2    1    2    0    0  0.00000000000E+00  0.00000000000E+00 -0.16922880315E+03  0.38036692892E+04  0.37999028506E+04 0.  0.
        2    1    3    3  502    0 -0.12661523196E+03  0.43167193044E+03  0.17631414168E+04  0.18196262606E+04  0.25500000920E-02 0. -1.
       -2    1    3    3    0  502  0.12661523196E+03 -0.43167193044E+03 -0.19323702200E+04  0.19840430286E+04  0.25500000920E-02 0.  1.
</event>
<event>
 5   0  0.1261152E-08  0.3801121E+04  0.7818609E-02  0.8045914E-01
        2   -1    0    0  501    0  0.00000000000E+00  0.00000000000E+00  0.21168191905E+04  0.21168191905E+04  0.25500000920E-02 0. -1.
       -2   -1    0    0    0  501  0.00000000000E+00  0.00000000000E+00 -0.17063953248E+04  0.17063953249E+04  0.25500000920E-02 0.  1.
    10030    2    1    2    0    0  0.00000000000E+00  0.00000000000E+00  0.41042386564E+03  0.38232145153E+04  0.38011210821E+04 0.  0.
        2    1    3    3  502    0  0.52848151636E+03 -0.17335712284E+04  0.78087450945E+03  0.19734049044E+04  0.25500000920E-02 0. -1.
       -2    1    3    3    0  502 -0.52848151636E+03  0.17335712284E+04 -0.37045064381E+03  0.18498096109E+04  0.25500000920E-02 0.  1.
</event>
<event>
 5   0  0.4071750E-09  0.3804942E+04  0.7818609E-02  0.8045095E-01
        1   -1    0    0  501    0  0.00000000000E+00  0.00000000000E+00  0.23047159084E+04  0.23047159084E+04  0.50400001928E-02 0. -1.
       -1   -1    0    0    0  501  0.00000000000E+00  0.00000000000E+00 -0.15704304123E+04  0.15704304123E+04  0.50400001928E-02 0.  1.
    10030    2    1    2    0    0  0.00000000000E+00  0.00000000000E+00  0.73428549617E+03  0.38751463207E+04  0.38049420255E+04 0.  0.
        2    1    3    3  502    0 -0.21949496841E+03  0.16625628525E+04  0.12821076922E+04  0.21109460945E+04  0.25500000920E-02 0.  1.
       -2    1    3    3    0  502  0.21949496841E+03 -0.16625628525E+04 -0.54782219603E+03  0.17642002262E+04  0.25500000920E-02 0. -1.
</event>
<event>
 5   0  0.1305088E-08  0.3814891E+04  0.7818609E-02  0.8042967E-01
       -2   -1    0    0    0  501  0.00000000000E+00  0.00000000000E+00  0.14728031080E+04  0.14728031080E+04  0.25500000920E-02 0. -1.
        2   -1    0    0  501    0  0.00000000000E+00  0.00000000000E+00 -0.24703563411E+04  0.24703563411E+04  0.25500000920E-02 0.  1.
    10030    2    1    2    0    0  0.00000000000E+00  0.00000000000E+00 -0.99755323304E+03  0.39431594491E+04  0.38148910847E+04 0.  0.
        3    1    3    3  502    0 -0.85281465096E+03 -0.28717321817E+03 -0.22371656818E+04  0.24113630137E+04  0.10100000352E+00 0.  1.
       -3    1    3    3    0  502  0.85281465096E+03  0.28717321817E+03  0.12396124487E+04  0.15317964353E+04  0.10100000352E+00 0. -1.
</event>
<event>
 5   0  0.1293993E-08  0.3799438E+04  0.7818609E-02  0.8046275E-01
       -2   -1    0    0    0  501  0.00000000000E+00  0.00000000000E+00  0.16268668311E+04  0.16268668311E+04  0.25500000920E-02 0.  1.
        2   -1    0    0  501    0  0.00000000000E+00  0.00000000000E+00 -0.22183334648E+04  0.22183334648E+04  0.25500000920E-02 0. -1.
    10030    2    1    2    0    0  0.00000000000E+00  0.00000000000E+00 -0.59146663369E+03  0.38452002959E+04  0.37994384502E+04 0.  0.
        5    1    3    3  502    0 -0.66994603153E+03 -0.51846921896E+03  0.14251210015E+04  0.16578992657E+04  0.46999998093E+01 0.  1.
       -5    1    3    3    0  502  0.66994603153E+03  0.51846921896E+03 -0.20165876352E+04  0.21873010302E+04  0.46999998093E+01 0. -1.
</event>
<event>
 5   0  0.4071750E-09  0.3795860E+04  0.7818609E-02  0.8047044E-01
       -1   -1    0    0    0  501  0.00000000000E+00  0.00000000000E+00  0.16120361176E+04  0.16120361176E+04  0.50400001928E-02 0. -1.
        1   -1    0    0  501    0  0.00000000000E+00  0.00000000000E+00 -0.22345269492E+04  0.22345269492E+04  0.50400001928E-02 0.  1.
    10030    2    1    2    0    0  0.00000000000E+00  0.00000000000E+00 -0.62249083165E+03  0.38465630668E+04  0.37958599278E+04 0.  0.
        5    1    3    3  502    0  0.13855160705E+04 -0.55621486149E+03 -0.14986852041E+04  0.21154453868E+04  0.46999998093E+01 0.  1.
       -5    1    3    3    0  502 -0.13855160705E+04  0.55621486149E+03  0.87619437243E+03  0.17311176800E+04  0.46999998093E+01 0. -1.
</event>
<event>
 5   0  0.4071750E-09  0.3800037E+04  0.7818609E-02  0.8046147E-01
       -1   -1    0    0    0  501  0.00000000000E+00  0.00000000000E+00  0.24684038393E+04  0.24684038393E+04  0.50400001928E-02 0.  1.
        1   -1    0    0  501    0  0.00000000000E+00  0.00000000000E+00 -0.14625117258E+04  0.14625117258E+04  0.50400001928E-02 0. -1.
    10030    2    1    2    0    0  0.00000000000E+00  0.00000000000E+00  0.10058921135E+04  0.39309155651E+04  0.38000366099E+04 0.  0.
        3    1    3    3  502    0 -0.15281347773E+04 -0.11286029277E+04  0.53770518537E+03  0.19743523856E+04  0.10100000352E+00 0.  1.
       -3    1    3    3    0  502  0.15281347773E+04  0.11286029277E+04  0.46818692815E+03  0.19565631796E+04  0.10100000352E+00 0. -1.
</event>
<event>
 5   0  0.1305088E-08  0.3802094E+04  0.7818609E-02  0.8045706E-01
        2   -1    0    0  501    0  0.00000000000E+00  0.00000000000E+00  0.12737663388E+04  0.12737663388E+04  0.25500000920E-02 0.  1.
       -2   -1    0    0    0  501  0.00000000000E+00  0.00000000000E+00 -0.28372390133E+04  0.28372390133E+04  0.25500000920E-02 0. -1.
    10030    2    1    2    0    0  0.00000000000E+00  0.00000000000E+00 -0.15634726745E+04  0.41110053521E+04  0.38020939233E+04 0.  0.
        3    1    3    3  502    0 -0.11317999976E+04  0.15256427810E+04 -0.70211648067E+03  0.20252221341E+04  0.10100000352E+00 0.  1.
       -3    1    3    3    0  502  0.11317999976E+04 -0.15256427810E+04 -0.86135619386E+03  0.20857832180E+04  0.10100000352E+00 0. -1.
</event>
<event>
 5   0  0.1264013E-08  0.3802032E+04  0.7818609E-02  0.8045719E-01
       -2   -1    0    0    0  501  0.00000000000E+00  0.00000000000E+00  0.22069054601E+04  0.22069054601E+04  0.25500000920E-02 0. -1.
        2   -1    0    0  501    0  0.00000000000E+00  0.00000000000E+00 -0.16375248131E+04  0.16375248131E+04  0.25500000920E-02 0.  1.
    10030    2    1    2    0    0  0.00000000000E+00  0.00000000000E+00  0.56938064697E+03  0.38444302732E+04  0.38020323255E+04 0.  0.
        4    1    3    3  502    0 -0.90487240705E+03  0.58910105961E+03 -0.12973744450E+04  0.16879028985E+04  0.12699999809E+01 0.  1.
       -4    1    3    3    0  502  0.90487240705E+03 -0.58910105961E+03  0.18667550920E+04  0.21565273747E+04  0.12699999809E+01 0. -1.
</event>
<event>
 5   0  0.1327249E-08  0.3794146E+04  0.7818609E-02  0.8047412E-01
       -2   -1    0    0    0  501  0.00000000000E+00  0.00000000000E+00  0.19479248360E+04  0.19479248360E+04  0.25500000920E-02 0. -1.
        2   -1    0    0  501    0  0.00000000000E+00  0.00000000000E+00 -0.18475487489E+04  0.18475487489E+04  0.25500000920E-02 0.  1.
    10030    2    1    2    0    0  0.00000000000E+00  0.00000000000E+00  0.10037608709E+03  0.37954735850E+04  0.37941460667E+04 0.  0.
        1    1    3    3  502    0 -0.16464811043E+03  0.18859866955E+04 -0.71638301650E+02  0.18945149411E+04  0.50400001928E-02 0.  1.
       -1    1    3    3    0  502  0.16464811043E+03 -0.18859866955E+04  0.17201438874E+03  0.19009586439E+04  0.50400001928E-02 0. -1.
</event>
<event>
 5   0  0.1261152E-08  0.3802262E+04  0.7818609E-02  0.8045670E-01
       -2   -1    0    0    0  501  0.00000000000E+00  0.00000000000E+00  0.10289728903E+04  0.10289728903E+04  0.25500000920E-02 0.  1.
        2   -1    0    0  501    0  0.00000000000E+00  0.00000000000E+00 -0.35125317953E+04  0.35125317953E+04  0.25500000920E-02 0. -1.
    10030    2    1    2    0    0  0.00000000000E+00  0.00000000000E+00 -0.24835589050E+04  0.45415046855E+04  0.38022624810E+04 0.  0.
        2    1    3    3  502    0 -0.24933075985E+03  0.18191956774E+04 -0.18301594371E+04  0.25925127397E+04  0.25500000920E-02 0. -1.
       -2    1    3    3    0  502  0.24933075985E+03 -0.18191956774E+04 -0.65339946791E+03  0.19489919459E+04  0.25500000920E-02 0.  1.
</event>
<event>
 5   0  0.4071750E-09  0.3801289E+04  0.7818609E-02  0.8045878E-01
        1   -1    0    0  501    0  0.00000000000E+00  0.00000000000E+00  0.27098098689E+04  0.27098098689E+04  0.50400001928E-02 0.  1.
       -1   -1    0    0    0  501  0.00000000000E+00  0.00000000000E+00 -0.13331009494E+04  0.13331009495E+04  0.50400001928E-02 0. -1.
    10030    2    1    2    0    0  0.00000000000E+00  0.00000000000E+00  0.13767089195E+04  0.40429108184E+04  0.38012893124E+04 0.  0.
        1    1    3    3  502    0 -0.19526139075E+03  0.46107860961E+03  0.26383994301E+04  0.26854928873E+04  0.50400001928E-02 0.  1.
       -1    1    3    3    0  502  0.19526139075E+03 -0.46107860961E+03 -0.12616905106E+04  0.13574179311E+04  0.50400001928E-02 0. -1.
</event>
<event>
 5   0  0.1327249E-08  0.3801107E+04  0.7818609E-02  0.8045917E-01
        2   -1    0    0  501    0  0.00000000000E+00  0.00000000000E+00  0.18758994731E+04  0.18758994731E+04  0.25500000920E-02 0. -1.
       -2   -1    0    0    0  501  0.00000000000E+00  0.00000000000E+00 -0.19255314344E+04  0.19255314344E+04  0.25500000920E-02 0.  1.
    10030    2    1    2    0    0  0.00000000000E+00  0.00000000000E+00 -0.49631961275E+02  0.38014309075E+04  0.38011068932E+04 0.  0.
        1    1    3    3  502    0 -0.18417956122E+04 -0.24794874006E+02  0.44349473371E+03  0.18946011300E+04  0.50400001928E-02 0. -1.
       -1    1    3    3    0  502  0.18417956122E+04  0.24794874006E+02 -0.49312669498E+03  0.19068297775E+04  0.50400001928E-02 0.  1.
</event>
<event>
 5   0  0.1264013E-08  0.3800182E+04  0.7818609E-02  0.8046116E-01
       -2   -1    0    0    0  501  0.00000000000E+00  0.00000000000E+00  0.12444542293E+04  0.12444542293E+04  0.25500000920E-02 0.  1.
        2   -1    0    0  501    0  0.00000000000E+00  0.00000000000E+00 -0.29011476010E+04  0.29011476010E+04  0.25500000920E-02 0. -1.
    10030    2    1    2    0    0  0.00000000000E+00  0.00000000000E+00 -0.16566933717E+04  0.41456018303E+04  0.38001817861E+04 0.  0.
        4    1    3    3  502    0 -0.10166006156E+04  0.69173560609E+03 -0.24085906070E+04  0.27043086520E+04  0.12699999809E+01 0. -1.
       -4    1    3    3    0  502  0.10166006156E+04 -0.69173560609E+03  0.75189723528E+03  0.14412931783E+04  0.12699999809E+01 0.  1.
</event>
<event>
 5   0  0.1305088E-08  0.3795896E+04  0.7818609E-02  0.8047036E-01
        2   -1    0    0  501    0  0.00000000000E+00  0.00000000000E+00  0.23465168372E+04  0.23465168372E+04  0.25500000920E-02 0.  1.
       -2   -1    0    0    0  501  0.00000000000E+00  0.00000000000E+00 -0.15351289351E+04  0.15351289351E+04  0.25500000920E-02 0. -1.
    10030    2    1    2    0    0  0.00000000000E+00  0.00000000000E+00  0.81138790217E+03  0.38816457723E+04  0.37958956221E+04 0.  0.
        3    1    3    3  502    0 -0.11414217360E+04 -0.12678319636E+03  0.19508844054E+04  0.22638170270E+04  0.10100000352E+00 0.  1.
       -3    1    3    3    0  502  0.11414217360E+04  0.12678319636E+03 -0.11394965032E+04  0.16178287453E+04  0.10100000352E+00 0. -1.
</event>
<event>
 5   0  0.4071750E-09  0.3825004E+04  0.7818609E-02  0.8040810E-01
       -1   -1    0    0    0  501  0.00000000000E+00  0.00000000000E+00  0.12875416596E+04  0.12875416596E+04  0.50400001928E-02 0. -1.
        1   -1    0    0  501    0  0.00000000000E+00  0.00000000000E+00 -0.28408127705E+04  0.28408127705E+04  0.50400001928E-02 0.  1.
    10030    2    1    2    0    0  0.00000000000E+00  0.00000000000E+00 -0.15532711109E+04  0.41283544301E+04  0.38250044650E+04 0.  0.
        5    1    3    3  502    0  0.66034480663E+03 -0.12783809469E+04  0.58317555481E+03  0.15525556115E+04  0.46999998093E+01 0. -1.
       -5    1    3    3    0  502 -0.66034480663E+03  0.12783809469E+04 -0.21364466657E+04  0.25757988187E+04  0.46999998093E+01 0.  1.
</event>
<event>
 5   0  0.4071750E-09  0.3798597E+04  0.7818609E-02  0.8046456E-01
        1   -1    0    0  501    0  0.00000000000E+00  0.00000000000E+00  0.27918813684E+04  0.27918813685E+04  0.50400001928E-02 0.  1.
       -1   -1    0    0    0  501  0.00000000000E+00  0.00000000000E+00 -0.12920801249E+04  0.12920801249E+04  0.50400001928E-02 0. -1.
    10030    2    1    2    0    0  0.00000000000E+00  0.00000000000E+00  0.14998012435E+04  0.40839614934E+04  0.37985968080E+04 0.  0.
        2    1    3    3  502    0 -0.16131754435E+04 -0.18309498457E+02 -0.32772745581E+03  0.16462307051E+04  0.25500000920E-02 0. -1.
       -2    1    3    3    0  502  0.16131754435E+04  0.18309498457E+02  0.18275286993E+04  0.24377307883E+04  0.25500000920E-02 0.  1.
</event>
<event>
 5   0  0.1327249E-08  0.3799864E+04  0.7818609E-02  0.8046184E-01
       -2   -1    0    0    0  501  0.00000000000E+00  0.00000000000E+00  0.13334998281E+04  0.13334998281E+04  0.25500000920E-02 0.  1.
        2   -1    0    0  501    0  0.00000000000E+00  0.00000000000E+00 -0.27069678522E+04  0.27069678522E+04  0.25500000920E-02 0. -1.
    10030    2    1    2    0    0  0.00000000000E+00  0.00000000000E+00 -0.13734680241E+04  0.40404676803E+04  0.37998637689E+04 0.  0.
        1    1    3    3  502    0 -0.18724664158E+02 -0.11743424929E+04  0.90125046125E+03  0.14804334830E+04  0.50400001928E-02 0.  1.
       -1    1    3    3    0  502  0.18724664158E+02  0.11743424929E+04 -0.22747184853E+04  0.25600341973E+04  0.50400001928E-02 0. -1.
</event>
<event>
 5   0  0.1264013E-08  0.3798100E+04  0.7818609E-02  0.8046563E-01
        2   -1    0    0  501    0  0.00000000000E+00  0.00000000000E+00  0.15671192855E+04  0.15671192855E+04  0.25500000920E-02 0.  1.
       -2   -1    0    0    0  501  0.00000000000E+00  0.00000000000E+00 -0.23012872062E+04  0.23012872062E+04  0.25500000920E-02 0. -1.
    10030    2    1    2    0    0  0.00000000000E+00  0.00000000000E+00 -0.73416792071E+03  0.38684064917E+04  0.37981003475E+04 0.  0.
        4    1    3    3  502    0 -0.14545722587E+04 -0.10230666991E+04  0.31154091556E+03  0.18054100037E+04  0.12699999809E+01 0.  1.
       -4    1    3    3    0  502  0.14545722587E+04  0.10230666991E+04 -0.10457088363E+04  0.20629964880E+04  0.12699999809E+01 0. -1.
</event>
<event>
 5   0  0.1305088E-08  0.3804618E+04  0.7818609E-02  0.8045165E-01
       -2   -1    0    0    0  501  0.00000000000E+00  0.00000000000E+00  0.18951653726E+04  0.18951653726E+04  0.25500000920E-02 0. -1.
        2   -1    0    0  501    0  0.00000000000E+00  0.00000000000E+00 -0.19094795119E+04  0.19094795119E+04  0.25500000920E-02 0.  1.
    10030    2    1    2    0    0  0.00000000000E+00  0.00000000000E+00 -0.14314139306E+02  0.38046448844E+04  0.38046179575E+04 0.  0.
        3    1    3    3  502    0  0.17399562040E+04  0.43798319516E+03 -0.63922369932E+03  0.19047004539E+04  0.10100000352E+00 0.  1.
       -3    1    3    3    0  502 -0.17399562040E+04 -0.43798319516E+03  0.62490956002E+03  0.18999444306E+04  0.10100000352E+00 0. -1.
</event>
<event>
 5   0  0.4071750E-09  0.3801036E+04  0.7818609E-02  0.8045932E-01
        1   -1    0    0  501    0  0.00000000000E+00  0.00000000000E+00  0.27490264866E+04  0.27490264866E+04  0.50400001928E-02 0.  1.
       -1   -1    0    0    0  501  0.00000000000E+00  0.00000000000E+00 -0.13139085899E+04  0.13139085899E+04  0.50400001928E-02 0. -1.
    10030    2    1    2    0    0  0.00000000000E+00  0.00000000000E+00  0.14351178967E+04  0.40629350765E+04  0.38010364453E+04 0.  0.
        3    1    3    3  502    0 -0.38240862056E+03  0.22977522452E+03 -0.12571448098E+04  0.13339588037E+04  0.10100000352E+00 0. -1.
       -3    1    3    3    0  502  0.38240862056E+03 -0.22977522452E+03  0.26922627065E+04  0.27289762729E+04  0.10100000352E+00 0.  1.
</event>
<event>
 5   0  0.1261152E-08  0.3799616E+04  0.7818609E-02  0.8046237E-01
       -2   -1    0    0    0  501  0.00000000000E+00  0.00000000000E+00  0.23699049035E+04  0.23699049035E+04  0.25500000920E-02 0. -1.
        2   -1    0    0  501    0  0.00000000000E+00  0.00000000000E+00 -0.15229601651E+04  0.15229601651E+04  0.25500000920E-02 0.  1.
    10030    2    1    2    0    0  0.00000000000E+00  0.00000000000E+00  0.84694473842E+03  0.38928650686E+04  0.37996161717E+04 0.  0.
        2    1    3    3  502    0 -0.10782763226E+04  0.93777611066E+03 -0.85911585667E+03  0.16673883521E+04  0.25500000920E-02 0.  1.
       -2    1    3    3    0  502  0.10782763226E+04 -0.93777611066E+03  0.17060605951E+04  0.22254767165E+04  0.25500000920E-02 0. -1.
</event>
<event>
 5   0  0.4071750E-09  0.3800574E+04  0.7818609E-02  0.8046032E-01
       -1   -1    0    0    0  501  0.00000000000E+00  0.00000000000E+00  0.23576219460E+04  0.23576219460E+04  0.50400001928E-02 0.  1.
        1   -1    0    0  501    0  0.00000000000E+00  0.00000000000E+00 -0.15316664372E+04  0.15316664372E+04  0.50400001928E-02 0. -1.
    10030    2    1    2    0    0  0.00000000000E+00  0.00000000000E+00  0.82595550881E+03  0.38892883832E+04  0.38005738548E+04 0.  0.
        1    1    3    3  502    0 -0.14371022445E+04  0.42531704647E+03 -0.78259670787E+03  0.16907439364E+04  0.50400001928E-02 0. -1.
       -1    1    3    3    0  502  0.14371022445E+04 -0.42531704647E+03  0.16085522167E+04  0.21985444469E+04  0.50400001928E-02 0.  1.
</event>
<event>
 5   0  0.4071750E-09  0.3799032E+04  0.7818609E-02  0.8046363E-01
        1   -1    0    0  501    0  0.00000000000E+00  0.00000000000E+00  0.24595572071E+04  0.24595572071E+04  0.50400001928E-02 0.  1.
       -1   -1    0    0    0  501  0.00000000000E+00  0.00000000000E+00 -0.14669960259E+04  0.14669960260E+04  0.50400001928E-02 0. -1.
    10030    2    1    2    0    0  0.00000000000E+00  0.00000000000E+00  0.99256118112E+03  0.39265532330E+04  0.37990317969E+04 0.  0.
        2    1    3    3  502    0  0.28968343721E+03  0.14940410643E+04  0.16711353473E+04  0.22602585128E+04  0.25500000920E-02 0.  1.
       -2    1    3    3    0  502 -0.28968343721E+03 -0.14940410643E+04 -0.67857416621E+03  0.16662947202E+04  0.25500000920E-02 0. -1.
</event>
<event>
 5   0  0.1293993E-08  0.3780798E+04  0.7818609E-02  0.8050288E-01
       -2   -1    0    0    0  501  0.00000000000E+00  0.00000000000E+00  0.17885379166E+04  0.17885379166E+04  0.25500000920E-02 0. -1.
        2   -1    0    0  501    0  0.00000000000E+00  0.00000000000E+00 -0.19980609381E+04  0.19980609381E+04  0.25500000920E-02 0.  1.
    10030    2    1    2    0    0  0.00000000000E+00  0.00000000000E+00 -0.20952302146E+03  0.37865988547E+04  0.37807976658E+04 0.  0.
        5    1    3    3  502    0 -0.29575344834E+03 -0.17347453515E+04 -0.79630930428E+03  0.19315646856E+04  0.46999998093E+01 0.  1.
       -5    1    3    3    0  502  0.29575344834E+03  0.17347453515E+04  0.58678628282E+03  0.18550341691E+04  0.46999998093E+01 0. -1.
</event>
<event>
 5   0  0.4071750E-09  0.3800133E+04  0.7818609E-02  0.8046126E-01
       -1   -1    0    0    0  501  0.00000000000E+00  0.00000000000E+00  0.15811852027E+04  0.15811852028E+04  0.50400001928E-02 0. -1.
        1   -1    0    0  501    0  0.00000000000E+00  0.00000000000E+00 -0.22832567988E+04  0.22832567988E+04  0.50400001928E-02 0.  1.
    10030    2    1    2    0    0  0.00000000000E+00  0.00000000000E+00 -0.70207159604E+03  0.38644420016E+04  0.38001325579E+04 0.  0.
        1    1    3    3  502    0 -0.16769217530E+04  0.37482515168E+03  0.47367015695E+03  0.17823927395E+04  0.50400001928E-02 0. -1.
       -1    1    3    3    0  502  0.16769217530E+04 -0.37482515168E+03 -0.11757417530E+04  0.20820492621E+04  0.50400001928E-02 0.  1.
</event>
<event>
 5   0  0.1264013E-08  0.3798834E+04  0.7818609E-02  0.8046405E-01
       -2   -1    0    0    0  501  0.00000000000E+00  0.00000000000E+00  0.12578736331E+04  0.12578736331E+04  0.25500000920E-02 0. -1.
        2   -1    0    0  501    0  0.00000000000E+00  0.00000000000E+00 -0.28681609647E+04  0.28681609647E+04  0.25500000920E-02 0.  1.
    10030    2    1    2    0    0  0.00000000000E+00  0.00000000000E+00 -0.16102873316E+04  0.41260345978E+04  0.37988335330E+04 0.  0.
        4    1    3    3  502    0  0.28040967133E+03  0.94806826690E+03  0.95637337094E+03  0.13755415879E+04  0.12699999809E+01 0. -1.
       -4    1    3    3    0  502 -0.28040967133E+03 -0.94806826690E+03 -0.25666607025E+04  0.27504930099E+04  0.12699999809E+01 0.  1.
</event>
<event>
 5   0  0.1305088E-08  0.3801203E+04  0.7818609E-02  0.8045897E-01
        2   -1    0    0  501    0  0.00000000000E+00  0.00000000000E+00  0.23515808919E+04  0.23515808919E+04  0.25500000920E-02 0. -1.
       -2   -1    0    0    0  501  0.00000000000E+00  0.00000000000E+00 -0.15361094958E+04  0.15361094958E+04  0.25500000920E-02 0.  1.
    10030    2    1    2    0    0  0.00000000000E+00  0.00000000000E+00  0.81547139614E+03  0.38876903877E+04  0.38012028297E+04 0.  0.
        3    1    3    3  502    0  0.28017239202E+02 -0.14928731181E+04 -0.79495823435E+03  0.16915713751E+04  0.10100000352E+00 0.  1.
       -3    1    3    3    0  502 -0.28017239202E+02  0.14928731181E+04  0.16104296305E+04  0.21961190126E+04  0.10100000352E+00 0. -1.
</event>
<event>
 5   0  0.1305088E-08  0.3800131E+04  0.7818609E-02  0.8046127E-01
        2   -1    0    0  501    0  0.00000000000E+00  0.00000000000E+00  0.18204383668E+04  0.18204383668E+04  0.25500000920E-02 0.  1.
       -2   -1    0    0    0  501  0.00000000000E+00  0.00000000000E+00 -0.19831750955E+04  0.19831750955E+04  0.25500000920E-02 0. -1.
    10030    2    1    2    0    0  0.00000000000E+00  0.00000000000E+00 -0.16273672873E+03  0.38036134623E+04  0.38001305409E+04 0.  0.
        3    1    3    3  502    0 -0.12828810124E+04 -0.83147438387E+02 -0.14817757242E+04  0.19617228385E+04  0.10100000352E+00 0. -1.
       -3    1    3    3    0  502  0.12828810124E+04  0.83147438387E+02  0.13190389954E+04  0.18418906238E+04  0.10100000352E+00 0.  1.
</event>
<event>
 5   0  0.4071750E-09  0.3799359E+04  0.7818609E-02  0.8046292E-01
        1   -1    0    0  501    0  0.00000000000E+00  0.00000000000E+00  0.14646592078E+04  0.14646592078E+04  0.50400001928E-02 0. -1.
       -1   -1    0    0    0  501  0.00000000000E+00  0.00000000000E+00 -0.24639057129E+04  0.24639057130E+04  0.50400001928E-02 0.  1.
    10030    2    1    2    0    0  0.00000000000E+00  0.00000000000E+00 -0.99924650516E+03  0.39285649207E+04  0.37993589931E+04 0.  0.
        3    1    3    3  502    0  0.67370586780E+02 -0.12950066925E+04 -0.19350700978E+04  0.23293942181E+04  0.10100000352E+00 0.  1.
       -3    1    3    3    0  502 -0.67370586780E+02  0.12950066925E+04  0.93582359260E+03  0.15991707027E+04  0.10100000352E+00 0. -1.
</event>
<event>
 5   0  0.1261152E-08  0.3799577E+04  0.7818609E-02  0.8046246E-01
        2   -1    0    0  501    0  0.00000000000E+00  0.00000000000E+00  0.22914270735E+04  0.22914270735E+04  0.25500000920E-02 0.  1.
       -2   -1    0    0    0  501  0.00000000000E+00  0.00000000000E+00 -0.15750864740E+04  0.15750864740E+04  0.25500000920E-02 0. -1.
    10030    2    1    2    0    0  0.00000000000E+00  0.00000000000E+00  0.71634059955E+03  0.38665135475E+04  0.37995767078E+04 0.  0.
        2    1    3    3  502    0  0.10712317887E+04 -0.89486752990E+01 -0.12384113559E+04  0.16374615447E+04  0.25500000920E-02 0. -1.
       -2    1    3    3    0  502 -0.10712317887E+04  0.89486752990E+01  0.19547519555E+04  0.22290520028E+04  0.25500000920E-02 0.  1.
</event>
<event>
 5   0  0.1264013E-08  0.3800254E+04  0.7818609E-02  0.8046100E-01
       -2   -1    0    0    0  501  0.00000000000E+00  0.00000000000E+00  0.20711631068E+04  0.20711631068E+04  0.25500000920E-02 0.  1.
        2   -1    0    0  501    0  0.00000000000E+00  0.00000000000E+00 -0.17432154429E+04  0.17432154429E+04  0.25500000920E-02 0. -1.
    10030    2    1    2    0    0  0.00000000000E+00  0.00000000000E+00  0.32794766392E+03  0.38143785497E+04  0.38002544718E+04 0.  0.
        4    1    3    3  502    0  0.19033707897E+03  0.14551900551E+04 -0.10474400205E+04  0.18030359147E+04  0.12699999809E+01 0. -1.
       -4    1    3    3    0  502 -0.19033707897E+03 -0.14551900551E+04  0.13753876844E+04  0.20113426350E+04  0.12699999809E+01 0.  1.
</event>
<event>
 5   0  0.1264013E-08  0.3800146E+04  0.7818609E-02  0.8046124E-01
       -2   -1    0    0    0  501  0.00000000000E+00  0.00000000000E+00  0.22808333205E+04  0.22808333205E+04  0.25500000920E-02 0.  1.
        2   -1    0    0  501    0  0.00000000000E+00  0.00000000000E+00 -0.15828761202E+04  0.15828761202E+04  0.25500000920E-02 0. -1.
    10030    2    1    2    0    0  0.00000000000E+00  0.00000000000E+00  0.69795720030E+03  0.38637094407E+04  0.38001455746E+04 0.  0.
        4    1    3    3  502    0 -0.11503529269E+04 -0.14732303890E+04  0.69609116077E+03  0.19945586360E+04  0.12699999809E+01 0.  1.
       -4    1    3    3    0  502  0.11503529269E+04  0.14732303890E+04  0.18660395302E+01  0.18691508046E+04  0.12699999809E+01 0. -1.
</event>
<event>
 5   0  0.4071750E-09  0.3800065E+04  0.7818609E-02  0.8046141E-01
        1   -1    0    0  501    0  0.00000000000E+00  0.00000000000E+00  0.28476710588E+04  0.28476710588E+04  0.50400001928E-02 0.  1.
       -1   -1    0    0    0  501  0.00000000000E+00  0.00000000000E+00 -0.12677461622E+04  0.12677461622E+04  0.50400001928E-02 0. -1.
    10030    2    1    2    0    0  0.00000000000E+00  0.00000000000E+00  0.15799248966E+04  0.41154172211E+04  0.38000652922E+04 0.  0.
        4    1    3    3  502    0 -0.22874641595E+03  0.17422740389E+04  0.15726239404E+04  0.23581754431E+04  0.12699999809E+01 0.  1.
       -4    1    3    3    0  502  0.22874641595E+03 -0.17422740389E+04  0.73009562295E+01  0.17572417780E+04  0.12699999809E+01 0. -1.
</event>
<event>
 5   0  0.4071750E-09  0.3811291E+04  0.7818609E-02  0.8043736E-01
       -1   -1    0    0    0  501  0.00000000000E+00  0.00000000000E+00  0.19532282156E+04  0.19532282156E+04  0.50400001928E-02 0. -1.
        1   -1    0    0  501    0  0.00000000000E+00  0.00000000000E+00 -0.18592216319E+04  0.18592216319E+04  0.50400001928E-02 0.  1.
    10030    2    1    2    0    0  0.00000000000E+00  0.00000000000E+00  0.94006583659E+02  0.38124498475E+04  0.38112906741E+04 0.  0.
        5    1    3    3  502    0 -0.14835341792E+04  0.51690232613E+03  0.11259417379E+04  0.19328291602E+04  0.46999998093E+01 0. -1.
       -5    1    3    3    0  502  0.14835341792E+04 -0.51690232613E+03 -0.10319351543E+04  0.18796206873E+04  0.46999998093E+01 0.  1.
</event>
<event>
 5   0  0.4071750E-09  0.3799832E+04  0.7818609E-02  0.8046191E-01
       -1   -1    0    0    0  501  0.00000000000E+00  0.00000000000E+00  0.16119404128E+04  0.16119404128E+04  0.50400001928E-02 0. -1.
        1   -1    0    0  501    0  0.00000000000E+00  0.00000000000E+00 -0.22393384413E+04  0.22393384413E+04  0.50400001928E-02 0.  1.
    10030    2    1    2    0    0  0.00000000000E+00  0.00000000000E+00 -0.62739802849E+03  0.38512788541E+04  0.37998316444E+04 0.  0.
        1    1    3    3  502    0 -0.64023946242E+03  0.12580783885E+04  0.97513585031E+03  0.17156799607E+04  0.50400001928E-02 0. -1.
       -1    1    3    3    0  502  0.64023946242E+03 -0.12580783885E+04 -0.16025338788E+04  0.21355988934E+04  0.50400001928E-02 0.  1.
</event>
<event>
 5   0  0.4071750E-09  0.3800371E+04  0.7818609E-02  0.8046075E-01
       -1   -1    0    0    0  501  0.00000000000E+00  0.00000000000E+00  0.20312811054E+04  0.20312811054E+04  0.50400001928E-02 0.  1.
        1   -1    0    0  501    0  0.00000000000E+00  0.00000000000E+00 -0.17775506683E+04  0.17775506683E+04  0.50400001928E-02 0. -1.
    10030    2    1    2    0    0  0.00000000000E+00  0.00000000000E+00  0.25373043715E+03  0.38088317737E+04  0.38003710800E+04 0.  0.
        4    1    3    3  502    0  0.35752528146E+03 -0.17134392419E+04  0.86810971018E+03  0.19537948829E+04  0.12699999809E+01 0.  1.
       -4    1    3    3    0  502 -0.35752528146E+03  0.17134392419E+04 -0.61437927304E+03  0.18550368909E+04  0.12699999809E+01 0. -1.
</event>
<event>
 5   0  0.4071750E-09  0.3826806E+04  0.7818609E-02  0.8040427E-01
       -1   -1    0    0    0  501  0.00000000000E+00  0.00000000000E+00  0.30028753480E+04  0.30028753480E+04  0.50400001928E-02 0.  1.
        1   -1    0    0  501    0  0.00000000000E+00  0.00000000000E+00 -0.12192017457E+04  0.12192017457E+04  0.50400001928E-02 0. -1.
    10030    2    1    2    0    0  0.00000000000E+00  0.00000000000E+00  0.17836736024E+04  0.42220770937E+04  0.38268059090E+04 0.  0.
        1    1    3    3  502    0 -0.11439971236E+04 -0.11435799286E+04  0.20194653516E+04  0.25874204873E+04  0.50400001928E-02 0.  1.
       -1    1    3    3    0  502  0.11439971236E+04  0.11435799286E+04 -0.23579174924E+03  0.16346566064E+04  0.50400001928E-02 0. -1.
</event>
<event>
 5   0  0.1261152E-08  0.3799371E+04  0.7818609E-02  0.8046290E-01
        2   -1    0    0  501    0  0.00000000000E+00  0.00000000000E+00  0.21618305373E+04  0.21618305373E+04  0.25500000920E-02 0. -1.
       -2   -1    0    0    0  501  0.00000000000E+00  0.00000000000E+00 -0.16693283955E+04  0.16693283955E+04  0.25500000920E-02 0.  1.
    10030    2    1    2    0    0  0.00000000000E+00  0.00000000000E+00  0.49250214182E+03  0.38311589328E+04  0.37993710544E+04 0.  0.
        2    1    3    3  502    0 -0.22734565669E+03  0.17902868844E+04  0.84450396734E+03  0.19924859164E+04  0.25500000920E-02 0. -1.
       -2    1    3    3    0  502  0.22734565669E+03 -0.17902868844E+04 -0.35200182552E+03  0.18386730164E+04  0.25500000920E-02 0.  1.
</event>
<event>
 5   0  0.4071750E-09  0.3822832E+04  0.7818609E-02  0.8041273E-01
        1   -1    0    0  501    0  0.00000000000E+00  0.00000000000E+00  0.10053017728E+04  0.10053017728E+04  0.50400001928E-02 0.  1.
       -1   -1    0    0    0  501  0.00000000000E+00  0.00000000000E+00 -0.36342440297E+04  0.36342440297E+04  0.50400001928E-02 0. -1.
    10030    2    1    2    0    0  0.00000000000E+00  0.00000000000E+00 -0.26289422569E+04  0.46395458025E+04  0.38228324398E+04 0.  0.
        4    1    3    3  502    0 -0.18175152814E+03 -0.14148175704E+04 -0.28585963122E+04  0.31947326750E+04  0.12699999809E+01 0. -1.
       -4    1    3    3    0  502  0.18175152814E+03  0.14148175704E+04  0.22965405527E+03  0.14448131275E+04  0.12699999809E+01 0.  1.
</event>
<event>
 5   0  0.1261152E-08  0.3828324E+04  0.7818609E-02  0.8040104E-01
       -2   -1    0    0    0  501  0.00000000000E+00  0.00000000000E+00  0.19826314005E+04  0.19826314005E+04  0.25500000920E-02 0. -1.
        2   -1    0    0  501    0  0.00000000000E+00  0.00000000000E+00 -0.18480568236E+04  0.18480568236E+04  0.25500000920E-02 0.  1.
    10030    2    1    2    0    0  0.00000000000E+00  0.00000000000E+00  0.13457457694E+03  0.38306882241E+04  0.38283236479E+04 0.  0.
        2    1    3    3  502    0 -0.67330704865E+03 -0.17053434267E+04 -0.48303141045E+03  0.18960110570E+04  0.25500000920E-02 0.  1.
       -2    1    3    3    0  502  0.67330704865E+03  0.17053434267E+04  0.61760598739E+03  0.19346771670E+04  0.25500000920E-02 0. -1.
</event>
<event>
 5   0  0.4071750E-09  0.3792011E+04  0.7818609E-02  0.8047872E-01
        1   -1    0    0  501    0  0.00000000000E+00  0.00000000000E+00  0.23927552669E+04  0.23927552669E+04  0.50400001928E-02 0.  1.
       -1   -1    0    0    0  501  0.00000000000E+00  0.00000000000E+00 -0.15023836381E+04  0.15023836381E+04  0.50400001928E-02 0. -1.
    10030    2    1    2    0    0  0.00000000000E+00  0.00000000000E+00  0.89037162880E+03  0.38951389050E+04  0.37920107399E+04 0.  0.
        1    1    3    3  502    0 -0.15561337331E+04  0.44508456590E+02 -0.66651532152E+03  0.16934508767E+04  0.50400001928E-02 0. -1.
       -1    1    3    3    0  502  0.15561337331E+04 -0.44508456590E+02  0.15568869503E+04  0.22016880283E+04  0.50400001928E-02 0.  1.
</event>
<event>
 5   0  0.4071750E-09  0.3801080E+04  0.7818609E-02  0.8045923E-01
       -1   -1    0    0    0  501  0.00000000000E+00  0.00000000000E+00  0.22462453460E+04  0.22462453460E+04  0.50400001928E-02 0.  1.
        1   -1    0    0  501    0  0.00000000000E+00  0.00000000000E+00 -0.16080399268E+04  0.16080399268E+04  0.50400001928E-02 0. -1.
    10030    2    1    2    0    0  0.00000000000E+00  0.00000000000E+00  0.63820541928E+03  0.38542852728E+04  0.38010799527E+04 0.  0.
        3    1    3    3  502    0 -0.10710883131E+04 -0.99911342699E+03  0.15470843074E+04  0.21304759278E+04  0.10100000352E+00 0.  1.
       -3    1    3    3    0  502  0.10710883131E+04  0.99911342699E+03 -0.90887888813E+03  0.17238093450E+04  0.10100000352E+00 0. -1.
</event>
<event>
 5   0  0.1261152E-08  0.3800157E+04  0.7818609E-02  0.8046121E-01
        2   -1    0    0  501    0  0.00000000000E+00  0.00000000000E+00  0.21838153382E+04  0.21838153382E+04  0.25500000920E-02 0.  1.
       -2   -1    0    0    0  501  0.00000000000E+00  0.00000000000E+00 -0.16532069446E+04  0.16532069446E+04  0.25500000920E-02 0. -1.
    10030    2    1    2    0    0  0.00000000000E+00  0.00000000000E+00  0.53060839359E+03  0.38370222828E+04  0.38001571983E+04 0.  0.
        2    1    3    3  502    0  0.39319641586E+03  0.14286772631E+04  0.14662018184E+04  0.20845790740E+04  0.25500000920E-02 0.  1.
       -2    1    3    3    0  502 -0.39319641586E+03 -0.14286772631E+04 -0.93559342484E+03  0.17524432088E+04  0.25500000920E-02 0. -1.
</event>
<event>
 5   0  0.1327249E-08  0.3793213E+04  0.7818609E-02  0.8047613E-01
        2   -1    0    0  501    0  0.00000000000E+00  0.00000000000E+00  0.31983319517E+04  0.31983319517E+04  0.25500000920E-02 0. -1.
       -2   -1    0    0    0  501  0.00000000000E+00  0.00000000000E+00 -0.11246852222E+04  0.11246852222E+04  0.25500000920E-02 0.  1.
    10030    2    1    2    0    0  0.00000000000E+00  0.00000000000E+00  0.20736467295E+04  0.43230171738E+04  0.37932132456E+04 0.  0.
        1    1    3    3  502    0  0.15274443991E+04 -0.25422638725E+03  0.22849584340E+04  0.27602087772E+04  0.50400001928E-02 0. -1.
       -1    1    3    3    0  502 -0.15274443991E+04  0.25422638725E+03 -0.21131170454E+03  0.15628083967E+04  0.50400001928E-02 0.  1.
</event>
<event>
 5   0  0.1293993E-08  0.3799449E+04  0.7818609E-02  0.8046273E-01
       -2   -1    0    0    0  501  0.00000000000E+00  0.00000000000E+00  0.19582693592E+04  0.19582693592E+04  0.25500000920E-02 0. -1.
        2   -1    0    0  501    0  0.00000000000E+00  0.00000000000E+00 -0.18429297721E+04  0.18429297721E+04  0.25500000920E-02 0.  1.
    10030    2    1    2    0    0  0.00000000000E+00  0.00000000000E+00  0.11533958710E+03  0.38011991313E+04  0.37994488568E+04 0.  0.
        5    1    3    3  502    0 -0.14055263953E+04  0.12165550855E+04  0.44953899766E+03  0.19124900325E+04  0.46999998093E+01 0. -1.
       -5    1    3    3    0  502  0.14055263953E+04 -0.12165550855E+04 -0.33419941056E+03  0.18887090988E+04  0.46999998093E+01 0.  1.
</event>
<event>
 5   0  0.4071750E-09  0.3799652E+04  0.7818609E-02  0.8046230E-01
       -1   -1    0    0    0  501  0.00000000000E+00  0.00000000000E+00  0.24674303009E+04  0.24674303009E+04  0.50400001928E-02 0. -1.
        1   -1    0    0  501    0  0.00000000000E+00  0.00000000000E+00 -0.14627928082E+04  0.14627928083E+04  0.50400001928E-02 0.  1.
    10030    2    1    2    0    0  0.00000000000E+00  0.00000000000E+00  0.10046374927E+04  0.39302231092E+04  0.37996522467E+04 0.  0.
        4    1    3    3  502    0  0.24909909642E+03  0.81921345106E+02  0.24486211912E+04  0.24626223457E+04  0.12699999809E+01 0. -1.
       -4    1    3    3    0  502 -0.24909909642E+03 -0.81921345106E+02 -0.14439836985E+04  0.14676007635E+04  0.12699999809E+01 0.  1.
</event>
<event>
 5   0  0.4071750E-09  0.3800335E+04  0.7818609E-02  0.8046083E-01
       -1   -1    0    0    0  501  0.00000000000E+00  0.00000000000E+00  0.12986881880E+04  0.12986881880E+04  0.50400001928E-02 0.  1.
        1   -1    0    0  501    0  0.00000000000E+00  0.00000000000E+00 -0.27802178956E+04  0.27802178956E+04  0.50400001928E-02 0. -1.
    10030    2    1    2    0    0  0.00000000000E+00  0.00000000000E+00 -0.14815297076E+04  0.40789060836E+04  0.38003347963E+04 0.  0.
        1    1    3    3  502    0  0.12226290043E+03  0.12988735845E+03 -0.27712116099E+04  0.27769466558E+04  0.50400001928E-02 0. -1.
       -1    1    3    3    0  502 -0.12226290043E+03 -0.12988735845E+03  0.12896819022E+04  0.13019594278E+04  0.50400001928E-02 0.  1.
</event>
<event>
 5   0  0.4071750E-09  0.3798795E+04  0.7818609E-02  0.8046414E-01
       -1   -1    0    0    0  501  0.00000000000E+00  0.00000000000E+00  0.16026840116E+04  0.16026840116E+04  0.50400001928E-02 0. -1.
        1   -1    0    0  501    0  0.00000000000E+00  0.00000000000E+00 -0.22510431017E+04  0.22510431017E+04  0.50400001928E-02 0.  1.
    10030    2    1    2    0    0  0.00000000000E+00  0.00000000000E+00 -0.64835909005E+03  0.38537271133E+04  0.37987949608E+04 0.  0.
        5    1    3    3  502    0  0.75038665058E+03  0.37887825708E+03  0.14036999419E+04  0.16361615067E+04  0.46999998093E+01 0. -1.
       -5    1    3    3    0  502 -0.75038665058E+03 -0.37887825708E+03 -0.20520590320E+04  0.22175656066E+04  0.46999998093E+01 0.  1.
</event>
<event>
 5   0  0.1305088E-08  0.3806909E+04  0.7818609E-02  0.8044674E-01
       -2   -1    0    0    0  501  0.00000000000E+00  0.00000000000E+00  0.14061642740E+04  0.14061642740E+04  0.25500000920E-02 0. -1.
        2   -1    0    0  501    0  0.00000000000E+00  0.00000000000E+00 -0.25766116812E+04  0.25766116812E+04  0.25500000920E-02 0.  1.
    10030    2    1    2    0    0  0.00000000000E+00  0.00000000000E+00 -0.11704474072E+04  0.39827759551E+04  0.38069091368E+04 0.  0.
        3    1    3    3  502    0  0.17511898490E+04 -0.74597134568E+03 -0.58562583850E+03  0.19915061559E+04  0.10100000352E+00 0.  1.
       -3    1    3    3    0  502 -0.17511898490E+04  0.74597134568E+03 -0.58482156870E+03  0.19912697992E+04  0.10100000352E+00 0. -1.
</event>
<event>
 5   0  0.1261152E-08  0.3806400E+04  0.7818609E-02  0.8044783E-01
        2   -1    0    0  501    0  0.00000000000E+00  0.00000000000E+00  0.16861286077E+04  0.16861286077E+04  0.25500000920E-02 0.  1.
       -2   -1    0    0    0  501  0.00000000000E+00  0.00000000000E+00 -0.21482172912E+04  0.21482172912E+04  0.25500000920E-02 0. -1.
    10030    2    1    2    0    0  0.00000000000E+00  0.00000000000E+00 -0.46208868355E+03  0.38343458989E+04  0.38064002051E+04 0.  0.
        2    1    3    3  502    0  0.10025140737E+04 -0.32299049431E+03  0.13657792910E+04  0.17247348779E+04  0.25500000920E-02 0.  1.
       -2    1    3    3    0  502 -0.10025140737E+04  0.32299049431E+03 -0.18278679746E+04  0.21096110210E+04  0.25500000920E-02 0. -1.
</event>
<event>
 5   0  0.4071750E-09  0.3800720E+04  0.7818609E-02  0.8046000E-01
       -1   -1    0    0    0  501  0.00000000000E+00  0.00000000000E+00  0.16358397829E+04  0.16358397829E+04  0.50400001928E-02 0. -1.
        1   -1    0    0  501    0  0.00000000000E+00  0.00000000000E+00 -0.22076544860E+04  0.22076544860E+04  0.50400001928E-02 0.  1.
    10030    2    1    2    0    0  0.00000000000E+00  0.00000000000E+00 -0.57181470306E+03  0.38434942689E+04  0.38007204765E+04 0.  0.
        2    1    3    3  502    0 -0.17774543994E+04  0.66526633402E+03 -0.38418958875E+03  0.19363690447E+04  0.25500000920E-02 0.  1.
       -2    1    3    3    0  502  0.17774543994E+04 -0.66526633402E+03 -0.18762511432E+03  0.19071252242E+04  0.25500000920E-02 0. -1.
</event>
<event>
 5   0  0.4071750E-09  0.3808866E+04  0.7818609E-02  0.8044255E-01
        1   -1    0    0  501    0  0.00000000000E+00  0.00000000000E+00  0.15761051749E+04  0.15761051749E+04  0.50400001928E-02 0.  1.
       -1   -1    0    0    0  501  0.00000000000E+00  0.00000000000E+00 -0.23011567913E+04  0.23011567913E+04  0.50400001928E-02 0. -1.
    10030    2    1    2    0    0  0.00000000000E+00  0.00000000000E+00 -0.72505161636E+03  0.38772619662E+04  0.38088660397E+04 0.  0.
        2    1    3    3  502    0 -0.27561344622E+03  0.13539970438E+04 -0.16966300016E+04  0.21881097158E+04  0.25500000920E-02 0. -1.
       -2    1    3    3    0  502  0.27561344622E+03 -0.13539970438E+04  0.97157838520E+03  0.16891522504E+04  0.25500000920E-02 0.  1.
</event>
<event>
 5   0  0.1264013E-08  0.3799552E+04  0.7818609E-02  0.8046251E-01
        2   -1    0    0  501    0  0.00000000000E+00  0.00000000000E+00  0.11245601218E+04  0.11245601218E+04  0.25500000920E-02 0.  1.
       -2   -1    0    0    0  501  0.00000000000E+00  0.00000000000E+00 -0.32093872952E+04  0.32093872952E+04  0.25500000920E-02 0. -1.
    10030    2    1    2    0    0  0.00000000000E+00  0.00000000000E+00 -0.20848271734E+04  0.43339474170E+04  0.37995520618E+04 0.  0.
        4    1    3    3  502    0  0.17605647691E+04  0.26586027652E+03 -0.17980673125E+04  0.25304777545E+04  0.12699999809E+01 0. -1.
       -4    1    3    3    0  502 -0.17605647691E+04 -0.26586027652E+03 -0.28675986081E+03  0.18034696625E+04  0.12699999809E+01 0.  1.
</event>
<event>
 5   0  0.4071750E-09  0.3799761E+04  0.7818609E-02  0.8046206E-01
        1   -1    0    0  501    0  0.00000000000E+00  0.00000000000E+00  0.20769307939E+04  0.20769307939E+04  0.50400001928E-02 0.  1.
       -1   -1    0    0    0  501  0.00000000000E+00  0.00000000000E+00 -0.17379232550E+04  0.17379232550E+04  0.50400001928E-02 0. -1.
    10030    2    1    2    0    0  0.00000000000E+00  0.00000000000E+00  0.33900753892E+03  0.38148540490E+04  0.37997612166E+04 0.  0.
        3    1    3    3  502    0  0.17791429994E+04  0.32791020931E+03 -0.41303486387E+03  0.18556596473E+04  0.10100000352E+00 0.  1.
       -3    1    3    3    0  502 -0.17791429994E+04 -0.32791020931E+03  0.75204240279E+03  0.19591944017E+04  0.10100000352E+00 0. -1.
</event>
<event>
 5   0  0.1327249E-08  0.3800123E+04  0.7818609E-02  0.8046128E-01
        2   -1    0    0  501    0  0.00000000000E+00  0.00000000000E+00  0.28511298338E+04  0.28511298338E+04  0.25500000920E-02 0.  1.
       -2   -1    0    0    0  501  0.00000000000E+00  0.00000000000E+00 -0.12662469906E+04  0.12662469906E+04  0.25500000920E-02 0. -1.
    10030    2    1    2    0    0  0.00000000000E+00  0.00000000000E+00  0.15848828433E+04  0.41173768244E+04  0.38001234569E+04 0.  0.
        1    1    3    3  502    0 -0.14934365868E+04 -0.46972050418E+02  0.20641756346E+04  0.25482111888E+04  0.50400001928E-02 0.  1.
       -1    1    3    3    0  502  0.14934365868E+04  0.46972050418E+02 -0.47929279132E+03  0.15691656356E+04  0.50400001928E-02 0. -1.
</event>
<event>
 5   0  0.4071750E-09  0.3801112E+04  0.7818609E-02  0.8045916E-01
       -1   -1    0    0    0  501  0.00000000000E+00  0.00000000000E+00  0.16762944885E+04  0.16762944885E+04  0.50400001928E-02 0. -1.
        1   -1    0    0  501    0  0.00000000000E+00  0.00000000000E+00 -0.21548197856E+04  0.21548197856E+04  0.50400001928E-02 0.  1.
    10030    2    1    2    0    0  0.00000000000E+00  0.00000000000E+00 -0.47852529711E+03  0.38311142742E+04  0.38011116955E+04 0.  0.
        2    1    3    3  502    0  0.17089369332E+04  0.29029360667E+03  0.54623256402E+03  0.18174448640E+04  0.25500000920E-02 0. -1.
       -2    1    3    3    0  502 -0.17089369332E+04 -0.29029360667E+03 -0.10247578611E+04  0.20136694102E+04  0.25500000920E-02 0.  1.
</event>
<event>
 5   0  0.4071750E-09  0.3800110E+04  0.7818609E-02  0.8046131E-01
       -1   -1    0    0    0  501  0.00000000000E+00  0.00000000000E+00  0.11040494193E+04  0.11040494193E+04  0.50400001928E-02 0. -1.
        1   -1    0    0  501    0  0.00000000000E+00  0.00000000000E+00 -0.32699713133E+04  0.32699713133E+04  0.50400001928E-02 0.  1.
    10030    2    1    2    0    0  0.00000000000E+00  0.00000000000E+00 -0.21659218940E+04  0.43740207326E+04  0.38001104876E+04 0.  0.
        4    1    3    3  502    0 -0.79678647043E+03  0.15859542292E+04 -0.30222270306E+03  0.18004054187E+04  0.12699999809E+01 0. -1.
       -4    1    3    3    0  502  0.79678647043E+03 -0.15859542292E+04 -0.18636991910E+04  0.25736153139E+04  0.12699999809E+01 0.  1.
</event>
<event>
 5   0  0.1264013E-08  0.3800815E+04  0.7818609E-02  0.8045980E-01
       -2   -1    0    0    0  501  0.00000000000E+00  0.00000000000E+00  0.25234718869E+04  0.25234718869E+04  0.25500000920E-02 0. -1.
        2   -1    0    0  501    0  0.00000000000E+00  0.00000000000E+00 -0.14311827679E+04  0.14311827679E+04  0.25500000920E-02 0.  1.
    10030    2    1    2    0    0  0.00000000000E+00  0.00000000000E+00  0.10922891190E+04  0.39546546548E+04  0.38008154282E+04 0.  0.
        4    1    3    3  502    0 -0.14700783040E+04  0.11244240248E+04  0.97304851848E+02  0.18533562676E+04  0.12699999809E+01 0.  1.
       -4    1    3    3    0  502  0.14700783040E+04 -0.11244240248E+04  0.99498426718E+03  0.21012983873E+04  0.12699999809E+01 0. -1.
</event>
<event>
 5   0  0.1261152E-08  0.3799572E+04  0.7818609E-02  0.8046247E-01
        2   -1    0    0  501    0  0.00000000000E+00  0.00000000000E+00  0.21787928432E+04  0.21787928432E+04  0.25500000920E-02 0. -1.
       -2   -1    0    0    0  501  0.00000000000E+00  0.00000000000E+00 -0.16565076116E+04  0.16565076116E+04  0.25500000920E-02 0.  1.
    10030    2    1    2    0    0  0.00000000000E+00  0.00000000000E+00  0.52228523157E+03  0.38353004548E+04  0.37995720438E+04 0.  0.
        2    1    3    3  502    0 -0.54179921952E+03  0.73276683595E+03  0.19437586193E+04  0.21467862493E+04  0.25500000920E-02 0. -1.
       -2    1    3    3    0  502  0.54179921952E+03 -0.73276683595E+03 -0.14214733878E+04  0.16885142055E+04  0.25500000920E-02 0.  1.
</event>
<event>
 5   0  0.4071750E-09  0.3800021E+04  0.7818609E-02  0.8046150E-01
        1   -1    0    0  501    0  0.00000000000E+00  0.00000000000E+00  0.14303556098E+04  0.14303556098E+04  0.50400001928E-02 0.  1.
       -1   -1    0    0    0  501  0.00000000000E+00  0.00000000000E+00 -0.25238762736E+04  0.25238762736E+04  0.50400001928E-02 0. -1.
    10030    2    1    2    0    0  0.00000000000E+00  0.00000000000E+00 -0.10935206637E+04  0.39542318834E+04  0.38000213612E+04 0.  0.
        5    1    3    3  502    0  0.15159885844E+04 -0.10031882102E+04 -0.11218268653E+04  0.21361473683E+04  0.46999998093E+01 0. -1.
       -5    1    3    3    0  502 -0.15159885844E+04  0.10031882102E+04  0.28306201571E+02  0.18180845152E+04  0.46999998093E+01 0.  1.
</event>
<event>
 5   0  0.1293993E-08  0.3788670E+04  0.7818609E-02  0.8048591E-01
        2   -1    0    0  501    0  0.00000000000E+00  0.00000000000E+00  0.13976905025E+04  0.13976905025E+04  0.25500000920E-02 0. -1.
       -2   -1    0    0    0  501  0.00000000000E+00  0.00000000000E+00 -0.25674526373E+04  0.25674526373E+04  0.25500000920E-02 0.  1.
    10030    2    1    2    0    0  0.00000000000E+00  0.00000000000E+00 -0.11697621348E+04  0.39651431398E+04  0.37886695114E+04 0.  0.
        5    1    3    3  502    0  0.14948316216E+04 -0.89613718449E+03 -0.13616788895E+04  0.22117357253E+04  0.46999998093E+01 0.  1.
       -5    1    3    3    0  502 -0.14948316216E+04  0.89613718449E+03  0.19191675467E+03  0.17534074145E+04  0.46999998093E+01 0. -1.
</event>
<event>
 5   0  0.1261152E-08  0.3799273E+04  0.7818609E-02  0.8046311E-01
       -2   -1    0    0    0  501  0.00000000000E+00  0.00000000000E+00  0.17145670887E+04  0.17145670887E+04  0.25500000920E-02 0.  1.
        2   -1    0    0  501    0  0.00000000000E+00  0.00000000000E+00 -0.21046822444E+04  0.21046822444E+04  0.25500000920E-02 0. -1.
    10030    2    1    2    0    0  0.00000000000E+00  0.00000000000E+00 -0.39011515570E+03  0.38192493331E+04  0.37992730402E+04 0.  0.
        2    1    3    3  502    0 -0.30058089415E+03  0.15365968211E+04 -0.12764180854E+04  0.20200796502E+04  0.25500000920E-02 0. -1.
       -2    1    3    3    0  502  0.30058089415E+03 -0.15365968211E+04  0.88630292973E+03  0.17991696829E+04  0.25500000920E-02 0.  1.
</event>
<event>
 5   0  0.1293993E-08  0.3800368E+04  0.7818609E-02  0.8046076E-01
        2   -1    0    0  501    0  0.00000000000E+00  0.00000000000E+00  0.17464965293E+04  0.17464965293E+04  0.25500000920E-02 0. -1.
       -2   -1    0    0    0  501  0.00000000000E+00  0.00000000000E+00 -0.20673956661E+04  0.20673956661E+04  0.25500000920E-02 0.  1.
    10030    2    1    2    0    0  0.00000000000E+00  0.00000000000E+00 -0.32089913672E+03  0.38138921954E+04  0.38003680641E+04 0.  0.
        5    1    3    3  502    0 -0.84932381080E+03 -0.68139128795E+03 -0.17232427643E+04  0.20384387991E+04  0.46999998093E+01 0.  1.
       -5    1    3    3    0  502  0.84932381080E+03  0.68139128795E+03  0.14023436276E+04  0.17754533964E+04  0.46999998093E+01 0. -1.
</event>
<event>
 5   0  0.4071750E-09  0.3800329E+04  0.7818609E-02  0.8046084E-01
        1   -1    0    0  501    0  0.00000000000E+00  0.00000000000E+00  0.21624939833E+04  0.21624939833E+04  0.50400001928E-02 0. -1.
       -1   -1    0    0    0  501  0.00000000000E+00  0.00000000000E+00 -0.16696576390E+04  0.16696576390E+04  0.50400001928E-02 0.  1.
    10030    2    1    2    0    0  0.00000000000E+00  0.00000000000E+00  0.49283634435E+03  0.38321516223E+04  0.38003287219E+04 0.  0.
        3    1    3    3  502    0  0.14395717247E+04  0.30558821279E+03  0.14585126156E+04  0.20719580030E+04  0.10100000352E+00 0.  1.
       -3    1    3    3    0  502 -0.14395717247E+04 -0.30558821279E+03 -0.96567627123E+03  0.17601936193E+04  0.10100000352E+00 0. -1.
</event>
<event>
 5   0  0.1327249E-08  0.3801827E+04  0.7818609E-02  0.8045763E-01
       -2   -1    0    0    0  501  0.00000000000E+00  0.00000000000E+00  0.15202571805E+04  0.15202571805E+04  0.25500000920E-02 0.  1.
        2   -1    0    0  501    0  0.00000000000E+00  0.00000000000E+00 -0.23768817924E+04  0.23768817925E+04  0.25500000920E-02 0. -1.
    10030    2    1    2    0    0  0.00000000000E+00  0.00000000000E+00 -0.85662461197E+03  0.38971389729E+04  0.38018267252E+04 0.  0.
        1    1    3    3  502    0 -0.85019566645E+03 -0.86944875754E+03  0.10693771593E+04  0.16193644809E+04  0.50400001928E-02 0.  1.
       -1    1    3    3    0  502  0.85019566645E+03  0.86944875754E+03 -0.19260017713E+04  0.22777744920E+04  0.50400001928E-02 0. -1.
</event>
<event>
 5   0  0.4071750E-09  0.3800443E+04  0.7818609E-02  0.8046060E-01
       -1   -1    0    0    0  501  0.00000000000E+00  0.00000000000E+00  0.12637529431E+04  0.12637529431E+04  0.50400001928E-02 0.  1.
        1   -1    0    0  501    0  0.00000000000E+00  0.00000000000E+00 -0.28572369144E+04  0.28572369144E+04  0.50400001928E-02 0. -1.
    10030    2    1    2    0    0  0.00000000000E+00  0.00000000000E+00 -0.15934839713E+04  0.41209898574E+04  0.38004429003E+04 0.  0.
        3    1    3    3  502    0 -0.97967566740E+03  0.83762202163E+03 -0.23107397031E+04  0.26459200763E+04  0.10100000352E+00 0. -1.
       -3    1    3    3    0  502  0.97967566740E+03 -0.83762202163E+03  0.71725573175E+03  0.14750697812E+04  0.10100000352E+00 0.  1.
</event>
<event>
 5   0  0.1261152E-08  0.3788671E+04  0.7818609E-02  0.8048590E-01
       -2   -1    0    0    0  501  0.00000000000E+00  0.00000000000E+00  0.12380130742E+04  0.12380130742E+04  0.25500000920E-02 0.  1.
        2   -1    0    0  501    0  0.00000000000E+00  0.00000000000E+00 -0.28986020851E+04  0.28986020851E+04  0.25500000920E-02 0. -1.
    10030    2    1    2    0    0  0.00000000000E+00  0.00000000000E+00 -0.16605890110E+04  0.41366151593E+04  0.37886711539E+04 0.  0.
        2    1    3    3  502    0 -0.14673078022E+02 -0.18045424475E+04 -0.14593282731E+04  0.23208248001E+04  0.25500000920E-02 0. -1.
       -2    1    3    3    0  502  0.14673078022E+02  0.18045424475E+04 -0.20126073791E+03  0.18157903592E+04  0.25500000920E-02 0.  1.
</event>
<event>
 5   0  0.1305088E-08  0.3800117E+04  0.7818609E-02  0.8046130E-01
        2   -1    0    0  501    0  0.00000000000E+00  0.00000000000E+00  0.19244925761E+04  0.19244925761E+04  0.25500000920E-02 0.  1.
       -2   -1    0    0    0  501  0.00000000000E+00  0.00000000000E+00 -0.18759350114E+04  0.18759350114E+04  0.25500000920E-02 0. -1.
    10030    2    1    2    0    0  0.00000000000E+00  0.00000000000E+00  0.48557564675E+02  0.38004275875E+04  0.38001173680E+04 0.  0.
        3    1    3    3  502    0  0.60005267985E+03 -0.13360432209E+04  0.12348106935E+04  0.19156806012E+04  0.10100000352E+00 0.  1.
       -3    1    3    3    0  502 -0.60005267985E+03  0.13360432209E+04 -0.11862531288E+04  0.18847469863E+04  0.10100000352E+00 0. -1.
</event>
<event>
 5   0  0.1327249E-08  0.3796844E+04  0.7818609E-02  0.8046833E-01
       -2   -1    0    0    0  501  0.00000000000E+00  0.00000000000E+00  0.25838448847E+04  0.25838448847E+04  0.25500000920E-02 0.  1.
        2   -1    0    0  501    0  0.00000000000E+00  0.00000000000E+00 -0.13948228738E+04  0.13948228738E+04  0.25500000920E-02 0. -1.
    10030    2    1    2    0    0  0.00000000000E+00  0.00000000000E+00  0.11890220109E+04  0.39786677586E+04  0.37968439250E+04 0.  0.
        1    1    3    3  502    0 -0.75497040399E+02 -0.20467033137E+03  0.25706669784E+04  0.25799066769E+04  0.50400001928E-02 0.  1.
       -1    1    3    3    0  502  0.75497040399E+02  0.20467033137E+03 -0.13816449675E+04  0.13987610817E+04  0.50400001928E-02 0. -1.
</event>
<event>
 5   0  0.1293993E-08  0.3794693E+04  0.7818609E-02  0.8047295E-01
       -2   -1    0    0    0  501  0.00000000000E+00  0.00000000000E+00  0.14765934041E+04  0.14765934041E+04  0.25500000920E-02 0. -1.
        2   -1    0    0  501    0  0.00000000000E+00  0.00000000000E+00 -0.24379931429E+04  0.24379931429E+04  0.25500000920E-02 0.  1.
    10030    2    1    2    0    0  0.00000000000E+00  0.00000000000E+00 -0.96139973886E+03  0.39145865470E+04  0.37946934496E+04 0.  0.
        5    1    3    3  502    0  0.42871495294E+03  0.13745492194E+04  0.79394429258E+03  0.16442480643E+04  0.46999998093E+01 0. -1.
       -5    1    3    3    0  502 -0.42871495294E+03 -0.13745492194E+04 -0.17553440314E+04  0.22703384827E+04  0.46999998093E+01 0.  1.
</event>
<event>
 5   0  0.4071750E-09  0.3777739E+04  0.7818609E-02  0.8050949E-01
        1   -1    0    0  501    0  0.00000000000E+00  0.00000000000E+00  0.13412393166E+04  0.13412393167E+04  0.50400001928E-02 0. -1.
       -1   -1    0    0    0  501  0.00000000000E+00  0.00000000000E+00 -0.26600979814E+04  0.26600979814E+04  0.50400001928E-02 0.  1.
    10030    2    1    2    0    0  0.00000000000E+00  0.00000000000E+00 -0.13188586647E+04  0.40013372980E+04  0.37777390057E+04 0.  0.
        4    1    3    3  502    0 -0.51031889936E+03  0.15687526510E+04 -0.16338919351E+04  0.23218558800E+04  0.12699999809E+01 0.  1.
       -4    1    3    3    0  502  0.51031889936E+03 -0.15687526510E+04  0.31503327041E+03  0.16794814180E+04  0.12699999809E+01 0. -1.
</event>
<event>
 5   0  0.4071750E-09  0.3802042E+04  0.7818609E-02  0.8045717E-01
       -1   -1    0    0    0  501  0.00000000000E+00  0.00000000000E+00  0.14410377178E+04  0.14410377178E+04  0.50400001928E-02 0.  1.
        1   -1    0    0  501    0  0.00000000000E+00  0.00000000000E+00 -0.25078327216E+04  0.25078327216E+04  0.50400001928E-02 0. -1.
    10030    2    1    2    0    0  0.00000000000E+00  0.00000000000E+00 -0.10667950038E+04  0.39488704394E+04  0.38020423678E+04 0.  0.
        5    1    3    3  502    0  0.10010569375E+04  0.61314574140E+03  0.10196047806E+04  0.15548886427E+04  0.46999998093E+01 0.  1.
       -5    1    3    3    0  502 -0.10010569375E+04 -0.61314574140E+03 -0.20863997844E+04  0.23939817967E+04  0.46999998093E+01 0. -1.
</event>
<event>
 5   0  0.1264013E-08  0.3806419E+04  0.7818609E-02  0.8044779E-01
       -2   -1    0    0    0  501  0.00000000000E+00  0.00000000000E+00  0.26897319776E+04  0.26897319776E+04  0.25500000920E-02 0. -1.
        2   -1    0    0  501    0  0.00000000000E+00  0.00000000000E+00 -0.13466792167E+04  0.13466792167E+04  0.25500000920E-02 0.  1.
    10030    2    1    2    0    0  0.00000000000E+00  0.00000000000E+00  0.13430527609E+04  0.40364111943E+04  0.38064188696E+04 0.  0.
        4    1    3    3  502    0 -0.54801981355E+03 -0.79589017052E+03 -0.10671902559E+04  0.14396748017E+04  0.12699999809E+01 0.  1.
       -4    1    3    3    0  502  0.54801981355E+03  0.79589017052E+03  0.24102430168E+04  0.25967363926E+04  0.12699999809E+01 0. -1.
</event>
<event>
 5   0  0.4071750E-09  0.3799538E+04  0.7818609E-02  0.8046254E-01
        1   -1    0    0  501    0  0.00000000000E+00  0.00000000000E+00  0.12699498521E+04  0.12699498521E+04  0.50400001928E-02 0.  1.
       -1   -1    0    0    0  501  0.00000000000E+00  0.00000000000E+00 -0.28419414477E+04  0.28419414477E+04  0.50400001928E-02 0. -1.
    10030    2    1    2    0    0  0.00000000000E+00  0.00000000000E+00 -0.15719915956E+04  0.41118912998E+04  0.37995384568E+04 0.  0.
        4    1    3    3  502    0  0.12167550231E+04 -0.11703981702E+04 -0.17286958671E+04  0.24163434518E+04  0.12699999809E+01 0. -1.
       -4    1    3    3    0  502 -0.12167550231E+04  0.11703981702E+04  0.15670427155E+03  0.16955478480E+04  0.12699999809E+01 0.  1.
</event>
<event>
 5   0  0.4071750E-09  0.3800075E+04  0.7818609E-02  0.8046139E-01
        1   -1    0    0  501    0  0.00000000000E+00  0.00000000000E+00  0.14900239372E+04  0.14900239372E+04  0.50400001928E-02 0. -1.
       -1   -1    0    0    0  501  0.00000000000E+00  0.00000000000E+00 -0.24228751794E+04  0.24228751794E+04  0.50400001928E-02 0.  1.
    10030    2    1    2    0    0  0.00000000000E+00  0.00000000000E+00 -0.93285124225E+03  0.39128991166E+04  0.38000747436E+04 0.  0.
        3    1    3    3  502    0  0.12482266269E+04  0.42207105683E+03  0.94313253483E+03  0.16204050967E+04  0.10100000352E+00 0. -1.
       -3    1    3    3    0  502 -0.12482266269E+04 -0.42207105683E+03 -0.18759837771E+04  0.22924940199E+04  0.10100000352E+00 0.  1.
</event>
<event>
 5   0  0.1327249E-08  0.3802311E+04  0.7818609E-02  0.8045659E-01
        2   -1    0    0  501    0  0.00000000000E+00  0.00000000000E+00  0.25245471299E+04  0.25245471299E+04  0.25500000920E-02 0. -1.
       -2   -1    0    0    0  501  0.00000000000E+00  0.00000000000E+00 -0.14316994607E+04  0.14316994607E+04  0.25500000920E-02 0.  1.
    10030    2    1    2    0    0  0.00000000000E+00  0.00000000000E+00  0.10928476692E+04  0.39562465906E+04  0.38023112784E+04 0.  0.
        1    1    3    3  502    0  0.83967999616E+03 -0.16988781552E+04  0.38813577305E+03  0.19343988370E+04  0.50400001928E-02 0.  1.
       -1    1    3    3    0  502 -0.83967999616E+03  0.16988781552E+04  0.70471189616E+03  0.20218477536E+04  0.50400001928E-02 0. -1.
</event>
<event>
 5   0  0.4071750E-09  0.3799075E+04  0.7818609E-02  0.8046353E-01
       -1   -1    0    0    0  501  0.00000000000E+00  0.00000000000E+00  0.16446269164E+04  0.16446269164E+04  0.50400001928E-02 0. -1.
        1   -1    0    0  501    0  0.00000000000E+00  0.00000000000E+00 -0.21939581008E+04  0.21939581008E+04  0.50400001928E-02 0.  1.
    10030    2    1    2    0    0  0.00000000000E+00  0.00000000000E+00 -0.54933118447E+03  0.38385850172E+04  0.37990749116E+04 0.  0.
        5    1    3    3  502    0 -0.68567441530E+03  0.14074703687E+04  0.81220645163E+03  0.17637527187E+04  0.46999998093E+01 0. -1.
       -5    1    3    3    0  502  0.68567441530E+03 -0.14074703687E+04 -0.13615376361E+04  0.20748322985E+04  0.46999998093E+01 0.  1.
</event>
<event>
 5   0  0.1264013E-08  0.3799782E+04  0.7818609E-02  0.8046202E-01
       -2   -1    0    0    0  501  0.00000000000E+00  0.00000000000E+00  0.19823164096E+04  0.19823164096E+04  0.25500000920E-02 0. -1.
        2   -1    0    0  501    0  0.00000000000E+00  0.00000000000E+00 -0.18208925341E+04  0.18208925341E+04  0.25500000920E-02 0.  1.
    10030    2    1    2    0    0  0.00000000000E+00  0.00000000000E+00  0.16142387545E+03  0.38032089437E+04  0.37997816519E+04 0.  0.
        4    1    3    3  502    0 -0.88161710911E+03 -0.57874117566E+03 -0.15010278150E+04  0.18344689122E+04  0.12699999809E+01 0.  1.
       -4    1    3    3    0  502  0.88161710911E+03  0.57874117566E+03  0.16624516905E+04  0.19687400315E+04  0.12699999809E+01 0. -1.
</event>
<event>
 5   0  0.1327249E-08  0.3805473E+04  0.7818609E-02  0.8044981E-01
       -2   -1    0    0    0  501  0.00000000000E+00  0.00000000000E+00  0.19783136715E+04  0.19783136715E+04  0.25500000920E-02 0. -1.
        2   -1    0    0  501    0  0.00000000000E+00  0.00000000000E+00 -0.18300466076E+04  0.18300466076E+04  0.25500000920E-02 0.  1.
    10030    2    1    2    0    0  0.00000000000E+00  0.00000000000E+00  0.14826706398E+03  0.38083602791E+04  0.38054730183E+04 0.  0.
        1    1    3    3  502    0  0.18869178505E+03 -0.14407931770E+04 -0.11551781420E+04  0.18563205834E+04  0.50400001928E-02 0.  1.
       -1    1    3    3    0  502 -0.18869178505E+03  0.14407931770E+04  0.13034452060E+04  0.19520396957E+04  0.50400001928E-02 0. -1.
</event>
<event>
 5   0  0.1305088E-08  0.3799622E+04  0.7818609E-02  0.8046236E-01
       -2   -1    0    0    0  501  0.00000000000E+00  0.00000000000E+00  0.26376011653E+04  0.26376011653E+04  0.25500000920E-02 0.  1.
        2   -1    0    0  501    0  0.00000000000E+00  0.00000000000E+00 -0.13683955845E+04  0.13683955845E+04  0.25500000920E-02 0. -1.
    10030    2    1    2    0    0  0.00000000000E+00  0.00000000000E+00  0.12692055808E+04  0.40059967498E+04  0.37996219751E+04 0.  0.
        3    1    3    3  502    0  0.52496270496E+03  0.46183420031E+03 -0.12278089124E+04  0.14129371556E+04  0.10100000352E+00 0. -1.
       -3    1    3    3    0  502 -0.52496270496E+03 -0.46183420031E+03  0.24970144931E+04  0.25930595942E+04  0.10100000352E+00 0.  1.
</event>
<event>
 5   0  0.1261152E-08  0.3798961E+04  0.7818609E-02  0.8046378E-01
        2   -1    0    0  501    0  0.00000000000E+00  0.00000000000E+00  0.18812714139E+04  0.18812714139E+04  0.25500000920E-02 0.  1.
       -2   -1    0    0    0  501  0.00000000000E+00  0.00000000000E+00 -0.19178657498E+04  0.19178657498E+04  0.25500000920E-02 0. -1.
    10030    2    1    2    0    0  0.00000000000E+00  0.00000000000E+00 -0.36594335879E+02  0.37991371638E+04  0.37989609163E+04 0.  0.
        2    1    3    3  502    0  0.92065120502E+03 -0.42713947381E+03 -0.16239803398E+04  0.19150349646E+04  0.25500000920E-02 0. -1.
       -2    1    3    3    0  502 -0.92065120502E+03  0.42713947381E+03  0.15873860040E+04  0.18841021992E+04  0.25500000920E-02 0.  1.
</event>
<event>
 5   0  0.1327249E-08  0.3800101E+04  0.7818609E-02  0.8046133E-01
       -2   -1    0    0    0  501  0.00000000000E+00  0.00000000000E+00  0.24281024718E+04  0.24281024718E+04  0.25500000920E-02 0. -1.
        2   -1    0    0  501    0  0.00000000000E+00  0.00000000000E+00 -0.14868366942E+04  0.14868366942E+04  0.25500000920E-02 0.  1.
    10030    2    1    2    0    0  0.00000000000E+00  0.00000000000E+00  0.94126577759E+03  0.39149391660E+04  0.38001009735E+04 0.  0.
        1    1    3    3  502    0  0.35660418409E+03  0.11994228045E+04 -0.10024049592E+04  0.16033082393E+04  0.50400001928E-02 0.  1.
       -1    1    3    3    0  502 -0.35660418409E+03 -0.11994228045E+04  0.19436707368E+04  0.23116309266E+04  0.50400001928E-02 0. -1.
</event>
<event>
 5   0  0.1293993E-08  0.3800401E+04  0.7818609E-02  0.8046069E-01
       -2   -1    0    0    0  501  0.00000000000E+00  0.00000000000E+00  0.16151189039E+04  0.16151189039E+04  0.25500000920E-02 0. -1.
        2   -1    0    0  501    0  0.00000000000E+00  0.00000000000E+00 -0.22356011181E+04  0.22356011181E+04  0.25500000920E-02 0.  1.
    10030    2    1    2    0    0  0.00000000000E+00  0.00000000000E+00 -0.62048221418E+03  0.38507200220E+04  0.38004008354E+04 0.  0.
        5    1    3    3  502    0 -0.11703658969E+04  0.14535929253E+04  0.52338778173E+02  0.18669360361E+04  0.46999998093E+01 0. -1.
       -5    1    3    3    0  502  0.11703658969E+04 -0.14535929253E+04 -0.67282099235E+03  0.19837839859E+04  0.46999998093E+01 0.  1.
</event>
<event>
 5   0  0.1261152E-08  0.3800260E+04  0.7818609E-02  0.8046099E-01
       -2   -1    0    0    0  501  0.00000000000E+00  0.00000000000E+00  0.12777701367E+04  0.12777701367E+04  0.25500000920E-02 0. -1.
        2   -1    0    0  501    0  0.00000000000E+00  0.00000000000E+00 -0.28256215989E+04  0.28256215990E+04  0.25500000920E-02 0.  1.
    10030    2    1    2    0    0  0.00000000000E+00  0.00000000000E+00 -0.15478514623E+04  0.41033917356E+04  0.38002604630E+04 0.  0.
        2    1    3    3  502    0 -0.18466556420E+04  0.52662193268E+02 -0.12538868810E+04  0.22327433075E+04  0.25500000920E-02 0.  1.
       -2    1    3    3    0  502  0.18466556420E+04 -0.52662193268E+02 -0.29396458121E+03  0.18706484281E+04  0.25500000920E-02 0. -1.
</event>
<event>
 5   0  0.4071750E-09  0.3798427E+04  0.7818609E-02  0.8046493E-01
       -1   -1    0    0    0  501  0.00000000000E+00  0.00000000000E+00  0.28214100198E+04  0.28214100198E+04  0.50400001928E-02 0.  1.
        1   -1    0    0  501    0  0.00000000000E+00  0.00000000000E+00 -0.12784428920E+04  0.12784428920E+04  0.50400001928E-02 0. -1.
    10030    2    1    2    0    0  0.00000000000E+00  0.00000000000E+00  0.15429671278E+04  0.40998529119E+04  0.37984268245E+04 0.  0.
        3    1    3    3  502    0 -0.61882640982E+03 -0.14861690291E+04 -0.31613358896E+03  0.16406050606E+04  0.10100000352E+00 0. -1.
       -3    1    3    3    0  502  0.61882640982E+03  0.14861690291E+04  0.18591007168E+04  0.24592478513E+04  0.10100000352E+00 0.  1.
</event>
<event>
 5   0  0.4071750E-09  0.3799597E+04  0.7818609E-02  0.8046241E-01
        1   -1    0    0  501    0  0.00000000000E+00  0.00000000000E+00  0.27222085531E+04  0.27222085531E+04  0.50400001928E-02 0.  1.
       -1   -1    0    0    0  501  0.00000000000E+00  0.00000000000E+00 -0.13258475269E+04  0.13258475269E+04  0.50400001928E-02 0. -1.
    10030    2    1    2    0    0  0.00000000000E+00  0.00000000000E+00  0.13963610262E+04  0.40480560801E+04  0.37995965459E+04 0.  0.
        1    1    3    3  502    0 -0.48041239511E+03 -0.16700584154E+04  0.15160666410E+04  0.23061546436E+04  0.50400001928E-02 0.  1.
       -1    1    3    3    0  502  0.48041239511E+03  0.16700584154E+04 -0.11970561483E+03  0.17419014365E+04  0.50400001928E-02 0. -1.
</event>
<event>
 5   0  0.1261152E-08  0.3801740E+04  0.7818609E-02  0.8045782E-01
        2   -1    0    0  501    0  0.00000000000E+00  0.00000000000E+00  0.17442636082E+04  0.17442636082E+04  0.25500000920E-02 0.  1.
       -2   -1    0    0    0  501  0.00000000000E+00  0.00000000000E+00 -0.20715371993E+04  0.20715371993E+04  0.25500000920E-02 0. -1.
    10030    2    1    2    0    0  0.00000000000E+00  0.00000000000E+00 -0.32727359107E+03  0.38158008075E+04  0.38017401015E+04 0.  0.
        2    1    3    3  502    0  0.15256107345E+04 -0.68459224720E+03  0.74367127352E+03  0.18300824083E+04  0.25500000920E-02 0.  1.
       -2    1    3    3    0  502 -0.15256107345E+04  0.68459224720E+03 -0.10709448646E+04  0.19857183992E+04  0.25500000920E-02 0. -1.
</event>
<event>
 5   0  0.1293993E-08  0.3799216E+04  0.7818609E-02  0.8046323E-01
       -2   -1    0    0    0  501  0.00000000000E+00  0.00000000000E+00  0.13381104200E+04  0.13381104200E+04  0.25500000920E-02 0.  1.
        2   -1    0    0  501    0  0.00000000000E+00  0.00000000000E+00 -0.26967212234E+04  0.26967212234E+04  0.25500000920E-02 0. -1.
    10030    2    1    2    0    0  0.00000000000E+00  0.00000000000E+00 -0.13586108034E+04  0.40348316435E+04  0.37992161134E+04 0.  0.
        5    1    3    3  502    0 -0.78617485150E+00  0.76855772724E+03 -0.25242237762E+04  0.26386377850E+04  0.46999998093E+01 0. -1.
       -5    1    3    3    0  502  0.78617485150E+00 -0.76855772724E+03  0.11656129728E+04  0.13961938585E+04  0.46999998093E+01 0.  1.
</event>
<event>
 5   0  0.1293993E-08  0.3797020E+04  0.7818609E-02  0.8046795E-01
       -2   -1    0    0    0  501  0.00000000000E+00  0.00000000000E+00  0.17207258025E+04  0.17207258025E+04  0.25500000920E-02 0. -1.
        2   -1    0    0  501    0  0.00000000000E+00  0.00000000000E+00 -0.20946623486E+04  0.20946623486E+04  0.25500000920E-02 0.  1.
    10030    2    1    2    0    0  0.00000000000E+00  0.00000000000E+00 -0.37393654615E+03  0.38153881511E+04  0.37970196474E+04 0.  0.
        5    1    3    3  502    0 -0.95262839412E+03 -0.43207346411E+03  0.14050348439E+04  0.17516658752E+04  0.46999998093E+01 0. -1.
       -5    1    3    3    0  502  0.95262839412E+03  0.43207346411E+03 -0.17789713900E+04  0.20637222759E+04  0.46999998093E+01 0.  1.
</event>
<event>
 5   0  0.4071750E-09  0.3784246E+04  0.7818609E-02  0.8049544E-01
        1   -1    0    0  501    0  0.00000000000E+00  0.00000000000E+00  0.31013079293E+04  0.31013079293E+04  0.50400001928E-02 0. -1.
       -1   -1    0    0    0  501  0.00000000000E+00  0.00000000000E+00 -0.11543937139E+04  0.11543937139E+04  0.50400001928E-02 0.  1.
    10030    2    1    2    0    0  0.00000000000E+00  0.00000000000E+00  0.19469142154E+04  0.42557016432E+04  0.37842464922E+04 0.  0.
        4    1    3    3  502    0  0.43878485039E+03 -0.16973639841E+04  0.17306310229E+03  0.17616835952E+04  0.12699999809E+01 0.  1.
       -4    1    3    3    0  502 -0.43878485039E+03  0.16973639841E+04  0.17738511131E+04  0.24940180480E+04  0.12699999809E+01 0. -1.
</event>
<event>
 5   0  0.4071750E-09  0.3797657E+04  0.7818609E-02  0.8046658E-01
        3   -1    0    0  501    0  0.00000000000E+00  0.00000000000E+00  0.13692120698E+04  0.13692120736E+04  0.10100000352E+00 0.  1.
       -3   -1    0    0    0  501  0.00000000000E+00  0.00000000000E+00 -0.26333021089E+04  0.26333021108E+04  0.10100000352E+00 0. -1.
    10030    2    1    2    0    0  0.00000000000E+00  0.00000000000E+00 -0.12640900391E+04  0.40025141844E+04  0.37976566682E+04 0.  0.
        4    1    3    3  502    0  0.63375478335E+03 -0.15045473365E+04 -0.16540110337E+04  0.23240184865E+04  0.12699999809E+01 0. -1.
       -4    1    3    3    0  502 -0.63375478335E+03  0.15045473365E+04  0.38992099459E+03  0.16784956979E+04  0.12699999809E+01 0.  1.
</event>
<event>
 5   0  0.1327249E-08  0.3800473E+04  0.7818609E-02  0.8046053E-01
        2   -1    0    0  501    0  0.00000000000E+00  0.00000000000E+00  0.16294215501E+04  0.16294215501E+04  0.25500000920E-02 0.  1.
       -2   -1    0    0    0  501  0.00000000000E+00  0.00000000000E+00 -0.22160615726E+04  0.22160615726E+04  0.25500000920E-02 0. -1.
    10030    2    1    2    0    0  0.00000000000E+00  0.00000000000E+00 -0.58664002252E+03  0.38454831227E+04  0.38004728562E+04 0.  0.
        1    1    3    3  502    0  0.10047514010E+04 -0.11294083823E+03 -0.19212930705E+04  0.21710937506E+04  0.50400001928E-02 0. -1.
       -1    1    3    3    0  502 -0.10047514010E+04  0.11294083823E+03  0.13346530480E+04  0.16743893721E+04  0.50400001928E-02 0.  1.
</event>
<event>
 5   0  0.1264013E-08  0.3796713E+04  0.7818609E-02  0.8046861E-01
       -2   -1    0    0    0  501  0.00000000000E+00  0.00000000000E+00  0.16845533286E+04  0.16845533286E+04  0.25500000920E-02 0. -1.
        2   -1    0    0  501    0  0.00000000000E+00  0.00000000000E+00 -0.21392959029E+04  0.21392959029E+04  0.25500000920E-02 0.  1.
    10030    2    1    2    0    0  0.00000000000E+00  0.00000000000E+00 -0.45474257436E+03  0.38238492315E+04  0.37967133334E+04 0.  0.
        4    1    3    3  502    0 -0.12661209581E+04  0.18884186728E+03  0.11844439502E+04  0.17440276991E+04  0.12699999809E+01 0. -1.
       -4    1    3    3    0  502  0.12661209581E+04 -0.18884186728E+03 -0.16391865246E+04  0.20798215324E+04  0.12699999809E+01 0.  1.
</event>
<event>
 5   0  0.1261152E-08  0.3800474E+04  0.7818609E-02  0.8046053E-01
        2   -1    0    0  501    0  0.00000000000E+00  0.00000000000E+00  0.12400777818E+04  0.12400777818E+04  0.25500000920E-02 0. -1.
       -2   -1    0    0    0  501  0.00000000000E+00  0.00000000000E+00 -0.29118336320E+04  0.29118336320E+04  0.25500000920E-02 0.  1.
    10030    2    1    2    0    0  0.00000000000E+00  0.00000000000E+00 -0.16717558502E+04  0.41519114138E+04  0.38004737554E+04 0.  0.
        2    1    3    3  502    0  0.10165782442E+04  0.12823011926E+04  0.21945942944E+03  0.16510269884E+04  0.25500000920E-02 0. -1.
       -2    1    3    3    0  502 -0.10165782442E+04 -0.12823011926E+04 -0.18912152796E+04  0.25008844254E+04  0.25500000920E-02 0.  1.
</event>
<event>
 5   0  0.1261152E-08  0.3806457E+04  0.7818609E-02  0.8044771E-01
        2   -1    0    0  501    0  0.00000000000E+00  0.00000000000E+00  0.19009791679E+04  0.19009791679E+04  0.25500000920E-02 0.  1.
       -2   -1    0    0    0  501  0.00000000000E+00  0.00000000000E+00 -0.19054802205E+04  0.19054802205E+04  0.25500000920E-02 0. -1.
    10030    2    1    2    0    0  0.00000000000E+00  0.00000000000E+00 -0.45010525612E+01  0.38064593884E+04  0.38064567272E+04 0.  0.
        2    1    3    3  502    0  0.10237823147E+04  0.13941480993E+03  0.15960970764E+04  0.19013396842E+04  0.25500000920E-02 0.  1.
       -2    1    3    3    0  502 -0.10237823147E+04 -0.13941480993E+03 -0.16005981290E+04  0.19051197043E+04  0.25500000920E-02 0. -1.
</event>
<event>
 5   0  0.4071750E-09  0.3800038E+04  0.7818609E-02  0.8046147E-01
       -1   -1    0    0    0  501  0.00000000000E+00  0.00000000000E+00  0.17375139859E+04  0.17375139859E+04  0.50400001928E-02 0.  1.
        1   -1    0    0  501    0  0.00000000000E+00  0.00000000000E+00 -0.20777230245E+04  0.20777230246E+04  0.50400001928E-02 0. -1.
    10030    2    1    2    0    0  0.00000000000E+00  0.00000000000E+00 -0.34020903862E+03  0.38152370105E+04  0.38000383230E+04 0.  0.
        2    1    3    3  502    0 -0.17360854413E+02  0.15080972139E+03  0.17314155778E+04  0.17380577880E+04  0.25500000920E-02 0.  1.
       -2    1    3    3    0  502  0.17360854413E+02 -0.15080972139E+03 -0.20716246164E+04  0.20771792225E+04  0.25500000920E-02 0. -1.
</event>
<event>
 5   0  0.4071750E-09  0.3801617E+04  0.7818609E-02  0.8045808E-01
       -1   -1    0    0    0  501  0.00000000000E+00  0.00000000000E+00  0.18864956693E+04  0.18864956693E+04  0.50400001928E-02 0.  1.
        1   -1    0    0  501    0  0.00000000000E+00  0.00000000000E+00 -0.19152298128E+04  0.19152298129E+04  0.50400001928E-02 0. -1.
    10030    2    1    2    0    0  0.00000000000E+00  0.00000000000E+00 -0.28734143579E+02  0.38017254821E+04  0.38016168916E+04 0.  0.
        3    1    3    3  502    0 -0.25039083156E+02  0.81967808604E+03 -0.17292261360E+04  0.19138239627E+04  0.10100000352E+00 0. -1.
       -3    1    3    3    0  502  0.25039083156E+02 -0.81967808604E+03  0.17004919925E+04  0.18879015194E+04  0.10100000352E+00 0.  1.
</event>
<event>
 5   0  0.1293993E-08  0.3776087E+04  0.7818609E-02  0.8051306E-01
       -2   -1    0    0    0  501  0.00000000000E+00  0.00000000000E+00  0.12373794544E+04  0.12373794544E+04  0.25500000920E-02 0.  1.
        2   -1    0    0  501    0  0.00000000000E+00  0.00000000000E+00 -0.28808532580E+04  0.28808532580E+04  0.25500000920E-02 0. -1.
    10030    2    1    2    0    0  0.00000000000E+00  0.00000000000E+00 -0.16434738036E+04  0.41182327125E+04  0.37760871985E+04 0.  0.
        5    1    3    3  502    0  0.15620725107E+04  0.14283250903E+03 -0.19677660633E+04  0.25164651844E+04  0.46999998093E+01 0. -1.
       -5    1    3    3    0  502 -0.15620725107E+04 -0.14283250903E+03  0.32429225964E+03  0.16017675281E+04  0.46999998093E+01 0.  1.
</event>
<event>
 5   0  0.1327249E-08  0.3809078E+04  0.7818609E-02  0.8044210E-01
        2   -1    0    0  501    0  0.00000000000E+00  0.00000000000E+00  0.21178282741E+04  0.21178282741E+04  0.25500000920E-02 0. -1.
       -2   -1    0    0    0  501  0.00000000000E+00  0.00000000000E+00 -0.17127302311E+04  0.17127302311E+04  0.25500000920E-02 0.  1.
    10030    2    1    2    0    0  0.00000000000E+00  0.00000000000E+00  0.40509804299E+03  0.38305585053E+04  0.38090778461E+04 0.  0.
        1    1    3    3  502    0  0.11857160964E+03  0.41246406018E+03 -0.16634696172E+04  0.17179397530E+04  0.50400001928E-02 0.  1.
       -1    1    3    3    0  502 -0.11857160964E+03 -0.41246406018E+03  0.20685676602E+04  0.21126187523E+04  0.50400001928E-02 0. -1.
</event>
<event>
 5   0  0.4071750E-09  0.3799730E+04  0.7818609E-02  0.8046213E-01
        1   -1    0    0  501    0  0.00000000000E+00  0.00000000000E+00  0.23344521863E+04  0.23344521863E+04  0.50400001928E-02 0. -1.
       -1   -1    0    0    0  501  0.00000000000E+00  0.00000000000E+00 -0.15461812820E+04  0.15461812820E+04  0.50400001928E-02 0.  1.
    10030    2    1    2    0    0  0.00000000000E+00  0.00000000000E+00  0.78827090433E+03  0.38806334683E+04  0.37997296084E+04 0.  0.
        4    1    3    3  502    0  0.57044506491E+03 -0.17772386585E+04  0.32332990025E+02  0.18668240025E+04  0.12699999809E+01 0. -1.
       -4    1    3    3    0  502 -0.57044506491E+03  0.17772386585E+04  0.75593791430E+03  0.20138094658E+04  0.12699999809E+01 0.  1.
</event>
<event>
 5   0  0.4071750E-09  0.3799496E+04  0.7818609E-02  0.8046263E-01
        1   -1    0    0  501    0  0.00000000000E+00  0.00000000000E+00  0.27579122855E+04  0.27579122855E+04  0.50400001928E-02 0. -1.
       -1   -1    0    0    0  501  0.00000000000E+00  0.00000000000E+00 -0.13086142643E+04  0.13086142643E+04  0.50400001928E-02 0.  1.
    10030    2    1    2    0    0  0.00000000000E+00  0.00000000000E+00  0.14492980212E+04  0.40665265498E+04  0.37994964701E+04 0.  0.
        3    1    3    3  502    0 -0.16028176244E+04  0.51704313760E+03 -0.21615448142E+03  0.16979636961E+04  0.10100000352E+00 0.  1.
       -3    1    3    3    0  502  0.16028176244E+04 -0.51704313760E+03  0.16654525027E+04  0.23685628537E+04  0.10100000352E+00 0. -1.
</event>
<event>
 5   0  0.1293993E-08  0.3799477E+04  0.7818609E-02  0.8046267E-01
        2   -1    0    0  501    0  0.00000000000E+00  0.00000000000E+00  0.31385962947E+04  0.31385962947E+04  0.25500000920E-02 0.  1.
       -2   -1    0    0    0  501  0.00000000000E+00  0.00000000000E+00 -0.11498791767E+04  0.11498791767E+04  0.25500000920E-02 0. -1.
    10030    2    1    2    0    0  0.00000000000E+00  0.00000000000E+00  0.19887171180E+04  0.42884754714E+04  0.37994770815E+04 0.  0.
        5    1    3    3  502    0 -0.79833420009E+03  0.15756490248E+04  0.17836244898E+04  0.25102481461E+04  0.46999998093E+01 0.  1.
       -5    1    3    3    0  502  0.79833420009E+03 -0.15756490248E+04  0.20509262822E+03  0.17782273253E+04  0.46999998093E+01 0. -1.
</event>
<event>
 5   0  0.1293993E-08  0.3800225E+04  0.7818609E-02  0.8046107E-01
       -2   -1    0    0    0  501  0.00000000000E+00  0.00000000000E+00  0.18078021366E+04  0.18078021366E+04  0.25500000920E-02 0. -1.
        2   -1    0    0  501    0  0.00000000000E+00  0.00000000000E+00 -0.19971369047E+04  0.19971369047E+04  0.25500000920E-02 0.  1.
    10030    2    1    2    0    0  0.00000000000E+00  0.00000000000E+00 -0.18933476809E+03  0.38049390414E+04  0.38002254478E+04 0.  0.
        5    1    3    3  502    0  0.16731628981E+04  0.70025447385E+03 -0.66156385141E+03  0.19306784381E+04  0.46999998093E+01 0.  1.
       -5    1    3    3    0  502 -0.16731628981E+04 -0.70025447385E+03  0.47222908332E+03  0.18742606033E+04  0.46999998093E+01 0. -1.
</event>
<event>
 5   0  0.1261152E-08  0.3791780E+04  0.7818609E-02  0.8047921E-01
        2   -1    0    0  501    0  0.00000000000E+00  0.00000000000E+00  0.13626537617E+04  0.13626537617E+04  0.25500000920E-02 0.  1.
       -2   -1    0    0    0  501  0.00000000000E+00  0.00000000000E+00 -0.26377935171E+04  0.26377935171E+04  0.25500000920E-02 0. -1.
    10030    2    1    2    0    0  0.00000000000E+00  0.00000000000E+00 -0.12751397554E+04  0.40004472788E+04  0.37917801933E+04 0.  0.
        2    1    3    3  502    0  0.15838856646E+04  0.58852192019E+03 -0.15447419575E+04  0.22893841015E+04  0.25500000920E-02 0. -1.
       -2    1    3    3    0  502 -0.15838856646E+04 -0.58852192019E+03  0.26960220204E+03  0.17110631772E+04  0.25500000920E-02 0.  1.
</event>
<event>
 5   0  0.1264013E-08  0.3800360E+04  0.7818609E-02  0.8046078E-01
        2   -1    0    0  501    0  0.00000000000E+00  0.00000000000E+00  0.22715142289E+04  0.22715142290E+04  0.25500000920E-02 0. -1.
       -2   -1    0    0    0  501  0.00000000000E+00  0.00000000000E+00 -0.15895497728E+04  0.15895497728E+04  0.25500000920E-02 0.  1.
    10030    2    1    2    0    0  0.00000000000E+00  0.00000000000E+00  0.68196445620E+03  0.38610640017E+04  0.38003604705E+04 0.  0.
        4    1    3    3  502    0 -0.10035685448E+03 -0.29126808028E+03 -0.15640078940E+04  0.15940611337E+04  0.12699999809E+01 0.  1.
       -4    1    3    3    0  502  0.10035685448E+03  0.29126808028E+03  0.22459723502E+04  0.22670028680E+04  0.12699999809E+01 0. -1.
</event>
<event>
 5   0  0.4071750E-09  0.3799477E+04  0.7818609E-02  0.8046267E-01
       -1   -1    0    0    0  501  0.00000000000E+00  0.00000000000E+00  0.15188801956E+04  0.15188801957E+04  0.50400001928E-02 0.  1.
        1   -1    0    0  501    0  0.00000000000E+00  0.00000000000E+00 -0.23760962510E+04  0.23760962510E+04  0.50400001928E-02 0. -1.
    10030    2    1    2    0    0  0.00000000000E+00  0.00000000000E+00 -0.85721605534E+03  0.38949764466E+04  0.37994765632E+04 0.  0.
        1    1    3    3  502    0  0.29454394555E+03  0.26844100545E+03  0.14755478525E+04  0.15284168850E+04  0.50400001928E-02 0.  1.
       -1    1    3    3    0  502 -0.29454394555E+03 -0.26844100545E+03 -0.23327639078E+04  0.23665595617E+04  0.50400001928E-02 0. -1.
</event>
<event>
 5   0  0.4071750E-09  0.3799841E+04  0.7818609E-02  0.8046189E-01
       -1   -1    0    0    0  501  0.00000000000E+00  0.00000000000E+00  0.17735765946E+04  0.17735765946E+04  0.50400001928E-02 0.  1.
        1   -1    0    0  501    0  0.00000000000E+00  0.00000000000E+00 -0.20352649028E+04  0.20352649028E+04  0.50400001928E-02 0. -1.
    10030    2    1    2    0    0  0.00000000000E+00  0.00000000000E+00 -0.26168830819E+03  0.38088414974E+04  0.37998411522E+04 0.  0.
        1    1    3    3  502    0 -0.31264459448E+03  0.46235988497E+03  0.16895452492E+04  0.17793500091E+04  0.50400001928E-02 0.  1.
       -1    1    3    3    0  502  0.31264459448E+03 -0.46235988497E+03 -0.19512335574E+04  0.20294914883E+04  0.50400001928E-02 0. -1.
</event>
<event>
 5   0  0.4071750E-09  0.3799142E+04  0.7818609E-02  0.8046339E-01
       -1   -1    0    0    0  501  0.00000000000E+00  0.00000000000E+00  0.12502113414E+04  0.12502113414E+04  0.50400001928E-02 0.  1.
        1   -1    0    0  501    0  0.00000000000E+00  0.00000000000E+00 -0.28862077095E+04  0.28862077095E+04  0.50400001928E-02 0. -1.
    10030    2    1    2    0    0  0.00000000000E+00  0.00000000000E+00 -0.16359963681E+04  0.41364190508E+04  0.37991418041E+04 0.  0.
        5    1    3    3  502    0  0.36036578236E+03 -0.88720148627E+03  0.96817976890E+03  0.13617577351E+04  0.46999998093E+01 0.  1.
       -5    1    3    3    0  502 -0.36036578236E+03  0.88720148627E+03 -0.26041761370E+04  0.27746613157E+04  0.46999998093E+01 0. -1.
</event>
<event>
 5   0  0.1327249E-08  0.3804735E+04  0.7818609E-02  0.8045140E-01
       -2   -1    0    0    0  501  0.00000000000E+00  0.00000000000E+00  0.31523250392E+04  0.31523250392E+04  0.25500000920E-02 0.  1.
        2   -1    0    0  501    0  0.00000000000E+00  0.00000000000E+00 -0.11480418959E+04  0.11480418959E+04  0.25500000920E-02 0. -1.
    10030    2    1    2    0    0  0.00000000000E+00  0.00000000000E+00  0.20042831433E+04  0.43003669351E+04  0.38047345318E+04 0.  0.
        1    1    3    3  502    0  0.10559397409E+04 -0.14209298651E+04  0.17892417166E+04  0.25170292685E+04  0.50400001928E-02 0.  1.
       -1    1    3    3    0  502 -0.10559397409E+04  0.14209298651E+04  0.21504142671E+03  0.17833376666E+04  0.50400001928E-02 0. -1.
</event>
<event>
 5   0  0.1261152E-08  0.3798062E+04  0.7818609E-02  0.8046571E-01
        2   -1    0    0  501    0  0.00000000000E+00  0.00000000000E+00  0.26886890383E+04  0.26886890383E+04  0.25500000920E-02 0. -1.
       -2   -1    0    0    0  501  0.00000000000E+00  0.00000000000E+00 -0.13412929398E+04  0.13412929398E+04  0.25500000920E-02 0.  1.
    10030    2    1    2    0    0  0.00000000000E+00  0.00000000000E+00  0.13473960985E+04  0.40299819781E+04  0.37980624663E+04 0.  0.
        2    1    3    3  502    0  0.28130803270E+03  0.13867758043E+04 -0.67014443106E+03  0.15656867180E+04  0.25500000920E-02 0.  1.
       -2    1    3    3    0  502 -0.28130803270E+03 -0.13867758043E+04  0.20175405296E+04  0.24642952601E+04  0.25500000920E-02 0. -1.
</event>
<event>
 5   0  0.4071750E-09  0.3789885E+04  0.7818609E-02  0.8048329E-01
        1   -1    0    0  501    0  0.00000000000E+00  0.00000000000E+00  0.26208699781E+04  0.26208699781E+04  0.50400001928E-02 0.  1.
       -1   -1    0    0    0  501  0.00000000000E+00  0.00000000000E+00 -0.13700819602E+04  0.13700819602E+04  0.50400001928E-02 0. -1.
    10030    2    1    2    0    0  0.00000000000E+00  0.00000000000E+00  0.12507880179E+04  0.39909519383E+04  0.37898847882E+04 0.  0.
        4    1    3    3  502    0 -0.38622651886E+03  0.43883322035E+03 -0.12727507293E+04  0.14005861455E+04  0.12699999809E+01 0. -1.
       -4    1    3    3    0  502  0.38622651886E+03 -0.43883322035E+03  0.25235387472E+04  0.25903657928E+04  0.12699999809E+01 0.  1.
</event>
<event>
 5   0  0.4071750E-09  0.3801669E+04  0.7818609E-02  0.8045797E-01
        3   -1    0    0  501    0  0.00000000000E+00  0.00000000000E+00  0.13221486078E+04  0.13221486116E+04  0.10100000352E+00 0.  1.
       -3   -1    0    0    0  501  0.00000000000E+00  0.00000000000E+00 -0.27328026691E+04  0.27328026709E+04  0.10100000352E+00 0. -1.
    10030    2    1    2    0    0  0.00000000000E+00  0.00000000000E+00 -0.14106540613E+04  0.40549512825E+04  0.38016687156E+04 0.  0.
        2    1    3    3  502    0  0.10317921024E+04 -0.14982356468E+04 -0.11736049045E+03  0.18229312880E+04  0.25500000920E-02 0.  1.
       -2    1    3    3    0  502 -0.10317921024E+04  0.14982356468E+04 -0.12932935708E+04  0.22320199946E+04  0.25500000920E-02 0. -1.
</event>
<event>
 5   0  0.1327249E-08  0.3799513E+04  0.7818609E-02  0.8046259E-01
        2   -1    0    0  501    0  0.00000000000E+00  0.00000000000E+00  0.22742781257E+04  0.22742781257E+04  0.25500000920E-02 0. -1.
       -2   -1    0    0    0  501  0.00000000000E+00  0.00000000000E+00 -0.15869102269E+04  0.15869102269E+04  0.25500000920E-02 0.  1.
    10030    2    1    2    0    0  0.00000000000E+00  0.00000000000E+00  0.68736789879E+03  0.38611883526E+04  0.37995132407E+04 0.  0.
        1    1    3    3  502    0 -0.17818715505E+04 -0.44439066827E+03 -0.15054980492E+03  0.18426107924E+04  0.50400001928E-02 0. -1.
       -1    1    3    3    0  502  0.17818715505E+04  0.44439066827E+03  0.83791770371E+03  0.20185775602E+04  0.50400001928E-02 0.  1.
</event>
<event>
 5   0  0.4071750E-09  0.3799815E+04  0.7818609E-02  0.8046195E-01
       -1   -1    0    0    0  501  0.00000000000E+00  0.00000000000E+00  0.29138116349E+04  0.29138116349E+04  0.50400001928E-02 0.  1.
        1   -1    0    0  501    0  0.00000000000E+00  0.00000000000E+00 -0.12388062494E+04  0.12388062494E+04  0.50400001928E-02 0. -1.
    10030    2    1    2    0    0  0.00000000000E+00  0.00000000000E+00  0.16750053855E+04  0.41526178843E+04  0.37998147654E+04 0.  0.
        3    1    3    3  502    0 -0.21601879175E+03 -0.78913828852E+03 -0.10364183223E+04  0.13204417086E+04  0.10100000352E+00 0. -1.
       -3    1    3    3    0  502  0.21601879175E+03  0.78913828852E+03  0.27114237078E+04  0.28321761757E+04  0.10100000352E+00 0.  1.
</event>
<event>
 5   0  0.1261152E-08  0.3796971E+04  0.7818609E-02  0.8046805E-01
        2   -1    0    0  501    0  0.00000000000E+00  0.00000000000E+00  0.21321472662E+04  0.21321472662E+04  0.25500000920E-02 0.  1.
       -2   -1    0    0    0  501  0.00000000000E+00  0.00000000000E+00 -0.16904303078E+04  0.16904303078E+04  0.25500000920E-02 0. -1.
    10030    2    1    2    0    0  0.00000000000E+00  0.00000000000E+00  0.44171695841E+03  0.38225775740E+04  0.37969705606E+04 0.  0.
        2    1    3    3  502    0 -0.41299878133E+03  0.15770301127E+04  0.12003818542E+04  0.20244773561E+04  0.25500000920E-02 0.  1.
       -2    1    3    3    0  502  0.41299878133E+03 -0.15770301127E+04 -0.75866489575E+03  0.17981002179E+04  0.25500000920E-02 0. -1.
</event>
<event>
 5   0  0.1261152E-08  0.3805995E+04  0.7818609E-02  0.8044870E-01
       -2   -1    0    0    0  501  0.00000000000E+00  0.00000000000E+00  0.14034130814E+04  0.14034130814E+04  0.25500000920E-02 0.  1.
        2   -1    0    0  501    0  0.00000000000E+00  0.00000000000E+00 -0.25804227710E+04  0.25804227710E+04  0.25500000920E-02 0. -1.
    10030    2    1    2    0    0  0.00000000000E+00  0.00000000000E+00 -0.11770096896E+04  0.39838358525E+04  0.38059947832E+04 0.  0.
        2    1    3    3  502    0 -0.69554741935E+03 -0.93302878012E+03 -0.21645393694E+04  0.24575515455E+04  0.25500000920E-02 0. -1.
       -2    1    3    3    0  502  0.69554741935E+03  0.93302878012E+03  0.98752967984E+03  0.15262843070E+04  0.25500000920E-02 0.  1.
</event>
<event>
 5   0  0.1264013E-08  0.3799444E+04  0.7818609E-02  0.8046274E-01
       -2   -1    0    0    0  501  0.00000000000E+00  0.00000000000E+00  0.22295815070E+04  0.22295815070E+04  0.25500000920E-02 0. -1.
        2   -1    0    0  501    0  0.00000000000E+00  0.00000000000E+00 -0.16186641987E+04  0.16186641987E+04  0.25500000920E-02 0.  1.
    10030    2    1    2    0    0  0.00000000000E+00  0.00000000000E+00  0.61091730825E+03  0.38482457057E+04  0.37994440453E+04 0.  0.
        4    1    3    3  502    0 -0.49014882824E+03 -0.25494815265E+03 -0.15354951553E+04  0.16318674638E+04  0.12699999809E+01 0.  1.
       -4    1    3    3    0  502  0.49014882824E+03  0.25494815265E+03  0.21464124636E+04  0.22163782419E+04  0.12699999809E+01 0. -1.
</event>
<event>
 5   0  0.1305088E-08  0.3799629E+04  0.7818609E-02  0.8046234E-01
        2   -1    0    0  501    0  0.00000000000E+00  0.00000000000E+00  0.14218915041E+04  0.14218915041E+04  0.25500000920E-02 0.  1.
       -2   -1    0    0    0  501  0.00000000000E+00  0.00000000000E+00 -0.25383763891E+04  0.25383763891E+04  0.25500000920E-02 0. -1.
    10030    2    1    2    0    0  0.00000000000E+00  0.00000000000E+00 -0.11164848850E+04  0.39602678932E+04  0.37996293619E+04 0.  0.
        3    1    3    3  502    0  0.86300589621E+03  0.15144977588E+04  0.22922085934E+03  0.17581310676E+04  0.10100000352E+00 0.  1.
       -3    1    3    3    0  502 -0.86300589621E+03 -0.15144977588E+04 -0.13457057443E+04  0.22021368256E+04  0.10100000352E+00 0. -1.
</event>
<event>
 5   0  0.1327249E-08  0.3800154E+04  0.7818609E-02  0.8046122E-01
       -2   -1    0    0    0  501  0.00000000000E+00  0.00000000000E+00  0.19153209956E+04  0.19153209956E+04  0.25500000920E-02 0.  1.
        2   -1    0    0  501    0  0.00000000000E+00  0.00000000000E+00 -0.18849538936E+04  0.18849538936E+04  0.25500000920E-02 0. -1.
    10030    2    1    2    0    0  0.00000000000E+00  0.00000000000E+00  0.30367102028E+02  0.38002748893E+04  0.38001535591E+04 0.  0.
        1    1    3    3  502    0  0.99226799093E+03 -0.10837566771E+04 -0.11894990353E+04  0.18905111097E+04  0.50400001928E-02 0. -1.
       -1    1    3    3    0  502 -0.99226799093E+03  0.10837566771E+04  0.12198661373E+04  0.19097637796E+04  0.50400001928E-02 0.  1.
</event>
<event>
 5   0  0.1293993E-08  0.3799524E+04  0.7818609E-02  0.8046257E-01
        2   -1    0    0  501    0  0.00000000000E+00  0.00000000000E+00  0.27994947289E+04  0.27994947289E+04  0.25500000920E-02 0. -1.
       -2   -1    0    0    0  501  0.00000000000E+00  0.00000000000E+00 -0.12891956050E+04  0.12891956050E+04  0.25500000920E-02 0.  1.
    10030    2    1    2    0    0  0.00000000000E+00  0.00000000000E+00  0.15102991239E+04  0.40886903339E+04  0.37995243390E+04 0.  0.
        5    1    3    3  502    0 -0.12602363491E+03 -0.41021035814E+03  0.27466489922E+04  0.27799743291E+04  0.46999998093E+01 0. -1.
       -5    1    3    3    0  502  0.12602363491E+03  0.41021035814E+03 -0.12363498682E+04  0.13087160048E+04  0.46999998093E+01 0.  1.
</event>
<event>
 5   0  0.4071750E-09  0.3800337E+04  0.7818609E-02  0.8046083E-01
        1   -1    0    0  501    0  0.00000000000E+00  0.00000000000E+00  0.10497363914E+04  0.10497363915E+04  0.50400001928E-02 0. -1.
       -1   -1    0    0    0  501  0.00000000000E+00  0.00000000000E+00 -0.34395687840E+04  0.34395687840E+04  0.50400001928E-02 0.  1.
    10030    2    1    2    0    0  0.00000000000E+00  0.00000000000E+00 -0.23898323926E+04  0.44893051755E+04  0.38003371027E+04 0.  0.
        4    1    3    3  502    0 -0.10055400644E+04  0.17095889621E+03 -0.30887811707E+04  0.32528308439E+04  0.12699999809E+01 0.  1.
       -4    1    3    3    0  502  0.10055400644E+04 -0.17095889621E+03  0.69894877813E+03  0.12364743316E+04  0.12699999809E+01 0. -1.
</event>
<event>
 5   0  0.4071750E-09  0.3798467E+04  0.7818609E-02  0.8046484E-01
        1   -1    0    0  501    0  0.00000000000E+00  0.00000000000E+00  0.18534837036E+04  0.18534837036E+04  0.50400001928E-02 0. -1.
       -1   -1    0    0    0  501  0.00000000000E+00  0.00000000000E+00 -0.19461122229E+04  0.19461122229E+04  0.50400001928E-02 0.  1.
    10030    2    1    2    0    0  0.00000000000E+00  0.00000000000E+00 -0.92628519279E+02  0.37995959266E+04  0.37984666857E+04 0.  0.
        5    1    3    3  502    0  0.73534656028E+03 -0.11176443221E+04 -0.13947512933E+04  0.19326708603E+04  0.46999998093E+01 0.  1.
       -5    1    3    3    0  502 -0.73534656028E+03  0.11176443221E+04  0.13021227740E+04  0.18669250662E+04  0.46999998093E+01 0. -1.
</event>
<event>
 5   0  0.1264013E-08  0.3799475E+04  0.7818609E-02  0.8046267E-01
        2   -1    0    0  501    0  0.00000000000E+00  0.00000000000E+00  0.18640650478E+04  0.18640650478E+04  0.25500000920E-02 0. -1.
       -2   -1    0    0    0  501  0.00000000000E+00  0.00000000000E+00 -0.19360929111E+04  0.19360929111E+04  0.25500000920E-02 0.  1.
    10030    2    1    2    0    0  0.00000000000E+00  0.00000000000E+00 -0.72027863341E+02  0.38001579589E+04  0.37994752926E+04 0.  0.
        4    1    3    3  502    0 -0.11963987637E+04  0.11005750192E+04  0.94720192948E+03  0.18814431915E+04  0.12699999809E+01 0. -1.
       -4    1    3    3    0  502  0.11963987637E+04 -0.11005750192E+04 -0.10192297928E+04  0.19187147673E+04  0.12699999809E+01 0.  1.
</event>
<event>
 5   0  0.1261152E-08  0.3782451E+04  0.7818609E-02  0.8049931E-01
       -2   -1    0    0    0  501  0.00000000000E+00  0.00000000000E+00  0.19202947223E+04  0.19202947223E+04  0.25500000920E-02 0.  1.
        2   -1    0    0  501    0  0.00000000000E+00  0.00000000000E+00 -0.18625968045E+04  0.18625968045E+04  0.25500000920E-02 0. -1.
    10030    2    1    2    0    0  0.00000000000E+00  0.00000000000E+00  0.57697917857E+02  0.37828915268E+04  0.37824514873E+04 0.  0.
        2    1    3    3  502    0 -0.40289478792E+03 -0.14235587324E+03  0.18713839477E+04  0.19195487189E+04  0.25500000920E-02 0.  1.
       -2    1    3    3    0  502  0.40289478792E+03  0.14235587324E+03 -0.18136860298E+04  0.18633428078E+04  0.25500000920E-02 0. -1.
</event>
<event>
 5   0  0.4071750E-09  0.3800286E+04  0.7818609E-02  0.8046093E-01
        1   -1    0    0  501    0  0.00000000000E+00  0.00000000000E+00  0.17530474590E+04  0.17530474590E+04  0.50400001928E-02 0. -1.
       -1   -1    0    0    0  501  0.00000000000E+00  0.00000000000E+00 -0.20595815343E+04  0.20595815343E+04  0.50400001928E-02 0.  1.
    10030    2    1    2    0    0  0.00000000000E+00  0.00000000000E+00 -0.30653407526E+03  0.38126289933E+04  0.38002863972E+04 0.  0.
        5    1    3    3  502    0  0.61483995992E+03 -0.17955893941E+04 -0.24495662433E+03  0.19136863082E+04  0.46999998093E+01 0.  1.
       -5    1    3    3    0  502 -0.61483995992E+03  0.17955893941E+04 -0.61577450926E+02  0.18989426850E+04  0.46999998093E+01 0. -1.
</event>
<event>
 5   0  0.4071750E-09  0.3800371E+04  0.7818609E-02  0.8046075E-01
        1   -1    0    0  501    0  0.00000000000E+00  0.00000000000E+00  0.12710218616E+04  0.12710218616E+04  0.50400001928E-02 0. -1.
       -1   -1    0    0    0  501  0.00000000000E+00  0.00000000000E+00 -0.28407883387E+04  0.28407883388E+04  0.50400001928E-02 0.  1.
    10030    2    1    2    0    0  0.00000000000E+00  0.00000000000E+00 -0.15697664772E+04  0.41118102003E+04  0.38003705517E+04 0.  0.
        4    1    3    3  502    0  0.12933130121E+04 -0.13894966269E+04 -0.69216925346E+03  0.20205096663E+04  0.12699999809E+01 0. -1.
       -4    1    3    3    0  502 -0.12933130121E+04  0.13894966269E+04 -0.87759722374E+03  0.20913005340E+04  0.12699999809E+01 0.  1.
</event>
<event>
 5   0  0.1293993E-08  0.3799780E+04  0.7818609E-02  0.8046202E-01
        2   -1    0    0  501    0  0.00000000000E+00  0.00000000000E+00  0.17248161627E+04  0.17248161627E+04  0.25500000920E-02 0.  1.
       -2   -1    0    0    0  501  0.00000000000E+00  0.00000000000E+00 -0.20927345640E+04  0.20927345640E+04  0.25500000920E-02 0. -1.
    10030    2    1    2    0    0  0.00000000000E+00  0.00000000000E+00 -0.36791840125E+03  0.38175507267E+04  0.37997802042E+04 0.  0.
        5    1    3    3  502    0  0.73017188245E+03  0.31033095575E+03  0.15504119987E+04  0.17416244531E+04  0.46999998093E+01 0.  1.
       -5    1    3    3    0  502 -0.73017188245E+03 -0.31033095575E+03 -0.19183303999E+04  0.20759262736E+04  0.46999998093E+01 0. -1.
</event>
<event>
 5   0  0.4071750E-09  0.3805659E+04  0.7818609E-02  0.8044941E-01
       -1   -1    0    0    0  501  0.00000000000E+00  0.00000000000E+00  0.32769350880E+04  0.32769350880E+04  0.50400001928E-02 0. -1.
        1   -1    0    0  501    0  0.00000000000E+00  0.00000000000E+00 -0.11049229702E+04  0.11049229702E+04  0.50400001928E-02 0.  1.
    10030    2    1    2    0    0  0.00000000000E+00  0.00000000000E+00  0.21720121178E+04  0.43818580582E+04  0.38056593913E+04 0.  0.
        2    1    3    3  502    0  0.32447572209E+03 -0.15634194775E+04  0.22776948072E+04  0.27816287660E+04  0.25500000920E-02 0. -1.
       -2    1    3    3    0  502 -0.32447572209E+03  0.15634194775E+04 -0.10568268939E+03  0.16002292922E+04  0.25500000920E-02 0.  1.
</event>
<event>
 5   0  0.4071750E-09  0.3783496E+04  0.7818609E-02  0.8049706E-01
       -1   -1    0    0    0  501  0.00000000000E+00  0.00000000000E+00  0.13190537294E+04  0.13190537294E+04  0.50400001928E-02 0.  1.
        1   -1    0    0  501    0  0.00000000000E+00  0.00000000000E+00 -0.27130891290E+04  0.27130891290E+04  0.50400001928E-02 0. -1.
    10030    2    1    2    0    0  0.00000000000E+00  0.00000000000E+00 -0.13940353996E+04  0.40321428583E+04  0.37834959145E+04 0.  0.
        3    1    3    3  502    0 -0.81793762761E+03  0.32533655177E+03 -0.24815302335E+04  0.26330321199E+04  0.10100000352E+00 0. -1.
       -3    1    3    3    0  502  0.81793762761E+03 -0.32533655177E+03  0.10874948339E+04  0.13991107385E+04  0.10100000352E+00 0.  1.
</event>
<event>
 5   0  0.4071750E-09  0.3787981E+04  0.7818609E-02  0.8048739E-01
        1   -1    0    0  501    0  0.00000000000E+00  0.00000000000E+00  0.19139908786E+04  0.19139908787E+04  0.50400001928E-02 0.  1.
       -1   -1    0    0    0  501  0.00000000000E+00  0.00000000000E+00 -0.18741991480E+04  0.18741991480E+04  0.50400001928E-02 0. -1.
    10030    2    1    2    0    0  0.00000000000E+00  0.00000000000E+00  0.39791730678E+02  0.37881900266E+04  0.37879810316E+04 0.  0.
        1    1    3    3  502    0  0.36759375997E+03  0.10436143228E+04  0.15571677334E+04  0.19102427535E+04  0.50400001928E-02 0.  1.
       -1    1    3    3    0  502 -0.36759375997E+03 -0.10436143228E+04 -0.15173760027E+04  0.18779472732E+04  0.50400001928E-02 0. -1.
</event>
<event>
 5   0  0.1327249E-08  0.3800223E+04  0.7818609E-02  0.8046107E-01
       -2   -1    0    0    0  501  0.00000000000E+00  0.00000000000E+00  0.14206281327E+04  0.14206281327E+04  0.25500000920E-02 0. -1.
        2   -1    0    0  501    0  0.00000000000E+00  0.00000000000E+00 -0.25414281325E+04  0.25414281325E+04  0.25500000920E-02 0.  1.
    10030    2    1    2    0    0  0.00000000000E+00  0.00000000000E+00 -0.11207999999E+04  0.39620562652E+04  0.38002233104E+04 0.  0.
        1    1    3    3  502    0 -0.14948701721E+04  0.83911144589E+02 -0.17801561445E+04  0.23260769141E+04  0.50400001928E-02 0.  1.
       -1    1    3    3    0  502  0.14948701721E+04 -0.83911144589E+02  0.65935614464E+03  0.16359793511E+04  0.50400001928E-02 0. -1.
</event>
<event>
 5   0  0.1305088E-08  0.3801451E+04  0.7818609E-02  0.8045844E-01
       -2   -1    0    0    0  501  0.00000000000E+00  0.00000000000E+00  0.13780919234E+04  0.13780919234E+04  0.25500000920E-02 0.  1.
        2   -1    0    0  501    0  0.00000000000E+00  0.00000000000E+00 -0.26215652724E+04  0.26215652724E+04  0.25500000920E-02 0. -1.
    10030    2    1    2    0    0  0.00000000000E+00  0.00000000000E+00 -0.12434733490E+04  0.39996571958E+04  0.38014512643E+04 0.  0.
        3    1    3    3  502    0  0.71159888714E+03  0.14893690377E+04 -0.16132992449E+04  0.23081004247E+04  0.10100000352E+00 0. -1.
       -3    1    3    3    0  502 -0.71159888714E+03 -0.14893690377E+04  0.36982589595E+03  0.16915567712E+04  0.10100000352E+00 0.  1.
</event>
<event>
 5   0  0.1293993E-08  0.3799128E+04  0.7818609E-02  0.8046342E-01
       -2   -1    0    0    0  501  0.00000000000E+00  0.00000000000E+00  0.13482452071E+04  0.13482452071E+04  0.25500000920E-02 0. -1.
        2   -1    0    0  501    0  0.00000000000E+00  0.00000000000E+00 -0.26763252336E+04  0.26763252336E+04  0.25500000920E-02 0.  1.
    10030    2    1    2    0    0  0.00000000000E+00  0.00000000000E+00 -0.13280800265E+04  0.40245704407E+04  0.37991276203E+04 0.  0.
        5    1    3    3  502    0 -0.54734939396E+03  0.18189844007E+04 -0.66933351821E+03  0.20140320399E+04  0.46999998093E+01 0. -1.
       -5    1    3    3    0  502  0.54734939396E+03 -0.18189844007E+04 -0.65874650830E+03  0.20105384008E+04  0.46999998093E+01 0.  1.
</event>
<event>
 5   0  0.1264013E-08  0.3797151E+04  0.7818609E-02  0.8046767E-01
       -2   -1    0    0    0  501  0.00000000000E+00  0.00000000000E+00  0.24295450062E+04  0.24295450062E+04  0.25500000920E-02 0. -1.
        2   -1    0    0  501    0  0.00000000000E+00  0.00000000000E+00 -0.14836478123E+04  0.14836478124E+04  0.25500000920E-02 0.  1.
    10030    2    1    2    0    0  0.00000000000E+00  0.00000000000E+00  0.94589719385E+03  0.39131928186E+04  0.37971511076E+04 0.  0.
        4    1    3    3  502    0 -0.96803125942E+03  0.16163559653E+04  0.23148855027E+03  0.18982306729E+04  0.12699999809E+01 0.  1.
       -4    1    3    3    0  502  0.96803125942E+03 -0.16163559653E+04  0.71440864358E+03  0.20149621457E+04  0.12699999809E+01 0. -1.
</event>
<event>
 5   0  0.1327249E-08  0.3799597E+04  0.7818609E-02  0.8046241E-01
        2   -1    0    0  501    0  0.00000000000E+00  0.00000000000E+00  0.17216092167E+04  0.17216092167E+04  0.25500000920E-02 0.  1.
       -2   -1    0    0    0  501  0.00000000000E+00  0.00000000000E+00 -0.20964303225E+04  0.20964303225E+04  0.25500000920E-02 0. -1.
    10030    2    1    2    0    0  0.00000000000E+00  0.00000000000E+00 -0.37482110582E+03  0.38180395391E+04  0.37995966972E+04 0.  0.
        1    1    3    3  502    0  0.11225154220E+03  0.12754690096E+04  0.12229018567E+04  0.17705678621E+04  0.50400001928E-02 0.  1.
       -1    1    3    3    0  502 -0.11225154220E+03 -0.12754690096E+04 -0.15977229625E+04  0.20474716770E+04  0.50400001928E-02 0. -1.
</event>
<event>
 5   0  0.4071750E-09  0.3796015E+04  0.7818609E-02  0.8047011E-01
        1   -1    0    0  501    0  0.00000000000E+00  0.00000000000E+00  0.22731734233E+04  0.22731734233E+04  0.50400001928E-02 0. -1.
       -1   -1    0    0    0  501  0.00000000000E+00  0.00000000000E+00 -0.15847588613E+04  0.15847588613E+04  0.50400001928E-02 0.  1.
    10030    2    1    2    0    0  0.00000000000E+00  0.00000000000E+00  0.68841456206E+03  0.38579322846E+04  0.37960146079E+04 0.  0.
        2    1    3    3  502    0  0.10558014208E+04 -0.13311194648E+04 -0.51566413115E+03  0.17755295452E+04  0.25500000920E-02 0.  1.
       -2    1    3    3    0  502 -0.10558014208E+04  0.13311194648E+04  0.12040786932E+04  0.20824027394E+04  0.25500000920E-02 0. -1.
</event>
<event>
 5   0  0.4071750E-09  0.3801653E+04  0.7818609E-02  0.8045800E-01
       -1   -1    0    0    0  501  0.00000000000E+00  0.00000000000E+00  0.27642989966E+04  0.27642989967E+04  0.50400001928E-02 0.  1.
        1   -1    0    0  501    0  0.00000000000E+00  0.00000000000E+00 -0.13070733029E+04  0.13070733030E+04  0.50400001928E-02 0. -1.
    10030    2    1    2    0    0  0.00000000000E+00  0.00000000000E+00  0.14572256937E+04  0.40713722996E+04  0.38016530194E+04 0.  0.
        3    1    3    3  502    0  0.47947940844E+03 -0.10069563401E+03  0.26955162574E+04  0.27396802766E+04  0.10100000352E+00 0.  1.
       -3    1    3    3    0  502 -0.47947940844E+03  0.10069563401E+03 -0.12382905637E+04  0.13316920230E+04  0.10100000352E+00 0. -1.
</event>
<event>
 5   0  0.1305088E-08  0.3799686E+04  0.7818609E-02  0.8046222E-01
        2   -1    0    0  501    0  0.00000000000E+00  0.00000000000E+00  0.14938660663E+04  0.14938660663E+04  0.25500000920E-02 0.  1.
       -2   -1    0    0    0  501  0.00000000000E+00  0.00000000000E+00 -0.24161487448E+04  0.24161487448E+04  0.25500000920E-02 0. -1.
    10030    2    1    2    0    0  0.00000000000E+00  0.00000000000E+00 -0.92228267852E+03  0.39100148110E+04  0.37996855769E+04 0.  0.
        3    1    3    3  502    0 -0.85087412910E+03 -0.39778046448E+03 -0.21605121866E+04  0.23558499528E+04  0.10100000352E+00 0. -1.
       -3    1    3    3    0  502  0.85087412910E+03  0.39778046448E+03  0.12382295081E+04  0.15541648582E+04  0.10100000352E+00 0.  1.
</event>
<event>
 5   0  0.1305088E-08  0.3800247E+04  0.7818609E-02  0.8046102E-01
       -2   -1    0    0    0  501  0.00000000000E+00  0.00000000000E+00  0.14488225889E+04  0.14488225889E+04  0.25500000920E-02 0. -1.
        2   -1    0    0  501    0  0.00000000000E+00  0.00000000000E+00 -0.24920027047E+04  0.24920027047E+04  0.25500000920E-02 0.  1.
    10030    2    1    2    0    0  0.00000000000E+00  0.00000000000E+00 -0.10431801157E+04  0.39408252936E+04  0.38002472605E+04 0.  0.
        3    1    3    3  502    0 -0.32347129580E+03  0.15327847892E+04  0.59355320915E+03  0.16752218693E+04  0.10100000352E+00 0. -1.
       -3    1    3    3    0  502  0.32347129580E+03 -0.15327847892E+04 -0.16367333249E+04  0.22656034243E+04  0.10100000352E+00 0.  1.
</event>
<event>
 5   0  0.4071750E-09  0.3799530E+04  0.7818609E-02  0.8046256E-01
       -1   -1    0    0    0  501  0.00000000000E+00  0.00000000000E+00  0.27040983826E+04  0.27040983826E+04  0.50400001928E-02 0. -1.
        1   -1    0    0  501    0  0.00000000000E+00  0.00000000000E+00 -0.13346800805E+04  0.13346800805E+04  0.50400001928E-02 0.  1.
    10030    2    1    2    0    0  0.00000000000E+00  0.00000000000E+00  0.13694183021E+04  0.40387784632E+04  0.37995295746E+04 0.  0.
        4    1    3    3  502    0  0.94525693549E+03 -0.49791461982E+03 -0.98508979386E+03  0.14532147665E+04  0.12699999809E+01 0.  1.
       -4    1    3    3    0  502 -0.94525693549E+03  0.49791461982E+03  0.23545080959E+04  0.25855636967E+04  0.12699999809E+01 0. -1.
</event>
<event>
 5   0  0.4071750E-09  0.3800513E+04  0.7818609E-02  0.8046045E-01
        1   -1    0    0  501    0  0.00000000000E+00  0.00000000000E+00  0.12328590299E+04  0.12328590299E+04  0.50400001928E-02 0.  1.
       -1   -1    0    0    0  501  0.00000000000E+00  0.00000000000E+00 -0.29289435975E+04  0.29289435975E+04  0.50400001928E-02 0. -1.
    10030    2    1    2    0    0  0.00000000000E+00  0.00000000000E+00 -0.16960845676E+04  0.41618026274E+04  0.38005128928E+04 0.  0.
        1    1    3    3  502    0 -0.81059262195E+03 -0.11091405988E+04  0.58967268160E+03  0.14949806481E+04  0.50400001928E-02 0.  1.
       -1    1    3    3    0  502  0.81059262195E+03  0.11091405988E+04 -0.22857572492E+04  0.26668219793E+04  0.50400001928E-02 0. -1.
</event>
<event>
 5   0  0.1293993E-08  0.3802722E+04  0.7818609E-02  0.8045571E-01
       -2   -1    0    0    0  501  0.00000000000E+00  0.00000000000E+00  0.18300085342E+04  0.18300085342E+04  0.25500000920E-02 0.  1.
        2   -1    0    0  501    0  0.00000000000E+00  0.00000000000E+00 -0.19754953949E+04  0.19754953949E+04  0.25500000920E-02 0. -1.
    10030    2    1    2    0    0  0.00000000000E+00  0.00000000000E+00 -0.14548686068E+03  0.38055039291E+04  0.38027218841E+04 0.  0.
        5    1    3    3  502    0  0.10251899448E+04  0.40132521102E+03  0.14785761455E+04  0.18434440203E+04  0.46999998093E+01 0.  1.
       -5    1    3    3    0  502 -0.10251899448E+04 -0.40132521102E+03 -0.16240630062E+04  0.19620599089E+04  0.46999998093E+01 0. -1.
</event>
<event>
 5   0  0.4071750E-09  0.3800451E+04  0.7818609E-02  0.8046058E-01
        1   -1    0    0  501    0  0.00000000000E+00  0.00000000000E+00  0.12460656475E+04  0.12460656475E+04  0.50400001928E-02 0.  1.
       -1   -1    0    0    0  501  0.00000000000E+00  0.00000000000E+00 -0.28978068600E+04  0.28978068600E+04  0.50400001928E-02 0. -1.
    10030    2    1    2    0    0  0.00000000000E+00  0.00000000000E+00 -0.16517412124E+04  0.41438725075E+04  0.38004513318E+04 0.  0.
        4    1    3    3  502    0 -0.18868844171E+04 -0.16152965834E+03 -0.99630011923E+03  0.21398691957E+04  0.12699999809E+01 0. -1.
       -4    1    3    3    0  502  0.18868844171E+04  0.16152965834E+03 -0.65544109320E+03  0.20040033118E+04  0.12699999809E+01 0.  1.
</event>
<event>
 5   0  0.4071750E-09  0.3801198E+04  0.7818609E-02  0.8045898E-01
        1   -1    0    0  501    0  0.00000000000E+00  0.00000000000E+00  0.11024893005E+04  0.11024893005E+04  0.50400001928E-02 0.  1.
       -1   -1    0    0    0  501  0.00000000000E+00  0.00000000000E+00 -0.32764738813E+04  0.32764738813E+04  0.50400001928E-02 0. -1.
    10030    2    1    2    0    0  0.00000000000E+00  0.00000000000E+00 -0.21739845808E+04  0.43789631819E+04  0.38011984414E+04 0.  0.
        1    1    3    3  502    0  0.13214305530E+04 -0.83872296281E+03 -0.23291417226E+04  0.28061603801E+04  0.50400001928E-02 0. -1.
       -1    1    3    3    0  502 -0.13214305530E+04  0.83872296281E+03  0.15515714181E+03  0.15728028018E+04  0.50400001928E-02 0.  1.
</event>
<event>
 5   0  0.1264013E-08  0.3800585E+04  0.7818609E-02  0.8046029E-01
        2   -1    0    0  501    0  0.00000000000E+00  0.00000000000E+00  0.17333055806E+04  0.17333055806E+04  0.25500000920E-02 0.  1.
       -2   -1    0    0    0  501  0.00000000000E+00  0.00000000000E+00 -0.20833672490E+04  0.20833672490E+04  0.25500000920E-02 0. -1.
    10030    2    1    2    0    0  0.00000000000E+00  0.00000000000E+00 -0.35006166844E+03  0.38166728296E+04  0.38005852597E+04 0.  0.
        4    1    3    3  502    0 -0.10211760061E+04  0.15045671752E+04 -0.72926155635E+03  0.19591699392E+04  0.12699999809E+01 0. -1.
       -4    1    3    3    0  502  0.10211760061E+04 -0.15045671752E+04  0.37919988791E+03  0.18575028904E+04  0.12699999809E+01 0.  1.
</event>
<event>
 5   0  0.4071750E-09  0.3799227E+04  0.7818609E-02  0.8046321E-01
       -1   -1    0    0    0  501  0.00000000000E+00  0.00000000000E+00  0.13467505939E+04  0.13467505939E+04  0.50400001928E-02 0.  1.
        1   -1    0    0  501    0  0.00000000000E+00  0.00000000000E+00 -0.26794361483E+04  0.26794361483E+04  0.50400001928E-02 0. -1.
    10030    2    1    2    0    0  0.00000000000E+00  0.00000000000E+00 -0.13326855544E+04  0.40261867423E+04  0.37992274079E+04 0.  0.
        3    1    3    3  502    0  0.82171842524E+02  0.68248054769E+03 -0.25430074249E+04  0.26342776396E+04  0.10100000352E+00 0. -1.
       -3    1    3    3    0  502 -0.82171842524E+02 -0.68248054769E+03  0.12103218704E+04  0.13919091026E+04  0.10100000352E+00 0.  1.
</event>
<event>
 5   0  0.4071750E-09  0.3807259E+04  0.7818609E-02  0.8044599E-01
        1   -1    0    0  501    0  0.00000000000E+00  0.00000000000E+00  0.11297375373E+04  0.11297375373E+04  0.50400001928E-02 0. -1.
       -1   -1    0    0    0  501  0.00000000000E+00  0.00000000000E+00 -0.32076520527E+04  0.32076520527E+04  0.50400001928E-02 0.  1.
    10030    2    1    2    0    0  0.00000000000E+00  0.00000000000E+00 -0.20779145153E+04  0.43373895900E+04  0.38072588200E+04 0.  0.
        3    1    3    3  502    0 -0.32467624504E+03 -0.74712333924E+03  0.92113420194E+03  0.12296731990E+04  0.10100000352E+00 0. -1.
       -3    1    3    3    0  502  0.32467624504E+03  0.74712333924E+03 -0.29990487173E+04  0.31077163910E+04  0.10100000352E+00 0.  1.
</event>
<event>
 5   0  0.4071750E-09  0.3799958E+04  0.7818609E-02  0.8046164E-01
        1   -1    0    0  501    0  0.00000000000E+00  0.00000000000E+00  0.25641052713E+04  0.25641052713E+04  0.50400001928E-02 0. -1.
       -1   -1    0    0    0  501  0.00000000000E+00  0.00000000000E+00 -0.14078673971E+04  0.14078673971E+04  0.50400001928E-02 0.  1.
    10030    2    1    2    0    0  0.00000000000E+00  0.00000000000E+00  0.11562378742E+04  0.39719726684E+04  0.37999580072E+04 0.  0.
        1    1    3    3  502    0 -0.12434437930E+04 -0.10388640076E+04 -0.45903156407E+03  0.16840727032E+04  0.50400001928E-02 0.  1.
       -1    1    3    3    0  502  0.12434437930E+04  0.10388640076E+04  0.16152694382E+04  0.22878999652E+04  0.50400001928E-02 0. -1.
</event>
<event>
 5   0  0.4071750E-09  0.3799935E+04  0.7818609E-02  0.8046169E-01
       -1   -1    0    0    0  501  0.00000000000E+00  0.00000000000E+00  0.17319152278E+04  0.17319152278E+04  0.50400001928E-02 0.  1.
        1   -1    0    0  501    0  0.00000000000E+00  0.00000000000E+00 -0.20843263773E+04  0.20843263773E+04  0.50400001928E-02 0. -1.
    10030    2    1    2    0    0  0.00000000000E+00  0.00000000000E+00 -0.35241114954E+03  0.38162416052E+04  0.37999350482E+04 0.  0.
        5    1    3    3  502    0 -0.12467179251E+04 -0.60571326482E+03 -0.14812666688E+04  0.20286367782E+04  0.46999998093E+01 0. -1.
       -5    1    3    3    0  502  0.12467179251E+04  0.60571326482E+03  0.11288555193E+04  0.17876048269E+04  0.46999998093E+01 0.  1.
</event>
<event>
 5   0  0.4071750E-09  0.3797037E+04  0.7818609E-02  0.8046791E-01
        1   -1    0    0  501    0  0.00000000000E+00  0.00000000000E+00  0.28631755948E+04  0.28631755948E+04  0.50400001928E-02 0. -1.
       -1   -1    0    0    0  501  0.00000000000E+00  0.00000000000E+00 -0.12588720552E+04  0.12588720553E+04  0.50400001928E-02 0.  1.
    10030    2    1    2    0    0  0.00000000000E+00  0.00000000000E+00  0.16043035396E+04  0.41220476501E+04  0.37970366054E+04 0.  0.
        5    1    3    3  502    0  0.94172022538E+03  0.88542150898E+03 -0.70738940770E+03  0.14735094488E+04  0.46999998093E+01 0.  1.
       -5    1    3    3    0  502 -0.94172022538E+03 -0.88542150898E+03  0.23116929473E+04  0.26485382013E+04  0.46999998093E+01 0. -1.
</event>
<event>
 5   0  0.4071750E-09  0.3799475E+04  0.7818609E-02  0.8046268E-01
        1   -1    0    0  501    0  0.00000000000E+00  0.00000000000E+00  0.18798448649E+04  0.18798448649E+04  0.50400001928E-02 0.  1.
       -1   -1    0    0    0  501  0.00000000000E+00  0.00000000000E+00 -0.19198402219E+04  0.19198402219E+04  0.50400001928E-02 0. -1.
    10030    2    1    2    0    0  0.00000000000E+00  0.00000000000E+00 -0.39995356969E+02  0.37996850869E+04  0.37994745861E+04 0.  0.
        2    1    3    3  502    0 -0.87584996863E+03  0.97027637047E+02  0.16630911826E+04  0.18821264069E+04  0.25500000920E-02 0.  1.
       -2    1    3    3    0  502  0.87584996863E+03 -0.97027637047E+02 -0.17030865396E+04  0.19175586800E+04  0.25500000920E-02 0. -1.
</event>
<event>
 5   0  0.4071750E-09  0.3799364E+04  0.7818609E-02  0.8046291E-01
       -1   -1    0    0    0  501  0.00000000000E+00  0.00000000000E+00  0.14926941258E+04  0.14926941258E+04  0.50400001928E-02 0.  1.
        1   -1    0    0  501    0  0.00000000000E+00  0.00000000000E+00 -0.24176358659E+04  0.24176358659E+04  0.50400001928E-02 0. -1.
    10030    2    1    2    0    0  0.00000000000E+00  0.00000000000E+00 -0.92494174011E+03  0.39103299916E+04  0.37993635547E+04 0.  0.
        2    1    3    3  502    0  0.45720295572E+03  0.13849122785E+04  0.79036328447E+03  0.16588220771E+04  0.25500000920E-02 0.  1.
       -2    1    3    3    0  502 -0.45720295572E+03 -0.13849122785E+04 -0.17153050246E+04  0.22515079146E+04  0.25500000920E-02 0. -1.
</event>
<event>
 5   0  0.4071750E-09  0.3798552E+04  0.7818609E-02  0.8046466E-01
        1   -1    0    0  501    0  0.00000000000E+00  0.00000000000E+00  0.21907357648E+04  0.21907357648E+04  0.50400001928E-02 0. -1.
       -1   -1    0    0    0  501  0.00000000000E+00  0.00000000000E+00 -0.16465924118E+04  0.16465924118E+04  0.50400001928E-02 0.  1.
    10030    2    1    2    0    0  0.00000000000E+00  0.00000000000E+00  0.54414335302E+03  0.38373281766E+04  0.37985517696E+04 0.  0.
        2    1    3    3  502    0  0.91563093332E+03  0.16622965416E+04  0.34793211446E+03  0.19294213004E+04  0.25500000920E-02 0. -1.
       -2    1    3    3    0  502 -0.91563093332E+03 -0.16622965416E+04  0.19621123855E+03  0.19079068762E+04  0.25500000920E-02 0.  1.
</event>
<event>
 5   0  0.1293993E-08  0.3800490E+04  0.7818609E-02  0.8046050E-01
       -2   -1    0    0    0  501  0.00000000000E+00  0.00000000000E+00  0.14591488365E+04  0.14591488365E+04  0.25500000920E-02 0. -1.
        2   -1    0    0  501    0  0.00000000000E+00  0.00000000000E+00 -0.24746833865E+04  0.24746833865E+04  0.25500000920E-02 0.  1.
    10030    2    1    2    0    0  0.00000000000E+00  0.00000000000E+00 -0.10155345500E+04  0.39338322230E+04  0.38004901705E+04 0.  0.
        5    1    3    3  502    0 -0.87075039300E+03  0.32647182729E+03 -0.22230507812E+04  0.24097234212E+04  0.46999998093E+01 0.  1.
       -5    1    3    3    0  502  0.87075039300E+03 -0.32647182729E+03  0.12075162312E+04  0.15241088017E+04  0.46999998093E+01 0. -1.
</event>
<event>
 5   0  0.4071750E-09  0.3799854E+04  0.7818609E-02  0.8046186E-01
        1   -1    0    0  501    0  0.00000000000E+00  0.00000000000E+00  0.24731951309E+04  0.24731951309E+04  0.50400001928E-02 0.  1.
       -1   -1    0    0    0  501  0.00000000000E+00  0.00000000000E+00 -0.14595379559E+04  0.14595379559E+04  0.50400001928E-02 0. -1.
    10030    2    1    2    0    0  0.00000000000E+00  0.00000000000E+00  0.10136571750E+04  0.39327330868E+04  0.37998537687E+04 0.  0.
        1    1    3    3  502    0 -0.11185897495E+04 -0.12958451003E+04  0.13598247624E+04  0.21862252711E+04  0.50400001928E-02 0.  1.
       -1    1    3    3    0  502  0.11185897495E+04  0.12958451003E+04 -0.34616758742E+03  0.17465078157E+04  0.50400001928E-02 0. -1.
</event>
<event>
 5   0  0.1305088E-08  0.3793528E+04  0.7818609E-02  0.8047545E-01
        2   -1    0    0  501    0  0.00000000000E+00  0.00000000000E+00  0.21679708943E+04  0.21679708943E+04  0.25500000920E-02 0.  1.
       -2   -1    0    0    0  501  0.00000000000E+00  0.00000000000E+00 -0.16594846914E+04  0.16594846914E+04  0.25500000920E-02 0. -1.
    10030    2    1    2    0    0  0.00000000000E+00  0.00000000000E+00  0.50848620283E+03  0.38274555857E+04  0.37935284422E+04 0.  0.
        3    1    3    3  502    0 -0.99980518517E+03  0.12414408995E+04  0.12915078940E+04  0.20515307860E+04  0.10100000352E+00 0.  1.
       -3    1    3    3    0  502  0.99980518517E+03 -0.12414408995E+04 -0.78302169113E+03  0.17759247997E+04  0.10100000352E+00 0. -1.
</event>
<event>
 5   0  0.4071750E-09  0.3817397E+04  0.7818609E-02  0.8042432E-01
       -1   -1    0    0    0  501  0.00000000000E+00  0.00000000000E+00  0.24565335125E+04  0.24565335125E+04  0.50400001928E-02 0.  1.
        1   -1    0    0  501    0  0.00000000000E+00  0.00000000000E+00 -0.14830369821E+04  0.14830369821E+04  0.50400001928E-02 0. -1.
    10030    2    1    2    0    0  0.00000000000E+00  0.00000000000E+00  0.97349653035E+03  0.39395704946E+04  0.38173970435E+04 0.  0.
        4    1    3    3  502    0  0.15660222256E+04  0.48513573761E+02  0.16117510374E+04  0.22477816170E+04  0.12699999809E+01 0. -1.
       -4    1    3    3    0  502 -0.15660222256E+04 -0.48513573761E+02 -0.63825450708E+03  0.16917888777E+04  0.12699999809E+01 0.  1.
</event>
<event>
 5   0  0.1264013E-08  0.3792887E+04  0.7818609E-02  0.8047683E-01
        2   -1    0    0  501    0  0.00000000000E+00  0.00000000000E+00  0.27156509523E+04  0.27156509523E+04  0.25500000920E-02 0.  1.
       -2   -1    0    0    0  501  0.00000000000E+00  0.00000000000E+00 -0.13243595395E+04  0.13243595395E+04  0.25500000920E-02 0. -1.
    10030    2    1    2    0    0  0.00000000000E+00  0.00000000000E+00  0.13912914128E+04  0.40400104918E+04  0.37928871561E+04 0.  0.
        4    1    3    3  502    0 -0.16188840902E+03 -0.38788288454E+03  0.26654142068E+04  0.26983505139E+04  0.12699999809E+01 0.  1.
       -4    1    3    3    0  502  0.16188840902E+03  0.38788288454E+03 -0.12741227940E+04  0.13416599779E+04  0.12699999809E+01 0. -1.
</event>
<event>
 5   0  0.1327249E-08  0.3796203E+04  0.7818609E-02  0.8046970E-01
       -2   -1    0    0    0  501  0.00000000000E+00  0.00000000000E+00  0.16761192998E+04  0.16761192998E+04  0.25500000920E-02 0.  1.
        2   -1    0    0  501    0  0.00000000000E+00  0.00000000000E+00 -0.21494823756E+04  0.21494823756E+04  0.25500000920E-02 0. -1.
    10030    2    1    2    0    0  0.00000000000E+00  0.00000000000E+00 -0.47336307585E+03  0.38256016754E+04  0.37962027840E+04 0.  0.
        1    1    3    3  502    0 -0.77161203621E+02 -0.14487487542E+04 -0.14700724863E+04  0.20654151929E+04  0.50400001928E-02 0. -1.
       -1    1    3    3    0  502  0.77161203621E+02  0.14487487542E+04  0.99670941049E+03  0.17601864825E+04  0.50400001928E-02 0.  1.
</event>
<event>
 5   0  0.4071750E-09  0.3798820E+04  0.7818609E-02  0.8046408E-01
       -1   -1    0    0    0  501  0.00000000000E+00  0.00000000000E+00  0.23624482367E+04  0.23624482367E+04  0.50400001928E-02 0. -1.
        1   -1    0    0  501    0  0.00000000000E+00  0.00000000000E+00 -0.15271267811E+04  0.15271267811E+04  0.50400001928E-02 0.  1.
    10030    2    1    2    0    0  0.00000000000E+00  0.00000000000E+00  0.83532145562E+03  0.38895750178E+04  0.37988198016E+04 0.  0.
        3    1    3    3  502    0  0.95358586465E+03  0.12361310677E+04  0.15253624511E+04  0.21826764843E+04  0.10100000352E+00 0. -1.
       -3    1    3    3    0  502 -0.95358586465E+03 -0.12361310677E+04 -0.69004099547E+03  0.17068985335E+04  0.10100000352E+00 0.  1.
</event>
<event>
 5   0  0.1305088E-08  0.3793584E+04  0.7818609E-02  0.8047533E-01
       -2   -1    0    0    0  501  0.00000000000E+00  0.00000000000E+00  0.25071953990E+04  0.25071953990E+04  0.25500000920E-02 0. -1.
        2   -1    0    0  501    0  0.00000000000E+00  0.00000000000E+00 -0.14349979491E+04  0.14349979491E+04  0.25500000920E-02 0.  1.
    10030    2    1    2    0    0  0.00000000000E+00  0.00000000000E+00  0.10721974499E+04  0.39421933481E+04  0.37935841920E+04 0.  0.
        3    1    3    3  502    0  0.25053292342E+03  0.18558888525E+04  0.22308469116E+03  0.18859631407E+04  0.10100000352E+00 0. -1.
       -3    1    3    3    0  502 -0.25053292342E+03 -0.18558888525E+04  0.84911275876E+03  0.20562302074E+04  0.10100000352E+00 0.  1.
</event>
<event>
 5   0  0.4071750E-09  0.3799708E+04  0.7818609E-02  0.8046218E-01
       -1   -1    0    0    0  501  0.00000000000E+00  0.00000000000E+00  0.14628415658E+04  0.14628415658E+04  0.50400001928E-02 0. -1.
        1   -1    0    0  501    0  0.00000000000E+00  0.00000000000E+00 -0.24674204156E+04  0.24674204156E+04  0.50400001928E-02 0.  1.
    10030    2    1    2    0    0  0.00000000000E+00  0.00000000000E+00 -0.10045788497E+04  0.39302619814E+04  0.37997079594E+04 0.  0.
        4    1    3    3  502    0 -0.17472395198E+04 -0.74445528121E+03 -0.45178636689E+03  0.19522223591E+04  0.12699999809E+01 0.  1.
       -4    1    3    3    0  502  0.17472395198E+04  0.74445528121E+03 -0.55279248285E+03  0.19780396223E+04  0.12699999809E+01 0. -1.
</event>
<event>
 5   0  0.1261152E-08  0.3800667E+04  0.7818609E-02  0.8046012E-01
       -2   -1    0    0    0  501  0.00000000000E+00  0.00000000000E+00  0.21562999709E+04  0.21562999709E+04  0.25500000920E-02 0. -1.
        2   -1    0    0  501    0  0.00000000000E+00  0.00000000000E+00 -0.16747518011E+04  0.16747518011E+04  0.25500000920E-02 0.  1.
    10030    2    1    2    0    0  0.00000000000E+00  0.00000000000E+00  0.48154816979E+03  0.38310517720E+04  0.38006669205E+04 0.  0.
        2    1    3    3  502    0  0.68952428916E+03 -0.16938631400E+04 -0.27973697635E+03  0.18500996888E+04  0.25500000920E-02 0.  1.
       -2    1    3    3    0  502 -0.68952428916E+03  0.16938631400E+04  0.76128514614E+03  0.19809520833E+04  0.25500000920E-02 0. -1.
</event>
<event>
 5   0  0.4071750E-09  0.3795749E+04  0.7818609E-02  0.8047068E-01
       -1   -1    0    0    0  501  0.00000000000E+00  0.00000000000E+00  0.19033318222E+04  0.19033318222E+04  0.50400001928E-02 0.  1.
        1   -1    0    0  501    0  0.00000000000E+00  0.00000000000E+00 -0.18924332717E+04  0.18924332717E+04  0.50400001928E-02 0. -1.
    10030    2    1    2    0    0  0.00000000000E+00  0.00000000000E+00  0.10898550490E+02  0.37957650938E+04  0.37957494476E+04 0.  0.
        4    1    3    3  502    0 -0.16402901933E+04  0.57432368333E+03 -0.75713320365E+03  0.18956929900E+04  0.12699999809E+01 0. -1.
       -4    1    3    3    0  502  0.16402901933E+04 -0.57432368333E+03  0.76803175414E+03  0.19000721038E+04  0.12699999809E+01 0.  1.
</event>
<event>
 5   0  0.4071750E-09  0.3799954E+04  0.7818609E-02  0.8046165E-01
        1   -1    0    0  501    0  0.00000000000E+00  0.00000000000E+00  0.27702881513E+04  0.27702881513E+04  0.50400001928E-02 0.  1.
       -1   -1    0    0    0  501  0.00000000000E+00  0.00000000000E+00 -0.13030819275E+04  0.13030819275E+04  0.50400001928E-02 0. -1.
    10030    2    1    2    0    0  0.00000000000E+00  0.00000000000E+00  0.14672062238E+04  0.40733700788E+04  0.37999539070E+04 0.  0.
        4    1    3    3  502    0  0.17911931430E+03  0.45480219152E+03  0.27017330160E+04  0.27455949564E+04  0.12699999809E+01 0.  1.
       -4    1    3    3    0  502 -0.17911931430E+03 -0.45480219152E+03 -0.12345267921E+04  0.13277751224E+04  0.12699999809E+01 0. -1.
</event>
<event>
 5   0  0.4071750E-09  0.3801028E+04  0.7818609E-02  0.8045934E-01
        1   -1    0    0  501    0  0.00000000000E+00  0.00000000000E+00  0.13474365210E+04  0.13474365210E+04  0.50400001928E-02 0. -1.
       -1   -1    0    0    0  501  0.00000000000E+00  0.00000000000E+00 -0.26806118281E+04  0.26806118281E+04  0.50400001928E-02 0.  1.
    10030    2    1    2    0    0  0.00000000000E+00  0.00000000000E+00 -0.13331753071E+04  0.40280483492E+04  0.38010284271E+04 0.  0.
        2    1    3    3  502    0 -0.11614153778E+02 -0.46752757763E+03  0.12855061219E+04  0.13679338119E+04  0.25500000920E-02 0. -1.
       -2    1    3    3    0  502  0.11614153778E+02  0.46752757763E+03 -0.26186814290E+04  0.26601145372E+04  0.25500000920E-02 0.  1.
</event>
<event>
 5   0  0.1261152E-08  0.3804974E+04  0.7818609E-02  0.8045088E-01
       -2   -1    0    0    0  501  0.00000000000E+00  0.00000000000E+00  0.13560278573E+04  0.13560278573E+04  0.25500000920E-02 0. -1.
        2   -1    0    0  501    0  0.00000000000E+00  0.00000000000E+00 -0.26691605593E+04  0.26691605593E+04  0.25500000920E-02 0.  1.
    10030    2    1    2    0    0  0.00000000000E+00  0.00000000000E+00 -0.13131327020E+04  0.40251884166E+04  0.38049736262E+04 0.  0.
        2    1    3    3  502    0  0.11116915924E+04  0.13465723921E+04  0.14235078080E+03  0.17519643686E+04  0.25500000920E-02 0. -1.
       -2    1    3    3    0  502 -0.11116915924E+04 -0.13465723921E+04 -0.14554834828E+04  0.22732240481E+04  0.25500000920E-02 0.  1.
</event>
<event>
 5   0  0.1327249E-08  0.3794625E+04  0.7818609E-02  0.8047309E-01
       -2   -1    0    0    0  501  0.00000000000E+00  0.00000000000E+00  0.12688077622E+04  0.12688077622E+04  0.25500000920E-02 0. -1.
        2   -1    0    0  501    0  0.00000000000E+00  0.00000000000E+00 -0.28371468840E+04  0.28371468840E+04  0.25500000920E-02 0.  1.
    10030    2    1    2    0    0  0.00000000000E+00  0.00000000000E+00 -0.15683391217E+04  0.41059546462E+04  0.37946246133E+04 0.  0.
        1    1    3    3  502    0  0.73042462742E+03  0.96193091906E+03  0.79908185504E+03  0.14482275513E+04  0.50400001928E-02 0. -1.
       -1    1    3    3    0  502 -0.73042462742E+03 -0.96193091906E+03 -0.23674209768E+04  0.26577270948E+04  0.50400001928E-02 0.  1.
</event>
<event>
 5   0  0.1293993E-08  0.3798296E+04  0.7818609E-02  0.8046521E-01
        2   -1    0    0  501    0  0.00000000000E+00  0.00000000000E+00  0.15046059331E+04  0.15046059331E+04  0.25500000920E-02 0.  1.
       -2   -1    0    0    0  501  0.00000000000E+00  0.00000000000E+00 -0.23971480853E+04  0.23971480853E+04  0.25500000920E-02 0. -1.
    10030    2    1    2    0    0  0.00000000000E+00  0.00000000000E+00 -0.89254215221E+03  0.39017540183E+04  0.37982960556E+04 0.  0.
        5    1    3    3  502    0  0.27367271506E+03  0.20666836260E+03  0.14725293644E+04  0.15119435790E+04  0.46999998093E+01 0.  1.
       -5    1    3    3    0  502 -0.27367271506E+03 -0.20666836260E+03 -0.23650715166E+04  0.23898104393E+04  0.46999998093E+01 0. -1.
</event>
<event>
 5   0  0.1327249E-08  0.3798566E+04  0.7818609E-02  0.8046463E-01
        2   -1    0    0  501    0  0.00000000000E+00  0.00000000000E+00  0.13505301349E+04  0.13505301349E+04  0.25500000920E-02 0.  1.
       -2   -1    0    0    0  501  0.00000000000E+00  0.00000000000E+00 -0.26710067500E+04  0.26710067500E+04  0.25500000920E-02 0. -1.
    10030    2    1    2    0    0  0.00000000000E+00  0.00000000000E+00 -0.13204766150E+04  0.40215368849E+04  0.37985655748E+04 0.  0.
        1    1    3    3  502    0  0.14186895044E+04  0.87169648658E+03  0.30703266093E+03  0.16931638224E+04  0.50400001928E-02 0.  1.
       -1    1    3    3    0  502 -0.14186895044E+04 -0.87169648658E+03 -0.16275092759E+04  0.23283730625E+04  0.50400001928E-02 0. -1.
</event>
<event>
 5   0  0.4071750E-09  0.3799064E+04  0.7818609E-02  0.8046356E-01
       -1   -1    0    0    0  501  0.00000000000E+00  0.00000000000E+00  0.16404710216E+04  0.16404710216E+04  0.50400001928E-02 0.  1.
        1   -1    0    0  501    0  0.00000000000E+00  0.00000000000E+00 -0.21995036951E+04  0.21995036951E+04  0.50400001928E-02 0. -1.
    10030    2    1    2    0    0  0.00000000000E+00  0.00000000000E+00 -0.55903267343E+03  0.38399747167E+04  0.37990641341E+04 0.  0.
        1    1    3    3  502    0 -0.90797092161E+03  0.15137866313E+04  0.42965213035E+03  0.18167449223E+04  0.50400001928E-02 0.  1.
       -1    1    3    3    0  502  0.90797092161E+03 -0.15137866313E+04 -0.98868480378E+03  0.20232297944E+04  0.50400001928E-02 0. -1.
</event>
<event>
 5   0  0.1293993E-08  0.3803340E+04  0.7818609E-02  0.8045439E-01
        2   -1    0    0  501    0  0.00000000000E+00  0.00000000000E+00  0.26527283086E+04  0.26527283086E+04  0.25500000920E-02 0.  1.
       -2   -1    0    0    0  501  0.00000000000E+00  0.00000000000E+00 -0.13632562944E+04  0.13632562944E+04  0.25500000920E-02 0. -1.
    10030    2    1    2    0    0  0.00000000000E+00  0.00000000000E+00  0.12894720142E+04  0.40159846030E+04  0.38033398817E+04 0.  0.
        5    1    3    3  502    0  0.30687712376E+03 -0.13289447617E+04 -0.75451754896E+03  0.15587131135E+04  0.46999998093E+01 0. -1.
       -5    1    3    3    0  502 -0.30687712376E+03  0.13289447617E+04  0.20439895631E+04  0.24572714894E+04  0.46999998093E+01 0.  1.
</event>
<event>
 5   0  0.1264013E-08  0.3803432E+04  0.7818609E-02  0.8045419E-01
        2   -1    0    0  501    0  0.00000000000E+00  0.00000000000E+00  0.25590370634E+04  0.25590370634E+04  0.25500000920E-02 0.  1.
       -2   -1    0    0    0  501  0.00000000000E+00  0.00000000000E+00 -0.14132363484E+04  0.14132363484E+04  0.25500000920E-02 0. -1.
    10030    2    1    2    0    0  0.00000000000E+00  0.00000000000E+00  0.11458007150E+04  0.39722734118E+04  0.38034322367E+04 0.  0.
        4    1    3    3  502    0 -0.12321184750E+04 -0.77529084547E+03 -0.70507453638E+03  0.16175053466E+04  0.12699999809E+01 0. -1.
       -4    1    3    3    0  502  0.12321184750E+04  0.77529084547E+03  0.18508752514E+04  0.23547680652E+04  0.12699999809E+01 0.  1.
</event>
<event>
 5   0  0.1264013E-08  0.3809787E+04  0.7818609E-02  0.8044058E-01
       -2   -1    0    0    0  501  0.00000000000E+00  0.00000000000E+00  0.12001740457E+04  0.12001740457E+04  0.25500000920E-02 0.  1.
        2   -1    0    0  501    0  0.00000000000E+00  0.00000000000E+00 -0.30234106888E+04  0.30234106888E+04  0.25500000920E-02 0. -1.
    10030    2    1    2    0    0  0.00000000000E+00  0.00000000000E+00 -0.18232366431E+04  0.42235847344E+04  0.38097868907E+04 0.  0.
        4    1    3    3  502    0 -0.27534287723E+03 -0.49852521596E+03  0.11035842486E+04  0.12418699198E+04  0.12699999809E+01 0.  1.
       -4    1    3    3    0  502  0.27534287723E+03  0.49852521596E+03 -0.29268208917E+04  0.29817148147E+04  0.12699999809E+01 0. -1.
</event>
<event>
 5   0  0.4071750E-09  0.3807697E+04  0.7818609E-02  0.8044505E-01
       -1   -1    0    0    0  501  0.00000000000E+00  0.00000000000E+00  0.20715736359E+04  0.20715736359E+04  0.50400001928E-02 0.  1.
        1   -1    0    0  501    0  0.00000000000E+00  0.00000000000E+00 -0.17497036096E+04  0.17497036096E+04  0.50400001928E-02 0. -1.
    10030    2    1    2    0    0  0.00000000000E+00  0.00000000000E+00  0.32187002628E+03  0.38212772456E+04  0.38076973979E+04 0.  0.
        2    1    3    3  502    0 -0.49212503016E+03 -0.18517704263E+03  0.19972592703E+04  0.20653140622E+04  0.25500000920E-02 0.  1.
       -2    1    3    3    0  502  0.49212503016E+03  0.18517704263E+03 -0.16753892440E+04  0.17559631834E+04  0.25500000920E-02 0. -1.
</event>
<event>
 5   0  0.4071750E-09  0.3799426E+04  0.7818609E-02  0.8046278E-01
        1   -1    0    0  501    0  0.00000000000E+00  0.00000000000E+00  0.23036316416E+04  0.23036316416E+04  0.50400001928E-02 0. -1.
       -1   -1    0    0    0  501  0.00000000000E+00  0.00000000000E+00 -0.15666173858E+04  0.15666173858E+04  0.50400001928E-02 0.  1.
    10030    2    1    2    0    0  0.00000000000E+00  0.00000000000E+00  0.73701425583E+03  0.38702490273E+04  0.37994259462E+04 0.  0.
        3    1    3    3  502    0  0.64857349742E+03 -0.11112507842E+04  0.17921946595E+04  0.22062383359E+04  0.10100000352E+00 0. -1.
       -3    1    3    3    0  502 -0.64857349742E+03  0.11112507842E+04 -0.10551804036E+04  0.16640106915E+04  0.10100000352E+00 0.  1.
</event>
<event>
 5   0  0.4071750E-09  0.3801522E+04  0.7818609E-02  0.8045828E-01
       -1   -1    0    0    0  501  0.00000000000E+00  0.00000000000E+00  0.23544638345E+04  0.23544638345E+04  0.50400001928E-02 0.  1.
        1   -1    0    0  501    0  0.00000000000E+00  0.00000000000E+00 -0.15344864603E+04  0.15344864603E+04  0.50400001928E-02 0. -1.
    10030    2    1    2    0    0  0.00000000000E+00  0.00000000000E+00  0.81997737416E+03  0.38889502948E+04  0.38015222611E+04 0.  0.
        5    1    3    3  502    0 -0.15795607600E+04 -0.35438521899E+03 -0.60904776855E+03  0.17296133534E+04  0.46999998093E+01 0. -1.
       -5    1    3    3    0  502  0.15795607600E+04  0.35438521899E+03  0.14290251427E+04  0.21593369414E+04  0.46999998093E+01 0.  1.
</event>
<event>
 5   0  0.1264013E-08  0.3800577E+04  0.7818609E-02  0.8046031E-01
       -2   -1    0    0    0  501  0.00000000000E+00  0.00000000000E+00  0.12688310951E+04  0.12688310951E+04  0.25500000920E-02 0. -1.
        2   -1    0    0  501    0  0.00000000000E+00  0.00000000000E+00 -0.28460030858E+04  0.28460030858E+04  0.25500000920E-02 0.  1.
    10030    2    1    2    0    0  0.00000000000E+00  0.00000000000E+00 -0.15771719907E+04  0.41148341809E+04  0.38005774362E+04 0.  0.
        4    1    3    3  502    0 -0.58272491131E+03 -0.10816486215E+04  0.78095988514E+03  0.14558269189E+04  0.12699999809E+01 0. -1.
       -4    1    3    3    0  502  0.58272491131E+03  0.10816486215E+04 -0.23581318758E+04  0.26590072620E+04  0.12699999809E+01 0.  1.
</event>
<event>
 5   0  0.1293993E-08  0.3800801E+04  0.7818609E-02  0.8045983E-01
        2   -1    0    0  501    0  0.00000000000E+00  0.00000000000E+00  0.19527934749E+04  0.19527934749E+04  0.25500000920E-02 0. -1.
       -2   -1    0    0    0  501  0.00000000000E+00  0.00000000000E+00 -0.18494133192E+04  0.18494133192E+04  0.25500000920E-02 0.  1.
    10030    2    1    2    0    0  0.00000000000E+00  0.00000000000E+00  0.10338015576E+03  0.38022067941E+04  0.38008011062E+04 0.  0.
        5    1    3    3  502    0 -0.13701074904E+04 -0.11008375605E+04  0.77477294211E+03  0.19207636689E+04  0.46999998093E+01 0. -1.
       -5    1    3    3    0  502  0.13701074904E+04  0.11008375605E+04 -0.67139278635E+03  0.18814431252E+04  0.46999998093E+01 0.  1.
</event>
<event>
 5   0  0.1327249E-08  0.3798523E+04  0.7818609E-02  0.8046472E-01
       -2   -1    0    0    0  501  0.00000000000E+00  0.00000000000E+00  0.18460359134E+04  0.18460359134E+04  0.25500000920E-02 0. -1.
        2   -1    0    0  501    0  0.00000000000E+00  0.00000000000E+00 -0.19540222124E+04  0.19540222124E+04  0.25500000920E-02 0.  1.
    10030    2    1    2    0    0  0.00000000000E+00  0.00000000000E+00 -0.10798629899E+03  0.38000581259E+04  0.37985234920E+04 0.  0.
        1    1    3    3  502    0 -0.98289380119E+02 -0.15065088303E+04  0.10988462824E+04  0.18672688105E+04  0.50400001928E-02 0. -1.
       -1    1    3    3    0  502  0.98289380119E+02  0.15065088303E+04 -0.12068325814E+04  0.19327893154E+04  0.50400001928E-02 0.  1.
</event>
<event>
 5   0  0.1327249E-08  0.3800389E+04  0.7818609E-02  0.8046071E-01
       -2   -1    0    0    0  501  0.00000000000E+00  0.00000000000E+00  0.17037515669E+04  0.17037515669E+04  0.25500000920E-02 0.  1.
        2   -1    0    0  501    0  0.00000000000E+00  0.00000000000E+00 -0.21192876873E+04  0.21192876873E+04  0.25500000920E-02 0. -1.
    10030    2    1    2    0    0  0.00000000000E+00  0.00000000000E+00 -0.41553612041E+03  0.38230392541E+04  0.38003893052E+04 0.  0.
        1    1    3    3  502    0  0.14181525773E+04 -0.69651158779E+03  0.85420098842E+03  0.17960914378E+04  0.50400001928E-02 0.  1.
       -1    1    3    3    0  502 -0.14181525773E+04  0.69651158779E+03 -0.12697371088E+04  0.20269478163E+04  0.50400001928E-02 0. -1.
</event>
<event>
 5   0  0.4071750E-09  0.3799656E+04  0.7818609E-02  0.8046229E-01
        3   -1    0    0  501    0  0.00000000000E+00  0.00000000000E+00  0.20570463880E+04  0.20570463905E+04  0.10100000352E+00 0.  1.
       -3   -1    0    0    0  501  0.00000000000E+00  0.00000000000E+00 -0.17546260666E+04  0.17546260696E+04  0.10100000352E+00 0. -1.
    10030    2    1    2    0    0  0.00000000000E+00  0.00000000000E+00  0.30242032134E+03  0.38116724600E+04  0.37996564176E+04 0.  0.
        5    1    3    3  502    0  0.47500666182E+02 -0.92886050541E+02 -0.17517444960E+04  0.17548546951E+04  0.46999998093E+01 0. -1.
       -5    1    3    3    0  502 -0.47500666182E+02  0.92886050541E+02  0.20541648173E+04  0.20568177650E+04  0.46999998093E+01 0.  1.
</event>
<event>
 5   0  0.4071750E-09  0.3807924E+04  0.7818609E-02  0.8044456E-01
        3   -1    0    0  501    0  0.00000000000E+00  0.00000000000E+00  0.22928930883E+04  0.22928930906E+04  0.10100000352E+00 0. -1.
       -3   -1    0    0    0  501  0.00000000000E+00  0.00000000000E+00 -0.15810035704E+04  0.15810035736E+04  0.10100000352E+00 0.  1.
    10030    2    1    2    0    0  0.00000000000E+00  0.00000000000E+00  0.71188951796E+03  0.38738966642E+04  0.38079244581E+04 0.  0.
        5    1    3    3  502    0 -0.11174155405E+04 -0.12767500059E+04  0.12348228778E+04  0.20984560269E+04  0.46999998093E+01 0. -1.
       -5    1    3    3    0  502  0.11174155405E+04  0.12767500059E+04 -0.52293335980E+03  0.17754406372E+04  0.46999998093E+01 0.  1.
</event>
<event>
 5   0  0.1264013E-08  0.3800963E+04  0.7818609E-02  0.8045948E-01
       -2   -1    0    0    0  501  0.00000000000E+00  0.00000000000E+00  0.16705152048E+04  0.16705152048E+04  0.25500000920E-02 0. -1.
        2   -1    0    0  501    0  0.00000000000E+00  0.00000000000E+00 -0.21621056979E+04  0.21621056979E+04  0.25500000920E-02 0.  1.
    10030    2    1    2    0    0  0.00000000000E+00  0.00000000000E+00 -0.49159049311E+03  0.38326209026E+04  0.38009632688E+04 0.  0.
        4    1    3    3  502    0 -0.16759377630E+04  0.60788279830E+03  0.41812628209E+03  0.18311526651E+04  0.12699999809E+01 0. -1.
       -4    1    3    3    0  502  0.16759377630E+04 -0.60788279830E+03 -0.90971677520E+03  0.20014682376E+04  0.12699999809E+01 0.  1.
</event>
<event>
 5   0  0.4071750E-09  0.3800986E+04  0.7818609E-02  0.8045943E-01
        1   -1    0    0  501    0  0.00000000000E+00  0.00000000000E+00  0.23425303125E+04  0.23425303125E+04  0.50400001928E-02 0. -1.
       -1   -1    0    0    0  501  0.00000000000E+00  0.00000000000E+00 -0.15418685165E+04  0.15418685165E+04  0.50400001928E-02 0.  1.
    10030    2    1    2    0    0  0.00000000000E+00  0.00000000000E+00  0.80066179606E+03  0.38843988290E+04  0.38009860498E+04 0.  0.
        4    1    3    3  502    0 -0.48944620417E+03  0.27917132281E+03  0.22552041881E+04  0.23245304380E+04  0.12699999809E+01 0. -1.
       -4    1    3    3    0  502  0.48944620417E+03 -0.27917132281E+03 -0.14545423920E+04  0.15598683910E+04  0.12699999809E+01 0.  1.
</event>
<event>
 5   0  0.1264013E-08  0.3799600E+04  0.7818609E-02  0.8046241E-01
       -2   -1    0    0    0  501  0.00000000000E+00  0.00000000000E+00  0.14973237656E+04  0.14973237656E+04  0.25500000920E-02 0.  1.
        2   -1    0    0  501    0  0.00000000000E+00  0.00000000000E+00 -0.24104609497E+04  0.24104609497E+04  0.25500000920E-02 0. -1.
    10030    2    1    2    0    0  0.00000000000E+00  0.00000000000E+00 -0.91313718407E+03  0.39077847153E+04  0.37996002243E+04 0.  0.
        4    1    3    3  502    0 -0.18112859853E+04 -0.57174369057E+03 -0.49759272601E+03  0.19634785209E+04  0.12699999809E+01 0.  1.
       -4    1    3    3    0  502  0.18112859853E+04  0.57174369057E+03 -0.41554445806E+03  0.19443061944E+04  0.12699999809E+01 0. -1.
</event>
<event>
 5   0  0.4071750E-09  0.3797929E+04  0.7818609E-02  0.8046600E-01
        1   -1    0    0  501    0  0.00000000000E+00  0.00000000000E+00  0.18971405861E+04  0.18971405861E+04  0.50400001928E-02 0. -1.
       -1   -1    0    0    0  501  0.00000000000E+00  0.00000000000E+00 -0.19007899095E+04  0.19007899095E+04  0.50400001928E-02 0.  1.
    10030    2    1    2    0    0  0.00000000000E+00  0.00000000000E+00 -0.36493234003E+01  0.37979304955E+04  0.37979287423E+04 0.  0.
        3    1    3    3  502    0 -0.56653457300E+03  0.14314069697E+04 -0.11136607461E+04  0.19000335794E+04  0.10100000352E+00 0. -1.
       -3    1    3    3    0  502  0.56653457300E+03 -0.14314069697E+04  0.11100114227E+04  0.18978969161E+04  0.10100000352E+00 0.  1.
</event>
<event>
 5   0  0.4071750E-09  0.3799369E+04  0.7818609E-02  0.8046290E-01
       -1   -1    0    0    0  501  0.00000000000E+00  0.00000000000E+00  0.23634696129E+04  0.23634696129E+04  0.50400001928E-02 0.  1.
        1   -1    0    0  501    0  0.00000000000E+00  0.00000000000E+00 -0.15269085781E+04  0.15269085781E+04  0.50400001928E-02 0. -1.
    10030    2    1    2    0    0  0.00000000000E+00  0.00000000000E+00  0.83656103483E+03  0.38903781910E+04  0.37993694351E+04 0.  0.
        4    1    3    3  502    0  0.87628680874E+03 -0.12752382632E+04  0.15468099364E+04  0.21878605511E+04  0.12699999809E+01 0.  1.
       -4    1    3    3    0  502 -0.87628680874E+03  0.12752382632E+04 -0.71024890152E+03  0.17025176399E+04  0.12699999809E+01 0. -1.
</event>
<event>
 5   0  0.4071750E-09  0.3793087E+04  0.7818609E-02  0.8047640E-01
        1   -1    0    0  501    0  0.00000000000E+00  0.00000000000E+00  0.15292404052E+04  0.15292404052E+04  0.50400001928E-02 0. -1.
       -1   -1    0    0    0  501  0.00000000000E+00  0.00000000000E+00 -0.23520677907E+04  0.23520677907E+04  0.50400001928E-02 0.  1.
    10030    2    1    2    0    0  0.00000000000E+00  0.00000000000E+00 -0.82282738550E+03  0.38813081958E+04  0.37930869229E+04 0.  0.
        2    1    3    3  502    0 -0.96949912808E+03  0.85347785689E+03  0.10095987090E+04  0.16394031124E+04  0.25500000920E-02 0. -1.
       -2    1    3    3    0  502  0.96949912808E+03 -0.85347785689E+03 -0.18324260945E+04  0.22419050835E+04  0.25500000920E-02 0.  1.
</event>
<event>
 5   0  0.1327249E-08  0.3800763E+04  0.7818609E-02  0.8045991E-01
       -2   -1    0    0    0  501  0.00000000000E+00  0.00000000000E+00  0.23152745552E+04  0.23152745552E+04  0.25500000920E-02 0. -1.
        2   -1    0    0  501    0  0.00000000000E+00  0.00000000000E+00 -0.15598368354E+04  0.15598368354E+04  0.25500000920E-02 0.  1.
    10030    2    1    2    0    0  0.00000000000E+00  0.00000000000E+00  0.75543771981E+03  0.38751113906E+04  0.38007633629E+04 0.  0.
        1    1    3    3  502    0 -0.14370700592E+04  0.14836644826E+03 -0.88104413113E+03  0.16921648025E+04  0.50400001928E-02 0.  1.
       -1    1    3    3    0  502  0.14370700592E+04 -0.14836644826E+03  0.16364818509E+04  0.21829465881E+04  0.50400001928E-02 0. -1.
</event>
<event>
 5   0  0.4071750E-09  0.3797384E+04  0.7818609E-02  0.8046717E-01
        1   -1    0    0  501    0  0.00000000000E+00  0.00000000000E+00  0.18355730830E+04  0.18355730830E+04  0.50400001928E-02 0.  1.
       -1   -1    0    0    0  501  0.00000000000E+00  0.00000000000E+00 -0.19639809401E+04  0.19639809401E+04  0.50400001928E-02 0. -1.
    10030    2    1    2    0    0  0.00000000000E+00  0.00000000000E+00 -0.12840785708E+03  0.37995540231E+04  0.37973835989E+04 0.  0.
        3    1    3    3  502    0 -0.13805427379E+04 -0.12746973182E+04 -0.33690150587E+03  0.19089929646E+04  0.10100000352E+00 0. -1.
       -3    1    3    3    0  502  0.13805427379E+04  0.12746973182E+04  0.20849364880E+03  0.18905610585E+04  0.10100000352E+00 0.  1.
</event>
<event>
 5   0  0.1327249E-08  0.3799570E+04  0.7818609E-02  0.8046247E-01
       -2   -1    0    0    0  501  0.00000000000E+00  0.00000000000E+00  0.14997686143E+04  0.14997686143E+04  0.25500000920E-02 0.  1.
        2   -1    0    0  501    0  0.00000000000E+00  0.00000000000E+00 -0.24064934487E+04  0.24064934487E+04  0.25500000920E-02 0. -1.
    10030    2    1    2    0    0  0.00000000000E+00  0.00000000000E+00 -0.90672483445E+03  0.39062620630E+04  0.37995701572E+04 0.  0.
        1    1    3    3  502    0  0.27718252786E+03  0.13530215956E+04 -0.17944791752E+04  0.22644321810E+04  0.50400001928E-02 0.  1.
       -1    1    3    3    0  502 -0.27718252786E+03 -0.13530215956E+04  0.88775434076E+03  0.16418298820E+04  0.50400001928E-02 0. -1.
</event>
<event>
 5   0  0.1261152E-08  0.3799754E+04  0.7818609E-02  0.8046208E-01
        2   -1    0    0  501    0  0.00000000000E+00  0.00000000000E+00  0.20737523136E+04  0.20737523136E+04  0.25500000920E-02 0. -1.
       -2   -1    0    0    0  501  0.00000000000E+00  0.00000000000E+00 -0.17405807729E+04  0.17405807729E+04  0.25500000920E-02 0.  1.
    10030    2    1    2    0    0  0.00000000000E+00  0.00000000000E+00  0.33317154069E+03  0.38143330865E+04  0.37997544157E+04 0.  0.
        2    1    3    3  502    0  0.15282058894E+04 -0.42011457567E+03  0.12182809073E+04  0.19990292310E+04  0.25500000920E-02 0. -1.
       -2    1    3    3    0  502 -0.15282058894E+04  0.42011457567E+03 -0.88510936663E+03  0.18153038556E+04  0.25500000920E-02 0.  1.
</event>
<event>
 5   0  0.1264013E-08  0.3796517E+04  0.7818609E-02  0.8046903E-01
        2   -1    0    0  501    0  0.00000000000E+00  0.00000000000E+00  0.15356960070E+04  0.15356960070E+04  0.25500000920E-02 0. -1.
       -2   -1    0    0    0  501  0.00000000000E+00  0.00000000000E+00 -0.23464180603E+04  0.23464180603E+04  0.25500000920E-02 0.  1.
    10030    2    1    2    0    0  0.00000000000E+00  0.00000000000E+00 -0.81072205335E+03  0.38821140673E+04  0.37965167435E+04 0.  0.
        4    1    3    3  502    0  0.18614391055E+03  0.17074356554E+04  0.42119366207E+03  0.17684433230E+04  0.12699999809E+01 0.  1.
       -4    1    3    3    0  502 -0.18614391055E+03 -0.17074356554E+04 -0.12319157154E+04  0.21136707443E+04  0.12699999809E+01 0. -1.
</event>
<event>
 5   0  0.4071750E-09  0.3798906E+04  0.7818609E-02  0.8046390E-01
       -1   -1    0    0    0  501  0.00000000000E+00  0.00000000000E+00  0.17360918907E+04  0.17360918907E+04  0.50400001928E-02 0. -1.
        1   -1    0    0  501    0  0.00000000000E+00  0.00000000000E+00 -0.20781862707E+04  0.20781862707E+04  0.50400001928E-02 0.  1.
    10030    2    1    2    0    0  0.00000000000E+00  0.00000000000E+00 -0.34209438001E+03  0.38142781614E+04  0.37989063331E+04 0.  0.
        4    1    3    3  502    0 -0.39051303881E+03 -0.71464178319E+03 -0.18940058218E+04  0.20616675236E+04  0.12699999809E+01 0.  1.
       -4    1    3    3    0  502  0.39051303881E+03  0.71464178319E+03  0.15519114418E+04  0.17526106378E+04  0.12699999809E+01 0. -1.
</event>
<event>
 5   0  0.4071750E-09  0.3804106E+04  0.7818609E-02  0.8045274E-01
        1   -1    0    0  501    0  0.00000000000E+00  0.00000000000E+00  0.27301358949E+04  0.27301358949E+04  0.50400001928E-02 0.  1.
       -1   -1    0    0    0  501  0.00000000000E+00  0.00000000000E+00 -0.13251376626E+04  0.13251376626E+04  0.50400001928E-02 0. -1.
    10030    2    1    2    0    0  0.00000000000E+00  0.00000000000E+00  0.14049982322E+04  0.40552735575E+04  0.38041061491E+04 0.  0.
        1    1    3    3  502    0  0.10776781537E+04  0.52734852056E+03 -0.87086156200E+03  0.14825270740E+04  0.50400001928E-02 0. -1.
       -1    1    3    3    0  502 -0.10776781537E+04 -0.52734852056E+03  0.22758597942E+04  0.25727464835E+04  0.50400001928E-02 0.  1.
</event>
<event>
 5   0  0.1264013E-08  0.3798800E+04  0.7818609E-02  0.8046412E-01
        2   -1    0    0  501    0  0.00000000000E+00  0.00000000000E+00  0.17842184476E+04  0.17842184476E+04  0.25500000920E-02 0. -1.
       -2   -1    0    0    0  501  0.00000000000E+00  0.00000000000E+00 -0.20220173299E+04  0.20220173299E+04  0.25500000920E-02 0.  1.
    10030    2    1    2    0    0  0.00000000000E+00  0.00000000000E+00 -0.23779888225E+03  0.38062357775E+04  0.37988001376E+04 0.  0.
        4    1    3    3  502    0 -0.12135259350E+03  0.16243335531E+04  0.86001498920E+03  0.18419591033E+04  0.12699999809E+01 0. -1.
       -4    1    3    3    0  502  0.12135259350E+03 -0.16243335531E+04 -0.10978138715E+04  0.19642766742E+04  0.12699999809E+01 0.  1.
</event>
<event>
 5   0  0.1293993E-08  0.3800971E+04  0.7818609E-02  0.8045947E-01
        2   -1    0    0  501    0  0.00000000000E+00  0.00000000000E+00  0.25063665604E+04  0.25063665604E+04  0.25500000920E-02 0.  1.
       -2   -1    0    0    0  501  0.00000000000E+00  0.00000000000E+00 -0.14410681670E+04  0.14410681670E+04  0.25500000920E-02 0. -1.
    10030    2    1    2    0    0  0.00000000000E+00  0.00000000000E+00  0.10652983933E+04  0.39474347274E+04  0.38009709628E+04 0.  0.
        5    1    3    3  502    0  0.16921911281E+04 -0.31493497458E+03  0.13693797315E+04  0.21995267199E+04  0.46999998093E+01 0.  1.
       -5    1    3    3    0  502 -0.16921911281E+04  0.31493497458E+03 -0.30408133819E+03  0.17479080075E+04  0.46999998093E+01 0. -1.
</event>
<event>
 5   0  0.4071750E-09  0.3799615E+04  0.7818609E-02  0.8046237E-01
       -1   -1    0    0    0  501  0.00000000000E+00  0.00000000000E+00  0.21512993144E+04  0.21512993144E+04  0.50400001928E-02 0. -1.
        1   -1    0    0  501    0  0.00000000000E+00  0.00000000000E+00 -0.16777158768E+04  0.16777158768E+04  0.50400001928E-02 0.  1.
    10030    2    1    2    0    0  0.00000000000E+00  0.00000000000E+00  0.47358343758E+03  0.38290151912E+04  0.37996152518E+04 0.  0.
        2    1    3    3  502    0  0.84719210134E+03  0.14455201945E+04  0.11392689542E+04  0.20261285347E+04  0.25500000920E-02 0. -1.
       -2    1    3    3    0  502 -0.84719210134E+03 -0.14455201945E+04 -0.66568551658E+03  0.18028866565E+04  0.25500000920E-02 0.  1.
</event>
<event>
 5   0  0.4071750E-09  0.3799069E+04  0.7818609E-02  0.8046355E-01
        1   -1    0    0  501    0  0.00000000000E+00  0.00000000000E+00  0.25543539740E+04  0.25543539740E+04  0.50400001928E-02 0.  1.
       -1   -1    0    0    0  501  0.00000000000E+00  0.00000000000E+00 -0.14125804519E+04  0.14125804520E+04  0.50400001928E-02 0. -1.
    10030    2    1    2    0    0  0.00000000000E+00  0.00000000000E+00  0.11417735220E+04  0.39669344259E+04  0.37990685653E+04 0.  0.
        3    1    3    3  502    0  0.10120902068E+04 -0.78533801856E+03 -0.89363698460E+03  0.15619441285E+04  0.10100000352E+00 0. -1.
       -3    1    3    3    0  502 -0.10120902068E+04  0.78533801856E+03  0.20354105066E+04  0.24049902974E+04  0.10100000352E+00 0.  1.
</event>
<event>
 5   0  0.1261152E-08  0.3799682E+04  0.7818609E-02  0.8046223E-01
       -2   -1    0    0    0  501  0.00000000000E+00  0.00000000000E+00  0.20277773442E+04  0.20277773442E+04  0.25500000920E-02 0.  1.
        2   -1    0    0  501    0  0.00000000000E+00  0.00000000000E+00 -0.17799764435E+04  0.17799764435E+04  0.25500000920E-02 0. -1.
    10030    2    1    2    0    0  0.00000000000E+00  0.00000000000E+00  0.24780090074E+03  0.38077537877E+04  0.37996820421E+04 0.  0.
        2    1    3    3  502    0 -0.24037853585E+03 -0.18834116076E+04  0.57617814914E+02  0.18995633542E+04  0.25500000920E-02 0. -1.
       -2    1    3    3    0  502  0.24037853585E+03  0.18834116076E+04  0.19018308583E+03  0.19081904334E+04  0.25500000920E-02 0.  1.
</event>
<event>
 5   0  0.1264013E-08  0.3799777E+04  0.7818609E-02  0.8046203E-01
       -2   -1    0    0    0  501  0.00000000000E+00  0.00000000000E+00  0.16797803230E+04  0.16797803230E+04  0.25500000920E-02 0.  1.
        2   -1    0    0  501    0  0.00000000000E+00  0.00000000000E+00 -0.21488379873E+04  0.21488379873E+04  0.25500000920E-02 0. -1.
    10030    2    1    2    0    0  0.00000000000E+00  0.00000000000E+00 -0.46905766432E+03  0.38286183102E+04  0.37997767136E+04 0.  0.
        4    1    3    3  502    0  0.10794675664E+04 -0.69913291034E+02  0.13391956995E+04  0.17215065581E+04  0.12699999809E+01 0.  1.
       -4    1    3    3    0  502 -0.10794675664E+04  0.69913291034E+02 -0.18082533639E+04  0.21071117521E+04  0.12699999809E+01 0. -1.
</event>
<event>
 5   0  0.4071750E-09  0.3799641E+04  0.7818609E-02  0.8046232E-01
        1   -1    0    0  501    0  0.00000000000E+00  0.00000000000E+00  0.13028586078E+04  0.13028586078E+04  0.50400001928E-02 0.  1.
       -1   -1    0    0    0  501  0.00000000000E+00  0.00000000000E+00 -0.27703061659E+04  0.27703061659E+04  0.50400001928E-02 0. -1.
    10030    2    1    2    0    0  0.00000000000E+00  0.00000000000E+00 -0.14674475580E+04  0.40731647737E+04  0.37996406328E+04 0.  0.
        1    1    3    3  502    0 -0.10583498057E+03  0.12399356104E+04 -0.22725667285E+04  0.25909845419E+04  0.50400001928E-02 0. -1.
       -1    1    3    3    0  502  0.10583498057E+03 -0.12399356104E+04  0.80511917045E+03  0.14821802318E+04  0.50400001928E-02 0.  1.
</event>
<event>
 5   0  0.4071750E-09  0.3796816E+04  0.7818609E-02  0.8046839E-01
        1   -1    0    0  501    0  0.00000000000E+00  0.00000000000E+00  0.15800301253E+04  0.15800301253E+04  0.50400001928E-02 0. -1.
       -1   -1    0    0    0  501  0.00000000000E+00  0.00000000000E+00 -0.22809393385E+04  0.22809393386E+04  0.50400001928E-02 0.  1.
    10030    2    1    2    0    0  0.00000000000E+00  0.00000000000E+00 -0.70090921321E+03  0.38609694639E+04  0.37968159655E+04 0.  0.
        1    1    3    3  502    0  0.46158915306E+03 -0.12753418992E+04  0.10002932322E+04  0.16852738817E+04  0.50400001928E-02 0. -1.
       -1    1    3    3    0  502 -0.46158915306E+03  0.12753418992E+04 -0.17012024454E+04  0.21756955822E+04  0.50400001928E-02 0.  1.
</event>
<event>
 5   0  0.1305088E-08  0.3793139E+04  0.7818609E-02  0.8047629E-01
        2   -1    0    0  501    0  0.00000000000E+00  0.00000000000E+00  0.15315734477E+04  0.15315734477E+04  0.25500000920E-02 0. -1.
       -2   -1    0    0    0  501  0.00000000000E+00  0.00000000000E+00 -0.23485495340E+04  0.23485495340E+04  0.25500000920E-02 0.  1.
    10030    2    1    2    0    0  0.00000000000E+00  0.00000000000E+00 -0.81697608625E+03  0.38801229817E+04  0.37931391258E+04 0.  0.
        3    1    3    3  502    0 -0.11883559470E+04  0.14663031509E+04 -0.59915253129E+03  0.19802066945E+04  0.10100000352E+00 0.  1.
       -3    1    3    3    0  502  0.11883559470E+04 -0.14663031509E+04 -0.21782355496E+03  0.18999162872E+04  0.10100000352E+00 0. -1.
</event>
<event>
 5   0  0.4071750E-09  0.3799705E+04  0.7818609E-02  0.8046218E-01
        1   -1    0    0  501    0  0.00000000000E+00  0.00000000000E+00  0.16319459619E+04  0.16319459619E+04  0.50400001928E-02 0. -1.
       -1   -1    0    0    0  501  0.00000000000E+00  0.00000000000E+00 -0.22117396671E+04  0.22117396671E+04  0.50400001928E-02 0.  1.
    10030    2    1    2    0    0  0.00000000000E+00  0.00000000000E+00 -0.57979370518E+03  0.38436856291E+04  0.37997050510E+04 0.  0.
        4    1    3    3  502    0 -0.47023357095E+03 -0.15094009269E+04 -0.13556700430E+04  0.20826074156E+04  0.12699999809E+01 0.  1.
       -4    1    3    3    0  502  0.47023357095E+03  0.15094009269E+04  0.77587633782E+03  0.17610782134E+04  0.12699999809E+01 0. -1.
</event>
<event>
 5   0  0.4071750E-09  0.3800101E+04  0.7818609E-02  0.8046133E-01
       -1   -1    0    0    0  501  0.00000000000E+00  0.00000000000E+00  0.16564687242E+04  0.16564687242E+04  0.50400001928E-02 0.  1.
        1   -1    0    0  501    0  0.00000000000E+00  0.00000000000E+00 -0.21794501647E+04  0.21794501647E+04  0.50400001928E-02 0. -1.
    10030    2    1    2    0    0  0.00000000000E+00  0.00000000000E+00 -0.52298144046E+03  0.38359188889E+04  0.38001005428E+04 0.  0.
        3    1    3    3  502    0 -0.18885257974E+04  0.13275611596E+03 -0.98609486701E+02  0.18957525458E+04  0.10100000352E+00 0.  1.
       -3    1    3    3    0  502  0.18885257974E+04 -0.13275611596E+03 -0.42437195376E+03  0.19401663432E+04  0.10100000352E+00 0. -1.
</event>
<event>
 5   0  0.4071750E-09  0.3804986E+04  0.7818609E-02  0.8045086E-01
       -1   -1    0    0    0  501  0.00000000000E+00  0.00000000000E+00  0.12070117865E+04  0.12070117865E+04  0.50400001928E-02 0.  1.
        1   -1    0    0  501    0  0.00000000000E+00  0.00000000000E+00 -0.29987103166E+04  0.29987103167E+04  0.50400001928E-02 0. -1.
    10030    2    1    2    0    0  0.00000000000E+00  0.00000000000E+00 -0.17916985302E+04  0.42057221031E+04  0.38049855172E+04 0.  0.
        1    1    3    3  502    0  0.12125682029E+04  0.11633725033E+04  0.90130727832E+02  0.16828192940E+04  0.50400001928E-02 0.  1.
       -1    1    3    3    0  502 -0.12125682029E+04 -0.11633725033E+04 -0.18818292580E+04  0.25229028091E+04  0.50400001928E-02 0. -1.
</event>
<event>
 5   0  0.4071750E-09  0.3801166E+04  0.7818609E-02  0.8045905E-01
       -1   -1    0    0    0  501  0.00000000000E+00  0.00000000000E+00  0.16705448854E+04  0.16705448854E+04  0.50400001928E-02 0.  1.
        1   -1    0    0  501    0  0.00000000000E+00  0.00000000000E+00 -0.21622984076E+04  0.21622984076E+04  0.50400001928E-02 0. -1.
    10030    2    1    2    0    0  0.00000000000E+00  0.00000000000E+00 -0.49175352221E+03  0.38328432930E+04  0.38011664239E+04 0.  0.
        3    1    3    3  502    0  0.18723097403E+04  0.30129523835E+03 -0.11875493788E+03  0.19001119256E+04  0.10100000352E+00 0. -1.
       -3    1    3    3    0  502 -0.18723097403E+04 -0.30129523835E+03 -0.37299858433E+03  0.19327313674E+04  0.10100000352E+00 0.  1.
</event>
<event>
 5   0  0.1293993E-08  0.3798789E+04  0.7818609E-02  0.8046415E-01
        2   -1    0    0  501    0  0.00000000000E+00  0.00000000000E+00  0.19015060849E+04  0.19015060849E+04  0.25500000920E-02 0. -1.
       -2   -1    0    0    0  501  0.00000000000E+00  0.00000000000E+00 -0.18972856414E+04  0.18972856414E+04  0.25500000920E-02 0.  1.
    10030    2    1    2    0    0  0.00000000000E+00  0.00000000000E+00  0.42204434263E+01  0.37987917263E+04  0.37987893819E+04 0.  0.
        5    1    3    3  502    0  0.40890747637E+03 -0.78988673928E+03 -0.16761493510E+04  0.18975313230E+04  0.46999998093E+01 0.  1.
       -5    1    3    3    0  502 -0.40890747637E+03  0.78988673928E+03  0.16803697944E+04  0.19012604033E+04  0.46999998093E+01 0. -1.
</event>
<event>
 5   0  0.4071750E-09  0.3800526E+04  0.7818609E-02  0.8046042E-01
       -1   -1    0    0    0  501  0.00000000000E+00  0.00000000000E+00  0.18412802172E+04  0.18412802172E+04  0.50400001928E-02 0.  1.
        1   -1    0    0  501    0  0.00000000000E+00  0.00000000000E+00 -0.19611355581E+04  0.19611355582E+04  0.50400001928E-02 0. -1.
    10030    2    1    2    0    0  0.00000000000E+00  0.00000000000E+00 -0.11985534098E+03  0.38024157753E+04  0.38005263353E+04 0.  0.
        4    1    3    3  502    0 -0.26945516467E+03 -0.16382879228E+04  0.86487222110E+03  0.18720574178E+04  0.12699999809E+01 0.  1.
       -4    1    3    3    0  502  0.26945516467E+03  0.16382879228E+04 -0.98472756209E+03  0.19303583575E+04  0.12699999809E+01 0. -1.
</event>
<event>
 5   0  0.4071750E-09  0.3801860E+04  0.7818609E-02  0.8045756E-01
       -1   -1    0    0    0  501  0.00000000000E+00  0.00000000000E+00  0.16367767192E+04  0.16367767192E+04  0.50400001928E-02 0.  1.
        1   -1    0    0  501    0  0.00000000000E+00  0.00000000000E+00 -0.22077144281E+04  0.22077144281E+04  0.50400001928E-02 0. -1.
    10030    2    1    2    0    0  0.00000000000E+00  0.00000000000E+00 -0.57093770892E+03  0.38444911474E+04  0.38018603755E+04 0.  0.
        1    1    3    3  502    0  0.80879497176E+03  0.76285524590E+03  0.12737149511E+04  0.16906942980E+04  0.50400001928E-02 0.  1.
       -1    1    3    3    0  502 -0.80879497176E+03 -0.76285524590E+03 -0.18446526600E+04  0.21537968494E+04  0.50400001928E-02 0. -1.
</event>
<event>
 5   0  0.4071750E-09  0.3799972E+04  0.7818609E-02  0.8046161E-01
       -1   -1    0    0    0  501  0.00000000000E+00  0.00000000000E+00  0.27985878948E+04  0.27985878948E+04  0.50400001928E-02 0.  1.
        1   -1    0    0  501    0  0.00000000000E+00  0.00000000000E+00 -0.12899174893E+04  0.12899174893E+04  0.50400001928E-02 0. -1.
    10030    2    1    2    0    0  0.00000000000E+00  0.00000000000E+00  0.15086704055E+04  0.40885053841E+04  0.37999723530E+04 0.  0.
        3    1    3    3  502    0 -0.57563082475E+03  0.96442068232E+03 -0.89450449766E+03  0.14358260359E+04  0.10100000352E+00 0. -1.
       -3    1    3    3    0  502  0.57563082475E+03 -0.96442068232E+03  0.24031749032E+04  0.26526793482E+04  0.10100000352E+00 0.  1.
</event>
<event>
 5   0  0.1293993E-08  0.3801480E+04  0.7818609E-02  0.8045837E-01
       -2   -1    0    0    0  501  0.00000000000E+00  0.00000000000E+00  0.24502053546E+04  0.24502053546E+04  0.25500000920E-02 0. -1.
        2   -1    0    0  501    0  0.00000000000E+00  0.00000000000E+00 -0.14744936125E+04  0.14744936125E+04  0.25500000920E-02 0.  1.
    10030    2    1    2    0    0  0.00000000000E+00  0.00000000000E+00  0.97571174213E+03  0.39246989671E+04  0.38014797880E+04 0.  0.
        5    1    3    3  502    0  0.11301048626E+04  0.12549934619E+04  0.13882746001E+04  0.21862008245E+04  0.46999998093E+01 0. -1.
       -5    1    3    3    0  502 -0.11301048626E+04 -0.12549934619E+04 -0.41256285796E+03  0.17384981426E+04  0.46999998093E+01 0.  1.
</event>
<event>
 5   0  0.1264013E-08  0.3800414E+04  0.7818609E-02  0.8046066E-01
        2   -1    0    0  501    0  0.00000000000E+00  0.00000000000E+00  0.17048493755E+04  0.17048493755E+04  0.25500000920E-02 0.  1.
       -2   -1    0    0    0  501  0.00000000000E+00  0.00000000000E+00 -0.21179507631E+04  0.21179507631E+04  0.25500000920E-02 0. -1.
    10030    2    1    2    0    0  0.00000000000E+00  0.00000000000E+00 -0.41310138755E+03  0.38228001386E+04  0.38004142068E+04 0.  0.
        4    1    3    3  502    0  0.14595009028E+04 -0.55059440280E+03  0.88496244559E+03  0.17934484171E+04  0.12699999809E+01 0.  1.
       -4    1    3    3    0  502 -0.14595009028E+04  0.55059440280E+03 -0.12980638331E+04  0.20293517215E+04  0.12699999809E+01 0. -1.
</event>
<event>
 5   0  0.4071750E-09  0.3799684E+04  0.7818609E-02  0.8046223E-01
       -1   -1    0    0    0  501  0.00000000000E+00  0.00000000000E+00  0.34799596678E+04  0.34799596678E+04  0.50400001928E-02 0. -1.
        1   -1    0    0  501    0  0.00000000000E+00  0.00000000000E+00 -0.10371959087E+04  0.10371959087E+04  0.50400001928E-02 0.  1.
    10030    2    1    2    0    0  0.00000000000E+00  0.00000000000E+00  0.24427637590E+04  0.45171555765E+04  0.37996841605E+04 0.  0.
        5    1    3    3  502    0 -0.14948790074E+04  0.25620751309E+03  0.25815712205E+04  0.29941338636E+04  0.46999998093E+01 0. -1.
       -5    1    3    3    0  502  0.14948790074E+04 -0.25620751309E+03 -0.13880746145E+03  0.15230217129E+04  0.46999998093E+01 0.  1.
</event>
<event>
 5   0  0.1264013E-08  0.3800531E+04  0.7818609E-02  0.8046041E-01
       -2   -1    0    0    0  501  0.00000000000E+00  0.00000000000E+00  0.26294039675E+04  0.26294039675E+04  0.25500000920E-02 0. -1.
        2   -1    0    0  501    0  0.00000000000E+00  0.00000000000E+00 -0.13733186535E+04  0.13733186535E+04  0.25500000920E-02 0.  1.
    10030    2    1    2    0    0  0.00000000000E+00  0.00000000000E+00  0.12560853139E+04  0.40027226210E+04  0.38005312871E+04 0.  0.
        4    1    3    3  502    0 -0.58120013799E+03  0.17346584584E+04  0.86719637714E+02  0.18314899607E+04  0.12699999809E+01 0.  1.
       -4    1    3    3    0  502  0.58120013799E+03 -0.17346584584E+04  0.11693656762E+04  0.21712326603E+04  0.12699999809E+01 0. -1.
</event>
<event>
 5   0  0.4071750E-09  0.3802284E+04  0.7818609E-02  0.8045665E-01
        1   -1    0    0  501    0  0.00000000000E+00  0.00000000000E+00  0.20332539418E+04  0.20332539418E+04  0.50400001928E-02 0. -1.
       -1   -1    0    0    0  501  0.00000000000E+00  0.00000000000E+00 -0.17776145569E+04  0.17776145569E+04  0.50400001928E-02 0.  1.
    10030    2    1    2    0    0  0.00000000000E+00  0.00000000000E+00  0.25563938490E+03  0.38108684987E+04  0.38022844737E+04 0.  0.
        5    1    3    3  502    0 -0.94389797941E+03 -0.66237861382E+03 -0.13870922145E+04  0.18038114439E+04  0.46999998093E+01 0.  1.
       -5    1    3    3    0  502  0.94389797941E+03  0.66237861382E+03  0.16427315994E+04  0.20070570548E+04  0.46999998093E+01 0. -1.
</event>
<event>
 5   0  0.1261152E-08  0.3799725E+04  0.7818609E-02  0.8046214E-01
        2   -1    0    0  501    0  0.00000000000E+00  0.00000000000E+00  0.10958363081E+04  0.10958363081E+04  0.25500000920E-02 0.  1.
       -2   -1    0    0    0  501  0.00000000000E+00  0.00000000000E+00 -0.32938109079E+04  0.32938109079E+04  0.25500000920E-02 0. -1.
    10030    2    1    2    0    0  0.00000000000E+00  0.00000000000E+00 -0.21979745998E+04  0.43896472160E+04  0.37997250347E+04 0.  0.
        2    1    3    3  502    0 -0.13136256960E+04 -0.18515335454E+03  0.47215095094E+03  0.14081266826E+04  0.25500000920E-02 0.  1.
       -2    1    3    3    0  502  0.13136256960E+04  0.18515335454E+03 -0.26701255508E+04  0.29815205333E+04  0.25500000920E-02 0. -1.
</event>
<event>
 5   0  0.1327249E-08  0.3799074E+04  0.7818609E-02  0.8046354E-01
       -2   -1    0    0    0  501  0.00000000000E+00  0.00000000000E+00  0.12040926942E+04  0.12040926942E+04  0.25500000920E-02 0.  1.
        2   -1    0    0  501    0  0.00000000000E+00  0.00000000000E+00 -0.29966468645E+04  0.29966468645E+04  0.25500000920E-02 0. -1.
    10030    2    1    2    0    0  0.00000000000E+00  0.00000000000E+00 -0.17925541703E+04  0.42007395587E+04  0.37990738854E+04 0.  0.
        1    1    3    3  502    0  0.15711811149E+04 -0.10379471206E+04 -0.11722580058E+04  0.22181373161E+04  0.50400001928E-02 0. -1.
       -1    1    3    3    0  502 -0.15711811149E+04  0.10379471206E+04 -0.62029616453E+03  0.19826022426E+04  0.50400001928E-02 0.  1.
</event>
<event>
 5   0  0.4071750E-09  0.3795027E+04  0.7818609E-02  0.8047223E-01
        1   -1    0    0  501    0  0.00000000000E+00  0.00000000000E+00  0.19146375361E+04  0.19146375361E+04  0.50400001928E-02 0.  1.
       -1   -1    0    0    0  501  0.00000000000E+00  0.00000000000E+00 -0.18805425615E+04  0.18805425615E+04  0.50400001928E-02 0. -1.
    10030    2    1    2    0    0  0.00000000000E+00  0.00000000000E+00  0.34094974585E+02  0.37951800976E+04  0.37950269440E+04 0.  0.
        4    1    3    3  502    0 -0.99893433138E+03 -0.81077124991E+03  0.14118567796E+04  0.19101206761E+04  0.12699999809E+01 0.  1.
       -4    1    3    3    0  502  0.99893433138E+03  0.81077124991E+03 -0.13777618051E+04  0.18850594215E+04  0.12699999809E+01 0. -1.
</event>
<event>
 5   0  0.1327249E-08  0.3792524E+04  0.7818609E-02  0.8047761E-01
       -2   -1    0    0    0  501  0.00000000000E+00  0.00000000000E+00  0.21796763633E+04  0.21796763633E+04  0.25500000920E-02 0.  1.
        2   -1    0    0  501    0  0.00000000000E+00  0.00000000000E+00 -0.16496984171E+04  0.16496984171E+04  0.25500000920E-02 0. -1.
    10030    2    1    2    0    0  0.00000000000E+00  0.00000000000E+00  0.52997794618E+03  0.38293747805E+04  0.37925235116E+04 0.  0.
        1    1    3    3  502    0  0.14370266348E+04 -0.83305601473E+03  0.11886347256E+04  0.20425181477E+04  0.50400001928E-02 0.  1.
       -1    1    3    3    0  502 -0.14370266348E+04  0.83305601473E+03 -0.65865677943E+03  0.17868566327E+04  0.50400001928E-02 0. -1.
</event>
<event>
 5   0  0.4071750E-09  0.3794827E+04  0.7818609E-02  0.8047266E-01
       -1   -1    0    0    0  501  0.00000000000E+00  0.00000000000E+00  0.25720128098E+04  0.25720128099E+04  0.50400001928E-02 0.  1.
        1   -1    0    0  501    0  0.00000000000E+00  0.00000000000E+00 -0.13997515193E+04  0.13997515193E+04  0.50400001928E-02 0. -1.
    10030    2    1    2    0    0  0.00000000000E+00  0.00000000000E+00  0.11722612905E+04  0.39717643292E+04  0.37948274471E+04 0.  0.
        2    1    3    3  502    0 -0.34591167188E+03  0.23244338130E+03  0.25235178519E+04  0.25576995835E+04  0.25500000920E-02 0.  1.
       -2    1    3    3    0  502  0.34591167188E+03 -0.23244338130E+03 -0.13512565614E+04  0.14140647457E+04  0.25500000920E-02 0. -1.
</event>
<event>
 5   0  0.1264013E-08  0.3801201E+04  0.7818609E-02  0.8045897E-01
       -2   -1    0    0    0  501  0.00000000000E+00  0.00000000000E+00  0.25959684371E+04  0.25959684371E+04  0.25500000920E-02 0.  1.
        2   -1    0    0  501    0  0.00000000000E+00  0.00000000000E+00 -0.13914971865E+04  0.13914971865E+04  0.25500000920E-02 0. -1.
    10030    2    1    2    0    0  0.00000000000E+00  0.00000000000E+00  0.12044712507E+04  0.39874656236E+04  0.38012012714E+04 0.  0.
        4    1    3    3  502    0  0.15087631976E+03 -0.13580284493E+04  0.19880599280E+04  0.24123409425E+04  0.12699999809E+01 0.  1.
       -4    1    3    3    0  502 -0.15087631976E+03  0.13580284493E+04 -0.78358867734E+03  0.15751246811E+04  0.12699999809E+01 0. -1.
</event>
<event>
 5   0  0.1305088E-08  0.3799457E+04  0.7818609E-02  0.8046271E-01
        2   -1    0    0  501    0  0.00000000000E+00  0.00000000000E+00  0.22636315727E+04  0.22636315727E+04  0.25500000920E-02 0.  1.
       -2   -1    0    0    0  501  0.00000000000E+00  0.00000000000E+00 -0.15943265918E+04  0.15943265918E+04  0.25500000920E-02 0. -1.
    10030    2    1    2    0    0  0.00000000000E+00  0.00000000000E+00  0.66930498090E+03  0.38579581646E+04  0.37994568088E+04 0.  0.
        3    1    3    3  502    0 -0.30408156720E+03 -0.77928936338E+03 -0.13972505486E+04  0.16285166923E+04  0.10100000352E+00 0. -1.
       -3    1    3    3    0  502  0.30408156720E+03  0.77928936338E+03  0.20665555295E+04  0.22294414722E+04  0.10100000352E+00 0.  1.
</event>
<event>
 5   0  0.4071750E-09  0.3798261E+04  0.7818609E-02  0.8046528E-01
       -1   -1    0    0    0  501  0.00000000000E+00  0.00000000000E+00  0.19024951982E+04  0.19024951982E+04  0.50400001928E-02 0. -1.
        1   -1    0    0  501    0  0.00000000000E+00  0.00000000000E+00 -0.18957715559E+04  0.18957715559E+04  0.50400001928E-02 0.  1.
    10030    2    1    2    0    0  0.00000000000E+00  0.00000000000E+00  0.67236423179E+01  0.37982667542E+04  0.37982608031E+04 0.  0.
        2    1    3    3  502    0 -0.91982650056E+03 -0.11110331802E+04  0.12387668341E+04  0.19013202749E+04  0.25500000920E-02 0. -1.
       -2    1    3    3    0  502  0.91982650056E+03  0.11110331802E+04 -0.12320431918E+04  0.18969464792E+04  0.25500000920E-02 0.  1.
</event>
<event>
 5   0  0.4071750E-09  0.3799819E+04  0.7818609E-02  0.8046194E-01
        1   -1    0    0  501    0  0.00000000000E+00  0.00000000000E+00  0.13740850905E+04  0.13740850905E+04  0.50400001928E-02 0.  1.
       -1   -1    0    0    0  501  0.00000000000E+00  0.00000000000E+00 -0.26269525565E+04  0.26269525565E+04  0.50400001928E-02 0. -1.
    10030    2    1    2    0    0  0.00000000000E+00  0.00000000000E+00 -0.12528674660E+04  0.40010376470E+04  0.37998191227E+04 0.  0.
        4    1    3    3  502    0  0.15460949615E+04  0.18249848434E+03 -0.17731103672E+04  0.23595841400E+04  0.12699999809E+01 0.  1.
       -4    1    3    3    0  502 -0.15460949615E+04 -0.18249848434E+03  0.52024290119E+03  0.16414535070E+04  0.12699999809E+01 0. -1.
</event>
<event>
 5   0  0.4071750E-09  0.3799123E+04  0.7818609E-02  0.8046343E-01
       -1   -1    0    0    0  501  0.00000000000E+00  0.00000000000E+00  0.19974158991E+04  0.19974158991E+04  0.50400001928E-02 0. -1.
        1   -1    0    0  501    0  0.00000000000E+00  0.00000000000E+00 -0.18065012939E+04  0.18065012939E+04  0.50400001928E-02 0.  1.
    10030    2    1    2    0    0  0.00000000000E+00  0.00000000000E+00  0.19091460521E+03  0.38039171930E+04  0.37991232705E+04 0.  0.
        3    1    3    3  502    0 -0.52868981108E+03  0.69859591602E+03  0.17830470148E+04  0.19866569501E+04  0.10100000352E+00 0. -1.
       -3    1    3    3    0  502  0.52868981108E+03 -0.69859591602E+03 -0.15921324096E+04  0.18172602428E+04  0.10100000352E+00 0.  1.
</event>
<event>
 5   0  0.4071750E-09  0.3799154E+04  0.7818609E-02  0.8046336E-01
       -1   -1    0    0    0  501  0.00000000000E+00  0.00000000000E+00  0.17174185861E+04  0.17174185861E+04  0.50400001928E-02 0. -1.
        1   -1    0    0  501    0  0.00000000000E+00  0.00000000000E+00 -0.21010561314E+04  0.21010561315E+04  0.50400001928E-02 0.  1.
    10030    2    1    2    0    0  0.00000000000E+00  0.00000000000E+00 -0.38363754535E+03  0.38184747176E+04  0.37991540377E+04 0.  0.
        3    1    3    3  502    0 -0.15212668504E+04 -0.88433541599E+03 -0.91106325464E+03  0.19814989836E+04  0.10100000352E+00 0. -1.
       -3    1    3    3    0  502  0.15212668504E+04  0.88433541599E+03  0.52742570929E+03  0.18369757339E+04  0.10100000352E+00 0.  1.
</event>
<event>
 5   0  0.1327249E-08  0.3800858E+04  0.7818609E-02  0.8045971E-01
       -2   -1    0    0    0  501  0.00000000000E+00  0.00000000000E+00  0.14364810814E+04  0.14364810814E+04  0.25500000920E-02 0.  1.
        2   -1    0    0  501    0  0.00000000000E+00  0.00000000000E+00 -0.25142200588E+04  0.25142200588E+04  0.25500000920E-02 0. -1.
    10030    2    1    2    0    0  0.00000000000E+00  0.00000000000E+00 -0.10777389774E+04  0.39507011402E+04  0.38008575606E+04 0.  0.
        1    1    3    3  502    0 -0.44615656331E+02  0.12216356929E+04  0.97357054485E+03  0.15627616353E+04  0.50400001928E-02 0.  1.
       -1    1    3    3    0  502  0.44615656331E+02 -0.12216356929E+04 -0.20513095222E+04  0.23879395049E+04  0.50400001928E-02 0. -1.
</event>
<event>
 5   0  0.1293993E-08  0.3800133E+04  0.7818609E-02  0.8046126E-01
       -2   -1    0    0    0  501  0.00000000000E+00  0.00000000000E+00  0.17768155477E+04  0.17768155477E+04  0.25500000920E-02 0.  1.
        2   -1    0    0  501    0  0.00000000000E+00  0.00000000000E+00 -0.20318674129E+04  0.20318674129E+04  0.25500000920E-02 0. -1.
    10030    2    1    2    0    0  0.00000000000E+00  0.00000000000E+00 -0.25505186520E+03  0.38086829606E+04  0.38001334766E+04 0.  0.
        5    1    3    3  502    0  0.91135224158E+03 -0.66326694630E+03  0.14055380785E+04  0.18016784759E+04  0.46999998093E+01 0.  1.
       -5    1    3    3    0  502 -0.91135224158E+03  0.66326694630E+03 -0.16605899437E+04  0.20070044847E+04  0.46999998093E+01 0. -1.
</event>
<event>
 5   0  0.1261152E-08  0.3798903E+04  0.7818609E-02  0.8046390E-01
        2   -1    0    0  501    0  0.00000000000E+00  0.00000000000E+00  0.21625286184E+04  0.21625286184E+04  0.25500000920E-02 0.  1.
       -2   -1    0    0    0  501  0.00000000000E+00  0.00000000000E+00 -0.16683788039E+04  0.16683788039E+04  0.25500000920E-02 0. -1.
    10030    2    1    2    0    0  0.00000000000E+00  0.00000000000E+00  0.49414981444E+03  0.38309074223E+04  0.37989034785E+04 0.  0.
        2    1    3    3  502    0 -0.11951160692E+04 -0.84723913924E+03 -0.97216010543E+03  0.17581842476E+04  0.25500000920E-02 0. -1.
       -2    1    3    3    0  502  0.11951160692E+04  0.84723913924E+03  0.14663099199E+04  0.20727231747E+04  0.25500000920E-02 0.  1.
</event>
<event>
 5   0  0.4071750E-09  0.3798558E+04  0.7818609E-02  0.8046464E-01
        1   -1    0    0  501    0  0.00000000000E+00  0.00000000000E+00  0.16729277966E+04  0.16729277966E+04  0.50400001928E-02 0. -1.
       -1   -1    0    0    0  501  0.00000000000E+00  0.00000000000E+00 -0.21562561255E+04  0.21562561255E+04  0.50400001928E-02 0.  1.
    10030    2    1    2    0    0  0.00000000000E+00  0.00000000000E+00 -0.48332832886E+03  0.38291839221E+04  0.37985580469E+04 0.  0.
        3    1    3    3  502    0  0.14150873392E+04 -0.10857186817E+04  0.41628763094E+03  0.18315437847E+04  0.10100000352E+00 0. -1.
       -3    1    3    3    0  502 -0.14150873392E+04  0.10857186817E+04 -0.89961595981E+03  0.19976401374E+04  0.10100000352E+00 0.  1.
</event>
<event>
 5   0  0.1261152E-08  0.3801500E+04  0.7818609E-02  0.8045833E-01
       -2   -1    0    0    0  501  0.00000000000E+00  0.00000000000E+00  0.15359306648E+04  0.15359306648E+04  0.25500000920E-02 0. -1.
        2   -1    0    0  501    0  0.00000000000E+00  0.00000000000E+00 -0.23522221290E+04  0.23522221290E+04  0.25500000920E-02 0.  1.
    10030    2    1    2    0    0  0.00000000000E+00  0.00000000000E+00 -0.81629146424E+03  0.38881527938E+04  0.38014997558E+04 0.  0.
        2    1    3    3  502    0 -0.16687539012E+04  0.76617106726E+03  0.94058220487E+02  0.18386420630E+04  0.25500000920E-02 0. -1.
       -2    1    3    3    0  502  0.16687539012E+04 -0.76617106726E+03 -0.91034968472E+03  0.20495107308E+04  0.25500000920E-02 0.  1.
</event>
<event>
 5   0  0.4071750E-09  0.3801672E+04  0.7818609E-02  0.8045796E-01
       -1   -1    0    0    0  501  0.00000000000E+00  0.00000000000E+00  0.18636127674E+04  0.18636127674E+04  0.50400001928E-02 0.  1.
        1   -1    0    0  501    0  0.00000000000E+00  0.00000000000E+00 -0.19388028873E+04  0.19388028873E+04  0.50400001928E-02 0. -1.
    10030    2    1    2    0    0  0.00000000000E+00  0.00000000000E+00 -0.75190119879E+02  0.38024156547E+04  0.38016721659E+04 0.  0.
        1    1    3    3  502    0 -0.53359445997E+03 -0.17862031210E+04  0.33387113386E+03  0.18938623422E+04  0.50400001928E-02 0.  1.
       -1    1    3    3    0  502  0.53359445997E+03  0.17862031210E+04 -0.40906125374E+03  0.19085533125E+04  0.50400001928E-02 0. -1.
</event>
<event>
 5   0  0.4071750E-09  0.3803674E+04  0.7818609E-02  0.8045367E-01
       -3   -1    0    0    0  501  0.00000000000E+00  0.00000000000E+00  0.15547582742E+04  0.15547582775E+04  0.10100000352E+00 0. -1.
        3   -1    0    0  501    0  0.00000000000E+00  0.00000000000E+00 -0.23263968538E+04  0.23263968560E+04  0.10100000352E+00 0.  1.
    10030    2    1    2    0    0  0.00000000000E+00  0.00000000000E+00 -0.77163857958E+03  0.38811551335E+04  0.38036744173E+04 0.  0.
        2    1    3    3  502    0  0.66836347268E+02  0.14533039895E+04 -0.16356892762E+04  0.21890726327E+04  0.25500000920E-02 0.  1.
       -2    1    3    3    0  502 -0.66836347268E+02 -0.14533039895E+04  0.86405069658E+03  0.16920825008E+04  0.25500000920E-02 0. -1.
</event>
<event>
 5   0  0.1264013E-08  0.3801319E+04  0.7818609E-02  0.8045872E-01
        2   -1    0    0  501    0  0.00000000000E+00  0.00000000000E+00  0.22373241285E+04  0.22373241285E+04  0.25500000920E-02 0.  1.
       -2   -1    0    0    0  501  0.00000000000E+00  0.00000000000E+00 -0.16146547875E+04  0.16146547875E+04  0.25500000920E-02 0. -1.
    10030    2    1    2    0    0  0.00000000000E+00  0.00000000000E+00  0.62266934104E+03  0.38519789160E+04  0.38013187792E+04 0.  0.
        4    1    3    3  502    0 -0.30090583447E+03 -0.17140631138E+04 -0.46301413376E+03  0.18008165870E+04  0.12699999809E+01 0. -1.
       -4    1    3    3    0  502  0.30090583447E+03  0.17140631138E+04  0.10856834748E+04  0.20511623289E+04  0.12699999809E+01 0.  1.
</event>
<event>
 5   0  0.4071750E-09  0.3799834E+04  0.7818609E-02  0.8046191E-01
       -1   -1    0    0    0  501  0.00000000000E+00  0.00000000000E+00  0.24347238651E+04  0.24347238651E+04  0.50400001928E-02 0.  1.
        1   -1    0    0  501    0  0.00000000000E+00  0.00000000000E+00 -0.14825844660E+04  0.14825844660E+04  0.50400001928E-02 0. -1.
    10030    2    1    2    0    0  0.00000000000E+00  0.00000000000E+00  0.95213939909E+03  0.39173083311E+04  0.37998335655E+04 0.  0.
        3    1    3    3  502    0  0.76273683740E+03  0.48363208571E+02  0.22692638239E+04  0.23945072135E+04  0.10100000352E+00 0.  1.
       -3    1    3    3    0  502 -0.76273683740E+03 -0.48363208571E+02 -0.13171244248E+04  0.15228011176E+04  0.10100000352E+00 0. -1.
</event>
<event>
 5   0  0.4071750E-09  0.3803349E+04  0.7818609E-02  0.8045437E-01
       -1   -1    0    0    0  501  0.00000000000E+00  0.00000000000E+00  0.13911175092E+04  0.13911175092E+04  0.50400001928E-02 0. -1.
        1   -1    0    0  501    0  0.00000000000E+00  0.00000000000E+00 -0.25996119482E+04  0.25996119482E+04  0.50400001928E-02 0.  1.
    10030    2    1    2    0    0  0.00000000000E+00  0.00000000000E+00 -0.12084944390E+04  0.39907294575E+04  0.38033488919E+04 0.  0.
        1    1    3    3  502    0 -0.15946609608E+04 -0.29342337440E+02  0.48242146208E+03  0.16662937975E+04  0.50400001928E-02 0. -1.
       -1    1    3    3    0  502  0.15946609608E+04  0.29342337440E+02 -0.16909159011E+04  0.23244356599E+04  0.50400001928E-02 0.  1.
</event>
<event>
 5   0  0.4071750E-09  0.3800758E+04  0.7818609E-02  0.8045992E-01
       -1   -1    0    0    0  501  0.00000000000E+00  0.00000000000E+00  0.21350790456E+04  0.21350790456E+04  0.50400001928E-02 0. -1.
        1   -1    0    0  501    0  0.00000000000E+00  0.00000000000E+00 -0.16914780862E+04  0.16914780862E+04  0.50400001928E-02 0.  1.
    10030    2    1    2    0    0  0.00000000000E+00  0.00000000000E+00  0.44360095938E+03  0.38265571319E+04  0.38007575129E+04 0.  0.
        2    1    3    3  502    0 -0.36798059188E+03 -0.24521156916E+03  0.20825618275E+04  0.21289908866E+04  0.25500000920E-02 0. -1.
       -2    1    3    3    0  502  0.36798059188E+03  0.24521156916E+03 -0.16389608682E+04  0.16975662453E+04  0.25500000920E-02 0.  1.
</event>
<event>
 5   0  0.4071750E-09  0.3799287E+04  0.7818609E-02  0.8046308E-01
       -1   -1    0    0    0  501  0.00000000000E+00  0.00000000000E+00  0.11126388459E+04  0.11126388459E+04  0.50400001928E-02 0. -1.
        1   -1    0    0  501    0  0.00000000000E+00  0.00000000000E+00 -0.32433220605E+04  0.32433220605E+04  0.50400001928E-02 0.  1.
    10030    2    1    2    0    0  0.00000000000E+00  0.00000000000E+00 -0.21306832146E+04  0.43559609065E+04  0.37992873618E+04 0.  0.
        4    1    3    3  502    0  0.10237885638E+04 -0.11667740949E+04 -0.23208416138E+04  0.27920981754E+04  0.12699999809E+01 0.  1.
       -4    1    3    3    0  502 -0.10237885638E+04  0.11667740949E+04  0.19015839915E+03  0.15638627311E+04  0.12699999809E+01 0. -1.
</event>
<event>
 5   0  0.4071750E-09  0.3798732E+04  0.7818609E-02  0.8046427E-01
       -3   -1    0    0    0  501  0.00000000000E+00  0.00000000000E+00  0.14294869268E+04  0.14294869304E+04  0.10100000352E+00 0.  1.
        3   -1    0    0  501    0  0.00000000000E+00  0.00000000000E+00 -0.25236959316E+04  0.25236959336E+04  0.10100000352E+00 0. -1.
    10030    2    1    2    0    0  0.00000000000E+00  0.00000000000E+00 -0.10942090048E+04  0.39531828640E+04  0.37987315528E+04 0.  0.
        5    1    3    3  502    0  0.16941316126E+04 -0.38150823207E+03 -0.13477612001E+04  0.21982067224E+04  0.46999998093E+01 0. -1.
       -5    1    3    3    0  502 -0.16941316126E+04  0.38150823207E+03  0.25355219530E+03  0.17549761416E+04  0.46999998093E+01 0.  1.
</event>
<event>
 5   0  0.1327249E-08  0.3799306E+04  0.7818609E-02  0.8046304E-01
        2   -1    0    0  501    0  0.00000000000E+00  0.00000000000E+00  0.20345211416E+04  0.20345211416E+04  0.25500000920E-02 0.  1.
       -2   -1    0    0    0  501  0.00000000000E+00  0.00000000000E+00 -0.17737256640E+04  0.17737256640E+04  0.25500000920E-02 0. -1.
    10030    2    1    2    0    0  0.00000000000E+00  0.00000000000E+00  0.26079547767E+03  0.38082468056E+04  0.37993064434E+04 0.  0.
        1    1    3    3  502    0  0.28689203153E+03 -0.98097438377E+03  0.17354354553E+04  0.20140392248E+04  0.50400001928E-02 0.  1.
       -1    1    3    3    0  502 -0.28689203153E+03  0.98097438377E+03 -0.14746399776E+04  0.17942075808E+04  0.50400001928E-02 0. -1.
</event>
<event>
 5   0  0.4071750E-09  0.3800913E+04  0.7818609E-02  0.8045959E-01
       -1   -1    0    0    0  501  0.00000000000E+00  0.00000000000E+00  0.25730102893E+04  0.25730102893E+04  0.50400001928E-02 0. -1.
        1   -1    0    0  501    0  0.00000000000E+00  0.00000000000E+00 -0.14036998075E+04  0.14036998075E+04  0.50400001928E-02 0.  1.
    10030    2    1    2    0    0  0.00000000000E+00  0.00000000000E+00  0.11693104818E+04  0.39767100968E+04  0.38009125472E+04 0.  0.
        2    1    3    3  502    0 -0.28295376049E+03  0.54751890570E+03 -0.12962400824E+04  0.14352972284E+04  0.25500000920E-02 0.  1.
       -2    1    3    3    0  502  0.28295376049E+03 -0.54751890570E+03  0.24655505642E+04  0.25414128684E+04  0.25500000920E-02 0. -1.
</event>
<event>
 5   0  0.1305088E-08  0.3796716E+04  0.7818609E-02  0.8046860E-01
       -2   -1    0    0    0  501  0.00000000000E+00  0.00000000000E+00  0.15617878537E+04  0.15617878537E+04  0.25500000920E-02 0. -1.
        2   -1    0    0  501    0  0.00000000000E+00  0.00000000000E+00 -0.23074605228E+04  0.23074605228E+04  0.25500000920E-02 0.  1.
    10030    2    1    2    0    0  0.00000000000E+00  0.00000000000E+00 -0.74567266909E+03  0.38692483766E+04  0.37967163800E+04 0.  0.
        3    1    3    3  502    0  0.72070602923E+03 -0.27657565983E+03  0.13946119818E+04  0.15940056042E+04  0.10100000352E+00 0. -1.
       -3    1    3    3    0  502 -0.72070602923E+03  0.27657565983E+03 -0.21402846509E+04  0.22752427724E+04  0.10100000352E+00 0.  1.
</event>
<event>
 5   0  0.4071750E-09  0.3798949E+04  0.7818609E-02  0.8046381E-01
        1   -1    0    0  501    0  0.00000000000E+00  0.00000000000E+00  0.19183728817E+04  0.19183728817E+04  0.50400001928E-02 0. -1.
       -1   -1    0    0    0  501  0.00000000000E+00  0.00000000000E+00 -0.18807618508E+04  0.18807618508E+04  0.50400001928E-02 0.  1.
    10030    2    1    2    0    0  0.00000000000E+00  0.00000000000E+00  0.37611030864E+02  0.37991347325E+04  0.37989485553E+04 0.  0.
        4    1    3    3  502    0 -0.61079294370E+03 -0.10350248914E+04 -0.14522038145E+04  0.18850045299E+04  0.12699999809E+01 0.  1.
       -4    1    3    3    0  502  0.61079294370E+03  0.10350248914E+04  0.14898148454E+04  0.19141302026E+04  0.12699999809E+01 0. -1.
</event>
<event>
 5   0  0.1327249E-08  0.3801910E+04  0.7818609E-02  0.8045745E-01
        2   -1    0    0  501    0  0.00000000000E+00  0.00000000000E+00  0.18301520973E+04  0.18301520973E+04  0.25500000920E-02 0. -1.
       -2   -1    0    0    0  501  0.00000000000E+00  0.00000000000E+00 -0.19744973187E+04  0.19744973187E+04  0.25500000920E-02 0.  1.
    10030    2    1    2    0    0  0.00000000000E+00  0.00000000000E+00 -0.14434522135E+03  0.38046494160E+04  0.38019102614E+04 0.  0.
        1    1    3    3  502    0 -0.68124904250E+03  0.11641631394E+04  0.12682902470E+04  0.18514686667E+04  0.50400001928E-02 0. -1.
       -1    1    3    3    0  502  0.68124904250E+03 -0.11641631394E+04 -0.14126354683E+04  0.19531807493E+04  0.50400001928E-02 0.  1.
</event>
<event>
 5   0  0.4071750E-09  0.3799757E+04  0.7818609E-02  0.8046207E-01
        1   -1    0    0  501    0  0.00000000000E+00  0.00000000000E+00  0.24456211597E+04  0.24456211597E+04  0.50400001928E-02 0.  1.
       -1   -1    0    0    0  501  0.00000000000E+00  0.00000000000E+00 -0.14759191697E+04  0.14759191697E+04  0.50400001928E-02 0. -1.
    10030    2    1    2    0    0  0.00000000000E+00  0.00000000000E+00  0.96970199001E+03  0.39215403294E+04  0.37997574404E+04 0.  0.
        3    1    3    3  502    0 -0.42505772149E+03  0.88133746735E+02 -0.14240505898E+04  0.14887450139E+04  0.10100000352E+00 0. -1.
       -3    1    3    3    0  502  0.42505772149E+03 -0.88133746735E+02  0.23937525798E+04  0.24327953156E+04  0.10100000352E+00 0.  1.
</event>
<event>
 5   0  0.1264013E-08  0.3800176E+04  0.7818609E-02  0.8046117E-01
       -2   -1    0    0    0  501  0.00000000000E+00  0.00000000000E+00  0.14301990260E+04  0.14301990260E+04  0.25500000920E-02 0. -1.
        2   -1    0    0  501    0  0.00000000000E+00  0.00000000000E+00 -0.25243575840E+04  0.25243575840E+04  0.25500000920E-02 0.  1.
    10030    2    1    2    0    0  0.00000000000E+00  0.00000000000E+00 -0.10941585580E+04  0.39545566101E+04  0.38001756581E+04 0.  0.
        4    1    3    3  502    0 -0.89807755090E+03 -0.15251727038E+04  0.17210989784E+03  0.17782908912E+04  0.12699999809E+01 0. -1.
       -4    1    3    3    0  502  0.89807755090E+03  0.15251727038E+04 -0.12662684558E+04  0.21762657188E+04  0.12699999809E+01 0.  1.
</event>
<event>
 5   0  0.1261152E-08  0.3807033E+04  0.7818609E-02  0.8044647E-01
       -2   -1    0    0    0  501  0.00000000000E+00  0.00000000000E+00  0.25672615749E+04  0.25672615749E+04  0.25500000920E-02 0.  1.
        2   -1    0    0  501    0  0.00000000000E+00  0.00000000000E+00 -0.14113771089E+04  0.14113771089E+04  0.25500000920E-02 0. -1.
    10030    2    1    2    0    0  0.00000000000E+00  0.00000000000E+00  0.11558844660E+04  0.39786386838E+04  0.38070325554E+04 0.  0.
        2    1    3    3  502    0  0.26687378568E+03 -0.18800558826E+04  0.43952396554E+03  0.19491057066E+04  0.25500000920E-02 0. -1.
       -2    1    3    3    0  502 -0.26687378568E+03  0.18800558826E+04  0.71636050042E+03  0.20295329772E+04  0.25500000920E-02 0.  1.
</event>
<event>
 5   0  0.1293993E-08  0.3800097E+04  0.7818609E-02  0.8046134E-01
        2   -1    0    0  501    0  0.00000000000E+00  0.00000000000E+00  0.21903473774E+04  0.21903473774E+04  0.25500000920E-02 0. -1.
       -2   -1    0    0    0  501  0.00000000000E+00  0.00000000000E+00 -0.16482244449E+04  0.16482244449E+04  0.25500000920E-02 0.  1.
    10030    2    1    2    0    0  0.00000000000E+00  0.00000000000E+00  0.54212293256E+03  0.38385718223E+04  0.38000968884E+04 0.  0.
        5    1    3    3  502    0  0.15026785882E+03 -0.13009636805E+04  0.16616165939E+04  0.21156745314E+04  0.46999998093E+01 0. -1.
       -5    1    3    3    0  502 -0.15026785882E+03  0.13009636805E+04 -0.11194936614E+04  0.17228972910E+04  0.46999998093E+01 0.  1.
</event>
<event>
 5   0  0.1261152E-08  0.3799078E+04  0.7818609E-02  0.8046353E-01
       -2   -1    0    0    0  501  0.00000000000E+00  0.00000000000E+00  0.24044432722E+04  0.24044432722E+04  0.25500000920E-02 0. -1.
        2   -1    0    0  501    0  0.00000000000E+00  0.00000000000E+00 -0.15006586834E+04  0.15006586834E+04  0.25500000920E-02 0.  1.
    10030    2    1    2    0    0  0.00000000000E+00  0.00000000000E+00  0.90378458876E+03  0.39051019556E+04  0.37990781383E+04 0.  0.
        2    1    3    3  502    0 -0.28608914513E+03  0.14329732405E+04  0.16994307941E+04  0.22412773882E+04  0.25500000920E-02 0. -1.
       -2    1    3    3    0  502  0.28608914513E+03 -0.14329732405E+04 -0.79564620534E+03  0.16638245674E+04  0.25500000920E-02 0.  1.
</event>
<event>
 5   0  0.1305088E-08  0.3798969E+04  0.7818609E-02  0.8046376E-01
        2   -1    0    0  501    0  0.00000000000E+00  0.00000000000E+00  0.18612692248E+04  0.18612692248E+04  0.25500000920E-02 0.  1.
       -2   -1    0    0    0  501  0.00000000000E+00  0.00000000000E+00 -0.19384839788E+04  0.19384839788E+04  0.25500000920E-02 0. -1.
    10030    2    1    2    0    0  0.00000000000E+00  0.00000000000E+00 -0.77214754071E+02  0.37997532036E+04  0.37989685824E+04 0.  0.
        3    1    3    3  502    0 -0.76312805219E+03 -0.94029158703E+03 -0.15023056258E+04  0.19296204021E+04  0.10100000352E+00 0. -1.
       -3    1    3    3    0  502  0.76312805219E+03  0.94029158703E+03  0.14250908717E+04  0.18701328016E+04  0.10100000352E+00 0.  1.
</event>
<event>
 5   0  0.1305088E-08  0.3800404E+04  0.7818609E-02  0.8046068E-01
        2   -1    0    0  501    0  0.00000000000E+00  0.00000000000E+00  0.29812140856E+04  0.29812140856E+04  0.25500000920E-02 0. -1.
       -2   -1    0    0    0  501  0.00000000000E+00  0.00000000000E+00 -0.12111734777E+04  0.12111734777E+04  0.25500000920E-02 0.  1.
    10030    2    1    2    0    0  0.00000000000E+00  0.00000000000E+00  0.17700406079E+04  0.41923875633E+04  0.38004038900E+04 0.  0.
        3    1    3    3  502    0 -0.13039578987E+04  0.74991739707E+03  0.21658468709E+04  0.26369632122E+04  0.10100000352E+00 0. -1.
       -3    1    3    3    0  502  0.13039578987E+04 -0.74991739707E+03 -0.39580626299E+03  0.15554243511E+04  0.10100000352E+00 0.  1.
</event>
<event>
 5   0  0.1261152E-08  0.3803080E+04  0.7818609E-02  0.8045494E-01
       -2   -1    0    0    0  501  0.00000000000E+00  0.00000000000E+00  0.11910209311E+04  0.11910209311E+04  0.25500000920E-02 0.  1.
        2   -1    0    0  501    0  0.00000000000E+00  0.00000000000E+00 -0.30359288116E+04  0.30359288116E+04  0.25500000920E-02 0. -1.
    10030    2    1    2    0    0  0.00000000000E+00  0.00000000000E+00 -0.18449078805E+04  0.42269497427E+04  0.38030802043E+04 0.  0.
        2    1    3    3  502    0 -0.15200405099E+03  0.43706243601E+03 -0.29723944680E+04  0.30081984106E+04  0.25500000920E-02 0. -1.
       -2    1    3    3    0  502  0.15200405099E+03 -0.43706243601E+03  0.11274865875E+04  0.12187513321E+04  0.25500000920E-02 0.  1.
</event>
<event>
 5   0  0.1293993E-08  0.3800156E+04  0.7818609E-02  0.8046121E-01
        2   -1    0    0  501    0  0.00000000000E+00  0.00000000000E+00  0.25237377353E+04  0.25237377353E+04  0.25500000920E-02 0.  1.
       -2   -1    0    0    0  501  0.00000000000E+00  0.00000000000E+00 -0.14305351768E+04  0.14305351768E+04  0.25500000920E-02 0. -1.
    10030    2    1    2    0    0  0.00000000000E+00  0.00000000000E+00  0.10932025585E+04  0.39542729121E+04  0.38001555796E+04 0.  0.
        5    1    3    3  502    0 -0.10117032680E+04  0.22082871004E+03 -0.11111067875E+04  0.15188446941E+04  0.46999998093E+01 0. -1.
       -5    1    3    3    0  502  0.10117032680E+04 -0.22082871004E+03  0.22043093460E+04  0.24354282179E+04  0.46999998093E+01 0.  1.
</event>
<event>
 5   0  0.1305088E-08  0.3799877E+04  0.7818609E-02  0.8046181E-01
       -2   -1    0    0    0  501  0.00000000000E+00  0.00000000000E+00  0.12441163409E+04  0.12441163409E+04  0.25500000920E-02 0. -1.
        2   -1    0    0  501    0  0.00000000000E+00  0.00000000000E+00 -0.29014692990E+04  0.29014692990E+04  0.25500000920E-02 0.  1.
    10030    2    1    2    0    0  0.00000000000E+00  0.00000000000E+00 -0.16573529581E+04  0.41455856399E+04  0.37998765072E+04 0.  0.
        3    1    3    3  502    0 -0.14821137921E+03 -0.11806668672E+04 -0.24445871506E+04  0.27188135669E+04  0.10100000352E+00 0.  1.
       -3    1    3    3    0  502  0.14821137921E+03  0.11806668672E+04  0.78723419255E+03  0.14267720730E+04  0.10100000352E+00 0. -1.
</event>
<event>
 5   0  0.4071750E-09  0.3800763E+04  0.7818609E-02  0.8045991E-01
        1   -1    0    0  501    0  0.00000000000E+00  0.00000000000E+00  0.13765860257E+04  0.13765860257E+04  0.50400001928E-02 0. -1.
       -1   -1    0    0    0  501  0.00000000000E+00  0.00000000000E+00 -0.26234825741E+04  0.26234825741E+04  0.50400001928E-02 0.  1.
    10030    2    1    2    0    0  0.00000000000E+00  0.00000000000E+00 -0.12468965484E+04  0.40000685998E+04  0.38007627919E+04 0.  0.
        1    1    3    3  502    0  0.16060693187E+04 -0.98644032421E+03 -0.87892490972E+03  0.20796711679E+04  0.50400001928E-02 0.  1.
       -1    1    3    3    0  502 -0.16060693187E+04  0.98644032421E+03 -0.36797163864E+03  0.19203974319E+04  0.50400001928E-02 0. -1.
</event>
<event>
 5   0  0.1327249E-08  0.3799124E+04  0.7818609E-02  0.8046343E-01
        2   -1    0    0  501    0  0.00000000000E+00  0.00000000000E+00  0.24655168848E+04  0.24655168848E+04  0.25500000920E-02 0. -1.
       -2   -1    0    0    0  501  0.00000000000E+00  0.00000000000E+00 -0.14635207466E+04  0.14635207466E+04  0.25500000920E-02 0.  1.
    10030    2    1    2    0    0  0.00000000000E+00  0.00000000000E+00  0.10019961382E+04  0.39290376313E+04  0.37991236420E+04 0.  0.
        1    1    3    3  502    0 -0.14200079738E+04  0.10887714040E+04  0.11603652356E+04  0.21326728056E+04  0.50400001928E-02 0. -1.
       -1    1    3    3    0  502  0.14200079738E+04 -0.10887714040E+04 -0.15836909740E+03  0.17963648257E+04  0.50400001928E-02 0.  1.
</event>
<event>
 5   0  0.1261152E-08  0.3801499E+04  0.7818609E-02  0.8045833E-01
       -2   -1    0    0    0  501  0.00000000000E+00  0.00000000000E+00  0.21485554379E+04  0.21485554379E+04  0.25500000920E-02 0.  1.
        2   -1    0    0  501    0  0.00000000000E+00  0.00000000000E+00 -0.16815242579E+04  0.16815242579E+04  0.25500000920E-02 0. -1.
    10030    2    1    2    0    0  0.00000000000E+00  0.00000000000E+00  0.46703118003E+03  0.38300796958E+04  0.38014986983E+04 0.  0.
        2    1    3    3  502    0 -0.17358043890E+02  0.18682371561E+04 -0.11873667932E+03  0.18720870098E+04  0.25500000920E-02 0. -1.
       -2    1    3    3    0  502  0.17358043890E+02 -0.18682371561E+04  0.58576785934E+03  0.19579926860E+04  0.25500000920E-02 0.  1.
</event>
<event>
 5   0  0.4071750E-09  0.3800921E+04  0.7818609E-02  0.8045957E-01
        1   -1    0    0  501    0  0.00000000000E+00  0.00000000000E+00  0.19140792915E+04  0.19140792915E+04  0.50400001928E-02 0. -1.
       -1   -1    0    0    0  501  0.00000000000E+00  0.00000000000E+00 -0.18869389937E+04  0.18869389937E+04  0.50400001928E-02 0.  1.
    10030    2    1    2    0    0  0.00000000000E+00  0.00000000000E+00  0.27140297825E+02  0.38010182852E+04  0.38009213894E+04 0.  0.
        2    1    3    3  502    0  0.86171641734E+02 -0.50434048048E+03 -0.18167677384E+04  0.18874400354E+04  0.25500000920E-02 0.  1.
       -2    1    3    3    0  502 -0.86171641734E+02  0.50434048048E+03  0.18439080362E+04  0.19135782498E+04  0.25500000920E-02 0. -1.
</event>
<event>
 5   0  0.1293993E-08  0.3775180E+04  0.7818609E-02  0.8051502E-01
       -2   -1    0    0    0  501  0.00000000000E+00  0.00000000000E+00  0.21309403164E+04  0.21309403164E+04  0.25500000920E-02 0.  1.
        2   -1    0    0  501    0  0.00000000000E+00  0.00000000000E+00 -0.16720296795E+04  0.16720296795E+04  0.25500000920E-02 0. -1.
    10030    2    1    2    0    0  0.00000000000E+00  0.00000000000E+00  0.45891063693E+03  0.38029699959E+04  0.37751797065E+04 0.  0.
        5    1    3    3  502    0  0.24105186023E+03  0.49543984231E+03  0.20481280198E+04  0.21209472205E+04  0.46999998093E+01 0.  1.
       -5    1    3    3    0  502 -0.24105186023E+03 -0.49543984231E+03 -0.15892173829E+04  0.16820227753E+04  0.46999998093E+01 0. -1.
</event>
<event>
 5   0  0.4071750E-09  0.3784738E+04  0.7818609E-02  0.8049438E-01
       -1   -1    0    0    0  501  0.00000000000E+00  0.00000000000E+00  0.13858476631E+04  0.13858476631E+04  0.50400001928E-02 0.  1.
        1   -1    0    0  501    0  0.00000000000E+00  0.00000000000E+00 -0.25840217117E+04  0.25840217117E+04  0.50400001928E-02 0. -1.
    10030    2    1    2    0    0  0.00000000000E+00  0.00000000000E+00 -0.11981740486E+04  0.39698693749E+04  0.37847380098E+04 0.  0.
        3    1    3    3  502    0  0.15517680670E+04 -0.10821763581E+04 -0.55252373131E+03  0.19708810942E+04  0.10100000352E+00 0. -1.
       -3    1    3    3    0  502 -0.15517680670E+04  0.10821763581E+04 -0.64565031727E+03  0.19989882806E+04  0.10100000352E+00 0.  1.
</event>
<event>
 5   0  0.4071750E-09  0.3799323E+04  0.7818609E-02  0.8046300E-01
       -1   -1    0    0    0  501  0.00000000000E+00  0.00000000000E+00  0.12796654246E+04  0.12796654246E+04  0.50400001928E-02 0.  1.
        1   -1    0    0  501    0  0.00000000000E+00  0.00000000000E+00 -0.28200451895E+04  0.28200451895E+04  0.50400001928E-02 0. -1.
    10030    2    1    2    0    0  0.00000000000E+00  0.00000000000E+00 -0.15403797649E+04  0.40997106142E+04  0.37993232687E+04 0.  0.
        3    1    3    3  502    0 -0.95716479795E+03 -0.60584956726E+03  0.87533619362E+03  0.14315836024E+04  0.10100000352E+00 0.  1.
       -3    1    3    3    0  502  0.95716479795E+03  0.60584956726E+03 -0.24157159585E+04  0.26681270118E+04  0.10100000352E+00 0. -1.
</event>
<event>
 5   0  0.4071750E-09  0.3800137E+04  0.7818609E-02  0.8046126E-01
        1   -1    0    0  501    0  0.00000000000E+00  0.00000000000E+00  0.27775251254E+04  0.27775251254E+04  0.50400001928E-02 0.  1.
       -1   -1    0    0    0  501  0.00000000000E+00  0.00000000000E+00 -0.12998116714E+04  0.12998116714E+04  0.50400001928E-02 0. -1.
    10030    2    1    2    0    0  0.00000000000E+00  0.00000000000E+00  0.14777134540E+04  0.40773367968E+04  0.38001366163E+04 0.  0.
        4    1    3    3  502    0  0.56728181001E+03  0.13551493237E+04  0.20317528084E+04  0.25072413982E+04  0.12699999809E+01 0.  1.
       -4    1    3    3    0  502 -0.56728181001E+03 -0.13551493237E+04 -0.55403935436E+03  0.15700953986E+04  0.12699999809E+01 0. -1.
</event>
<event>
 5   0  0.1264013E-08  0.3793744E+04  0.7818609E-02  0.8047499E-01
       -2   -1    0    0    0  501  0.00000000000E+00  0.00000000000E+00  0.13392201569E+04  0.13392201569E+04  0.25500000920E-02 0.  1.
        2   -1    0    0  501    0  0.00000000000E+00  0.00000000000E+00 -0.26867298517E+04  0.26867298517E+04  0.25500000920E-02 0. -1.
    10030    2    1    2    0    0  0.00000000000E+00  0.00000000000E+00 -0.13475096948E+04  0.40259500086E+04  0.37937436780E+04 0.  0.
        4    1    3    3  502    0  0.14132279107E+03 -0.18750041559E+04 -0.40843499935E+03  0.19241708545E+04  0.12699999809E+01 0.  1.
       -4    1    3    3    0  502 -0.14132279107E+03  0.18750041559E+04 -0.93907469540E+03  0.21017791540E+04  0.12699999809E+01 0. -1.
</event>
<event>
 5   0  0.1261152E-08  0.3800390E+04  0.7818609E-02  0.8046071E-01
        2   -1    0    0  501    0  0.00000000000E+00  0.00000000000E+00  0.24760753576E+04  0.24760753576E+04  0.25500000920E-02 0.  1.
       -2   -1    0    0    0  501  0.00000000000E+00  0.00000000000E+00 -0.14582513284E+04  0.14582513284E+04  0.25500000920E-02 0. -1.
    10030    2    1    2    0    0  0.00000000000E+00  0.00000000000E+00  0.10178240292E+04  0.39343266861E+04  0.38003895482E+04 0.  0.
        2    1    3    3  502    0 -0.80860345821E+01 -0.18884356389E+04  0.29056251935E+03  0.19106755674E+04  0.25500000920E-02 0. -1.
       -2    1    3    3    0  502  0.80860345821E+01  0.18884356389E+04  0.72726150982E+03  0.20236511186E+04  0.25500000920E-02 0.  1.
</event>
<event>
 5   0  0.1264013E-08  0.3800536E+04  0.7818609E-02  0.8046040E-01
        2   -1    0    0  501    0  0.00000000000E+00  0.00000000000E+00  0.20328742839E+04  0.20328742839E+04  0.25500000920E-02 0. -1.
       -2   -1    0    0    0  501  0.00000000000E+00  0.00000000000E+00 -0.17763120031E+04  0.17763120031E+04  0.25500000920E-02 0.  1.
    10030    2    1    2    0    0  0.00000000000E+00  0.00000000000E+00  0.25656228088E+03  0.38091862870E+04  0.38005362734E+04 0.  0.
        4    1    3    3  502    0 -0.17507827413E+04 -0.47430532326E+03  0.69597262955E+03  0.19428291898E+04  0.12699999809E+01 0.  1.
       -4    1    3    3    0  502  0.17507827413E+04  0.47430532326E+03 -0.43941034867E+03  0.18663570972E+04  0.12699999809E+01 0. -1.
</event>
<event>
 5   0  0.1327249E-08  0.3795320E+04  0.7818609E-02  0.8047160E-01
       -2   -1    0    0    0  501  0.00000000000E+00  0.00000000000E+00  0.22280142591E+04  0.22280142591E+04  0.25500000920E-02 0. -1.
        2   -1    0    0  501    0  0.00000000000E+00  0.00000000000E+00 -0.16162880068E+04  0.16162880068E+04  0.25500000920E-02 0.  1.
    10030    2    1    2    0    0  0.00000000000E+00  0.00000000000E+00  0.61172625225E+03  0.38443022659E+04  0.37953196050E+04 0.  0.
        1    1    3    3  502    0 -0.79256646904E+03 -0.13807467982E+04 -0.74017483351E+03  0.17556998925E+04  0.50400001928E-02 0.  1.
       -1    1    3    3    0  502  0.79256646904E+03  0.13807467982E+04  0.13519010858E+04  0.20886023734E+04  0.50400001928E-02 0. -1.
</event>
<event>
 5   0  0.1305088E-08  0.3804852E+04  0.7818609E-02  0.8045114E-01
        2   -1    0    0  501    0  0.00000000000E+00  0.00000000000E+00  0.17721340955E+04  0.17721340955E+04  0.25500000920E-02 0.  1.
       -2   -1    0    0    0  501  0.00000000000E+00  0.00000000000E+00 -0.20422975554E+04  0.20422975554E+04  0.25500000920E-02 0. -1.
    10030    2    1    2    0    0  0.00000000000E+00  0.00000000000E+00 -0.27016345990E+03  0.38144316509E+04  0.38048522342E+04 0.  0.
        3    1    3    3  502    0 -0.15609490437E+04  0.10318375785E+04 -0.47942052779E+03  0.19316041930E+04  0.10100000352E+00 0.  1.
       -3    1    3    3    0  502  0.15609490437E+04 -0.10318375785E+04  0.20925706789E+03  0.18828274579E+04  0.10100000352E+00 0. -1.
</event>
<event>
 5   0  0.4071750E-09  0.3801185E+04  0.7818609E-02  0.8045901E-01
        1   -1    0    0  501    0  0.00000000000E+00  0.00000000000E+00  0.21931990944E+04  0.21931990944E+04  0.50400001928E-02 0. -1.
       -1   -1    0    0    0  501  0.00000000000E+00  0.00000000000E+00 -0.16470237566E+04  0.16470237566E+04  0.50400001928E-02 0.  1.
    10030    2    1    2    0    0  0.00000000000E+00  0.00000000000E+00  0.54617533780E+03  0.38402228510E+04  0.38011845583E+04 0.  0.
        1    1    3    3  502    0 -0.44888660902E+03  0.18453025005E+04  0.34876023450E+03  0.19308739491E+04  0.50400001928E-02 0. -1.
       -1    1    3    3    0  502  0.44888660902E+03 -0.18453025005E+04  0.19741510330E+03  0.19093489019E+04  0.50400001928E-02 0.  1.
</event>
<event>
 5   0  0.1261152E-08  0.3799730E+04  0.7818609E-02  0.8046213E-01
        2   -1    0    0  501    0  0.00000000000E+00  0.00000000000E+00  0.14445779734E+04  0.14445779734E+04  0.25500000920E-02 0.  1.
       -2   -1    0    0    0  501  0.00000000000E+00  0.00000000000E+00 -0.24986445940E+04  0.24986445940E+04  0.25500000920E-02 0. -1.
    10030    2    1    2    0    0  0.00000000000E+00  0.00000000000E+00 -0.10540666206E+04  0.39432225674E+04  0.37997299609E+04 0.  0.
        2    1    3    3  502    0 -0.16574586462E+04  0.78228518806E+03 -0.10462759266E+04  0.21104105273E+04  0.25500000920E-02 0. -1.
       -2    1    3    3    0  502  0.16574586462E+04 -0.78228518806E+03 -0.77906939881E+01  0.18328120401E+04  0.25500000920E-02 0.  1.
</event>
<event>
 5   0  0.4071750E-09  0.3801192E+04  0.7818609E-02  0.8045899E-01
       -1   -1    0    0    0  501  0.00000000000E+00  0.00000000000E+00  0.29503205201E+04  0.29503205202E+04  0.50400001928E-02 0.  1.
        1   -1    0    0  501    0  0.00000000000E+00  0.00000000000E+00 -0.12243638707E+04  0.12243638708E+04  0.50400001928E-02 0. -1.
    10030    2    1    2    0    0  0.00000000000E+00  0.00000000000E+00  0.17259566494E+04  0.41746843909E+04  0.38011923666E+04 0.  0.
        2    1    3    3  502    0 -0.15503090398E+04  0.22315173214E+02  0.20702164506E+04  0.25864555357E+04  0.25500000920E-02 0.  1.
       -2    1    3    3    0  502  0.15503090398E+04 -0.22315173214E+02 -0.34425980123E+03  0.15882288552E+04  0.25500000920E-02 0. -1.
</event>
<event>
 5   0  0.1261152E-08  0.3802232E+04  0.7818609E-02  0.8045676E-01
        2   -1    0    0  501    0  0.00000000000E+00  0.00000000000E+00  0.25255887123E+04  0.25255887123E+04  0.25500000920E-02 0. -1.
       -2   -1    0    0    0  501  0.00000000000E+00  0.00000000000E+00 -0.14310493018E+04  0.14310493018E+04  0.25500000920E-02 0.  1.
    10030    2    1    2    0    0  0.00000000000E+00  0.00000000000E+00  0.10945394104E+04  0.39566380141E+04  0.38022319568E+04 0.  0.
        2    1    3    3  502    0  0.10856841737E+04 -0.33543350887E+03  0.21333085903E+04  0.24170708110E+04  0.25500000920E-02 0. -1.
       -2    1    3    3    0  502 -0.10856841737E+04  0.33543350887E+03 -0.10387691798E+04  0.15395672031E+04  0.25500000920E-02 0.  1.
</event>
<event>
 5   0  0.1264013E-08  0.3800317E+04  0.7818609E-02  0.8046087E-01
       -2   -1    0    0    0  501  0.00000000000E+00  0.00000000000E+00  0.16385059533E+04  0.16385059533E+04  0.25500000920E-02 0. -1.
        2   -1    0    0  501    0  0.00000000000E+00  0.00000000000E+00 -0.22035943634E+04  0.22035943634E+04  0.25500000920E-02 0.  1.
    10030    2    1    2    0    0  0.00000000000E+00  0.00000000000E+00 -0.56508841008E+03  0.38421003166E+04  0.38003170831E+04 0.  0.
        4    1    3    3  502    0  0.78197090672E+03 -0.10469848853E+04 -0.16771837860E+04  0.21261709512E+04  0.12699999809E+01 0.  1.
       -4    1    3    3    0  502 -0.78197090672E+03  0.10469848853E+04  0.11120953759E+04  0.17159293654E+04  0.12699999809E+01 0. -1.
</event>
<event>
 5   0  0.4071750E-09  0.3799647E+04  0.7818609E-02  0.8046231E-01
        1   -1    0    0  501    0  0.00000000000E+00  0.00000000000E+00  0.16714326569E+04  0.16714326569E+04  0.50400001928E-02 0. -1.
       -1   -1    0    0    0  501  0.00000000000E+00  0.00000000000E+00 -0.21594225678E+04  0.21594225678E+04  0.50400001928E-02 0.  1.
    10030    2    1    2    0    0  0.00000000000E+00  0.00000000000E+00 -0.48798991085E+03  0.38308552247E+04  0.37996470362E+04 0.  0.
        1    1    3    3  502    0  0.10984459351E+04  0.16931153819E+03 -0.17974551018E+04  0.21133136806E+04  0.50400001928E-02 0.  1.
       -1    1    3    3    0  502 -0.10984459351E+04 -0.16931153819E+03  0.13094651910E+04  0.17175415441E+04  0.50400001928E-02 0. -1.
</event>
<event>
 5   0  0.4071750E-09  0.3799576E+04  0.7818609E-02  0.8046246E-01
       -1   -1    0    0    0  501  0.00000000000E+00  0.00000000000E+00  0.13930252585E+04  0.13930252585E+04  0.50400001928E-02 0. -1.
        1   -1    0    0  501    0  0.00000000000E+00  0.00000000000E+00 -0.25909044630E+04  0.25909044630E+04  0.50400001928E-02 0.  1.
    10030    2    1    2    0    0  0.00000000000E+00  0.00000000000E+00 -0.11978792046E+04  0.39839297215E+04  0.37995764813E+04 0.  0.
        5    1    3    3  502    0  0.58910485521E+03  0.66727186035E+03 -0.23587278781E+04  0.25210941194E+04  0.46999998093E+01 0.  1.
       -5    1    3    3    0  502 -0.58910485521E+03 -0.66727186035E+03  0.11608486735E+04  0.14628356021E+04  0.46999998093E+01 0. -1.
</event>
<event>
 5   0  0.1305088E-08  0.3799194E+04  0.7818609E-02  0.8046328E-01
        2   -1    0    0  501    0  0.00000000000E+00  0.00000000000E+00  0.21479372176E+04  0.21479372176E+04  0.25500000920E-02 0.  1.
       -2   -1    0    0    0  501  0.00000000000E+00  0.00000000000E+00 -0.16799692654E+04  0.16799692654E+04  0.25500000920E-02 0. -1.
    10030    2    1    2    0    0  0.00000000000E+00  0.00000000000E+00  0.46796795220E+03  0.38279064830E+04  0.37991938670E+04 0.  0.
        3    1    3    3  502    0  0.63793873290E+03  0.25060329424E+03 -0.15510431213E+04  0.16957307016E+04  0.10100000352E+00 0. -1.
       -3    1    3    3    0  502 -0.63793873290E+03 -0.25060329424E+03  0.20190110735E+04  0.21321757815E+04  0.10100000352E+00 0.  1.
</event>
<event>
 5   0  0.4071750E-09  0.3800557E+04  0.7818609E-02  0.8046035E-01
        1   -1    0    0  501    0  0.00000000000E+00  0.00000000000E+00  0.21728371702E+04  0.21728371702E+04  0.50400001928E-02 0. -1.
       -1   -1    0    0    0  501  0.00000000000E+00  0.00000000000E+00 -0.16619089098E+04  0.16619089098E+04  0.50400001928E-02 0.  1.
    10030    2    1    2    0    0  0.00000000000E+00  0.00000000000E+00  0.51092826037E+03  0.38347460800E+04  0.38005565133E+04 0.  0.
        5    1    3    3  502    0 -0.30223777257E+03  0.14361808878E+04 -0.96248723325E+03  0.17550974269E+04  0.46999998093E+01 0.  1.
       -5    1    3    3    0  502  0.30223777257E+03 -0.14361808878E+04  0.14734154936E+04  0.20796486531E+04  0.46999998093E+01 0. -1.
</event>
<event>
 5   0  0.4071750E-09  0.3798962E+04  0.7818609E-02  0.8046378E-01
        1   -1    0    0  501    0  0.00000000000E+00  0.00000000000E+00  0.17336530444E+04  0.17336530444E+04  0.50400001928E-02 0. -1.
       -1   -1    0    0    0  501  0.00000000000E+00  0.00000000000E+00 -0.20811709754E+04  0.20811709754E+04  0.50400001928E-02 0.  1.
    10030    2    1    2    0    0  0.00000000000E+00  0.00000000000E+00 -0.34751793097E+03  0.38148240198E+04  0.37989621727E+04 0.  0.
        4    1    3    3  502    0  0.11075674670E+04  0.15081889552E+04  0.15423482998E+03  0.18775328530E+04  0.12699999809E+01 0.  1.
       -4    1    3    3    0  502 -0.11075674670E+04 -0.15081889552E+04 -0.50175276095E+03  0.19372911667E+04  0.12699999809E+01 0. -1.
</event>
<event>
 5   0  0.1264013E-08  0.3795857E+04  0.7818609E-02  0.8047044E-01
        2   -1    0    0  501    0  0.00000000000E+00  0.00000000000E+00  0.27542754618E+04  0.27542754618E+04  0.25500000920E-02 0.  1.
       -2   -1    0    0    0  501  0.00000000000E+00  0.00000000000E+00 -0.13078333026E+04  0.13078333026E+04  0.25500000920E-02 0. -1.
    10030    2    1    2    0    0  0.00000000000E+00  0.00000000000E+00  0.14464421591E+04  0.40621087644E+04  0.37958573068E+04 0.  0.
        4    1    3    3  502    0  0.13468004545E+04 -0.84339221028E+03 -0.38733213728E+03  0.16356068238E+04  0.12699999809E+01 0.  1.
       -4    1    3    3    0  502 -0.13468004545E+04  0.84339221028E+03  0.18337742964E+04  0.24265019406E+04  0.12699999809E+01 0. -1.
</event>
<event>
 5   0  0.1327249E-08  0.3800633E+04  0.7818609E-02  0.8046019E-01
       -2   -1    0    0    0  501  0.00000000000E+00  0.00000000000E+00  0.16893883499E+04  0.16893883499E+04  0.25500000920E-02 0.  1.
        2   -1    0    0  501    0  0.00000000000E+00  0.00000000000E+00 -0.21375794857E+04  0.21375794857E+04  0.25500000920E-02 0. -1.
    10030    2    1    2    0    0  0.00000000000E+00  0.00000000000E+00 -0.44819113579E+03  0.38269678356E+04  0.38006325159E+04 0.  0.
        1    1    3    3  502    0  0.17881392002E+04  0.50736111684E+03 -0.62223997799E+03  0.19601121632E+04  0.50400001928E-02 0. -1.
       -1    1    3    3    0  502 -0.17881392002E+04 -0.50736111684E+03  0.17404884219E+03  0.18668556724E+04  0.50400001928E-02 0.  1.
</event>
<event>
 5   0  0.4071750E-09  0.3799167E+04  0.7818609E-02  0.8046334E-01
        1   -1    0    0  501    0  0.00000000000E+00  0.00000000000E+00  0.18820978033E+04  0.18820978033E+04  0.50400001928E-02 0.  1.
       -1   -1    0    0    0  501  0.00000000000E+00  0.00000000000E+00 -0.19172321395E+04  0.19172321395E+04  0.50400001928E-02 0. -1.
    10030    2    1    2    0    0  0.00000000000E+00  0.00000000000E+00 -0.35134336200E+02  0.37993299428E+04  0.37991674868E+04 0.  0.
        2    1    3    3  502    0  0.17292626936E+04 -0.13015871333E+03  0.75779020408E+03  0.18924948475E+04  0.25500000920E-02 0.  1.
       -2    1    3    3    0  502 -0.17292626936E+04  0.13015871333E+03 -0.79292454028E+03  0.19068350953E+04  0.25500000920E-02 0. -1.
</event>
<event>
 5   0  0.1261152E-08  0.3800723E+04  0.7818609E-02  0.8046000E-01
       -2   -1    0    0    0  501  0.00000000000E+00  0.00000000000E+00  0.12724648785E+04  0.12724648785E+04  0.25500000920E-02 0.  1.
        2   -1    0    0  501    0  0.00000000000E+00  0.00000000000E+00 -0.28380926007E+04  0.28380926007E+04  0.25500000920E-02 0. -1.
    10030    2    1    2    0    0  0.00000000000E+00  0.00000000000E+00 -0.15656277222E+04  0.41105574792E+04  0.38007226452E+04 0.  0.
        2    1    3    3  502    0 -0.15592946868E+04 -0.98121911089E+03 -0.12868326816E+04  0.22472492550E+04  0.25500000920E-02 0. -1.
       -2    1    3    3    0  502  0.15592946868E+04  0.98121911089E+03 -0.27879504067E+03  0.18633082242E+04  0.25500000920E-02 0.  1.
</event>
<event>
 5   0  0.1327249E-08  0.3800502E+04  0.7818609E-02  0.8046047E-01
       -2   -1    0    0    0  501  0.00000000000E+00  0.00000000000E+00  0.20988999492E+04  0.20988999492E+04  0.25500000920E-02 0. -1.
        2   -1    0    0  501    0  0.00000000000E+00  0.00000000000E+00 -0.17204030922E+04  0.17204030922E+04  0.25500000920E-02 0.  1.
    10030    2    1    2    0    0  0.00000000000E+00  0.00000000000E+00  0.37849685708E+03  0.38193030414E+04  0.38005020525E+04 0.  0.
        1    1    3    3  502    0  0.43977740379E+03  0.86892342493E+03 -0.14505472590E+04  0.17471460826E+04  0.50400001928E-02 0.  1.
       -1    1    3    3    0  502 -0.43977740379E+03 -0.86892342493E+03  0.18290441161E+04  0.20721569588E+04  0.50400001928E-02 0. -1.
</event>
<event>
 5   0  0.1305088E-08  0.3800231E+04  0.7818609E-02  0.8046105E-01
       -2   -1    0    0    0  501  0.00000000000E+00  0.00000000000E+00  0.23983827410E+04  0.23983827410E+04  0.25500000920E-02 0. -1.
        2   -1    0    0  501    0  0.00000000000E+00  0.00000000000E+00 -0.15053638209E+04  0.15053638209E+04  0.25500000920E-02 0.  1.
    10030    2    1    2    0    0  0.00000000000E+00  0.00000000000E+00  0.89301892012E+03  0.39037465620E+04  0.38002308388E+04 0.  0.
        3    1    3    3  502    0 -0.42370500021E+03  0.18519561277E+04  0.41135489410E+03  0.19438313418E+04  0.10100000352E+00 0.  1.
       -3    1    3    3    0  502  0.42370500021E+03 -0.18519561277E+04  0.48166402601E+03  0.19599152202E+04  0.10100000352E+00 0. -1.
</event>
<event>
 5   0  0.1261152E-08  0.3799286E+04  0.7818609E-02  0.8046308E-01
        2   -1    0    0  501    0  0.00000000000E+00  0.00000000000E+00  0.25083666355E+04  0.25083666355E+04  0.25500000920E-02 0.  1.
       -2   -1    0    0    0  501  0.00000000000E+00  0.00000000000E+00 -0.14386424336E+04  0.14386424336E+04  0.25500000920E-02 0. -1.
    10030    2    1    2    0    0  0.00000000000E+00  0.00000000000E+00  0.10697242019E+04  0.39470090692E+04  0.37992855544E+04 0.  0.
        2    1    3    3  502    0  0.12243186109E+04  0.11069170822E+04 -0.44214058658E+03  0.17087158295E+04  0.25500000920E-02 0. -1.
       -2    1    3    3    0  502 -0.12243186109E+04 -0.11069170822E+04  0.15118647885E+04  0.22382932396E+04  0.25500000920E-02 0.  1.
</event>
<event>
 5   0  0.4071750E-09  0.3798175E+04  0.7818609E-02  0.8046547E-01
        1   -1    0    0  501    0  0.00000000000E+00  0.00000000000E+00  0.21516886485E+04  0.21516886485E+04  0.50400001928E-02 0. -1.
       -1   -1    0    0    0  501  0.00000000000E+00  0.00000000000E+00 -0.16761413329E+04  0.16761413329E+04  0.50400001928E-02 0.  1.
    10030    2    1    2    0    0  0.00000000000E+00  0.00000000000E+00  0.47554731557E+03  0.38278299815E+04  0.37981754985E+04 0.  0.
        5    1    3    3  502    0 -0.76685258111E+03 -0.16863226567E+04  0.65908688901E+03  0.19662564942E+04  0.46999998093E+01 0.  1.
       -5    1    3    3    0  502  0.76685258111E+03  0.16863226567E+04 -0.18353957344E+03  0.18615734873E+04  0.46999998093E+01 0. -1.
</event>
<event>
 5   0  0.1264013E-08  0.3799994E+04  0.7818609E-02  0.8046156E-01
       -2   -1    0    0    0  501  0.00000000000E+00  0.00000000000E+00  0.26524733387E+04  0.26524733387E+04  0.25500000920E-02 0. -1.
        2   -1    0    0  501    0  0.00000000000E+00  0.00000000000E+00 -0.13609897245E+04  0.13609897245E+04  0.25500000920E-02 0.  1.
    10030    2    1    2    0    0  0.00000000000E+00  0.00000000000E+00  0.12914836142E+04  0.40134630632E+04  0.37999941886E+04 0.  0.
        4    1    3    3  502    0 -0.18447057789E+04  0.39187892316E+03  0.88998774222E+03  0.20853269037E+04  0.12699999809E+01 0.  1.
       -4    1    3    3    0  502  0.18447057789E+04 -0.39187892316E+03  0.40149587202E+03  0.19281361594E+04  0.12699999809E+01 0. -1.
</event>
<event>
 5   0  0.4071750E-09  0.3799643E+04  0.7818609E-02  0.8046232E-01
       -1   -1    0    0    0  501  0.00000000000E+00  0.00000000000E+00  0.19250235834E+04  0.19250235834E+04  0.50400001928E-02 0. -1.
        1   -1    0    0  501    0  0.00000000000E+00  0.00000000000E+00 -0.18749492131E+04  0.18749492131E+04  0.50400001928E-02 0.  1.
    10030    2    1    2    0    0  0.00000000000E+00  0.00000000000E+00  0.50074370345E+02  0.37999727966E+04  0.37996428532E+04 0.  0.
        3    1    3    3  502    0  0.69919851892E+03  0.81794565756E+02 -0.17396988614E+04  0.18767314828E+04  0.10100000352E+00 0.  1.
       -3    1    3    3    0  502 -0.69919851892E+03 -0.81794565756E+02  0.17897732317E+04  0.19232413138E+04  0.10100000352E+00 0. -1.
</event>
<event>
 5   0  0.4071750E-09  0.3800155E+04  0.7818609E-02  0.8046122E-01
       -1   -1    0    0    0  501  0.00000000000E+00  0.00000000000E+00  0.17906000259E+04  0.17906000259E+04  0.50400001928E-02 0.  1.
        1   -1    0    0  501    0  0.00000000000E+00  0.00000000000E+00 -0.20162489483E+04  0.20162489483E+04  0.50400001928E-02 0. -1.
    10030    2    1    2    0    0  0.00000000000E+00  0.00000000000E+00 -0.22564892236E+03  0.38068489742E+04  0.38001554805E+04 0.  0.
        3    1    3    3  502    0 -0.10859042175E+04  0.27547879575E+03 -0.16501998285E+04  0.19945515839E+04  0.10100000352E+00 0. -1.
       -3    1    3    3    0  502  0.10859042175E+04 -0.27547879575E+03  0.14245509062E+04  0.18122973903E+04  0.10100000352E+00 0.  1.
</event>
<event>
 5   0  0.1305088E-08  0.3798928E+04  0.7818609E-02  0.8046385E-01
        2   -1    0    0  501    0  0.00000000000E+00  0.00000000000E+00  0.20337788432E+04  0.20337788432E+04  0.25500000920E-02 0.  1.
       -2   -1    0    0    0  501  0.00000000000E+00  0.00000000000E+00 -0.17740194270E+04  0.17740194270E+04  0.25500000920E-02 0. -1.
    10030    2    1    2    0    0  0.00000000000E+00  0.00000000000E+00  0.25975941616E+03  0.38077982702E+04  0.37989278372E+04 0.  0.
        3    1    3    3  502    0  0.21173676918E+03 -0.16305134034E+04 -0.82342293597E+03  0.18388669772E+04  0.10100000352E+00 0. -1.
       -3    1    3    3    0  502 -0.21173676918E+03  0.16305134034E+04  0.10831823521E+04  0.19689312930E+04  0.10100000352E+00 0.  1.
</event>
<event>
 5   0  0.4071750E-09  0.3798636E+04  0.7818609E-02  0.8046448E-01
        1   -1    0    0  501    0  0.00000000000E+00  0.00000000000E+00  0.26189235945E+04  0.26189235945E+04  0.50400001928E-02 0. -1.
       -1   -1    0    0    0  501  0.00000000000E+00  0.00000000000E+00 -0.13774393036E+04  0.13774393036E+04  0.50400001928E-02 0.  1.
    10030    2    1    2    0    0  0.00000000000E+00  0.00000000000E+00  0.12414842909E+04  0.39963628981E+04  0.37986356984E+04 0.  0.
        3    1    3    3  502    0 -0.15204996943E+04 -0.19516667065E+03 -0.55896393180E+03  0.16317015772E+04  0.10100000352E+00 0.  1.
       -3    1    3    3    0  502  0.15204996943E+04  0.19516667065E+03  0.18004482227E+04  0.23646613209E+04  0.10100000352E+00 0. -1.
</event>
<event>
 5   0  0.4071750E-09  0.3799943E+04  0.7818609E-02  0.8046167E-01
       -1   -1    0    0    0  501  0.00000000000E+00  0.00000000000E+00  0.14532882783E+04  0.14532882783E+04  0.50400001928E-02 0. -1.
        1   -1    0    0  501    0  0.00000000000E+00  0.00000000000E+00 -0.24839478263E+04  0.24839478263E+04  0.50400001928E-02 0.  1.
    10030    2    1    2    0    0  0.00000000000E+00  0.00000000000E+00 -0.10306595480E+04  0.39372361047E+04  0.37999432943E+04 0.  0.
        4    1    3    3  502    0  0.70927929247E+03 -0.80911836476E+03  0.11071790335E+04  0.15438901088E+04  0.12699999809E+01 0. -1.
       -4    1    3    3    0  502 -0.70927929247E+03  0.80911836476E+03 -0.21378385814E+04  0.23933459959E+04  0.12699999809E+01 0.  1.
</event>
<event>
 5   0  0.4071750E-09  0.3800951E+04  0.7818609E-02  0.8045951E-01
       -1   -1    0    0    0  501  0.00000000000E+00  0.00000000000E+00  0.15393867006E+04  0.15393867006E+04  0.50400001928E-02 0. -1.
        1   -1    0    0  501    0  0.00000000000E+00  0.00000000000E+00 -0.23462637459E+04  0.23462637459E+04  0.50400001928E-02 0.  1.
    10030    2    1    2    0    0  0.00000000000E+00  0.00000000000E+00 -0.80687704537E+03  0.38856504465E+04  0.38009510423E+04 0.  0.
        5    1    3    3  502    0  0.11428815405E+04  0.75466002426E+03 -0.17504094274E+04  0.22225312644E+04  0.46999998093E+01 0.  1.
       -5    1    3    3    0  502 -0.11428815405E+04 -0.75466002426E+03  0.94353238207E+03  0.16631191821E+04  0.46999998093E+01 0. -1.
</event>
<event>
 5   0  0.4071750E-09  0.3800144E+04  0.7818609E-02  0.8046124E-01
       -1   -1    0    0    0  501  0.00000000000E+00  0.00000000000E+00  0.15061196380E+04  0.15061196380E+04  0.50400001928E-02 0. -1.
        1   -1    0    0  501    0  0.00000000000E+00  0.00000000000E+00 -0.23970701066E+04  0.23970701066E+04  0.50400001928E-02 0.  1.
    10030    2    1    2    0    0  0.00000000000E+00  0.00000000000E+00 -0.89095046859E+03  0.39031897446E+04  0.38001443979E+04 0.  0.
        4    1    3    3  502    0 -0.80620176281E+03  0.17190534417E+04 -0.51930431587E+03  0.19684472569E+04  0.12699999809E+01 0. -1.
       -4    1    3    3    0  502  0.80620176281E+03 -0.17190534417E+04 -0.37164615272E+03  0.19347424877E+04  0.12699999809E+01 0.  1.
</event>
<event>
 5   0  0.1327249E-08  0.3799909E+04  0.7818609E-02  0.8046174E-01
        2   -1    0    0  501    0  0.00000000000E+00  0.00000000000E+00  0.18396365710E+04  0.18396365710E+04  0.25500000920E-02 0.  1.
       -2   -1    0    0    0  501  0.00000000000E+00  0.00000000000E+00 -0.19622501633E+04  0.19622501633E+04  0.25500000920E-02 0. -1.
    10030    2    1    2    0    0  0.00000000000E+00  0.00000000000E+00 -0.12261359234E+03  0.38018867343E+04  0.37999090315E+04 0.  0.
        1    1    3    3  502    0  0.89067979697E+03 -0.33633945962E+03  0.15837485767E+04  0.18478891436E+04  0.50400001928E-02 0.  1.
       -1    1    3    3    0  502 -0.89067979697E+03  0.33633945962E+03 -0.17063621690E+04  0.19539975908E+04  0.50400001928E-02 0. -1.
</event>
<event>
 5   0  0.4071750E-09  0.3800346E+04  0.7818609E-02  0.8046081E-01
       -1   -1    0    0    0  501  0.00000000000E+00  0.00000000000E+00  0.20191004906E+04  0.20191004906E+04  0.50400001928E-02 0.  1.
        1   -1    0    0  501    0  0.00000000000E+00  0.00000000000E+00 -0.17882503909E+04  0.17882503909E+04  0.50400001928E-02 0. -1.
    10030    2    1    2    0    0  0.00000000000E+00  0.00000000000E+00  0.23085009971E+03  0.38073508814E+04  0.38003459008E+04 0.  0.
        1    1    3    3  502    0  0.14262394887E+04  0.25755759531E+02 -0.11422114105E+04  0.18274215016E+04  0.50400001928E-02 0. -1.
       -1    1    3    3    0  502 -0.14262394887E+04 -0.25755759531E+02  0.13730615102E+04  0.19799293798E+04  0.50400001928E-02 0.  1.
</event>
<event>
 5   0  0.1305088E-08  0.3800799E+04  0.7818609E-02  0.8045983E-01
        2   -1    0    0  501    0  0.00000000000E+00  0.00000000000E+00  0.13655241003E+04  0.13655241003E+04  0.25500000920E-02 0. -1.
       -2   -1    0    0    0  501  0.00000000000E+00  0.00000000000E+00 -0.26447860421E+04  0.26447860421E+04  0.25500000920E-02 0.  1.
    10030    2    1    2    0    0  0.00000000000E+00  0.00000000000E+00 -0.12792619417E+04  0.40103101424E+04  0.38007994320E+04 0.  0.
        3    1    3    3  502    0  0.10491426687E+04  0.58597254781E+03 -0.21930121657E+04  0.25006732164E+04  0.10100000352E+00 0.  1.
       -3    1    3    3    0  502 -0.10491426687E+04 -0.58597254781E+03  0.91375022396E+03  0.15096369259E+04  0.10100000352E+00 0. -1.
</event>
<event>
 5   0  0.1264013E-08  0.3801842E+04  0.7818609E-02  0.8045760E-01
       -2   -1    0    0    0  501  0.00000000000E+00  0.00000000000E+00  0.17545524828E+04  0.17545524828E+04  0.25500000920E-02 0. -1.
        2   -1    0    0  501    0  0.00000000000E+00  0.00000000000E+00 -0.20594994690E+04  0.20594994690E+04  0.25500000920E-02 0.  1.
    10030    2    1    2    0    0  0.00000000000E+00  0.00000000000E+00 -0.30494698621E+03  0.38140519518E+04  0.38018416098E+04 0.  0.
        4    1    3    3  502    0  0.16421611772E+04  0.81104341795E+03 -0.66304175554E+03  0.19478477200E+04  0.12699999809E+01 0.  1.
       -4    1    3    3    0  502 -0.16421611772E+04 -0.81104341795E+03  0.35809476933E+03  0.18662042317E+04  0.12699999809E+01 0. -1.
</event>
<event>
 5   0  0.4071750E-09  0.3800296E+04  0.7818609E-02  0.8046091E-01
       -1   -1    0    0    0  501  0.00000000000E+00  0.00000000000E+00  0.26990125209E+04  0.26990125209E+04  0.50400001928E-02 0.  1.
        1   -1    0    0  501    0  0.00000000000E+00  0.00000000000E+00 -0.13377347621E+04  0.13377347621E+04  0.50400001928E-02 0. -1.
    10030    2    1    2    0    0  0.00000000000E+00  0.00000000000E+00  0.13612777588E+04  0.40367472830E+04  0.38002962372E+04 0.  0.
        4    1    3    3  502    0 -0.14292658302E+04  0.11820624012E+04  0.11192323857E+04  0.21662767782E+04  0.12699999809E+01 0. -1.
       -4    1    3    3    0  502  0.14292658302E+04 -0.11820624012E+04  0.24204537309E+03  0.18704705048E+04  0.12699999809E+01 0.  1.
</event>
<event>
 5   0  0.4071750E-09  0.3800739E+04  0.7818609E-02  0.8045996E-01
       -1   -1    0    0    0  501  0.00000000000E+00  0.00000000000E+00  0.23853314635E+04  0.23853314635E+04  0.50400001928E-02 0.  1.
        1   -1    0    0  501    0  0.00000000000E+00  0.00000000000E+00 -0.15140048164E+04  0.15140048164E+04  0.50400001928E-02 0. -1.
    10030    2    1    2    0    0  0.00000000000E+00  0.00000000000E+00  0.87132664714E+03  0.38993362799E+04  0.38007385200E+04 0.  0.
        1    1    3    3  502    0 -0.55128562802E+03  0.12620336728E+04 -0.90779493962E+03  0.16494655157E+04  0.50400001928E-02 0. -1.
       -1    1    3    3    0  502  0.55128562802E+03 -0.12620336728E+04  0.17791215868E+04  0.22498707642E+04  0.50400001928E-02 0.  1.
</event>
<event>
 5   0  0.1261152E-08  0.3799663E+04  0.7818609E-02  0.8046227E-01
        2   -1    0    0  501    0  0.00000000000E+00  0.00000000000E+00  0.20208531078E+04  0.20208531078E+04  0.25500000920E-02 0.  1.
       -2   -1    0    0    0  501  0.00000000000E+00  0.00000000000E+00 -0.17860578540E+04  0.17860578540E+04  0.25500000920E-02 0. -1.
    10030    2    1    2    0    0  0.00000000000E+00  0.00000000000E+00  0.23479525374E+03  0.38069109618E+04  0.37996634404E+04 0.  0.
        2    1    3    3  502    0 -0.84469677378E+02  0.18122185188E+04  0.68246761444E+03  0.19383067691E+04  0.25500000920E-02 0. -1.
       -2    1    3    3    0  502  0.84469677378E+02 -0.18122185188E+04 -0.44767236070E+03  0.18686041927E+04  0.25500000920E-02 0.  1.
</event>
<event>
 5   0  0.1305088E-08  0.3796487E+04  0.7818609E-02  0.8046909E-01
        2   -1    0    0  501    0  0.00000000000E+00  0.00000000000E+00  0.15789030615E+04  0.15789030615E+04  0.25500000920E-02 0. -1.
       -2   -1    0    0    0  501  0.00000000000E+00  0.00000000000E+00 -0.22821720350E+04  0.22821720350E+04  0.25500000920E-02 0.  1.
    10030    2    1    2    0    0  0.00000000000E+00  0.00000000000E+00 -0.70326897349E+03  0.38610750964E+04  0.37964870145E+04 0.  0.
        3    1    3    3  502    0  0.10048441489E+04 -0.65973598935E+03  0.11424968732E+04  0.16583915263E+04  0.10100000352E+00 0. -1.
       -3    1    3    3    0  502 -0.10048441489E+04  0.65973598935E+03 -0.18457658466E+04  0.22026835701E+04  0.10100000352E+00 0.  1.
</event>
<event>
 5   0  0.4071750E-09  0.3800167E+04  0.7818609E-02  0.8046119E-01
       -1   -1    0    0    0  501  0.00000000000E+00  0.00000000000E+00  0.26387764515E+04  0.26387764515E+04  0.50400001928E-02 0. -1.
        1   -1    0    0  501    0  0.00000000000E+00  0.00000000000E+00 -0.13681784325E+04  0.13681784326E+04  0.50400001928E-02 0.  1.
    10030    2    1    2    0    0  0.00000000000E+00  0.00000000000E+00  0.12705980190E+04  0.40069548841E+04  0.38001668539E+04 0.  0.
        4    1    3    3  502    0 -0.57592496403E+03 -0.17471444714E+04  0.13391135163E+03  0.18444883385E+04  0.12699999809E+01 0.  1.
       -4    1    3    3    0  502  0.57592496403E+03  0.17471444714E+04  0.11366866674E+04  0.21624665456E+04  0.12699999809E+01 0. -1.
</event>
<event>
 5   0  0.4071750E-09  0.3797192E+04  0.7818609E-02  0.8046758E-01
       -1   -1    0    0    0  501  0.00000000000E+00  0.00000000000E+00  0.24678839035E+04  0.24678839035E+04  0.50400001928E-02 0. -1.
        1   -1    0    0  501    0  0.00000000000E+00  0.00000000000E+00 -0.14606307904E+04  0.14606307904E+04  0.50400001928E-02 0.  1.
    10030    2    1    2    0    0  0.00000000000E+00  0.00000000000E+00  0.10072531131E+04  0.39285146939E+04  0.37971922346E+04 0.  0.
        2    1    3    3  502    0  0.83643952122E+03  0.17036176267E+04  0.44963825510E+03  0.19504149946E+04  0.25500000920E-02 0.  1.
       -2    1    3    3    0  502 -0.83643952122E+03 -0.17036176267E+04  0.55761485803E+03  0.19780996993E+04  0.25500000920E-02 0. -1.
</event>
<event>
 5   0  0.4071750E-09  0.3800055E+04  0.7818609E-02  0.8046143E-01
        1   -1    0    0  501    0  0.00000000000E+00  0.00000000000E+00  0.23715837845E+04  0.23715837845E+04  0.50400001928E-02 0.  1.
       -1   -1    0    0    0  501  0.00000000000E+00  0.00000000000E+00 -0.15222336133E+04  0.15222336133E+04  0.50400001928E-02 0. -1.
    10030    2    1    2    0    0  0.00000000000E+00  0.00000000000E+00  0.84935017120E+03  0.38938173978E+04  0.38000550278E+04 0.  0.
        1    1    3    3  502    0 -0.11466147883E+04 -0.12179408311E+04 -0.49866884705E+03  0.17455016356E+04  0.50400001928E-02 0. -1.
       -1    1    3    3    0  502  0.11466147883E+04  0.12179408311E+04  0.13480190182E+04  0.21483157623E+04  0.50400001928E-02 0.  1.
</event>
<event>
 5   0  0.1261152E-08  0.3799772E+04  0.7818609E-02  0.8046204E-01
       -2   -1    0    0    0  501  0.00000000000E+00  0.00000000000E+00  0.18375942723E+04  0.18375942723E+04  0.25500000920E-02 0. -1.
        2   -1    0    0  501    0  0.00000000000E+00  0.00000000000E+00 -0.19642897172E+04  0.19642897172E+04  0.25500000920E-02 0.  1.
    10030    2    1    2    0    0  0.00000000000E+00  0.00000000000E+00 -0.12669544490E+03  0.38018839896E+04  0.37997723793E+04 0.  0.
        2    1    3    3  502    0  0.14407643284E+04 -0.11486428718E+04 -0.52662256462E+03  0.19163803439E+04  0.25500000920E-02 0.  1.
       -2    1    3    3    0  502 -0.14407643284E+04  0.11486428718E+04  0.39992711972E+03  0.18855036457E+04  0.25500000920E-02 0. -1.
</event>
<event>
 5   0  0.4071750E-09  0.3799790E+04  0.7818609E-02  0.8046200E-01
        1   -1    0    0  501    0  0.00000000000E+00  0.00000000000E+00  0.17524198504E+04  0.17524198504E+04  0.50400001928E-02 0.  1.
       -1   -1    0    0    0  501  0.00000000000E+00  0.00000000000E+00 -0.20597804928E+04  0.20597804928E+04  0.50400001928E-02 0. -1.
    10030    2    1    2    0    0  0.00000000000E+00  0.00000000000E+00 -0.30736064245E+03  0.38122003432E+04  0.37997895853E+04 0.  0.
        5    1    3    3  502    0 -0.11814525685E+04  0.14365770667E+04  0.23487560363E+03  0.18747726474E+04  0.46999998093E+01 0.  1.
       -5    1    3    3    0  502  0.11814525685E+04 -0.14365770667E+04 -0.54223624608E+03  0.19374276959E+04  0.46999998093E+01 0. -1.
</event>
<event>
 5   0  0.4071750E-09  0.3800413E+04  0.7818609E-02  0.8046066E-01
       -1   -1    0    0    0  501  0.00000000000E+00  0.00000000000E+00  0.19148215587E+04  0.19148215587E+04  0.50400001928E-02 0.  1.
        1   -1    0    0  501    0  0.00000000000E+00  0.00000000000E+00 -0.18857029593E+04  0.18857029593E+04  0.50400001928E-02 0. -1.
    10030    2    1    2    0    0  0.00000000000E+00  0.00000000000E+00  0.29118599361E+02  0.38005245180E+04  0.38004129669E+04 0.  0.
        3    1    3    3  502    0  0.63628475871E+03 -0.51118759388E+03 -0.17014787199E+04  0.18871144360E+04  0.10100000352E+00 0. -1.
       -3    1    3    3    0  502 -0.63628475871E+03  0.51118759388E+03  0.17305973192E+04  0.19134100820E+04  0.10100000352E+00 0.  1.
</event>
<event>
 5   0  0.1305088E-08  0.3800424E+04  0.7818609E-02  0.8046064E-01
        2   -1    0    0  501    0  0.00000000000E+00  0.00000000000E+00  0.30575569739E+04  0.30575569739E+04  0.25500000920E-02 0. -1.
       -2   -1    0    0    0  501  0.00000000000E+00  0.00000000000E+00 -0.11809447382E+04  0.11809447382E+04  0.25500000920E-02 0.  1.
    10030    2    1    2    0    0  0.00000000000E+00  0.00000000000E+00  0.18766122357E+04  0.42385017121E+04  0.38004240922E+04 0.  0.
        3    1    3    3  502    0  0.16689047679E+04  0.81731306777E+03  0.13810026203E+04  0.23152563622E+04  0.10100000352E+00 0. -1.
       -3    1    3    3    0  502 -0.16689047679E+04 -0.81731306777E+03  0.49560961540E+03  0.19232453499E+04  0.10100000352E+00 0.  1.
</event>
<event>
 5   0  0.1305088E-08  0.3803604E+04  0.7818609E-02  0.8045382E-01
       -2   -1    0    0    0  501  0.00000000000E+00  0.00000000000E+00  0.17430517437E+04  0.17430517437E+04  0.25500000920E-02 0. -1.
        2   -1    0    0  501    0  0.00000000000E+00  0.00000000000E+00 -0.20750101105E+04  0.20750101105E+04  0.25500000920E-02 0.  1.
    10030    2    1    2    0    0  0.00000000000E+00  0.00000000000E+00 -0.33195836683E+03  0.38180618542E+04  0.38036035499E+04 0.  0.
        3    1    3    3  502    0 -0.72315795441E+03  0.65226846932E+03 -0.18057241502E+04  0.20515972558E+04  0.10100000352E+00 0.  1.
       -3    1    3    3    0  502  0.72315795441E+03 -0.65226846932E+03  0.14737657833E+04  0.17664645984E+04  0.10100000352E+00 0. -1.
</event>
<event>
 5   0  0.4071750E-09  0.3799477E+04  0.7818609E-02  0.8046267E-01
       -1   -1    0    0    0  501  0.00000000000E+00  0.00000000000E+00  0.12142998621E+04  0.12142998621E+04  0.50400001928E-02 0.  1.
        1   -1    0    0  501    0  0.00000000000E+00  0.00000000000E+00 -0.29720888717E+04  0.29720888717E+04  0.50400001928E-02 0. -1.
    10030    2    1    2    0    0  0.00000000000E+00  0.00000000000E+00 -0.17577890096E+04  0.41863887338E+04  0.37994773889E+04 0.  0.
        1    1    3    3  502    0  0.13013318793E+03 -0.18773570509E+04 -0.11653773080E+04  0.22134833212E+04  0.50400001928E-02 0.  1.
       -1    1    3    3    0  502 -0.13013318793E+03  0.18773570509E+04 -0.59241170165E+03  0.19729054127E+04  0.50400001928E-02 0. -1.
</event>
<event>
 5   0  0.1327249E-08  0.3800653E+04  0.7818609E-02  0.8046015E-01
       -2   -1    0    0    0  501  0.00000000000E+00  0.00000000000E+00  0.22300091981E+04  0.22300091981E+04  0.25500000920E-02 0.  1.
        2   -1    0    0  501    0  0.00000000000E+00  0.00000000000E+00 -0.16193841982E+04  0.16193841982E+04  0.25500000920E-02 0. -1.
    10030    2    1    2    0    0  0.00000000000E+00  0.00000000000E+00  0.61062499989E+03  0.38493933963E+04  0.38006534476E+04 0.  0.
        1    1    3    3  502    0 -0.74334621649E+03 -0.59298371685E+03  0.19717231539E+04  0.21890375697E+04  0.50400001928E-02 0.  1.
       -1    1    3    3    0  502  0.74334621649E+03  0.59298371685E+03 -0.13610981540E+04  0.16603558266E+04  0.50400001928E-02 0. -1.
</event>
<event>
 5   0  0.4071750E-09  0.3795170E+04  0.7818609E-02  0.8047192E-01
        1   -1    0    0  501    0  0.00000000000E+00  0.00000000000E+00  0.21941544067E+04  0.21941544067E+04  0.50400001928E-02 0.  1.
       -1   -1    0    0    0  501  0.00000000000E+00  0.00000000000E+00 -0.16411012333E+04  0.16411012333E+04  0.50400001928E-02 0. -1.
    10030    2    1    2    0    0  0.00000000000E+00  0.00000000000E+00  0.55305317339E+03  0.38352556400E+04  0.37951703534E+04 0.  0.
        2    1    3    3  502    0 -0.42944067182E+03  0.13881038940E+04  0.15099001543E+04  0.20954832825E+04  0.25500000920E-02 0.  1.
       -2    1    3    3    0  502  0.42944067182E+03 -0.13881038940E+04 -0.95684698091E+03  0.17397723575E+04  0.25500000920E-02 0. -1.
</event>
<event>
 5   0  0.4071750E-09  0.3802417E+04  0.7818609E-02  0.8045636E-01
        1   -1    0    0  501    0  0.00000000000E+00  0.00000000000E+00  0.18334733648E+04  0.18334733649E+04  0.50400001928E-02 0. -1.
       -1   -1    0    0    0  501  0.00000000000E+00  0.00000000000E+00 -0.19714462713E+04  0.19714462713E+04  0.50400001928E-02 0.  1.
    10030    2    1    2    0    0  0.00000000000E+00  0.00000000000E+00 -0.13797290644E+03  0.38049196361E+04  0.38024172463E+04 0.  0.
        1    1    3    3  502    0 -0.18991660012E+04  0.88056768204E+02 -0.71943752051E+02  0.19025670548E+04  0.50400001928E-02 0. -1.
       -1    1    3    3    0  502  0.18991660012E+04 -0.88056768204E+02 -0.66029154384E+02  0.19023525814E+04  0.50400001928E-02 0.  1.
</event>
<event>
 5   0  0.4071750E-09  0.3800388E+04  0.7818609E-02  0.8046072E-01
       -1   -1    0    0    0  501  0.00000000000E+00  0.00000000000E+00  0.12384503174E+04  0.12384503174E+04  0.50400001928E-02 0.  1.
        1   -1    0    0  501    0  0.00000000000E+00  0.00000000000E+00 -0.29155290259E+04  0.29155290260E+04  0.50400001928E-02 0. -1.
    10030    2    1    2    0    0  0.00000000000E+00  0.00000000000E+00 -0.16770787086E+04  0.41539793434E+04  0.38003883210E+04 0.  0.
        2    1    3    3  502    0  0.21334874103E+03  0.18165009191E+04 -0.14017943767E+04  0.23043916223E+04  0.25500000920E-02 0.  1.
       -2    1    3    3    0  502 -0.21334874103E+03 -0.18165009191E+04 -0.27528433188E+03  0.18495877210E+04  0.25500000920E-02 0. -1.
</event>
<event>
 5   0  0.1327249E-08  0.3804999E+04  0.7818609E-02  0.8045083E-01
        2   -1    0    0  501    0  0.00000000000E+00  0.00000000000E+00  0.24218914746E+04  0.24218914746E+04  0.25500000920E-02 0. -1.
       -2   -1    0    0    0  501  0.00000000000E+00  0.00000000000E+00 -0.14944944912E+04  0.14944944912E+04  0.25500000920E-02 0.  1.
    10030    2    1    2    0    0  0.00000000000E+00  0.00000000000E+00  0.92739698344E+03  0.39163859658E+04  0.38049985372E+04 0.  0.
        1    1    3    3  502    0 -0.99863132249E+02 -0.64660875022E+03  0.23024519955E+04  0.23936083040E+04  0.50400001928E-02 0. -1.
       -1    1    3    3    0  502  0.99863132249E+02  0.64660875022E+03 -0.13750550121E+04  0.15227776618E+04  0.50400001928E-02 0.  1.
</event>
<event>
 5   0  0.4071750E-09  0.3801080E+04  0.7818609E-02  0.8045923E-01
        1   -1    0    0  501    0  0.00000000000E+00  0.00000000000E+00  0.15493963206E+04  0.15493963206E+04  0.50400001928E-02 0. -1.
       -1   -1    0    0    0  501  0.00000000000E+00  0.00000000000E+00 -0.23312648303E+04  0.23312648303E+04  0.50400001928E-02 0.  1.
    10030    2    1    2    0    0  0.00000000000E+00  0.00000000000E+00 -0.78186850974E+03  0.38806611509E+04  0.38010804519E+04 0.  0.
        4    1    3    3  502    0 -0.57170288712E+03 -0.75051207072E+03  0.12934371253E+04  0.16009665110E+04  0.12699999809E+01 0. -1.
       -4    1    3    3    0  502  0.57170288712E+03  0.75051207072E+03 -0.20753056351E+04  0.22796946399E+04  0.12699999809E+01 0.  1.
</event>
<event>
 5   0  0.4071750E-09  0.3799669E+04  0.7818609E-02  0.8046226E-01
       -1   -1    0    0    0  501  0.00000000000E+00  0.00000000000E+00  0.16598508723E+04  0.16598508723E+04  0.50400001928E-02 0. -1.
        1   -1    0    0  501    0  0.00000000000E+00  0.00000000000E+00 -0.21745150755E+04  0.21745150755E+04  0.50400001928E-02 0.  1.
    10030    2    1    2    0    0  0.00000000000E+00  0.00000000000E+00 -0.51466420322E+03  0.38343659478E+04  0.37996687986E+04 0.  0.
        2    1    3    3  502    0  0.34826909989E+03  0.11686583374E+04 -0.17274526571E+04  0.21145085382E+04  0.25500000920E-02 0.  1.
       -2    1    3    3    0  502 -0.34826909989E+03 -0.11686583374E+04  0.12127884539E+04  0.17198574096E+04  0.25500000920E-02 0. -1.
</event>
<event>
 5   0  0.1261152E-08  0.3797908E+04  0.7818609E-02  0.8046604E-01
        2   -1    0    0  501    0  0.00000000000E+00  0.00000000000E+00  0.28890307731E+04  0.28890307731E+04  0.25500000920E-02 0. -1.
       -2   -1    0    0    0  501  0.00000000000E+00  0.00000000000E+00 -0.12481784709E+04  0.12481784709E+04  0.25500000920E-02 0.  1.
    10030    2    1    2    0    0  0.00000000000E+00  0.00000000000E+00  0.16408523023E+04  0.41372092440E+04  0.37979078518E+04 0.  0.
        2    1    3    3  502    0  0.83666597803E+03 -0.16540099256E+04  0.37092730052E+03  0.18903295625E+04  0.25500000920E-02 0.  1.
       -2    1    3    3    0  502 -0.83666597803E+03  0.16540099256E+04  0.12699250018E+04  0.22468796814E+04  0.25500000920E-02 0. -1.
</event>
<event>
 5   0  0.4071750E-09  0.3800481E+04  0.7818609E-02  0.8046052E-01
       -1   -1    0    0    0  501  0.00000000000E+00  0.00000000000E+00  0.18729379300E+04  0.18729379300E+04  0.50400001928E-02 0.  1.
        1   -1    0    0  501    0  0.00000000000E+00  0.00000000000E+00 -0.19279411258E+04  0.19279411259E+04  0.50400001928E-02 0. -1.
    10030    2    1    2    0    0  0.00000000000E+00  0.00000000000E+00 -0.55003195806E+02  0.38008790559E+04  0.38004810545E+04 0.  0.
        3    1    3    3  502    0  0.26913225340E+03  0.16233349233E+04 -0.97800399411E+03  0.19141944169E+04  0.10100000352E+00 0. -1.
       -3    1    3    3    0  502 -0.26913225340E+03 -0.16233349233E+04  0.92300079830E+03  0.18866846390E+04  0.10100000352E+00 0.  1.
</event>
<event>
 5   0  0.1293993E-08  0.3804084E+04  0.7818609E-02  0.8045279E-01
       -2   -1    0    0    0  501  0.00000000000E+00  0.00000000000E+00  0.23679049470E+04  0.23679049470E+04  0.25500000920E-02 0.  1.
        2   -1    0    0  501    0  0.00000000000E+00  0.00000000000E+00 -0.15278335203E+04  0.15278335203E+04  0.25500000920E-02 0. -1.
    10030    2    1    2    0    0  0.00000000000E+00  0.00000000000E+00  0.84007142672E+03  0.38957384673E+04  0.38040844107E+04 0.  0.
        5    1    3    3  502    0  0.41857331006E+03 -0.15876709243E+04  0.14032935015E+04  0.21598975256E+04  0.46999998093E+01 0.  1.
       -5    1    3    3    0  502 -0.41857331006E+03  0.15876709243E+04 -0.56322207478E+03  0.17358409418E+04  0.46999998093E+01 0. -1.
</event>
<event>
 5   0  0.4071750E-09  0.3799815E+04  0.7818609E-02  0.8046195E-01
        1   -1    0    0  501    0  0.00000000000E+00  0.00000000000E+00  0.31598831689E+04  0.31598831689E+04  0.50400001928E-02 0.  1.
       -1   -1    0    0    0  501  0.00000000000E+00  0.00000000000E+00 -0.11423359544E+04  0.11423359544E+04  0.50400001928E-02 0. -1.
    10030    2    1    2    0    0  0.00000000000E+00  0.00000000000E+00  0.20175472144E+04  0.43022191233E+04  0.37998148142E+04 0.  0.
        3    1    3    3  502    0  0.15300847734E+04 -0.27276586150E+03 -0.22844993081E+03  0.15709073843E+04  0.10100000352E+00 0. -1.
       -3    1    3    3    0  502 -0.15300847734E+04  0.27276586150E+03  0.22459971453E+04  0.27313117390E+04  0.10100000352E+00 0.  1.
</event>
<event>
 5   0  0.1261152E-08  0.3798170E+04  0.7818609E-02  0.8046548E-01
       -2   -1    0    0    0  501  0.00000000000E+00  0.00000000000E+00  0.24800120528E+04  0.24800120528E+04  0.25500000920E-02 0. -1.
        2   -1    0    0  501    0  0.00000000000E+00  0.00000000000E+00 -0.14542366881E+04  0.14542366881E+04  0.25500000920E-02 0.  1.
    10030    2    1    2    0    0  0.00000000000E+00  0.00000000000E+00  0.10257753647E+04  0.39342487409E+04  0.37981703564E+04 0.  0.
        2    1    3    3  502    0  0.78192736616E+03 -0.12769267869E+04 -0.69711300371E+03  0.16516412943E+04  0.25500000920E-02 0. -1.
       -2    1    3    3    0  502 -0.78192736616E+03  0.12769267869E+04  0.17228883684E+04  0.22826074466E+04  0.25500000920E-02 0.  1.
</event>
<event>
 5   0  0.1261152E-08  0.3801068E+04  0.7818609E-02  0.8045926E-01
       -2   -1    0    0    0  501  0.00000000000E+00  0.00000000000E+00  0.21052369786E+04  0.21052369786E+04  0.25500000920E-02 0. -1.
        2   -1    0    0  501    0  0.00000000000E+00  0.00000000000E+00 -0.17157355703E+04  0.17157355703E+04  0.25500000920E-02 0.  1.
    10030    2    1    2    0    0  0.00000000000E+00  0.00000000000E+00  0.38950140825E+03  0.38209725489E+04  0.38010682541E+04 0.  0.
        2    1    3    3  502    0 -0.12265945591E+04 -0.16868646910E+03 -0.12546876125E+04  0.17627337695E+04  0.25500000920E-02 0.  1.
       -2    1    3    3    0  502  0.12265945591E+04  0.16868646910E+03  0.16441890207E+04  0.20582387794E+04  0.25500000920E-02 0. -1.
</event>
<event>
 5   0  0.4071750E-09  0.3798396E+04  0.7818609E-02  0.8046499E-01
        1   -1    0    0  501    0  0.00000000000E+00  0.00000000000E+00  0.15088150418E+04  0.15088150418E+04  0.50400001928E-02 0.  1.
       -1   -1    0    0    0  501  0.00000000000E+00  0.00000000000E+00 -0.23905862274E+04  0.23905862274E+04  0.50400001928E-02 0. -1.
    10030    2    1    2    0    0  0.00000000000E+00  0.00000000000E+00 -0.88177118559E+03  0.38994012692E+04  0.37983956922E+04 0.  0.
        1    1    3    3  502    0 -0.46564693414E+03  0.92716270418E+03 -0.20739391988E+04  0.23189828692E+04  0.50400001928E-02 0. -1.
       -1    1    3    3    0  502  0.46564693414E+03 -0.92716270418E+03  0.11921680132E+04  0.15804184000E+04  0.50400001928E-02 0.  1.
</event>
<event>
 5   0  0.1305088E-08  0.3799058E+04  0.7818609E-02  0.8046357E-01
        2   -1    0    0  501    0  0.00000000000E+00  0.00000000000E+00  0.11103959949E+04  0.11103959949E+04  0.25500000920E-02 0. -1.
       -2   -1    0    0    0  501  0.00000000000E+00  0.00000000000E+00 -0.32494812114E+04  0.32494812114E+04  0.25500000920E-02 0.  1.
    10030    2    1    2    0    0  0.00000000000E+00  0.00000000000E+00 -0.21390852166E+04  0.43598772063E+04  0.37990582636E+04 0.  0.
        3    1    3    3  502    0 -0.36762233800E+03 -0.17777767589E+03  0.10594279511E+04  0.11354024305E+04  0.10100000352E+00 0. -1.
       -3    1    3    3    0  502  0.36762233800E+03  0.17777767589E+03 -0.31985131677E+04  0.32244747758E+04  0.10100000352E+00 0.  1.
</event>
<event>
 5   0  0.1261152E-08  0.3804387E+04  0.7818609E-02  0.8045214E-01
       -2   -1    0    0    0  501  0.00000000000E+00  0.00000000000E+00  0.11699327522E+04  0.11699327522E+04  0.25500000920E-02 0. -1.
        2   -1    0    0  501    0  0.00000000000E+00  0.00000000000E+00 -0.30927765681E+04  0.30927765682E+04  0.25500000920E-02 0.  1.
    10030    2    1    2    0    0  0.00000000000E+00  0.00000000000E+00 -0.19228438160E+04  0.42627093203E+04  0.38043872580E+04 0.  0.
        2    1    3    3  502    0  0.11823073255E+04 -0.81878764296E+03 -0.23564328249E+04  0.27606230229E+04  0.25500000920E-02 0.  1.
       -2    1    3    3    0  502 -0.11823073255E+04  0.81878764296E+03  0.43358900892E+03  0.15020862974E+04  0.25500000920E-02 0. -1.
</event>
<event>
 5   0  0.4071750E-09  0.3803521E+04  0.7818609E-02  0.8045400E-01
       -1   -1    0    0    0  501  0.00000000000E+00  0.00000000000E+00  0.20177786344E+04  0.20177786344E+04  0.50400001928E-02 0.  1.
        1   -1    0    0  501    0  0.00000000000E+00  0.00000000000E+00 -0.17924129880E+04  0.17924129880E+04  0.50400001928E-02 0. -1.
    10030    2    1    2    0    0  0.00000000000E+00  0.00000000000E+00  0.22536564637E+03  0.38101916224E+04  0.38035208065E+04 0.  0.
        3    1    3    3  502    0 -0.52505413673E+03 -0.52182289792E+03  0.18675290315E+04  0.20088916538E+04  0.10100000352E+00 0.  1.
       -3    1    3    3    0  502  0.52505413673E+03  0.52182289792E+03 -0.16421633851E+04  0.18012999686E+04  0.10100000352E+00 0. -1.
</event>
<event>
 5   0  0.4071750E-09  0.3797913E+04  0.7818609E-02  0.8046603E-01
        1   -1    0    0  501    0  0.00000000000E+00  0.00000000000E+00  0.20169043733E+04  0.20169043733E+04  0.50400001928E-02 0.  1.
       -1   -1    0    0    0  501  0.00000000000E+00  0.00000000000E+00 -0.17879060668E+04  0.17879060668E+04  0.50400001928E-02 0. -1.
    10030    2    1    2    0    0  0.00000000000E+00  0.00000000000E+00  0.22899830650E+03  0.38048104402E+04  0.37979128823E+04 0.  0.
        5    1    3    3  502    0 -0.18508451521E+04  0.37431562565E+03 -0.86547927526E+02  0.18903048956E+04  0.46999998093E+01 0.  1.
       -5    1    3    3    0  502  0.18508451521E+04 -0.37431562565E+03  0.31554623402E+03  0.19145055446E+04  0.46999998093E+01 0. -1.
</event>
<event>
 5   0  0.4071750E-09  0.3799292E+04  0.7818609E-02  0.8046307E-01
        1   -1    0    0  501    0  0.00000000000E+00  0.00000000000E+00  0.20226605610E+04  0.20226605610E+04  0.50400001928E-02 0. -1.
       -1   -1    0    0    0  501  0.00000000000E+00  0.00000000000E+00 -0.17841133500E+04  0.17841133500E+04  0.50400001928E-02 0.  1.
    10030    2    1    2    0    0  0.00000000000E+00  0.00000000000E+00  0.23854721105E+03  0.38067739110E+04  0.37992924127E+04 0.  0.
        4    1    3    3  502    0  0.17265393004E+04  0.48447063843E+03 -0.50886145888E+03  0.18640255773E+04  0.12699999809E+01 0.  1.
       -4    1    3    3    0  502 -0.17265393004E+04 -0.48447063843E+03  0.74740866993E+03  0.19427483337E+04  0.12699999809E+01 0. -1.
</event>
<event>
 5   0  0.1305088E-08  0.3798086E+04  0.7818609E-02  0.8046566E-01
       -2   -1    0    0    0  501  0.00000000000E+00  0.00000000000E+00  0.24201936429E+04  0.24201936429E+04  0.25500000920E-02 0. -1.
        2   -1    0    0  501    0  0.00000000000E+00  0.00000000000E+00 -0.14901140125E+04  0.14901140125E+04  0.25500000920E-02 0.  1.
    10030    2    1    2    0    0  0.00000000000E+00  0.00000000000E+00  0.93007963038E+03  0.39103076553E+04  0.37980860760E+04 0.  0.
        3    1    3    3  502    0  0.52004966866E+03 -0.80113473414E+03 -0.12248276832E+04  0.15532132448E+04  0.10100000352E+00 0.  1.
       -3    1    3    3    0  502 -0.52004966866E+03  0.80113473414E+03  0.21549073135E+04  0.23570944106E+04  0.10100000352E+00 0. -1.
</event>
<event>
 5   0  0.1261152E-08  0.3800424E+04  0.7818609E-02  0.8046064E-01
       -2   -1    0    0    0  501  0.00000000000E+00  0.00000000000E+00  0.25711505003E+04  0.25711505003E+04  0.25500000920E-02 0.  1.
        2   -1    0    0  501    0  0.00000000000E+00  0.00000000000E+00 -0.14043538017E+04  0.14043538017E+04  0.25500000920E-02 0. -1.
    10030    2    1    2    0    0  0.00000000000E+00  0.00000000000E+00  0.11667966986E+04  0.39755043020E+04  0.38004236500E+04 0.  0.
        2    1    3    3  502    0  0.17953149726E+04  0.96069527964E+01 -0.67821930149E+02  0.17966212618E+04  0.25500000920E-02 0. -1.
       -2    1    3    3    0  502 -0.17953149726E+04 -0.96069527964E+01  0.12346186288E+04  0.21788830402E+04  0.25500000920E-02 0.  1.
</event>
<event>
 5   0  0.1264013E-08  0.3799702E+04  0.7818609E-02  0.8046219E-01
        2   -1    0    0  501    0  0.00000000000E+00  0.00000000000E+00  0.13599721861E+04  0.13599721861E+04  0.25500000920E-02 0. -1.
       -2   -1    0    0    0  501  0.00000000000E+00  0.00000000000E+00 -0.26540502668E+04  0.26540502668E+04  0.25500000920E-02 0.  1.
    10030    2    1    2    0    0  0.00000000000E+00  0.00000000000E+00 -0.12940780807E+04  0.40140224529E+04  0.37997023795E+04 0.  0.
        4    1    3    3  502    0 -0.15021616598E+04  0.11252917652E+04 -0.33605086794E+03  0.19067519523E+04  0.12699999809E+01 0. -1.
       -4    1    3    3    0  502  0.15021616598E+04 -0.11252917652E+04 -0.95802721277E+03  0.21072705005E+04  0.12699999809E+01 0.  1.
</event>
<event>
 5   0  0.4071750E-09  0.3799041E+04  0.7818609E-02  0.8046361E-01
       -1   -1    0    0    0  501  0.00000000000E+00  0.00000000000E+00  0.22900819386E+04  0.22900819386E+04  0.50400001928E-02 0. -1.
        1   -1    0    0  501    0  0.00000000000E+00  0.00000000000E+00 -0.15755669020E+04  0.15755669021E+04  0.50400001928E-02 0.  1.
    10030    2    1    2    0    0  0.00000000000E+00  0.00000000000E+00  0.71451503656E+03  0.38656488407E+04  0.37990405660E+04 0.  0.
        2    1    3    3  502    0 -0.38555279175E+03 -0.18209187854E+04 -0.28575518433E+02  0.18615081892E+04  0.25500000920E-02 0.  1.
       -2    1    3    3    0  502  0.38555279175E+03  0.18209187854E+04  0.74309055500E+03  0.20041406515E+04  0.25500000920E-02 0. -1.
</event>
<event>
 5   0  0.1327249E-08  0.3798206E+04  0.7818609E-02  0.8046540E-01
       -2   -1    0    0    0  501  0.00000000000E+00  0.00000000000E+00  0.23731263275E+04  0.23731263275E+04  0.25500000920E-02 0. -1.
        2   -1    0    0  501    0  0.00000000000E+00  0.00000000000E+00 -0.15197637838E+04  0.15197637838E+04  0.25500000920E-02 0.  1.
    10030    2    1    2    0    0  0.00000000000E+00  0.00000000000E+00  0.85336254366E+03  0.38928901113E+04  0.37982056011E+04 0.  0.
        1    1    3    3  502    0  0.57624277202E+03 -0.29171502636E+03 -0.14037387635E+04  0.15451976912E+04  0.50400001928E-02 0.  1.
       -1    1    3    3    0  502 -0.57624277202E+03  0.29171502636E+03  0.22571013071E+04  0.23476924201E+04  0.50400001928E-02 0. -1.
</event>
<event>
 5   0  0.1261152E-08  0.3800783E+04  0.7818609E-02  0.8045987E-01
        2   -1    0    0  501    0  0.00000000000E+00  0.00000000000E+00  0.20770382164E+04  0.20770382164E+04  0.25500000920E-02 0.  1.
       -2   -1    0    0    0  501  0.00000000000E+00  0.00000000000E+00 -0.17387678173E+04  0.17387678173E+04  0.25500000920E-02 0. -1.
    10030    2    1    2    0    0  0.00000000000E+00  0.00000000000E+00  0.33827039914E+03  0.38158060337E+04  0.38007826594E+04 0.  0.
        2    1    3    3  502    0  0.88884269175E+03 -0.75880309470E+03 -0.13353420250E+04  0.17745314286E+04  0.25500000920E-02 0. -1.
       -2    1    3    3    0  502 -0.88884269175E+03  0.75880309470E+03  0.16736124242E+04  0.20412746051E+04  0.25500000920E-02 0.  1.
</event>
<event>
 5   0  0.4071750E-09  0.3802198E+04  0.7818609E-02  0.8045683E-01
        1   -1    0    0  501    0  0.00000000000E+00  0.00000000000E+00  0.20973359651E+04  0.20973359651E+04  0.50400001928E-02 0.  1.
       -1   -1    0    0    0  501  0.00000000000E+00  0.00000000000E+00 -0.17232231377E+04  0.17232231377E+04  0.50400001928E-02 0. -1.
    10030    2    1    2    0    0  0.00000000000E+00  0.00000000000E+00  0.37411282746E+03  0.38205591028E+04  0.38021982392E+04 0.  0.
        1    1    3    3  502    0 -0.12637843537E+04  0.17616455537E+03  0.16031143583E+04  0.20489413093E+04  0.50400001928E-02 0.  1.
       -1    1    3    3    0  502  0.12637843537E+04 -0.17616455537E+03 -0.12290015309E+04  0.17716177935E+04  0.50400001928E-02 0. -1.
</event>
<event>
 5   0  0.4071750E-09  0.3797944E+04  0.7818609E-02  0.8046596E-01
        1   -1    0    0  501    0  0.00000000000E+00  0.00000000000E+00  0.14627859174E+04  0.14627859174E+04  0.50400001928E-02 0. -1.
       -1   -1    0    0    0  501  0.00000000000E+00  0.00000000000E+00 -0.24652238802E+04  0.24652238802E+04  0.50400001928E-02 0.  1.
    10030    2    1    2    0    0  0.00000000000E+00  0.00000000000E+00 -0.10024379627E+04  0.39280097976E+04  0.37979440624E+04 0.  0.
        5    1    3    3  502    0  0.12941436739E+03  0.89155306834E+03  0.12276925502E+04  0.15227823350E+04  0.46999998093E+01 0. -1.
       -5    1    3    3    0  502 -0.12941436739E+03 -0.89155306834E+03 -0.22301305129E+04  0.24052274626E+04  0.46999998093E+01 0.  1.
</event>
<event>
 5   0  0.4071750E-09  0.3799471E+04  0.7818609E-02  0.8046268E-01
       -1   -1    0    0    0  501  0.00000000000E+00  0.00000000000E+00  0.24950233577E+04  0.24950233577E+04  0.50400001928E-02 0. -1.
        1   -1    0    0  501    0  0.00000000000E+00  0.00000000000E+00 -0.14464777563E+04  0.14464777563E+04  0.50400001928E-02 0.  1.
    10030    2    1    2    0    0  0.00000000000E+00  0.00000000000E+00  0.10485456015E+04  0.39415011140E+04  0.37994714308E+04 0.  0.
        4    1    3    3  502    0  0.62597566495E+03 -0.17509974465E+04  0.92759488767E+03  0.20780451100E+04  0.12699999809E+01 0. -1.
       -4    1    3    3    0  502 -0.62597566495E+03  0.17509974465E+04  0.12095071378E+03  0.18634560040E+04  0.12699999809E+01 0.  1.
</event>
<event>
 5   0  0.4071750E-09  0.3801257E+04  0.7818609E-02  0.8045885E-01
        1   -1    0    0  501    0  0.00000000000E+00  0.00000000000E+00  0.21294417950E+04  0.21294417950E+04  0.50400001928E-02 0.  1.
       -1   -1    0    0    0  501  0.00000000000E+00  0.00000000000E+00 -0.16964017953E+04  0.16964017953E+04  0.50400001928E-02 0. -1.
    10030    2    1    2    0    0  0.00000000000E+00  0.00000000000E+00  0.43303999968E+03  0.38258435903E+04  0.38012570995E+04 0.  0.
        3    1    3    3  502    0  0.16759882877E+04 -0.86118308203E+03 -0.33716022521E+02  0.18845980531E+04  0.10100000352E+00 0.  1.
       -3    1    3    3    0  502 -0.16759882877E+04  0.86118308203E+03  0.46675602220E+03  0.19412455372E+04  0.10100000352E+00 0. -1.
</event>
<event>
 5   0  0.1305088E-08  0.3801415E+04  0.7818609E-02  0.8045851E-01
        2   -1    0    0  501    0  0.00000000000E+00  0.00000000000E+00  0.12688247692E+04  0.12688247692E+04  0.25500000920E-02 0. -1.
       -2   -1    0    0    0  501  0.00000000000E+00  0.00000000000E+00 -0.28472714673E+04  0.28472714673E+04  0.25500000920E-02 0.  1.
    10030    2    1    2    0    0  0.00000000000E+00  0.00000000000E+00 -0.15784466981E+04  0.41160962365E+04  0.38014147694E+04 0.  0.
        3    1    3    3  502    0 -0.13618285949E+03  0.18000676225E+04 -0.14333631518E+04  0.23050638065E+04  0.10100000352E+00 0.  1.
       -3    1    3    3    0  502  0.13618285949E+03 -0.18000676225E+04 -0.14508354628E+03  0.18110324300E+04  0.10100000352E+00 0. -1.
</event>
<event>
 5   0  0.4071750E-09  0.3800288E+04  0.7818609E-02  0.8046093E-01
        1   -1    0    0  501    0  0.00000000000E+00  0.00000000000E+00  0.20071310879E+04  0.20071310879E+04  0.50400001928E-02 0.  1.
       -1   -1    0    0    0  501  0.00000000000E+00  0.00000000000E+00 -0.17988595833E+04  0.17988595833E+04  0.50400001928E-02 0. -1.
    10030    2    1    2    0    0  0.00000000000E+00  0.00000000000E+00  0.20827150457E+03  0.38059906712E+04  0.38002878798E+04 0.  0.
        2    1    3    3  502    0  0.22410404284E+03  0.18563630110E+04 -0.23436663049E+03  0.18844718008E+04  0.25500000920E-02 0. -1.
       -2    1    3    3    0  502 -0.22410404284E+03 -0.18563630110E+04  0.44263813506E+03  0.19215188704E+04  0.25500000920E-02 0.  1.
</event>
<event>
 5   0  0.1327249E-08  0.3795527E+04  0.7818609E-02  0.8047115E-01
        2   -1    0    0  501    0  0.00000000000E+00  0.00000000000E+00  0.15080847814E+04  0.15080847814E+04  0.25500000920E-02 0.  1.
       -2   -1    0    0    0  501  0.00000000000E+00  0.00000000000E+00 -0.23881327661E+04  0.23881327661E+04  0.25500000920E-02 0. -1.
    10030    2    1    2    0    0  0.00000000000E+00  0.00000000000E+00 -0.88004798468E+03  0.38962175476E+04  0.37955271996E+04 0.  0.
        1    1    3    3  502    0  0.82037767410E+03 -0.57615606456E+03  0.12140992900E+04  0.15744879882E+04  0.50400001928E-02 0.  1.
       -1    1    3    3    0  502 -0.82037767410E+03  0.57615606456E+03 -0.20941472747E+04  0.23217295594E+04  0.50400001928E-02 0. -1.
</event>
<event>
 5   0  0.4071750E-09  0.3799690E+04  0.7818609E-02  0.8046221E-01
       -1   -1    0    0    0  501  0.00000000000E+00  0.00000000000E+00  0.15158711070E+04  0.15158711070E+04  0.50400001928E-02 0. -1.
        1   -1    0    0  501    0  0.00000000000E+00  0.00000000000E+00 -0.23810808639E+04  0.23810808639E+04  0.50400001928E-02 0.  1.
    10030    2    1    2    0    0  0.00000000000E+00  0.00000000000E+00 -0.86520975690E+03  0.38969519709E+04  0.37996903479E+04 0.  0.
        2    1    3    3  502    0  0.49276936208E+03  0.11372108558E+03  0.14455707674E+04  0.15314793414E+04  0.25500000920E-02 0. -1.
       -2    1    3    3    0  502 -0.49276936208E+03 -0.11372108558E+03 -0.23107805243E+04  0.23654726295E+04  0.25500000920E-02 0.  1.
</event>
<event>
 5   0  0.4071750E-09  0.3802403E+04  0.7818609E-02  0.8045639E-01
       -1   -1    0    0    0  501  0.00000000000E+00  0.00000000000E+00  0.19891684528E+04  0.19891684529E+04  0.50400001928E-02 0.  1.
        1   -1    0    0  501    0  0.00000000000E+00  0.00000000000E+00 -0.18171250506E+04  0.18171250506E+04  0.50400001928E-02 0. -1.
    10030    2    1    2    0    0  0.00000000000E+00  0.00000000000E+00  0.17204340223E+03  0.38062935035E+04  0.38024033587E+04 0.  0.
        3    1    3    3  502    0  0.10916454533E+04 -0.12155438731E+04  0.10592978137E+04  0.19471385599E+04  0.10100000352E+00 0.  1.
       -3    1    3    3    0  502 -0.10916454533E+04  0.12155438731E+04 -0.88725441143E+03  0.18591549435E+04  0.10100000352E+00 0. -1.
</event>
<event>
 5   0  0.1264013E-08  0.3798612E+04  0.7818609E-02  0.8046453E-01
        2   -1    0    0  501    0  0.00000000000E+00  0.00000000000E+00  0.18279084437E+04  0.18279084437E+04  0.25500000920E-02 0. -1.
       -2   -1    0    0    0  501  0.00000000000E+00  0.00000000000E+00 -0.19734919258E+04  0.19734919258E+04  0.25500000920E-02 0.  1.
    10030    2    1    2    0    0  0.00000000000E+00  0.00000000000E+00 -0.14558348211E+03  0.38014003695E+04  0.37986116173E+04 0.  0.
        4    1    3    3  502    0  0.12505537073E+04 -0.31103572820E+03 -0.14690698587E+04  0.19541739078E+04  0.12699999809E+01 0.  1.
       -4    1    3    3    0  502 -0.12505537073E+04  0.31103572820E+03  0.13234863766E+04  0.18472264618E+04  0.12699999809E+01 0. -1.
</event>
<event>
 5   0  0.4071750E-09  0.3799305E+04  0.7818609E-02  0.8046304E-01
        1   -1    0    0  501    0  0.00000000000E+00  0.00000000000E+00  0.18647702554E+04  0.18647702554E+04  0.50400001928E-02 0.  1.
       -1   -1    0    0    0  501  0.00000000000E+00  0.00000000000E+00 -0.19351873064E+04  0.19351873065E+04  0.50400001928E-02 0. -1.
    10030    2    1    2    0    0  0.00000000000E+00  0.00000000000E+00 -0.70417051069E+02  0.37999575618E+04  0.37993050563E+04 0.  0.
        4    1    3    3  502    0  0.10240277013E+03  0.13174343917E+04 -0.14001987197E+04  0.19252734277E+04  0.12699999809E+01 0. -1.
       -4    1    3    3    0  502 -0.10240277013E+03 -0.13174343917E+04  0.13297816686E+04  0.18746841342E+04  0.12699999809E+01 0.  1.
</event>
<event>
 5   0  0.1261152E-08  0.3798048E+04  0.7818609E-02  0.8046574E-01
        2   -1    0    0  501    0  0.00000000000E+00  0.00000000000E+00  0.15726084447E+04  0.15726084447E+04  0.25500000920E-02 0.  1.
       -2   -1    0    0    0  501  0.00000000000E+00  0.00000000000E+00 -0.22931914733E+04  0.22931914733E+04  0.25500000920E-02 0. -1.
    10030    2    1    2    0    0  0.00000000000E+00  0.00000000000E+00 -0.72058302864E+03  0.38657999180E+04  0.37980480651E+04 0.  0.
        2    1    3    3  502    0  0.51294914947E+03 -0.62041877840E+03 -0.21109312911E+04  0.22592182732E+04  0.25500000920E-02 0. -1.
       -2    1    3    3    0  502 -0.51294914947E+03  0.62041877840E+03  0.13903482624E+04  0.16065816448E+04  0.25500000920E-02 0.  1.
</event>
<event>
 5   0  0.4071750E-09  0.3799072E+04  0.7818609E-02  0.8046354E-01
        1   -1    0    0  501    0  0.00000000000E+00  0.00000000000E+00  0.20976105368E+04  0.20976105368E+04  0.50400001928E-02 0. -1.
       -1   -1    0    0    0  501  0.00000000000E+00  0.00000000000E+00 -0.17201653018E+04  0.17201653018E+04  0.50400001928E-02 0.  1.
    10030    2    1    2    0    0  0.00000000000E+00  0.00000000000E+00  0.37744523495E+03  0.38177758386E+04  0.37990719193E+04 0.  0.
        5    1    3    3  502    0 -0.16602537651E+04 -0.18534045417E+03 -0.71984203808E+03  0.18190624779E+04  0.46999998093E+01 0.  1.
       -5    1    3    3    0  502  0.16602537651E+04  0.18534045417E+03  0.10972872730E+04  0.19987133607E+04  0.46999998093E+01 0. -1.
</event>
<event>
 5   0  0.1305088E-08  0.3800640E+04  0.7818609E-02  0.8046018E-01
       -2   -1    0    0    0  501  0.00000000000E+00  0.00000000000E+00  0.18518434962E+04  0.18518434962E+04  0.25500000920E-02 0.  1.
        2   -1    0    0  501    0  0.00000000000E+00  0.00000000000E+00 -0.19500652722E+04  0.19500652722E+04  0.25500000920E-02 0. -1.
    10030    2    1    2    0    0  0.00000000000E+00  0.00000000000E+00 -0.98221775998E+02  0.38019087684E+04  0.38006397838E+04 0.  0.
        3    1    3    3  502    0  0.55038742159E+03  0.74797012752E+03 -0.17076240655E+04  0.19438018379E+04  0.10100000352E+00 0. -1.
       -3    1    3    3    0  502 -0.55038742159E+03 -0.74797012752E+03  0.16094022895E+04  0.18581069305E+04  0.10100000352E+00 0.  1.
</event>
<event>
 5   0  0.4071750E-09  0.3799979E+04  0.7818609E-02  0.8046159E-01
        1   -1    0    0  501    0  0.00000000000E+00  0.00000000000E+00  0.24998926658E+04  0.24998926658E+04  0.50400001928E-02 0.  1.
       -1   -1    0    0    0  501  0.00000000000E+00  0.00000000000E+00 -0.14440462879E+04  0.14440462879E+04  0.50400001928E-02 0. -1.
    10030    2    1    2    0    0  0.00000000000E+00  0.00000000000E+00  0.10558463779E+04  0.39439389537E+04  0.37999793285E+04 0.  0.
        2    1    3    3  502    0  0.12333118916E+04  0.36877797000E+03 -0.92248266273E+03  0.15836760010E+04  0.25500000920E-02 0. -1.
       -2    1    3    3    0  502 -0.12333118916E+04 -0.36877797000E+03  0.19783290406E+04  0.23602629527E+04  0.25500000920E-02 0.  1.
</event>
<event>
 5   0  0.1261152E-08  0.3801327E+04  0.7818609E-02  0.8045870E-01
       -2   -1    0    0    0  501  0.00000000000E+00  0.00000000000E+00  0.12497944299E+04  0.12497944299E+04  0.25500000920E-02 0.  1.
        2   -1    0    0  501    0  0.00000000000E+00  0.00000000000E+00 -0.28904932370E+04  0.28904932370E+04  0.25500000920E-02 0. -1.
    10030    2    1    2    0    0  0.00000000000E+00  0.00000000000E+00 -0.16406988071E+04  0.41402876670E+04  0.38013273195E+04 0.  0.
        2    1    3    3  502    0  0.49827144773E+03  0.16258173131E+04  0.10446084768E+03  0.17036632413E+04  0.25500000920E-02 0.  1.
       -2    1    3    3    0  502 -0.49827144773E+03 -0.16258173131E+04 -0.17451596548E+04  0.24366244257E+04  0.25500000920E-02 0. -1.
</event>
<event>
 5   0  0.1327249E-08  0.3802785E+04  0.7818609E-02  0.8045557E-01
       -2   -1    0    0    0  501  0.00000000000E+00  0.00000000000E+00  0.17917208312E+04  0.17917208312E+04  0.25500000920E-02 0.  1.
        2   -1    0    0  501    0  0.00000000000E+00  0.00000000000E+00 -0.20177771763E+04  0.20177771763E+04  0.25500000920E-02 0. -1.
    10030    2    1    2    0    0  0.00000000000E+00  0.00000000000E+00 -0.22605634508E+03  0.38094980075E+04  0.38027849792E+04 0.  0.
        1    1    3    3  502    0  0.19119564178E+03  0.15215820958E+04  0.10130226584E+04  0.18379289307E+04  0.50400001928E-02 0.  1.
       -1    1    3    3    0  502 -0.19119564178E+03 -0.15215820958E+04 -0.12390790035E+04  0.19715690768E+04  0.50400001928E-02 0. -1.
</event>
<event>
 5   0  0.4071750E-09  0.3796471E+04  0.7818609E-02  0.8046913E-01
       -1   -1    0    0    0  501  0.00000000000E+00  0.00000000000E+00  0.22862696056E+04  0.22862696056E+04  0.50400001928E-02 0.  1.
        1   -1    0    0  501    0  0.00000000000E+00  0.00000000000E+00 -0.15760603173E+04  0.15760603173E+04  0.50400001928E-02 0. -1.
    10030    2    1    2    0    0  0.00000000000E+00  0.00000000000E+00  0.71020928834E+03  0.38623299229E+04  0.37964714144E+04 0.  0.
        3    1    3    3  502    0  0.16155162422E+04 -0.97725891101E+03  0.55438810491E+03  0.19678094138E+04  0.10100000352E+00 0.  1.
       -3    1    3    3    0  502 -0.16155162422E+04  0.97725891101E+03  0.15582118343E+03  0.18945205091E+04  0.10100000352E+00 0. -1.
</event>
<event>
 5   0  0.4071750E-09  0.3799858E+04  0.7818609E-02  0.8046185E-01
       -1   -1    0    0    0  501  0.00000000000E+00  0.00000000000E+00  0.27196895333E+04  0.27196895333E+04  0.50400001928E-02 0.  1.
        1   -1    0    0  501    0  0.00000000000E+00  0.00000000000E+00 -0.13272582161E+04  0.13272582162E+04  0.50400001928E-02 0. -1.
    10030    2    1    2    0    0  0.00000000000E+00  0.00000000000E+00  0.13924313171E+04  0.40469477495E+04  0.37998580386E+04 0.  0.
        4    1    3    3  502    0  0.14465556496E+02 -0.11707041777E+04  0.22898345644E+04  0.25717895460E+04  0.12699999809E+01 0.  1.
       -4    1    3    3    0  502 -0.14465556496E+02  0.11707041777E+04 -0.89740324721E+03  0.14751582034E+04  0.12699999809E+01 0. -1.
</event>
<event>
 5   0  0.1261152E-08  0.3799814E+04  0.7818609E-02  0.8046195E-01
       -2   -1    0    0    0  501  0.00000000000E+00  0.00000000000E+00  0.11252564908E+04  0.11252564908E+04  0.25500000920E-02 0. -1.
        2   -1    0    0  501    0  0.00000000000E+00  0.00000000000E+00 -0.32078437967E+04  0.32078437967E+04  0.25500000920E-02 0.  1.
    10030    2    1    2    0    0  0.00000000000E+00  0.00000000000E+00 -0.20825873059E+04  0.43331002875E+04  0.37998142342E+04 0.  0.
        2    1    3    3  502    0 -0.43962890739E+03  0.14914770401E+04 -0.22862403804E+04  0.27649000731E+04  0.25500000920E-02 0.  1.
       -2    1    3    3    0  502  0.43962890739E+03 -0.14914770401E+04  0.20365307458E+03  0.15682002143E+04  0.25500000920E-02 0. -1.
</event>
<event>
 5   0  0.1264013E-08  0.3799353E+04  0.7818609E-02  0.8046294E-01
       -2   -1    0    0    0  501  0.00000000000E+00  0.00000000000E+00  0.13999860265E+04  0.13999860265E+04  0.25500000920E-02 0.  1.
        2   -1    0    0  501    0  0.00000000000E+00  0.00000000000E+00 -0.25777188812E+04  0.25777188812E+04  0.25500000920E-02 0. -1.
    10030    2    1    2    0    0  0.00000000000E+00  0.00000000000E+00 -0.11777328546E+04  0.39777049077E+04  0.37993527944E+04 0.  0.
        4    1    3    3  502    0 -0.15939344533E+03  0.17993417938E+04 -0.12044577674E+04  0.21711189022E+04  0.12699999809E+01 0. -1.
       -4    1    3    3    0  502  0.15939344533E+03 -0.17993417938E+04  0.26724912717E+02  0.18065860055E+04  0.12699999809E+01 0.  1.
</event>
<event>
 5   0  0.1305088E-08  0.3801097E+04  0.7818609E-02  0.8045920E-01
       -2   -1    0    0    0  501  0.00000000000E+00  0.00000000000E+00  0.19472245851E+04  0.19472245851E+04  0.25500000920E-02 0.  1.
        2   -1    0    0  501    0  0.00000000000E+00  0.00000000000E+00 -0.18549912384E+04  0.18549912384E+04  0.25500000920E-02 0. -1.
    10030    2    1    2    0    0  0.00000000000E+00  0.00000000000E+00  0.92233346712E+02  0.38022158235E+04  0.38010969704E+04 0.  0.
        3    1    3    3  502    0  0.15690081937E+04 -0.75140203218E+03  0.81164763718E+03  0.19196779999E+04  0.10100000352E+00 0.  1.
       -3    1    3    3    0  502 -0.15690081937E+04  0.75140203218E+03 -0.71941429047E+03  0.18825378237E+04  0.10100000352E+00 0. -1.
</event>
<event>
 5   0  0.1293993E-08  0.3800782E+04  0.7818609E-02  0.8045987E-01
        2   -1    0    0  501    0  0.00000000000E+00  0.00000000000E+00  0.25926921988E+04  0.25926921988E+04  0.25500000920E-02 0. -1.
       -2   -1    0    0    0  501  0.00000000000E+00  0.00000000000E+00 -0.13929479792E+04  0.13929479792E+04  0.25500000920E-02 0.  1.
    10030    2    1    2    0    0  0.00000000000E+00  0.00000000000E+00  0.11997442197E+04  0.39856401780E+04  0.38007816875E+04 0.  0.
        5    1    3    3  502    0 -0.10034340329E+04  0.14328562925E+04  0.13786262789E+04  0.22272380924E+04  0.46999998093E+01 0. -1.
       -5    1    3    3    0  502  0.10034340329E+04 -0.14328562925E+04 -0.17888205928E+03  0.17584020856E+04  0.46999998093E+01 0.  1.
</event>
<event>
 5   0  0.4071750E-09  0.3800347E+04  0.7818609E-02  0.8046080E-01
       -1   -1    0    0    0  501  0.00000000000E+00  0.00000000000E+00  0.12604966303E+04  0.12604966303E+04  0.50400001928E-02 0. -1.
        1   -1    0    0  501    0  0.00000000000E+00  0.00000000000E+00 -0.28644736551E+04  0.28644736551E+04  0.50400001928E-02 0.  1.
    10030    2    1    2    0    0  0.00000000000E+00  0.00000000000E+00 -0.16039770248E+04  0.41249702854E+04  0.38003470314E+04 0.  0.
        4    1    3    3  502    0 -0.16996163935E+04 -0.80646784402E+03 -0.51160787533E+03  0.19495718759E+04  0.12699999809E+01 0.  1.
       -4    1    3    3    0  502  0.16996163935E+04  0.80646784402E+03 -0.10923691495E+04  0.21753984095E+04  0.12699999809E+01 0. -1.
</event>
<event>
 5   0  0.4071750E-09  0.3801494E+04  0.7818609E-02  0.8045834E-01
       -1   -1    0    0    0  501  0.00000000000E+00  0.00000000000E+00  0.21139124914E+04  0.21139124914E+04  0.50400001928E-02 0.  1.
        1   -1    0    0  501    0  0.00000000000E+00  0.00000000000E+00 -0.17090766926E+04  0.17090766926E+04  0.50400001928E-02 0. -1.
    10030    2    1    2    0    0  0.00000000000E+00  0.00000000000E+00  0.40483579882E+03  0.38229891839E+04  0.38014936902E+04 0.  0.
        5    1    3    3  502    0  0.18918178985E+04  0.64226521822E+02  0.29058490349E+02  0.18931366811E+04  0.46999998093E+01 0. -1.
       -5    1    3    3    0  502 -0.18918178985E+04 -0.64226521822E+02  0.37577730847E+03  0.19298525029E+04  0.46999998093E+01 0.  1.
</event>
<event>
 5   0  0.4071750E-09  0.3799974E+04  0.7818609E-02  0.8046161E-01
        1   -1    0    0  501    0  0.00000000000E+00  0.00000000000E+00  0.19284061014E+04  0.19284061014E+04  0.50400001928E-02 0.  1.
       -1   -1    0    0    0  501  0.00000000000E+00  0.00000000000E+00 -0.18719864339E+04  0.18719864339E+04  0.50400001928E-02 0. -1.
    10030    2    1    2    0    0  0.00000000000E+00  0.00000000000E+00  0.56419667525E+02  0.38003925353E+04  0.37999737161E+04 0.  0.
        1    1    3    3  502    0 -0.51612372974E+03  0.12897298770E+04  0.13245637916E+04  0.19194416110E+04  0.50400001928E-02 0.  1.
       -1    1    3    3    0  502  0.51612372974E+03 -0.12897298770E+04 -0.12681441241E+04  0.18809509243E+04  0.50400001928E-02 0. -1.
</event>
<event>
 5   0  0.1264013E-08  0.3799283E+04  0.7818609E-02  0.8046309E-01
       -2   -1    0    0    0  501  0.00000000000E+00  0.00000000000E+00  0.31288912013E+04  0.31288912014E+04  0.25500000920E-02 0. -1.
        2   -1    0    0  501    0  0.00000000000E+00  0.00000000000E+00 -0.11533282260E+04  0.11533282260E+04  0.25500000920E-02 0.  1.
    10030    2    1    2    0    0  0.00000000000E+00  0.00000000000E+00  0.19755629753E+04  0.42822194274E+04  0.37992833738E+04 0.  0.
        4    1    3    3  502    0  0.59421133983E+03  0.17949474445E+04  0.78082977343E+03  0.20456344231E+04  0.12699999809E+01 0.  1.
       -4    1    3    3    0  502 -0.59421133983E+03 -0.17949474445E+04  0.11947332019E+04  0.22365850043E+04  0.12699999809E+01 0. -1.
</event>
<event>
 5   0  0.1264013E-08  0.3799089E+04  0.7818609E-02  0.8046350E-01
       -2   -1    0    0    0  501  0.00000000000E+00  0.00000000000E+00  0.16782082410E+04  0.16782082410E+04  0.25500000920E-02 0.  1.
        2   -1    0    0  501    0  0.00000000000E+00  0.00000000000E+00 -0.21500729736E+04  0.21500729736E+04  0.25500000920E-02 0. -1.
    10030    2    1    2    0    0  0.00000000000E+00  0.00000000000E+00 -0.47186473263E+03  0.38282812145E+04  0.37990894609E+04 0.  0.
        4    1    3    3  502    0  0.17285960124E+04 -0.69216073351E+03 -0.61450233611E+03  0.19608022310E+04  0.12699999809E+01 0. -1.
       -4    1    3    3    0  502 -0.17285960124E+04  0.69216073351E+03  0.14263760348E+03  0.18674789835E+04  0.12699999809E+01 0.  1.
</event>
<event>
 5   0  0.1261152E-08  0.3799779E+04  0.7818609E-02  0.8046202E-01
        2   -1    0    0  501    0  0.00000000000E+00  0.00000000000E+00  0.29389892414E+04  0.29389892414E+04  0.25500000920E-02 0.  1.
       -2   -1    0    0    0  501  0.00000000000E+00  0.00000000000E+00 -0.12281702950E+04  0.12281702950E+04  0.25500000920E-02 0. -1.
    10030    2    1    2    0    0  0.00000000000E+00  0.00000000000E+00  0.17108189464E+04  0.41671595363E+04  0.37997785638E+04 0.  0.
        2    1    3    3  502    0 -0.11894491508E+04 -0.14734031008E+04  0.68596082800E+03  0.20140129685E+04  0.25500000920E-02 0.  1.
       -2    1    3    3    0  502  0.11894491508E+04  0.14734031008E+04  0.10248581184E+04  0.21531465678E+04  0.25500000920E-02 0. -1.
</event>
<event>
 5   0  0.4071750E-09  0.3799812E+04  0.7818609E-02  0.8046195E-01
       -1   -1    0    0    0  501  0.00000000000E+00  0.00000000000E+00  0.31480322887E+04  0.31480322887E+04  0.50400001928E-02 0.  1.
        1   -1    0    0  501    0  0.00000000000E+00  0.00000000000E+00 -0.11466345708E+04  0.11466345709E+04  0.50400001928E-02 0. -1.
    10030    2    1    2    0    0  0.00000000000E+00  0.00000000000E+00  0.20013977179E+04  0.42946668596E+04  0.37998119177E+04 0.  0.
        2    1    3    3  502    0 -0.47122125923E+03  0.10300731641E+04  0.27246417358E+04  0.29507241123E+04  0.25500000920E-02 0.  1.
       -2    1    3    3    0  502  0.47122125923E+03 -0.10300731641E+04 -0.72324401789E+03  0.13439427473E+04  0.25500000920E-02 0. -1.
</event>
<event>
 5   0  0.4071750E-09  0.3800307E+04  0.7818609E-02  0.8046089E-01
       -1   -1    0    0    0  501  0.00000000000E+00  0.00000000000E+00  0.16950284122E+04  0.16950284122E+04  0.50400001928E-02 0. -1.
        1   -1    0    0  501    0  0.00000000000E+00  0.00000000000E+00 -0.21301023518E+04  0.21301023518E+04  0.50400001928E-02 0.  1.
    10030    2    1    2    0    0  0.00000000000E+00  0.00000000000E+00 -0.43507393966E+03  0.38251307640E+04  0.38003073598E+04 0.  0.
        3    1    3    3  502    0 -0.17786607505E+04  0.61036702695E+03  0.57012075894E+02  0.18813379175E+04  0.10100000352E+00 0. -1.
       -3    1    3    3    0  502  0.17786607505E+04 -0.61036702695E+03 -0.49208601556E+03  0.19437928464E+04  0.10100000352E+00 0.  1.
</event>
<event>
 5   0  0.1293993E-08  0.3797860E+04  0.7818609E-02  0.8046614E-01
       -2   -1    0    0    0  501  0.00000000000E+00  0.00000000000E+00  0.17687712817E+04  0.17687712817E+04  0.25500000920E-02 0. -1.
        2   -1    0    0  501    0  0.00000000000E+00  0.00000000000E+00 -0.20386662594E+04  0.20386662594E+04  0.25500000920E-02 0.  1.
    10030    2    1    2    0    0  0.00000000000E+00  0.00000000000E+00 -0.26989497773E+03  0.38074375411E+04  0.37978595723E+04 0.  0.
        5    1    3    3  502    0 -0.57799932525E+02 -0.18970894936E+04 -0.19528951377E+03  0.19079961906E+04  0.46999998093E+01 0.  1.
       -5    1    3    3    0  502  0.57799932525E+02  0.18970894936E+04 -0.74605463965E+02  0.18994413506E+04  0.46999998093E+01 0. -1.
</event>
<event>
 5   0  0.1327249E-08  0.3800408E+04  0.7818609E-02  0.8046067E-01
       -2   -1    0    0    0  501  0.00000000000E+00  0.00000000000E+00  0.13084168248E+04  0.13084168248E+04  0.25500000920E-02 0.  1.
        2   -1    0    0  501    0  0.00000000000E+00  0.00000000000E+00 -0.27596521300E+04  0.27596521300E+04  0.25500000920E-02 0. -1.
    10030    2    1    2    0    0  0.00000000000E+00  0.00000000000E+00 -0.14512353052E+04  0.40680689548E+04  0.38004080189E+04 0.  0.
        1    1    3    3  502    0  0.49497807997E+03 -0.10121566361E+04  0.91228326211E+03  0.14497327705E+04  0.50400001928E-02 0.  1.
       -1    1    3    3    0  502 -0.49497807997E+03  0.10121566361E+04 -0.23635185674E+04  0.26183361843E+04  0.50400001928E-02 0. -1.
</event>
<event>
 5   0  0.4071750E-09  0.3788265E+04  0.7818609E-02  0.8048678E-01
       -1   -1    0    0    0  501  0.00000000000E+00  0.00000000000E+00  0.19314099232E+04  0.19314099232E+04  0.50400001928E-02 0.  1.
        1   -1    0    0  501    0  0.00000000000E+00  0.00000000000E+00 -0.18575745906E+04  0.18575745906E+04  0.50400001928E-02 0. -1.
    10030    2    1    2    0    0  0.00000000000E+00  0.00000000000E+00  0.73835332572E+02  0.37889845138E+04  0.37882650368E+04 0.  0.
        4    1    3    3  502    0  0.14591409128E+03 -0.18044774450E+04  0.59407517758E+03  0.19053494958E+04  0.12699999809E+01 0.  1.
       -4    1    3    3    0  502 -0.14591409128E+03  0.18044774450E+04 -0.52023984501E+03  0.18836350180E+04  0.12699999809E+01 0. -1.
</event>
<event>
 5   0  0.4071750E-09  0.3800697E+04  0.7818609E-02  0.8046005E-01
       -1   -1    0    0    0  501  0.00000000000E+00  0.00000000000E+00  0.21902954455E+04  0.21902954455E+04  0.50400001928E-02 0.  1.
        1   -1    0    0  501    0  0.00000000000E+00  0.00000000000E+00 -0.16487843038E+04  0.16487843038E+04  0.50400001928E-02 0. -1.
    10030    2    1    2    0    0  0.00000000000E+00  0.00000000000E+00  0.54151114175E+03  0.38390797493E+04  0.38006971735E+04 0.  0.
        4    1    3    3  502    0  0.37415997535E+03  0.77424722010E+03  0.19825285066E+04  0.21609894348E+04  0.12699999809E+01 0.  1.
       -4    1    3    3    0  502 -0.37415997535E+03 -0.77424722010E+03 -0.14410173648E+04  0.16780903145E+04  0.12699999809E+01 0. -1.
</event>
<event>
 5   0  0.4071750E-09  0.3801666E+04  0.7818609E-02  0.8045797E-01
        1   -1    0    0  501    0  0.00000000000E+00  0.00000000000E+00  0.18991287395E+04  0.18991287396E+04  0.50400001928E-02 0.  1.
       -1   -1    0    0    0  501  0.00000000000E+00  0.00000000000E+00 -0.19025386296E+04  0.19025386296E+04  0.50400001928E-02 0. -1.
    10030    2    1    2    0    0  0.00000000000E+00  0.00000000000E+00 -0.34098900398E+01  0.38016673692E+04  0.38016658399E+04 0.  0.
        5    1    3    3  502    0  0.99494791078E+03 -0.15917567567E+04  0.29751546531E+03  0.19005653000E+04  0.46999998093E+01 0.  1.
       -5    1    3    3    0  502 -0.99494791078E+03  0.15917567567E+04 -0.30092535535E+03  0.19011020691E+04  0.46999998093E+01 0. -1.
</event>
<event>
 5   0  0.1264013E-08  0.3799575E+04  0.7818609E-02  0.8046246E-01
        2   -1    0    0  501    0  0.00000000000E+00  0.00000000000E+00  0.19173405781E+04  0.19173405781E+04  0.25500000920E-02 0. -1.
       -2   -1    0    0    0  501  0.00000000000E+00  0.00000000000E+00 -0.18823948246E+04  0.18823948246E+04  0.25500000920E-02 0.  1.
    10030    2    1    2    0    0  0.00000000000E+00  0.00000000000E+00  0.34945753467E+02  0.37997354027E+04  0.37995747031E+04 0.  0.
        4    1    3    3  502    0 -0.17735702689E+04  0.59242643116E+03 -0.31820453401E+03  0.18967805127E+04  0.12699999809E+01 0.  1.
       -4    1    3    3    0  502  0.17735702689E+04 -0.59242643116E+03  0.35315028748E+03  0.19029548900E+04  0.12699999809E+01 0. -1.
</event>
<event>
 5   0  0.4071750E-09  0.3799941E+04  0.7818609E-02  0.8046168E-01
       -3   -1    0    0    0  501  0.00000000000E+00  0.00000000000E+00  0.18678536861E+04  0.18678536888E+04  0.10100000352E+00 0.  1.
        3   -1    0    0  501    0  0.00000000000E+00  0.00000000000E+00 -0.19326394244E+04  0.19326394271E+04  0.10100000352E+00 0. -1.
    10030    2    1    2    0    0  0.00000000000E+00  0.00000000000E+00 -0.64785738306E+02  0.38004931159E+04  0.37999408853E+04 0.  0.
        2    1    3    3  502    0 -0.13251830995E+04 -0.92486383708E+03  0.96695418174E+03  0.18832110221E+04  0.25500000920E-02 0.  1.
       -2    1    3    3    0  502  0.13251830995E+04  0.92486383708E+03 -0.10317399200E+04  0.19172820937E+04  0.25500000920E-02 0. -1.
</event>
<event>
 5   0  0.1305088E-08  0.3804668E+04  0.7818609E-02  0.8045154E-01
        2   -1    0    0  501    0  0.00000000000E+00  0.00000000000E+00  0.27044827844E+04  0.27044827844E+04  0.25500000920E-02 0.  1.
       -2   -1    0    0    0  501  0.00000000000E+00  0.00000000000E+00 -0.13381020812E+04  0.13381020812E+04  0.25500000920E-02 0. -1.
    10030    2    1    2    0    0  0.00000000000E+00  0.00000000000E+00  0.13663807032E+04  0.40425848656E+04  0.38046676819E+04 0.  0.
        3    1    3    3  502    0 -0.13170826279E+04  0.13440400342E+03 -0.76828684019E+03  0.15306978029E+04  0.10100000352E+00 0. -1.
       -3    1    3    3    0  502  0.13170826279E+04 -0.13440400342E+03  0.21346675434E+04  0.25118870627E+04  0.10100000352E+00 0.  1.
</event>
<event>
 5   0  0.1305088E-08  0.3797004E+04  0.7818609E-02  0.8046798E-01
       -2   -1    0    0    0  501  0.00000000000E+00  0.00000000000E+00  0.13388901747E+04  0.13388901747E+04  0.25500000920E-02 0. -1.
        2   -1    0    0  501    0  0.00000000000E+00  0.00000000000E+00 -0.26920132267E+04  0.26920132267E+04  0.25500000920E-02 0.  1.
    10030    2    1    2    0    0  0.00000000000E+00  0.00000000000E+00 -0.13531230520E+04  0.40309034014E+04  0.37970041134E+04 0.  0.
        3    1    3    3  502    0 -0.59954441634E+03 -0.28399361293E+03  0.12118366499E+04  0.13815404285E+04  0.10100000352E+00 0. -1.
       -3    1    3    3    0  502  0.59954441634E+03  0.28399361293E+03 -0.25649597019E+04  0.26493629729E+04  0.10100000352E+00 0.  1.
</event>
<event>
 5   0  0.4071750E-09  0.3800570E+04  0.7818609E-02  0.8046033E-01
        1   -1    0    0  501    0  0.00000000000E+00  0.00000000000E+00  0.12500665899E+04  0.12500665899E+04  0.50400001928E-02 0. -1.
       -1   -1    0    0    0  501  0.00000000000E+00  0.00000000000E+00 -0.28887128802E+04  0.28887128802E+04  0.50400001928E-02 0.  1.
    10030    2    1    2    0    0  0.00000000000E+00  0.00000000000E+00 -0.16386462903E+04  0.41387794702E+04  0.38005701990E+04 0.  0.
        5    1    3    3  502    0 -0.12896327903E+04  0.13158861834E+04 -0.31279431038E+03  0.18688423027E+04  0.46999998093E+01 0. -1.
       -5    1    3    3    0  502  0.12896327903E+04 -0.13158861834E+04 -0.13258519800E+04  0.22699371675E+04  0.46999998093E+01 0.  1.
</event>
<event>
 5   0  0.1305088E-08  0.3788490E+04  0.7818609E-02  0.8048629E-01
       -2   -1    0    0    0  501  0.00000000000E+00  0.00000000000E+00  0.12110294617E+04  0.12110294617E+04  0.25500000920E-02 0. -1.
        2   -1    0    0  501    0  0.00000000000E+00  0.00000000000E+00 -0.29629040920E+04  0.29629040920E+04  0.25500000920E-02 0.  1.
    10030    2    1    2    0    0  0.00000000000E+00  0.00000000000E+00 -0.17518746303E+04  0.41739335536E+04  0.37884900145E+04 0.  0.
        3    1    3    3  502    0  0.21448950385E+03  0.12126110629E+04 -0.24617294341E+04  0.27525521165E+04  0.10100000352E+00 0.  1.
       -3    1    3    3    0  502 -0.21448950385E+03 -0.12126110629E+04  0.70985480383E+03  0.14213814371E+04  0.10100000352E+00 0. -1.
</event>
<event>
 5   0  0.1261152E-08  0.3800372E+04  0.7818609E-02  0.8046075E-01
       -2   -1    0    0    0  501  0.00000000000E+00  0.00000000000E+00  0.22162609794E+04  0.22162609794E+04  0.25500000920E-02 0. -1.
        2   -1    0    0  501    0  0.00000000000E+00  0.00000000000E+00 -0.16291886453E+04  0.16291886453E+04  0.25500000920E-02 0.  1.
    10030    2    1    2    0    0  0.00000000000E+00  0.00000000000E+00  0.58707233405E+03  0.38454496247E+04  0.38003722043E+04 0.  0.
        2    1    3    3  502    0  0.74393592529E+02  0.32589974377E+03 -0.15992023374E+04  0.16337665578E+04  0.25500000920E-02 0.  1.
       -2    1    3    3    0  502 -0.74393592529E+02 -0.32589974377E+03  0.21862746714E+04  0.22116830669E+04  0.25500000920E-02 0. -1.
</event>
<event>
 5   0  0.1327249E-08  0.3797058E+04  0.7818609E-02  0.8046787E-01
        2   -1    0    0  501    0  0.00000000000E+00  0.00000000000E+00  0.32892570128E+04  0.32892570128E+04  0.25500000920E-02 0. -1.
       -2   -1    0    0    0  501  0.00000000000E+00  0.00000000000E+00 -0.10958135002E+04  0.10958135003E+04  0.25500000920E-02 0.  1.
    10030    2    1    2    0    0  0.00000000000E+00  0.00000000000E+00  0.21934435126E+04  0.43850705131E+04  0.37970579350E+04 0.  0.
        1    1    3    3  502    0  0.76872245064E+03  0.29092718740E+03 -0.87968867454E+03  0.12039206779E+04  0.50400001928E-02 0.  1.
       -1    1    3    3    0  502 -0.76872245064E+03 -0.29092718740E+03  0.30731321871E+04  0.31811498352E+04  0.50400001928E-02 0. -1.
</event>
<event>
 5   0  0.4071750E-09  0.3790874E+04  0.7818609E-02  0.8048116E-01
       -1   -1    0    0    0  501  0.00000000000E+00  0.00000000000E+00  0.13564643594E+04  0.13564643594E+04  0.50400001928E-02 0. -1.
        1   -1    0    0  501    0  0.00000000000E+00  0.00000000000E+00 -0.26485636751E+04  0.26485636751E+04  0.50400001928E-02 0.  1.
    10030    2    1    2    0    0  0.00000000000E+00  0.00000000000E+00 -0.12920993157E+04  0.40050280344E+04  0.37908744262E+04 0.  0.
        1    1    3    3  502    0  0.11843768495E+04  0.22290398034E+03  0.89955409434E+03  0.15038724264E+04  0.50400001928E-02 0. -1.
       -1    1    3    3    0  502 -0.11843768495E+04 -0.22290398034E+03 -0.21916534100E+04  0.25011556081E+04  0.50400001928E-02 0.  1.
</event>
<event>
 5   0  0.1264013E-08  0.3802243E+04  0.7818609E-02  0.8045674E-01
        2   -1    0    0  501    0  0.00000000000E+00  0.00000000000E+00  0.24704003225E+04  0.24704003225E+04  0.25500000920E-02 0. -1.
       -2   -1    0    0    0  501  0.00000000000E+00  0.00000000000E+00 -0.14630275896E+04  0.14630275896E+04  0.25500000920E-02 0.  1.
    10030    2    1    2    0    0  0.00000000000E+00  0.00000000000E+00  0.10073727329E+04  0.39334279120E+04  0.38022434583E+04 0.  0.
        4    1    3    3  502    0 -0.16188626230E+04 -0.65737175914E+02 -0.52522683216E+03  0.17032035717E+04  0.12699999809E+01 0.  1.
       -4    1    3    3    0  502  0.16188626230E+04  0.65737175914E+02  0.15325995651E+04  0.22302243403E+04  0.12699999809E+01 0. -1.
</event>
<event>
 5   0  0.1264013E-08  0.3799601E+04  0.7818609E-02  0.8046241E-01
        2   -1    0    0  501    0  0.00000000000E+00  0.00000000000E+00  0.17772491885E+04  0.17772491885E+04  0.25500000920E-02 0. -1.
       -2   -1    0    0    0  501  0.00000000000E+00  0.00000000000E+00 -0.20308019173E+04  0.20308019174E+04  0.25500000920E-02 0.  1.
    10030    2    1    2    0    0  0.00000000000E+00  0.00000000000E+00 -0.25355272881E+03  0.38080511059E+04  0.37996005367E+04 0.  0.
        4    1    3    3  502    0  0.10601516799E+04 -0.70156764484E+02 -0.17052063747E+04  0.20091226814E+04  0.12699999809E+01 0.  1.
       -4    1    3    3    0  502 -0.10601516799E+04  0.70156764484E+02  0.14516536459E+04  0.17989284245E+04  0.12699999809E+01 0. -1.
</event>
<event>
 5   0  0.1305088E-08  0.3797863E+04  0.7818609E-02  0.8046614E-01
        2   -1    0    0  501    0  0.00000000000E+00  0.00000000000E+00  0.15218263291E+04  0.15218263291E+04  0.25500000920E-02 0.  1.
       -2   -1    0    0    0  501  0.00000000000E+00  0.00000000000E+00 -0.23694826442E+04  0.23694826442E+04  0.25500000920E-02 0. -1.
    10030    2    1    2    0    0  0.00000000000E+00  0.00000000000E+00 -0.84765631513E+03  0.38913089734E+04  0.37978631225E+04 0.  0.
        3    1    3    3  502    0  0.15286004245E+04 -0.20389952736E+03 -0.15591286092E+04  0.21929606256E+04  0.10100000352E+00 0. -1.
       -3    1    3    3    0  502 -0.15286004245E+04  0.20389952736E+03  0.71147229405E+03  0.16983483478E+04  0.10100000352E+00 0.  1.
</event>
<event>
 5   0  0.4071750E-09  0.3799655E+04  0.7818609E-02  0.8046229E-01
        1   -1    0    0  501    0  0.00000000000E+00  0.00000000000E+00  0.15527417773E+04  0.15527417773E+04  0.50400001928E-02 0.  1.
       -1   -1    0    0    0  501  0.00000000000E+00  0.00000000000E+00 -0.23244972193E+04  0.23244972193E+04  0.50400001928E-02 0. -1.
    10030    2    1    2    0    0  0.00000000000E+00  0.00000000000E+00 -0.77175544202E+03  0.38772389965E+04  0.37996546914E+04 0.  0.
        4    1    3    3  502    0  0.15119691099E+04  0.11233507790E+04 -0.63867557101E+03  0.19889383248E+04  0.12699999809E+01 0.  1.
       -4    1    3    3    0  502 -0.15119691099E+04 -0.11233507790E+04 -0.13307987100E+03  0.18883006717E+04  0.12699999809E+01 0. -1.
</event>
<event>
 5   0  0.4071750E-09  0.3800078E+04  0.7818609E-02  0.8046138E-01
        1   -1    0    0  501    0  0.00000000000E+00  0.00000000000E+00  0.23251904564E+04  0.23251904564E+04  0.50400001928E-02 0. -1.
       -1   -1    0    0    0  501  0.00000000000E+00  0.00000000000E+00 -0.15526250813E+04  0.15526250813E+04  0.50400001928E-02 0.  1.
    10030    2    1    2    0    0  0.00000000000E+00  0.00000000000E+00  0.77256537512E+03  0.38778155378E+04  0.38000784316E+04 0.  0.
        2    1    3    3  502    0  0.35451846089E+03  0.18462173365E+04  0.66750550303E+03  0.19949349336E+04  0.25500000920E-02 0. -1.
       -2    1    3    3    0  502 -0.35451846089E+03 -0.18462173365E+04  0.10505987209E+03  0.18828806042E+04  0.25500000920E-02 0.  1.
</event>
<event>
 5   0  0.1305088E-08  0.3800206E+04  0.7818609E-02  0.8046111E-01
        2   -1    0    0  501    0  0.00000000000E+00  0.00000000000E+00  0.26804030991E+04  0.26804030991E+04  0.25500000920E-02 0. -1.
       -2   -1    0    0    0  501  0.00000000000E+00  0.00000000000E+00 -0.13469583519E+04  0.13469583519E+04  0.25500000920E-02 0.  1.
    10030    2    1    2    0    0  0.00000000000E+00  0.00000000000E+00  0.13334447473E+04  0.40273614510E+04  0.38002059632E+04 0.  0.
        3    1    3    3  502    0 -0.42451019730E+03  0.18277087797E+04  0.98405900119E+03  0.21187497302E+04  0.10100000352E+00 0. -1.
       -3    1    3    3    0  502  0.42451019730E+03 -0.18277087797E+04  0.34938574608E+03  0.19086117208E+04  0.10100000352E+00 0.  1.
</event>
<event>
 5   0  0.1264013E-08  0.3799791E+04  0.7818609E-02  0.8046200E-01
       -2   -1    0    0    0  501  0.00000000000E+00  0.00000000000E+00  0.16380886362E+04  0.16380886362E+04  0.25500000920E-02 0.  1.
        2   -1    0    0  501    0  0.00000000000E+00  0.00000000000E+00 -0.22035459364E+04  0.22035459364E+04  0.25500000920E-02 0. -1.
    10030    2    1    2    0    0  0.00000000000E+00  0.00000000000E+00 -0.56545730024E+03  0.38416345726E+04  0.37997913404E+04 0.  0.
        4    1    3    3  502    0  0.84979537905E+03 -0.12446396242E+04 -0.14523266186E+04  0.20929725752E+04  0.12699999809E+01 0. -1.
       -4    1    3    3    0  502 -0.84979537905E+03  0.12446396242E+04  0.88686931841E+03  0.17486619974E+04  0.12699999809E+01 0.  1.
</event>
<event>
 5   0  0.1264013E-08  0.3798478E+04  0.7818609E-02  0.8046482E-01
        2   -1    0    0  501    0  0.00000000000E+00  0.00000000000E+00  0.15690573193E+04  0.15690573193E+04  0.25500000920E-02 0. -1.
       -2   -1    0    0    0  501  0.00000000000E+00  0.00000000000E+00 -0.22989013338E+04  0.22989013338E+04  0.25500000920E-02 0.  1.
    10030    2    1    2    0    0  0.00000000000E+00  0.00000000000E+00 -0.72984401449E+03  0.38679586530E+04  0.37984775708E+04 0.  0.
        4    1    3    3  502    0  0.17214172312E+03  0.19618642093E+03 -0.22805518093E+04  0.22954389672E+04  0.12699999809E+01 0.  1.
       -4    1    3    3    0  502 -0.17214172312E+03 -0.19618642093E+03  0.15507077948E+04  0.15725196858E+04  0.12699999809E+01 0. -1.
</event>
<event>
 5   0  0.4071750E-09  0.3802748E+04  0.7818609E-02  0.8045565E-01
        1   -1    0    0  501    0  0.00000000000E+00  0.00000000000E+00  0.22277418184E+04  0.22277418184E+04  0.50400001928E-02 0. -1.
       -1   -1    0    0    0  501  0.00000000000E+00  0.00000000000E+00 -0.16228195586E+04  0.16228195586E+04  0.50400001928E-02 0.  1.
    10030    2    1    2    0    0  0.00000000000E+00  0.00000000000E+00  0.60492225978E+03  0.38505613770E+04  0.38027479509E+04 0.  0.
        3    1    3    3  502    0  0.13945943101E+04  0.26659420833E+03  0.15829790770E+04  0.21264497479E+04  0.10100000352E+00 0. -1.
       -3    1    3    3    0  502 -0.13945943101E+04 -0.26659420833E+03 -0.97805681724E+03  0.17241116291E+04  0.10100000352E+00 0.  1.
</event>
<event>
 5   0  0.4071750E-09  0.3802990E+04  0.7818609E-02  0.8045513E-01
        1   -1    0    0  501    0  0.00000000000E+00  0.00000000000E+00  0.26883850379E+04  0.26883850379E+04  0.50400001928E-02 0. -1.
       -1   -1    0    0    0  501  0.00000000000E+00  0.00000000000E+00 -0.13449277638E+04  0.13449277638E+04  0.50400001928E-02 0.  1.
    10030    2    1    2    0    0  0.00000000000E+00  0.00000000000E+00  0.13434572741E+04  0.40333128017E+04  0.38029902326E+04 0.  0.
        1    1    3    3  502    0 -0.13380343301E+04 -0.37437958229E+03 -0.70503960615E+03  0.15580682868E+04  0.50400001928E-02 0.  1.
       -1    1    3    3    0  502  0.13380343301E+04  0.37437958229E+03  0.20484968802E+04  0.24752445149E+04  0.50400001928E-02 0. -1.
</event>
<event>
 5   0  0.4071750E-09  0.3798161E+04  0.7818609E-02  0.8046550E-01
       -1   -1    0    0    0  501  0.00000000000E+00  0.00000000000E+00  0.12397307355E+04  0.12397307355E+04  0.50400001928E-02 0.  1.
        1   -1    0    0  501    0  0.00000000000E+00  0.00000000000E+00 -0.29091052818E+04  0.29091052818E+04  0.50400001928E-02 0. -1.
    10030    2    1    2    0    0  0.00000000000E+00  0.00000000000E+00 -0.16693745463E+04  0.41488360173E+04  0.37981612555E+04 0.  0.
        4    1    3    3  502    0  0.14927276729E+04  0.10193695004E+04 -0.19854783011E+03  0.18184534466E+04  0.12699999809E+01 0.  1.
       -4    1    3    3    0  502 -0.14927276729E+04 -0.10193695004E+04 -0.14708267162E+04  0.23303825707E+04  0.12699999809E+01 0. -1.
</event>
<event>
 5   0  0.1327249E-08  0.3799788E+04  0.7818609E-02  0.8046200E-01
       -2   -1    0    0    0  501  0.00000000000E+00  0.00000000000E+00  0.13889886726E+04  0.13889886726E+04  0.25500000920E-02 0. -1.
        2   -1    0    0  501    0  0.00000000000E+00  0.00000000000E+00 -0.25987229523E+04  0.25987229523E+04  0.25500000920E-02 0.  1.
    10030    2    1    2    0    0  0.00000000000E+00  0.00000000000E+00 -0.12097342798E+04  0.39877116249E+04  0.37997877541E+04 0.  0.
        1    1    3    3  502    0 -0.12301918283E+04 -0.76153723750E+03  0.68740787013E+03  0.16018241097E+04  0.50400001928E-02 0. -1.
       -1    1    3    3    0  502  0.12301918283E+04  0.76153723750E+03 -0.18971421499E+04  0.23858875152E+04  0.50400001928E-02 0.  1.
</event>
<event>
 5   0  0.1264013E-08  0.3798100E+04  0.7818609E-02  0.8046563E-01
        2   -1    0    0  501    0  0.00000000000E+00  0.00000000000E+00  0.20867115296E+04  0.20867115296E+04  0.25500000920E-02 0. -1.
       -2   -1    0    0    0  501  0.00000000000E+00  0.00000000000E+00 -0.17282651111E+04  0.17282651111E+04  0.25500000920E-02 0.  1.
    10030    2    1    2    0    0  0.00000000000E+00  0.00000000000E+00  0.35844641848E+03  0.38149766407E+04  0.37980999110E+04 0.  0.
        4    1    3    3  502    0 -0.76192153978E+03  0.17108199732E+04  0.49519964726E+03  0.19371767387E+04  0.12699999809E+01 0. -1.
       -4    1    3    3    0  502  0.76192153978E+03 -0.17108199732E+04 -0.13675322878E+03  0.18777999020E+04  0.12699999809E+01 0.  1.
</event>
<event>
 5   0  0.4071750E-09  0.3801457E+04  0.7818609E-02  0.8045842E-01
       -1   -1    0    0    0  501  0.00000000000E+00  0.00000000000E+00  0.19523439203E+04  0.19523439203E+04  0.50400001928E-02 0. -1.
        1   -1    0    0  501    0  0.00000000000E+00  0.00000000000E+00 -0.18504779759E+04  0.18504779759E+04  0.50400001928E-02 0.  1.
    10030    2    1    2    0    0  0.00000000000E+00  0.00000000000E+00  0.10186594443E+03  0.38028218962E+04  0.38014573132E+04 0.  0.
        5    1    3    3  502    0  0.13882941719E+04 -0.12272811985E+04  0.47436672163E+03  0.19127534406E+04  0.46999998093E+01 0.  1.
       -5    1    3    3    0  502 -0.13882941719E+04  0.12272811985E+04 -0.37250077721E+03  0.18900684556E+04  0.46999998093E+01 0. -1.
</event>
<event>
 5   0  0.1327249E-08  0.3799596E+04  0.7818609E-02  0.8046242E-01
       -2   -1    0    0    0  501  0.00000000000E+00  0.00000000000E+00  0.13687785502E+04  0.13687785502E+04  0.25500000920E-02 0. -1.
        2   -1    0    0  501    0  0.00000000000E+00  0.00000000000E+00 -0.26368272995E+04  0.26368272995E+04  0.25500000920E-02 0.  1.
    10030    2    1    2    0    0  0.00000000000E+00  0.00000000000E+00 -0.12680487493E+04  0.40056058498E+04  0.37995961092E+04 0.  0.
        1    1    3    3  502    0  0.68362296603E+03  0.75384205675E+02  0.12329283124E+04  0.14117844601E+04  0.50400001928E-02 0. -1.
       -1    1    3    3    0  502 -0.68362296603E+03 -0.75384205675E+02 -0.25009770617E+04  0.25938213896E+04  0.50400001928E-02 0.  1.
</event>
<event>
 5   0  0.4071750E-09  0.3799361E+04  0.7818609E-02  0.8046292E-01
       -1   -1    0    0    0  501  0.00000000000E+00  0.00000000000E+00  0.13030467022E+04  0.13030467022E+04  0.50400001928E-02 0.  1.
        1   -1    0    0  501    0  0.00000000000E+00  0.00000000000E+00 -0.27694988166E+04  0.27694988166E+04  0.50400001928E-02 0. -1.
    10030    2    1    2    0    0  0.00000000000E+00  0.00000000000E+00 -0.14664521144E+04  0.40725455188E+04  0.37993611567E+04 0.  0.
        3    1    3    3  502    0  0.65644526659E+02 -0.17065331117E+04  0.15859559579E+03  0.17151434454E+04  0.10100000352E+00 0. -1.
       -3    1    3    3    0  502 -0.65644526659E+02  0.17065331117E+04 -0.16250477102E+04  0.23574020734E+04  0.10100000352E+00 0.  1.
</event>
<event>
 5   0  0.4071750E-09  0.3798010E+04  0.7818609E-02  0.8046582E-01
       -3   -1    0    0    0  501  0.00000000000E+00  0.00000000000E+00  0.18309730175E+04  0.18309730203E+04  0.10100000352E+00 0. -1.
        3   -1    0    0  501    0  0.00000000000E+00  0.00000000000E+00 -0.19695644584E+04  0.19695644610E+04  0.10100000352E+00 0.  1.
    10030    2    1    2    0    0  0.00000000000E+00  0.00000000000E+00 -0.13859144095E+03  0.38005374813E+04  0.37980096839E+04 0.  0.
        5    1    3    3  502    0  0.61369555432E+03 -0.11827806982E+03 -0.18636945359E+04  0.19657037794E+04  0.46999998093E+01 0.  1.
       -5    1    3    3    0  502 -0.61369555432E+03  0.11827806982E+03  0.17251030950E+04  0.18348337019E+04  0.46999998093E+01 0. -1.
</event>
<event>
 5   0  0.4071750E-09  0.3796171E+04  0.7818609E-02  0.8046977E-01
       -1   -1    0    0    0  501  0.00000000000E+00  0.00000000000E+00  0.15839139275E+04  0.15839139275E+04  0.50400001928E-02 0. -1.
        1   -1    0    0  501    0  0.00000000000E+00  0.00000000000E+00 -0.22745731492E+04  0.22745731492E+04  0.50400001928E-02 0.  1.
    10030    2    1    2    0    0  0.00000000000E+00  0.00000000000E+00 -0.69065922163E+03  0.38584870767E+04  0.37961707497E+04 0.  0.
        5    1    3    3  502    0 -0.13098641275E+04 -0.82438291206E+03 -0.14621639656E+04  0.21291540035E+04  0.46999998093E+01 0.  1.
       -5    1    3    3    0  502  0.13098641275E+04  0.82438291206E+03  0.77150474402E+03  0.17293330732E+04  0.46999998093E+01 0. -1.
</event>
<event>
 5   0  0.1293993E-08  0.3801623E+04  0.7818609E-02  0.8045807E-01
        2   -1    0    0  501    0  0.00000000000E+00  0.00000000000E+00  0.24965569065E+04  0.24965569065E+04  0.25500000920E-02 0. -1.
       -2   -1    0    0    0  501  0.00000000000E+00  0.00000000000E+00 -0.14472268989E+04  0.14472268989E+04  0.25500000920E-02 0.  1.
    10030    2    1    2    0    0  0.00000000000E+00  0.00000000000E+00  0.10493300076E+04  0.39437838054E+04  0.38016229743E+04 0.  0.
        5    1    3    3  502    0  0.10765508015E+04  0.15661314460E+04  0.48679106592E+03  0.19618147125E+04  0.46999998093E+01 0.  1.
       -5    1    3    3    0  502 -0.10765508015E+04 -0.15661314460E+04  0.56253894171E+03  0.19819690929E+04  0.46999998093E+01 0. -1.
</event>
<event>
 5   0  0.1293993E-08  0.3789675E+04  0.7818609E-02  0.8048374E-01
        2   -1    0    0  501    0  0.00000000000E+00  0.00000000000E+00  0.18082622801E+04  0.18082622801E+04  0.25500000920E-02 0.  1.
       -2   -1    0    0    0  501  0.00000000000E+00  0.00000000000E+00 -0.19855579035E+04  0.19855579035E+04  0.25500000920E-02 0. -1.
    10030    2    1    2    0    0  0.00000000000E+00  0.00000000000E+00 -0.17729562342E+03  0.37938201837E+04  0.37896751639E+04 0.  0.
        5    1    3    3  502    0 -0.10667696374E+04 -0.87319186729E+03 -0.13900411673E+04  0.19577277730E+04  0.46999998093E+01 0. -1.
       -5    1    3    3    0  502  0.10667696374E+04  0.87319186729E+03  0.12127455439E+04  0.18360924107E+04  0.46999998093E+01 0.  1.
</event>
<event>
 5   0  0.1261152E-08  0.3800500E+04  0.7818609E-02  0.8046048E-01
       -2   -1    0    0    0  501  0.00000000000E+00  0.00000000000E+00  0.21945446198E+04  0.21945446198E+04  0.25500000920E-02 0. -1.
        2   -1    0    0  501    0  0.00000000000E+00  0.00000000000E+00 -0.16454207521E+04  0.16454207521E+04  0.25500000920E-02 0.  1.
    10030    2    1    2    0    0  0.00000000000E+00  0.00000000000E+00  0.54912386779E+03  0.38399653719E+04  0.38004995771E+04 0.  0.
        2    1    3    3  502    0 -0.18813828646E+04 -0.25453867083E+03  0.35638335998E+03  0.19316833378E+04  0.25500000920E-02 0. -1.
       -2    1    3    3    0  502  0.18813828646E+04  0.25453867083E+03  0.19274050781E+03  0.19082820341E+04  0.25500000920E-02 0.  1.
</event>
<event>
 5   0  0.4071750E-09  0.3800430E+04  0.7818609E-02  0.8046063E-01
       -1   -1    0    0    0  501  0.00000000000E+00  0.00000000000E+00  0.17828596938E+04  0.17828596938E+04  0.50400001928E-02 0. -1.
        1   -1    0    0  501    0  0.00000000000E+00  0.00000000000E+00 -0.20252956006E+04  0.20252956006E+04  0.50400001928E-02 0.  1.
    10030    2    1    2    0    0  0.00000000000E+00  0.00000000000E+00 -0.24243590683E+03  0.38081552945E+04  0.38004304464E+04 0.  0.
        1    1    3    3  502    0 -0.58437881059E+03 -0.73511080091E+03  0.15340875988E+04  0.17986970964E+04  0.50400001928E-02 0. -1.
       -1    1    3    3    0  502  0.58437881059E+03  0.73511080091E+03 -0.17765235056E+04  0.20094581981E+04  0.50400001928E-02 0.  1.
</event>
<event>
 5   0  0.1293993E-08  0.3799181E+04  0.7818609E-02  0.8046331E-01
        2   -1    0    0  501    0  0.00000000000E+00  0.00000000000E+00  0.25802688101E+04  0.25802688101E+04  0.25500000920E-02 0.  1.
       -2   -1    0    0    0  501  0.00000000000E+00  0.00000000000E+00 -0.13984760527E+04  0.13984760527E+04  0.25500000920E-02 0. -1.
    10030    2    1    2    0    0  0.00000000000E+00  0.00000000000E+00  0.11817927574E+04  0.39787448628E+04  0.37991810383E+04 0.  0.
        5    1    3    3  502    0  0.10944828641E+04  0.11652480435E+04  0.16654147371E+04  0.23085328846E+04  0.46999998093E+01 0.  1.
       -5    1    3    3    0  502 -0.10944828641E+04 -0.11652480435E+04 -0.48362197972E+03  0.16702119782E+04  0.46999998093E+01 0. -1.
</event>
<event>
 5   0  0.4071750E-09  0.3799772E+04  0.7818609E-02  0.8046204E-01
        1   -1    0    0  501    0  0.00000000000E+00  0.00000000000E+00  0.21585454084E+04  0.21585454084E+04  0.50400001928E-02 0. -1.
       -1   -1    0    0    0  501  0.00000000000E+00  0.00000000000E+00 -0.16722222386E+04  0.16722222386E+04  0.50400001928E-02 0.  1.
    10030    2    1    2    0    0  0.00000000000E+00  0.00000000000E+00  0.48632316981E+03  0.38307676470E+04  0.37997724327E+04 0.  0.
        5    1    3    3  502    0  0.15306273771E+04 -0.10920353670E+04  0.51775096801E+03  0.19502434630E+04  0.46999998093E+01 0.  1.
       -5    1    3    3    0  502 -0.15306273771E+04  0.10920353670E+04 -0.31427798206E+02  0.18805241840E+04  0.46999998093E+01 0. -1.
</event>
<event>
 5   0  0.1305088E-08  0.3798230E+04  0.7818609E-02  0.8046535E-01
        2   -1    0    0  501    0  0.00000000000E+00  0.00000000000E+00  0.17871796138E+04  0.17871796138E+04  0.25500000920E-02 0. -1.
       -2   -1    0    0    0  501  0.00000000000E+00  0.00000000000E+00 -0.20180616597E+04  0.20180616597E+04  0.25500000920E-02 0.  1.
    10030    2    1    2    0    0  0.00000000000E+00  0.00000000000E+00 -0.23088204593E+03  0.38052412735E+04  0.37982304604E+04 0.  0.
        3    1    3    3  502    0  0.37142577680E+03  0.15574532080E+04 -0.11386101371E+04  0.19647011624E+04  0.10100000352E+00 0.  1.
       -3    1    3    3    0  502 -0.37142577680E+03 -0.15574532080E+04  0.90772809118E+03  0.18405401111E+04  0.10100000352E+00 0. -1.
</event>
<event>
 5   0  0.1293993E-08  0.3803119E+04  0.7818609E-02  0.8045486E-01
       -2   -1    0    0    0  501  0.00000000000E+00  0.00000000000E+00  0.17009718846E+04  0.17009718846E+04  0.25500000920E-02 0. -1.
        2   -1    0    0  501    0  0.00000000000E+00  0.00000000000E+00 -0.21258016275E+04  0.21258016275E+04  0.25500000920E-02 0.  1.
    10030    2    1    2    0    0  0.00000000000E+00  0.00000000000E+00 -0.42482974292E+03  0.38267735121E+04  0.38031191412E+04 0.  0.
        5    1    3    3  502    0 -0.11392878596E+04  0.50762157652E+03  0.12318698359E+04  0.17530493075E+04  0.46999998093E+01 0. -1.
       -5    1    3    3    0  502  0.11392878596E+04 -0.50762157652E+03 -0.16566995788E+04  0.20737242045E+04  0.46999998093E+01 0.  1.
</event>
<event>
 5   0  0.4071750E-09  0.3800735E+04  0.7818609E-02  0.8045997E-01
        1   -1    0    0  501    0  0.00000000000E+00  0.00000000000E+00  0.17874279773E+04  0.17874279773E+04  0.50400001928E-02 0. -1.
       -1   -1    0    0    0  501  0.00000000000E+00  0.00000000000E+00 -0.20204428977E+04  0.20204428977E+04  0.50400001928E-02 0.  1.
    10030    2    1    2    0    0  0.00000000000E+00  0.00000000000E+00 -0.23301492043E+03  0.38078708750E+04  0.38007347510E+04 0.  0.
        4    1    3    3  502    0 -0.68810075285E+03  0.47650071549E+03 -0.18258347789E+04  0.20085342493E+04  0.12699999809E+01 0.  1.
       -4    1    3    3    0  502  0.68810075285E+03 -0.47650071549E+03  0.15928198585E+04  0.17993366256E+04  0.12699999809E+01 0. -1.
</event>
<event>
 5   0  0.1305088E-08  0.3802406E+04  0.7818609E-02  0.8045639E-01
        2   -1    0    0  501    0  0.00000000000E+00  0.00000000000E+00  0.23939593906E+04  0.23939593906E+04  0.25500000920E-02 0.  1.
       -2   -1    0    0    0  501  0.00000000000E+00  0.00000000000E+00 -0.15098723932E+04  0.15098723932E+04  0.25500000920E-02 0. -1.
    10030    2    1    2    0    0  0.00000000000E+00  0.00000000000E+00  0.88408699738E+03  0.39038317838E+04  0.38024061826E+04 0.  0.
        3    1    3    3  502    0  0.17053197823E+04 -0.28279434881E+03 -0.37057727433E+03  0.17678845353E+04  0.10100000352E+00 0. -1.
       -3    1    3    3    0  502 -0.17053197823E+04  0.28279434881E+03  0.12546642717E+04  0.21359472486E+04  0.10100000352E+00 0.  1.
</event>
<event>
 5   0  0.1261152E-08  0.3798492E+04  0.7818609E-02  0.8046478E-01
       -2   -1    0    0    0  501  0.00000000000E+00  0.00000000000E+00  0.14085643449E+04  0.14085643449E+04  0.25500000920E-02 0. -1.
        2   -1    0    0  501    0  0.00000000000E+00  0.00000000000E+00 -0.25608599584E+04  0.25608599584E+04  0.25500000920E-02 0.  1.
    10030    2    1    2    0    0  0.00000000000E+00  0.00000000000E+00 -0.11522956134E+04  0.39694243033E+04  0.37984923481E+04 0.  0.
        2    1    3    3  502    0 -0.81404666187E+03 -0.17101043745E+04 -0.72395931072E+03  0.20276207789E+04  0.25500000920E-02 0.  1.
       -2    1    3    3    0  502  0.81404666187E+03  0.17101043745E+04 -0.42833630273E+03  0.19418035244E+04  0.25500000920E-02 0. -1.
</event>
<event>
 5   0  0.1264013E-08  0.3797084E+04  0.7818609E-02  0.8046781E-01
       -2   -1    0    0    0  501  0.00000000000E+00  0.00000000000E+00  0.18435624988E+04  0.18435624988E+04  0.25500000920E-02 0. -1.
        2   -1    0    0  501    0  0.00000000000E+00  0.00000000000E+00 -0.19551607370E+04  0.19551607370E+04  0.25500000920E-02 0.  1.
    10030    2    1    2    0    0  0.00000000000E+00  0.00000000000E+00 -0.11159823818E+03  0.37987232359E+04  0.37970836251E+04 0.  0.
        4    1    3    3  502    0  0.15819921059E+04  0.11911275447E+03 -0.10991168929E+04  0.19300120281E+04  0.12699999809E+01 0.  1.
       -4    1    3    3    0  502 -0.15819921059E+04 -0.11911275447E+03  0.98751865476E+03  0.18687112077E+04  0.12699999809E+01 0. -1.
</event>
<event>
 5   0  0.1305088E-08  0.3798879E+04  0.7818609E-02  0.8046396E-01
       -2   -1    0    0    0  501  0.00000000000E+00  0.00000000000E+00  0.16357920420E+04  0.16357920420E+04  0.25500000920E-02 0.  1.
        2   -1    0    0  501    0  0.00000000000E+00  0.00000000000E+00 -0.22055796279E+04  0.22055796279E+04  0.25500000920E-02 0. -1.
    10030    2    1    2    0    0  0.00000000000E+00  0.00000000000E+00 -0.56978758589E+03  0.38413716699E+04  0.37988785732E+04 0.  0.
        3    1    3    3  502    0 -0.89230373396E+02  0.16020509758E+04  0.74301026509E+03  0.17682176486E+04  0.10100000352E+00 0.  1.
       -3    1    3    3    0  502  0.89230373396E+02 -0.16020509758E+04 -0.13127978510E+04  0.20731540214E+04  0.10100000352E+00 0. -1.
</event>
<event>
 5   0  0.1327249E-08  0.3798203E+04  0.7818609E-02  0.8046541E-01
       -2   -1    0    0    0  501  0.00000000000E+00  0.00000000000E+00  0.14569359227E+04  0.14569359227E+04  0.25500000920E-02 0.  1.
        2   -1    0    0  501    0  0.00000000000E+00  0.00000000000E+00 -0.24754598324E+04  0.24754598324E+04  0.25500000920E-02 0. -1.
    10030    2    1    2    0    0  0.00000000000E+00  0.00000000000E+00 -0.10185239096E+04  0.39323957551E+04  0.37982029198E+04 0.  0.
        1    1    3    3  502    0 -0.15853873543E+03  0.18905110443E+04 -0.59844362846E+03  0.19892966887E+04  0.50400001928E-02 0.  1.
       -1    1    3    3    0  502  0.15853873543E+03 -0.18905110443E+04 -0.42008028119E+03  0.19430990664E+04  0.50400001928E-02 0. -1.
</event>
<event>
 5   0  0.1327249E-08  0.3800561E+04  0.7818609E-02  0.8046034E-01
        2   -1    0    0  501    0  0.00000000000E+00  0.00000000000E+00  0.26767417180E+04  0.26767417180E+04  0.25500000920E-02 0. -1.
       -2   -1    0    0    0  501  0.00000000000E+00  0.00000000000E+00 -0.13490530753E+04  0.13490530753E+04  0.25500000920E-02 0.  1.
    10030    2    1    2    0    0  0.00000000000E+00  0.00000000000E+00  0.13276886427E+04  0.40257947934E+04  0.38005613515E+04 0.  0.
        1    1    3    3  502    0  0.46747268291E+02 -0.18942600676E+04  0.51158970438E+03  0.19626845229E+04  0.50400001928E-02 0.  1.
       -1    1    3    3    0  502 -0.46747268291E+02  0.18942600676E+04  0.81609893834E+03  0.20631102704E+04  0.50400001928E-02 0. -1.
</event>
<event>
 5   0  0.4071750E-09  0.3802233E+04  0.7818609E-02  0.8045676E-01
        1   -1    0    0  501    0  0.00000000000E+00  0.00000000000E+00  0.29599407958E+04  0.29599407958E+04  0.50400001928E-02 0.  1.
       -1   -1    0    0    0  501  0.00000000000E+00  0.00000000000E+00 -0.12210527585E+04  0.12210527586E+04  0.50400001928E-02 0. -1.
    10030    2    1    2    0    0  0.00000000000E+00  0.00000000000E+00  0.17388880373E+04  0.41809935544E+04  0.38022329618E+04 0.  0.
        1    1    3    3  502    0  0.65332884976E+03 -0.16617178859E+04  0.15165632115E+03  0.17919666732E+04  0.50400001928E-02 0. -1.
       -1    1    3    3    0  502 -0.65332884976E+03  0.16617178859E+04  0.15872317161E+04  0.23890268812E+04  0.50400001928E-02 0.  1.
</event>
<event>
 5   0  0.4071750E-09  0.3801100E+04  0.7818609E-02  0.8045919E-01
        1   -1    0    0  501    0  0.00000000000E+00  0.00000000000E+00  0.22564234064E+04  0.22564234064E+04  0.50400001928E-02 0.  1.
       -1   -1    0    0    0  501  0.00000000000E+00  0.00000000000E+00 -0.16008036681E+04  0.16008036681E+04  0.50400001928E-02 0. -1.
    10030    2    1    2    0    0  0.00000000000E+00  0.00000000000E+00  0.65561973831E+03  0.38572270745E+04  0.38011002963E+04 0.  0.
        2    1    3    3  502    0  0.14499910402E+03  0.13091647564E+04 -0.10625134337E+04  0.16922978155E+04  0.25500000920E-02 0. -1.
       -2    1    3    3    0  502 -0.14499910402E+03 -0.13091647564E+04  0.17181331720E+04  0.21649292590E+04  0.25500000920E-02 0.  1.
</event>
<event>
 5   0  0.1327249E-08  0.3801111E+04  0.7818609E-02  0.8045916E-01
       -2   -1    0    0    0  501  0.00000000000E+00  0.00000000000E+00  0.19420769107E+04  0.19420769107E+04  0.25500000920E-02 0.  1.
        2   -1    0    0  501    0  0.00000000000E+00  0.00000000000E+00 -0.18599218427E+04  0.18599218427E+04  0.25500000920E-02 0. -1.
    10030    2    1    2    0    0  0.00000000000E+00  0.00000000000E+00  0.82155068003E+02  0.38019987533E+04  0.38011110304E+04 0.  0.
        1    1    3    3  502    0  0.11461082465E+04  0.10306922791E+04  0.11531917675E+04  0.19250303736E+04  0.50400001928E-02 0.  1.
       -1    1    3    3    0  502 -0.11461082465E+04 -0.10306922791E+04 -0.10710366995E+04  0.18769683797E+04  0.50400001928E-02 0. -1.
</event>
<event>
 5   0  0.4071750E-09  0.3800603E+04  0.7818609E-02  0.8046025E-01
       -1   -1    0    0    0  501  0.00000000000E+00  0.00000000000E+00  0.23137104000E+04  0.23137104001E+04  0.50400001928E-02 0.  1.
        1   -1    0    0  501    0  0.00000000000E+00  0.00000000000E+00 -0.15607596754E+04  0.15607596754E+04  0.50400001928E-02 0. -1.
    10030    2    1    2    0    0  0.00000000000E+00  0.00000000000E+00  0.75295072463E+03  0.38744700755E+04  0.38006030537E+04 0.  0.
        5    1    3    3  502    0 -0.47744201597E+03  0.18104492979E+04  0.70751149264E+03  0.20015674211E+04  0.46999998093E+01 0.  1.
       -5    1    3    3    0  502  0.47744201597E+03 -0.18104492979E+04  0.45439231990E+02  0.18729026544E+04  0.46999998093E+01 0. -1.
</event>
<event>
 5   0  0.1293993E-08  0.3799145E+04  0.7818609E-02  0.8046338E-01
        2   -1    0    0  501    0  0.00000000000E+00  0.00000000000E+00  0.22772986451E+04  0.22772986451E+04  0.25500000920E-02 0. -1.
       -2   -1    0    0    0  501  0.00000000000E+00  0.00000000000E+00 -0.15844986029E+04  0.15844986029E+04  0.25500000920E-02 0.  1.
    10030    2    1    2    0    0  0.00000000000E+00  0.00000000000E+00  0.69280004216E+03  0.38617972481E+04  0.37991454416E+04 0.  0.
        5    1    3    3  502    0 -0.13705524254E+04  0.11266053839E+04 -0.34354268446E+03  0.18071240432E+04  0.46999998093E+01 0.  1.
       -5    1    3    3    0  502  0.13705524254E+04 -0.11266053839E+04  0.10363427266E+04  0.20546732048E+04  0.46999998093E+01 0. -1.
</event>
<event>
 5   0  0.4071750E-09  0.3799864E+04  0.7818609E-02  0.8046184E-01
        1   -1    0    0  501    0  0.00000000000E+00  0.00000000000E+00  0.22502116914E+04  0.22502116914E+04  0.50400001928E-02 0. -1.
       -1   -1    0    0    0  501  0.00000000000E+00  0.00000000000E+00 -0.16041784774E+04  0.16041784775E+04  0.50400001928E-02 0.  1.
    10030    2    1    2    0    0  0.00000000000E+00  0.00000000000E+00  0.64603321399E+03  0.38543901689E+04  0.37998637687E+04 0.  0.
        3    1    3    3  502    0  0.17119273989E+03  0.44122019631E+03  0.21894636197E+04  0.22400297248E+04  0.10100000352E+00 0. -1.
       -3    1    3    3    0  502 -0.17119273989E+03 -0.44122019631E+03 -0.15434304057E+04  0.16143604441E+04  0.10100000352E+00 0.  1.
</event>
<event>
 5   0  0.1261152E-08  0.3799872E+04  0.7818609E-02  0.8046182E-01
       -2   -1    0    0    0  501  0.00000000000E+00  0.00000000000E+00  0.19300438968E+04  0.19300438968E+04  0.25500000920E-02 0.  1.
        2   -1    0    0  501    0  0.00000000000E+00  0.00000000000E+00 -0.18702973426E+04  0.18702973426E+04  0.25500000920E-02 0. -1.
    10030    2    1    2    0    0  0.00000000000E+00  0.00000000000E+00  0.59746554195E+02  0.38003412395E+04  0.37998715618E+04 0.  0.
        2    1    3    3  502    0  0.10485699782E+04 -0.74687628684E+03 -0.13675942430E+04  0.18782005219E+04  0.25500000920E-02 0. -1.
       -2    1    3    3    0  502 -0.10485699782E+04  0.74687628684E+03  0.14273407972E+04  0.19221407176E+04  0.25500000920E-02 0.  1.
</event>
<event>
 5   0  0.4071750E-09  0.3799771E+04  0.7818609E-02  0.8046204E-01
        1   -1    0    0  501    0  0.00000000000E+00  0.00000000000E+00  0.23820149456E+04  0.23820149456E+04  0.50400001928E-02 0. -1.
       -1   -1    0    0    0  501  0.00000000000E+00  0.00000000000E+00 -0.15153408650E+04  0.15153408650E+04  0.50400001928E-02 0.  1.
    10030    2    1    2    0    0  0.00000000000E+00  0.00000000000E+00  0.86667408064E+03  0.38973558106E+04  0.37997708290E+04 0.  0.
        4    1    3    3  502    0 -0.12872000785E+04 -0.13907131430E+04  0.29346815841E+03  0.19175745777E+04  0.12699999809E+01 0.  1.
       -4    1    3    3    0  502  0.12872000785E+04  0.13907131430E+04  0.57320592223E+03  0.19797812329E+04  0.12699999809E+01 0. -1.
</event>
<event>
 5   0  0.4071750E-09  0.3803012E+04  0.7818609E-02  0.8045509E-01
       -1   -1    0    0    0  501  0.00000000000E+00  0.00000000000E+00  0.19883861591E+04  0.19883861591E+04  0.50400001928E-02 0. -1.
        1   -1    0    0  501    0  0.00000000000E+00  0.00000000000E+00 -0.18184221026E+04  0.18184221026E+04  0.50400001928E-02 0.  1.
    10030    2    1    2    0    0  0.00000000000E+00  0.00000000000E+00  0.16996405653E+03  0.38068082617E+04  0.38030121432E+04 0.  0.
        5    1    3    3  502    0 -0.16401999249E+04  0.13962565657E+03  0.10377472959E+04  0.19459426142E+04  0.46999998093E+01 0. -1.
       -5    1    3    3    0  502  0.16401999249E+04 -0.13962565657E+03 -0.86778323940E+03  0.18608656475E+04  0.46999998093E+01 0.  1.
</event>
<event>
 5   0  0.4071750E-09  0.3801486E+04  0.7818609E-02  0.8045836E-01
       -1   -1    0    0    0  501  0.00000000000E+00  0.00000000000E+00  0.32599663211E+04  0.32599663211E+04  0.50400001928E-02 0.  1.
        1   -1    0    0  501    0  0.00000000000E+00  0.00000000000E+00 -0.11082394069E+04  0.11082394069E+04  0.50400001928E-02 0. -1.
    10030    2    1    2    0    0  0.00000000000E+00  0.00000000000E+00  0.21517269142E+04  0.43682057280E+04  0.38014855739E+04 0.  0.
        3    1    3    3  502    0 -0.10106004953E+04  0.15510005815E+04  0.15713108758E+04  0.24281544522E+04  0.10100000352E+00 0.  1.
       -3    1    3    3    0  502  0.10106004953E+04 -0.15510005815E+04  0.58041603840E+03  0.19400512758E+04  0.10100000352E+00 0. -1.
</event>
<event>
 5   0  0.4071750E-09  0.3795085E+04  0.7818609E-02  0.8047210E-01
        1   -1    0    0  501    0  0.00000000000E+00  0.00000000000E+00  0.25292093218E+04  0.25292093218E+04  0.50400001928E-02 0.  1.
       -1   -1    0    0    0  501  0.00000000000E+00  0.00000000000E+00 -0.14236336269E+04  0.14236336269E+04  0.50400001928E-02 0. -1.
    10030    2    1    2    0    0  0.00000000000E+00  0.00000000000E+00  0.11055756949E+04  0.39528429487E+04  0.37950849477E+04 0.  0.
        2    1    3    3  502    0 -0.17141925136E+04  0.72933937282E+03  0.92872868834E+03  0.20815688485E+04  0.25500000920E-02 0.  1.
       -2    1    3    3    0  502  0.17141925136E+04 -0.72933937282E+03  0.17684700656E+03  0.18712741002E+04  0.25500000920E-02 0. -1.
</event>
<event>
 5   0  0.1305088E-08  0.3799851E+04  0.7818609E-02  0.8046187E-01
       -2   -1    0    0    0  501  0.00000000000E+00  0.00000000000E+00  0.18559119308E+04  0.18559119308E+04  0.25500000920E-02 0. -1.
        2   -1    0    0  501    0  0.00000000000E+00  0.00000000000E+00 -0.19449828389E+04  0.19449828389E+04  0.25500000920E-02 0.  1.
    10030    2    1    2    0    0  0.00000000000E+00  0.00000000000E+00 -0.89070908122E+02  0.38008947698E+04  0.37998509739E+04 0.  0.
        3    1    3    3  502    0 -0.70987046372E+02 -0.99095546609E+03 -0.16644508896E+04  0.19384087986E+04  0.10100000352E+00 0.  1.
       -3    1    3    3    0  502  0.70987046372E+02  0.99095546609E+03  0.15753799815E+04  0.18624859711E+04  0.10100000352E+00 0. -1.
</event>
<event>
 5   0  0.1327249E-08  0.3799730E+04  0.7818609E-02  0.8046213E-01
       -2   -1    0    0    0  501  0.00000000000E+00  0.00000000000E+00  0.17772587598E+04  0.17772587598E+04  0.25500000920E-02 0.  1.
        2   -1    0    0  501    0  0.00000000000E+00  0.00000000000E+00 -0.20309290629E+04  0.20309290629E+04  0.25500000920E-02 0. -1.
    10030    2    1    2    0    0  0.00000000000E+00  0.00000000000E+00 -0.25367030309E+03  0.38081878227E+04  0.37997297101E+04 0.  0.
        1    1    3    3  502    0 -0.51486541494E+03 -0.81833622098E+02 -0.19578401141E+04  0.20260604753E+04  0.50400001928E-02 0. -1.
       -1    1    3    3    0  502  0.51486541494E+03  0.81833622098E+02  0.17041698110E+04  0.17821273473E+04  0.50400001928E-02 0.  1.
</event>
<event>
 5   0  0.4071750E-09  0.3803224E+04  0.7818609E-02  0.8045463E-01
        1   -1    0    0  501    0  0.00000000000E+00  0.00000000000E+00  0.15479075518E+04  0.15479075518E+04  0.50400001928E-02 0.  1.
       -1   -1    0    0    0  501  0.00000000000E+00  0.00000000000E+00 -0.23361400124E+04  0.23361400124E+04  0.50400001928E-02 0. -1.
    10030    2    1    2    0    0  0.00000000000E+00  0.00000000000E+00 -0.78823246063E+03  0.38840475643E+04  0.38032242991E+04 0.  0.
        2    1    3    3  502    0 -0.86040952034E+03 -0.14279133135E+04 -0.13283729224E+04  0.21316227608E+04  0.25500000920E-02 0. -1.
       -2    1    3    3    0  502  0.86040952034E+03  0.14279133135E+04  0.54014046174E+03  0.17524248035E+04  0.25500000920E-02 0.  1.
</event>
<event>
 5   0  0.4071750E-09  0.3803032E+04  0.7818609E-02  0.8045505E-01
       -1   -1    0    0    0  501  0.00000000000E+00  0.00000000000E+00  0.20859610093E+04  0.20859610093E+04  0.50400001928E-02 0.  1.
        1   -1    0    0  501    0  0.00000000000E+00  0.00000000000E+00 -0.17333798293E+04  0.17333798294E+04  0.50400001928E-02 0. -1.
    10030    2    1    2    0    0  0.00000000000E+00  0.00000000000E+00  0.35258117996E+03  0.38193408387E+04  0.38030318107E+04 0.  0.
        4    1    3    3  502    0  0.18806902677E+03  0.14422586584E+04 -0.10538217687E+04  0.17961130058E+04  0.12699999809E+01 0. -1.
       -4    1    3    3    0  502 -0.18806902677E+03 -0.14422586584E+04  0.14064029486E+04  0.20232278328E+04  0.12699999809E+01 0.  1.
</event>
<event>
 5   0  0.4071750E-09  0.3800920E+04  0.7818609E-02  0.8045957E-01
        1   -1    0    0  501    0  0.00000000000E+00  0.00000000000E+00  0.15890354795E+04  0.15890354795E+04  0.50400001928E-02 0. -1.
       -1   -1    0    0    0  501  0.00000000000E+00  0.00000000000E+00 -0.22729185691E+04  0.22729185691E+04  0.50400001928E-02 0.  1.
    10030    2    1    2    0    0  0.00000000000E+00  0.00000000000E+00 -0.68388308965E+03  0.38619540486E+04  0.38009200193E+04 0.  0.
        3    1    3    3  502    0 -0.18170075193E+04  0.15312687045E+03  0.20217995459E+03  0.18346228245E+04  0.10100000352E+00 0.  1.
       -3    1    3    3    0  502  0.18170075193E+04 -0.15312687045E+03 -0.88606304424E+03  0.20273312241E+04  0.10100000352E+00 0. -1.
</event>
<event>
 5   0  0.4071750E-09  0.3801312E+04  0.7818609E-02  0.8045873E-01
        1   -1    0    0  501    0  0.00000000000E+00  0.00000000000E+00  0.21499844254E+04  0.21499844254E+04  0.50400001928E-02 0.  1.
       -1   -1    0    0    0  501  0.00000000000E+00  0.00000000000E+00 -0.16802413596E+04  0.16802413596E+04  0.50400001928E-02 0. -1.
    10030    2    1    2    0    0  0.00000000000E+00  0.00000000000E+00  0.46974306585E+03  0.38302257850E+04  0.38013117494E+04 0.  0.
        4    1    3    3  502    0  0.13753606229E+04 -0.11757327808E+04  0.82112762444E+03  0.19870119787E+04  0.12699999809E+01 0. -1.
       -4    1    3    3    0  502 -0.13753606229E+04  0.11757327808E+04 -0.35138455859E+03  0.18432138063E+04  0.12699999809E+01 0.  1.
</event>
<event>
 5   0  0.1261152E-08  0.3799900E+04  0.7818609E-02  0.8046176E-01
        2   -1    0    0  501    0  0.00000000000E+00  0.00000000000E+00  0.17844161341E+04  0.17844161341E+04  0.25500000920E-02 0. -1.
       -2   -1    0    0    0  501  0.00000000000E+00  0.00000000000E+00 -0.20229637886E+04  0.20229637886E+04  0.25500000920E-02 0.  1.
    10030    2    1    2    0    0  0.00000000000E+00  0.00000000000E+00 -0.23854765444E+03  0.38073799227E+04  0.37998995897E+04 0.  0.
        2    1    3    3  502    0  0.17301906984E+04 -0.76014571032E+03 -0.31569000136E+03  0.19159962241E+04  0.25500000920E-02 0. -1.
       -2    1    3    3    0  502 -0.17301906984E+04  0.76014571032E+03  0.77142346918E+02  0.18913836986E+04  0.25500000920E-02 0.  1.
</event>
<event>
 5   0  0.1327249E-08  0.3800840E+04  0.7818609E-02  0.8045975E-01
       -2   -1    0    0    0  501  0.00000000000E+00  0.00000000000E+00  0.18452891526E+04  0.18452891526E+04  0.25500000920E-02 0.  1.
        2   -1    0    0  501    0  0.00000000000E+00  0.00000000000E+00 -0.19571980378E+04  0.19571980379E+04  0.25500000920E-02 0. -1.
    10030    2    1    2    0    0  0.00000000000E+00  0.00000000000E+00 -0.11190888529E+03  0.38024871904E+04  0.38008400696E+04 0.  0.
        1    1    3    3  502    0 -0.38532632078E+03 -0.85928167999E+03 -0.17073529484E+04  0.19498449860E+04  0.50400001928E-02 0. -1.
       -1    1    3    3    0  502  0.38532632078E+03  0.85928167999E+03  0.15954440631E+04  0.18526422044E+04  0.50400001928E-02 0.  1.
</event>
<event>
 5   0  0.4071750E-09  0.3799262E+04  0.7818609E-02  0.8046313E-01
        1   -1    0    0  501    0  0.00000000000E+00  0.00000000000E+00  0.15467007539E+04  0.15467007539E+04  0.50400001928E-02 0. -1.
       -1   -1    0    0    0  501  0.00000000000E+00  0.00000000000E+00 -0.23330933031E+04  0.23330933031E+04  0.50400001928E-02 0.  1.
    10030    2    1    2    0    0  0.00000000000E+00  0.00000000000E+00 -0.78639254920E+03  0.38797940570E+04  0.37992615971E+04 0.  0.
        1    1    3    3  502    0  0.62846527632E+03  0.16366349733E+04  0.35378290828E+03  0.17884923779E+04  0.50400001928E-02 0. -1.
       -1    1    3    3    0  502 -0.62846527632E+03 -0.16366349733E+04 -0.11401754575E+04  0.20913016792E+04  0.50400001928E-02 0.  1.
</event>
<event>
 5   0  0.1261152E-08  0.3800168E+04  0.7818609E-02  0.8046119E-01
       -2   -1    0    0    0  501  0.00000000000E+00  0.00000000000E+00  0.16872519374E+04  0.16872519374E+04  0.25500000920E-02 0.  1.
        2   -1    0    0  501    0  0.00000000000E+00  0.00000000000E+00 -0.21397635180E+04  0.21397635180E+04  0.25500000920E-02 0. -1.
    10030    2    1    2    0    0  0.00000000000E+00  0.00000000000E+00 -0.45251158060E+03  0.38270154554E+04  0.38001684917E+04 0.  0.
        2    1    3    3  502    0  0.76110153150E+03 -0.17373477692E+04 -0.33960014272E+03  0.19269097201E+04  0.25500000920E-02 0. -1.
       -2    1    3    3    0  502 -0.76110153150E+03  0.17373477692E+04 -0.11291143788E+03  0.19001057353E+04  0.25500000920E-02 0.  1.
</event>
<event>
 5   0  0.4071750E-09  0.3799624E+04  0.7818609E-02  0.8046236E-01
       -1   -1    0    0    0  501  0.00000000000E+00  0.00000000000E+00  0.19608388606E+04  0.19608388606E+04  0.50400001928E-02 0. -1.
        1   -1    0    0  501    0  0.00000000000E+00  0.00000000000E+00 -0.18406844737E+04  0.18406844737E+04  0.50400001928E-02 0.  1.
    10030    2    1    2    0    0  0.00000000000E+00  0.00000000000E+00  0.12015438694E+03  0.38015233343E+04  0.37996240057E+04 0.  0.
        3    1    3    3  502    0  0.14321279985E+04  0.41035213701E+03 -0.11194549405E+04  0.18634803070E+04  0.10100000352E+00 0.  1.
       -3    1    3    3    0  502 -0.14321279985E+04 -0.41035213701E+03  0.12396093275E+04  0.19380430273E+04  0.10100000352E+00 0. -1.
</event>
<event>
 5   0  0.1327249E-08  0.3786534E+04  0.7818609E-02  0.8049051E-01
       -2   -1    0    0    0  501  0.00000000000E+00  0.00000000000E+00  0.20367655555E+04  0.20367655555E+04  0.25500000920E-02 0.  1.
        2   -1    0    0  501    0  0.00000000000E+00  0.00000000000E+00 -0.17598785775E+04  0.17598785775E+04  0.25500000920E-02 0. -1.
    10030    2    1    2    0    0  0.00000000000E+00  0.00000000000E+00  0.27688697802E+03  0.37966441331E+04  0.37865340715E+04 0.  0.
        1    1    3    3  502    0 -0.14546132464E+04 -0.10276519274E+04  0.78241362706E+03  0.19452864222E+04  0.50400001928E-02 0.  1.
       -1    1    3    3    0  502  0.14546132464E+04  0.10276519274E+04 -0.50552664904E+03  0.18513577109E+04  0.50400001928E-02 0. -1.
</event>
<event>
 5   0  0.4071750E-09  0.3798560E+04  0.7818609E-02  0.8046464E-01
       -1   -1    0    0    0  501  0.00000000000E+00  0.00000000000E+00  0.37221312738E+04  0.37221312738E+04  0.50400001928E-02 0. -1.
        1   -1    0    0  501    0  0.00000000000E+00  0.00000000000E+00 -0.96913930204E+03  0.96913930205E+03  0.50400001928E-02 0.  1.
    10030    2    1    2    0    0  0.00000000000E+00  0.00000000000E+00  0.27529919718E+04  0.46912705759E+04  0.37985595717E+04 0.  0.
        3    1    3    3  502    0 -0.50444466518E+03  0.12526021377E+04  0.30259608053E+04  0.33135955307E+04  0.10100000352E+00 0. -1.
       -3    1    3    3    0  502  0.50444466518E+03 -0.12526021377E+04 -0.27296883356E+03  0.13776750451E+04  0.10100000352E+00 0.  1.
</event>
<event>
 5   0  0.1293993E-08  0.3779349E+04  0.7818609E-02  0.8050601E-01
        2   -1    0    0  501    0  0.00000000000E+00  0.00000000000E+00  0.25660199757E+04  0.25660199757E+04  0.25500000920E-02 0. -1.
       -2   -1    0    0    0  501  0.00000000000E+00  0.00000000000E+00 -0.13915984514E+04  0.13915984514E+04  0.25500000920E-02 0.  1.
    10030    2    1    2    0    0  0.00000000000E+00  0.00000000000E+00  0.11744215243E+04  0.39576184271E+04  0.37793488457E+04 0.  0.
        5    1    3    3  502    0  0.65892816435E+03  0.56350069565E+02  0.24408738250E+04  0.25288829106E+04  0.46999998093E+01 0. -1.
       -5    1    3    3    0  502 -0.65892816435E+03 -0.56350069565E+02 -0.12664523007E+04  0.14287355165E+04  0.46999998093E+01 0.  1.
</event>
<event>
 5   0  0.1327249E-08  0.3800578E+04  0.7818609E-02  0.8046031E-01
       -2   -1    0    0    0  501  0.00000000000E+00  0.00000000000E+00  0.16862111837E+04  0.16862111837E+04  0.25500000920E-02 0. -1.
        2   -1    0    0  501    0  0.00000000000E+00  0.00000000000E+00 -0.21415452299E+04  0.21415452299E+04  0.25500000920E-02 0.  1.
    10030    2    1    2    0    0  0.00000000000E+00  0.00000000000E+00 -0.45533404625E+03  0.38277564136E+04  0.38005775967E+04 0.  0.
        1    1    3    3  502    0  0.14625439559E+04  0.12126963253E+04 -0.18957703620E+03  0.19093471798E+04  0.50400001928E-02 0. -1.
       -1    1    3    3    0  502 -0.14625439559E+04 -0.12126963253E+04 -0.26575701005E+03  0.19184092339E+04  0.50400001928E-02 0.  1.
</event>
<event>
 5   0  0.4071750E-09  0.3798762E+04  0.7818609E-02  0.8046421E-01
       -1   -1    0    0    0  501  0.00000000000E+00  0.00000000000E+00  0.23710139307E+04  0.23710139307E+04  0.50400001928E-02 0. -1.
        1   -1    0    0  501    0  0.00000000000E+00  0.00000000000E+00 -0.15215633249E+04  0.15215633249E+04  0.50400001928E-02 0.  1.
    10030    2    1    2    0    0  0.00000000000E+00  0.00000000000E+00  0.84945060581E+03  0.38925772556E+04  0.37987618192E+04 0.  0.
        2    1    3    3  502    0  0.11405451638E+04  0.14148690661E+04  0.99058604222E+03  0.20697725605E+04  0.25500000920E-02 0.  1.
       -2    1    3    3    0  502 -0.11405451638E+04 -0.14148690661E+04 -0.14113543641E+03  0.18228046951E+04  0.25500000920E-02 0. -1.
</event>
<event>
 5   0  0.1261152E-08  0.3800044E+04  0.7818609E-02  0.8046145E-01
       -2   -1    0    0    0  501  0.00000000000E+00  0.00000000000E+00  0.23628716262E+04  0.23628716262E+04  0.25500000920E-02 0. -1.
        2   -1    0    0  501    0  0.00000000000E+00  0.00000000000E+00 -0.15278375124E+04  0.15278375124E+04  0.25500000920E-02 0.  1.
    10030    2    1    2    0    0  0.00000000000E+00  0.00000000000E+00  0.83503411376E+03  0.38907091386E+04  0.38000441616E+04 0.  0.
        2    1    3    3  502    0 -0.13653079222E+04  0.37031234883E+03  0.17161992500E+04  0.22240811190E+04  0.25500000920E-02 0. -1.
       -2    1    3    3    0  502  0.13653079222E+04 -0.37031234883E+03 -0.88116513626E+03  0.16666280196E+04  0.25500000920E-02 0.  1.
</event>
<event>
 5   0  0.1327249E-08  0.3801873E+04  0.7818609E-02  0.8045753E-01
        2   -1    0    0  501    0  0.00000000000E+00  0.00000000000E+00  0.12796552993E+04  0.12796552993E+04  0.25500000920E-02 0. -1.
       -2   -1    0    0    0  501  0.00000000000E+00  0.00000000000E+00 -0.28238539765E+04  0.28238539765E+04  0.25500000920E-02 0.  1.
    10030    2    1    2    0    0  0.00000000000E+00  0.00000000000E+00 -0.15441986772E+04  0.41035092758E+04  0.38018730676E+04 0.  0.
        1    1    3    3  502    0  0.54872230511E+03 -0.17709684779E+04 -0.12250799742E+04  0.22222165648E+04  0.50400001928E-02 0.  1.
       -1    1    3    3    0  502 -0.54872230511E+03  0.17709684779E+04 -0.31911870306E+03  0.18812927110E+04  0.50400001928E-02 0. -1.
</event>
<event>
 5   0  0.4071750E-09  0.3801608E+04  0.7818609E-02  0.8045810E-01
       -1   -1    0    0    0  501  0.00000000000E+00  0.00000000000E+00  0.14081776131E+04  0.14081776131E+04  0.50400001928E-02 0.  1.
        1   -1    0    0  501    0  0.00000000000E+00  0.00000000000E+00 -0.25657664972E+04  0.25657664972E+04  0.50400001928E-02 0. -1.
    10030    2    1    2    0    0  0.00000000000E+00  0.00000000000E+00 -0.11575888841E+04  0.39739441103E+04  0.38016075241E+04 0.  0.
        2    1    3    3  502    0  0.76265762927E+03 -0.16062232268E+04 -0.12811577568E+04  0.21915667709E+04  0.25500000920E-02 0. -1.
       -2    1    3    3    0  502 -0.76265762927E+03  0.16062232268E+04  0.12356887269E+03  0.17823773394E+04  0.25500000920E-02 0.  1.
</event>
<event>
 5   0  0.4071750E-09  0.3802598E+04  0.7818609E-02  0.8045598E-01
       -1   -1    0    0    0  501  0.00000000000E+00  0.00000000000E+00  0.14862682656E+04  0.14862682656E+04  0.50400001928E-02 0.  1.
        1   -1    0    0  501    0  0.00000000000E+00  0.00000000000E+00 -0.24322247382E+04  0.24322247382E+04  0.50400001928E-02 0. -1.
    10030    2    1    2    0    0  0.00000000000E+00  0.00000000000E+00 -0.94595647262E+03  0.39184930038E+04  0.38025982924E+04 0.  0.
        4    1    3    3  502    0  0.37506592058E+03  0.18506528701E+04 -0.24406753315E+03  0.19039855735E+04  0.12699999809E+01 0.  1.
       -4    1    3    3    0  502 -0.37506592058E+03 -0.18506528701E+04 -0.70188893947E+03  0.20145074303E+04  0.12699999809E+01 0. -1.
</event>
<event>
 5   0  0.1293993E-08  0.3798007E+04  0.7818609E-02  0.8046583E-01
        2   -1    0    0  501    0  0.00000000000E+00  0.00000000000E+00  0.13054824986E+04  0.13054824986E+04  0.25500000920E-02 0. -1.
       -2   -1    0    0    0  501  0.00000000000E+00  0.00000000000E+00 -0.27623606693E+04  0.27623606693E+04  0.25500000920E-02 0.  1.
    10030    2    1    2    0    0  0.00000000000E+00  0.00000000000E+00 -0.14568781707E+04  0.40678431679E+04  0.37980065869E+04 0.  0.
        5    1    3    3  502    0 -0.47671209156E+03  0.86169277561E+03 -0.24675048147E+04  0.26567594845E+04  0.46999998093E+01 0.  1.
       -5    1    3    3    0  502  0.47671209156E+03 -0.86169277561E+03  0.10106266441E+04  0.14110836834E+04  0.46999998093E+01 0. -1.
</event>
<event>
 5   0  0.4071750E-09  0.3799807E+04  0.7818609E-02  0.8046196E-01
        1   -1    0    0  501    0  0.00000000000E+00  0.00000000000E+00  0.17471575521E+04  0.17471575521E+04  0.50400001928E-02 0. -1.
       -1   -1    0    0    0  501  0.00000000000E+00  0.00000000000E+00 -0.20660032632E+04  0.20660032632E+04  0.50400001928E-02 0.  1.
    10030    2    1    2    0    0  0.00000000000E+00  0.00000000000E+00 -0.31884571110E+03  0.38131608154E+04  0.37998069446E+04 0.  0.
        5    1    3    3  502    0  0.10483648787E+04  0.15493956507E+04  0.17327705886E+03  0.18787609828E+04  0.46999998093E+01 0. -1.
       -5    1    3    3    0  502 -0.10483648787E+04 -0.15493956507E+04 -0.49212276996E+03  0.19343998326E+04  0.46999998093E+01 0.  1.
</event>
<event>
 5   0  0.4071750E-09  0.3799543E+04  0.7818609E-02  0.8046253E-01
        1   -1    0    0  501    0  0.00000000000E+00  0.00000000000E+00  0.24730619553E+04  0.24730619553E+04  0.50400001928E-02 0. -1.
       -1   -1    0    0    0  501  0.00000000000E+00  0.00000000000E+00 -0.14593777054E+04  0.14593777055E+04  0.50400001928E-02 0.  1.
    10030    2    1    2    0    0  0.00000000000E+00  0.00000000000E+00  0.10136842498E+04  0.39324396607E+04  0.37995428576E+04 0.  0.
        3    1    3    3  502    0 -0.48587607346E+03  0.26934406561E+03 -0.13734322434E+04  0.14815322885E+04  0.10100000352E+00 0.  1.
       -3    1    3    3    0  502  0.48587607346E+03 -0.26934406561E+03  0.23871164933E+04  0.24509073722E+04  0.10100000352E+00 0. -1.
</event>
<event>
 5   0  0.1305088E-08  0.3799383E+04  0.7818609E-02  0.8046287E-01
       -2   -1    0    0    0  501  0.00000000000E+00  0.00000000000E+00  0.23007596025E+04  0.23007596025E+04  0.25500000920E-02 0. -1.
        2   -1    0    0  501    0  0.00000000000E+00  0.00000000000E+00 -0.15685376213E+04  0.15685376214E+04  0.25500000920E-02 0.  1.
    10030    2    1    2    0    0  0.00000000000E+00  0.00000000000E+00  0.73222198119E+03  0.38692972239E+04  0.37993831048E+04 0.  0.
        3    1    3    3  502    0  0.17349615366E+04 -0.53981114087E+03  0.93069531858E+03  0.20414899920E+04  0.10100000352E+00 0. -1.
       -3    1    3    3    0  502 -0.17349615366E+04  0.53981114087E+03 -0.19847333739E+03  0.18278072319E+04  0.10100000352E+00 0.  1.
</event>
<event>
 5   0  0.1293993E-08  0.3798578E+04  0.7818609E-02  0.8046460E-01
        2   -1    0    0  501    0  0.00000000000E+00  0.00000000000E+00  0.28687998190E+04  0.28687998190E+04  0.25500000920E-02 0.  1.
       -2   -1    0    0    0  501  0.00000000000E+00  0.00000000000E+00 -0.12574242992E+04  0.12574242992E+04  0.25500000920E-02 0. -1.
    10030    2    1    2    0    0  0.00000000000E+00  0.00000000000E+00  0.16113755198E+04  0.41262241182E+04  0.37985779455E+04 0.  0.
        5    1    3    3  502    0  0.19174641026E+03  0.16306208873E+04  0.18428111737E+04  0.24681301173E+04  0.46999998093E+01 0.  1.
       -5    1    3    3    0  502 -0.19174641026E+03 -0.16306208873E+04 -0.23143565395E+03  0.16580940009E+04  0.46999998093E+01 0. -1.
</event>
<event>
 5   0  0.4071750E-09  0.3798908E+04  0.7818609E-02  0.8046389E-01
        1   -1    0    0  501    0  0.00000000000E+00  0.00000000000E+00  0.25219306423E+04  0.25219306423E+04  0.50400001928E-02 0.  1.
       -1   -1    0    0    0  501  0.00000000000E+00  0.00000000000E+00 -0.14306204407E+04  0.14306204407E+04  0.50400001928E-02 0. -1.
    10030    2    1    2    0    0  0.00000000000E+00  0.00000000000E+00  0.10913102015E+04  0.39525510830E+04  0.37989080152E+04 0.  0.
        5    1    3    3  502    0  0.16061672882E+04  0.39959549225E+03  0.15152537548E+04  0.22439843909E+04  0.46999998093E+01 0.  1.
       -5    1    3    3    0  502 -0.16061672882E+04 -0.39959549225E+03 -0.42394355327E+03  0.17085666921E+04  0.46999998093E+01 0. -1.
</event>
<event>
 5   0  0.4071750E-09  0.3799455E+04  0.7818609E-02  0.8046272E-01
        1   -1    0    0  501    0  0.00000000000E+00  0.00000000000E+00  0.24621995997E+04  0.24621995997E+04  0.50400001928E-02 0.  1.
       -1   -1    0    0    0  501  0.00000000000E+00  0.00000000000E+00 -0.14657484694E+04  0.14657484694E+04  0.50400001928E-02 0. -1.
    10030    2    1    2    0    0  0.00000000000E+00  0.00000000000E+00  0.99645113029E+03  0.39279480691E+04  0.37994553792E+04 0.  0.
        2    1    3    3  502    0  0.18266088373E+04  0.52111652451E+03  0.46715904742E+03  0.19560930071E+04  0.25500000920E-02 0.  1.
       -2    1    3    3    0  502 -0.18266088373E+04 -0.52111652451E+03  0.52929208287E+03  0.19718550621E+04  0.25500000920E-02 0. -1.
</event>
<event>
 5   0  0.1264013E-08  0.3800735E+04  0.7818609E-02  0.8045997E-01
       -2   -1    0    0    0  501  0.00000000000E+00  0.00000000000E+00  0.14368626001E+04  0.14368626001E+04  0.25500000920E-02 0. -1.
        2   -1    0    0  501    0  0.00000000000E+00  0.00000000000E+00 -0.25133898015E+04  0.25133898015E+04  0.25500000920E-02 0.  1.
    10030    2    1    2    0    0  0.00000000000E+00  0.00000000000E+00 -0.10765272014E+04  0.39502524016E+04  0.38007345634E+04 0.  0.
        4    1    3    3  502    0 -0.12897064948E+04  0.61402350604E+02  0.91096478825E+03  0.15801808598E+04  0.12699999809E+01 0. -1.
       -4    1    3    3    0  502  0.12897064948E+04 -0.61402350604E+02 -0.19874919896E+04  0.23700715418E+04  0.12699999809E+01 0.  1.
</event>
<event>
 5   0  0.1293993E-08  0.3799701E+04  0.7818609E-02  0.8046219E-01
        2   -1    0    0  501    0  0.00000000000E+00  0.00000000000E+00  0.18565556482E+04  0.18565556482E+04  0.25500000920E-02 0.  1.
       -2   -1    0    0    0  501  0.00000000000E+00  0.00000000000E+00 -0.19441553146E+04  0.19441553146E+04  0.25500000920E-02 0. -1.
    10030    2    1    2    0    0  0.00000000000E+00  0.00000000000E+00 -0.87599666345E+02  0.38007109628E+04  0.37997013200E+04 0.  0.
        5    1    3    3  502    0  0.12351542958E+04 -0.57441918146E+03 -0.13684805816E+04  0.19308870300E+04  0.46999998093E+01 0. -1.
       -5    1    3    3    0  502 -0.12351542958E+04  0.57441918146E+03  0.12808809153E+04  0.18698239328E+04  0.46999998093E+01 0.  1.
</event>
<event>
 5   0  0.4071750E-09  0.3799990E+04  0.7818609E-02  0.8046157E-01
        1   -1    0    0  501    0  0.00000000000E+00  0.00000000000E+00  0.15925488273E+04  0.15925488273E+04  0.50400001928E-02 0.  1.
       -1   -1    0    0    0  501  0.00000000000E+00  0.00000000000E+00 -0.22667943149E+04  0.22667943149E+04  0.50400001928E-02 0. -1.
    10030    2    1    2    0    0  0.00000000000E+00  0.00000000000E+00 -0.67424548763E+03  0.38593431421E+04  0.37999898041E+04 0.  0.
        1    1    3    3  502    0  0.57424987397E+03 -0.18064259692E+04 -0.20453509564E+03  0.19065078823E+04  0.50400001928E-02 0.  1.
       -1    1    3    3    0  502 -0.57424987397E+03  0.18064259692E+04 -0.46971039199E+03  0.19528352599E+04  0.50400001928E-02 0. -1.
</event>
<event>
 5   0  0.1261152E-08  0.3799780E+04  0.7818609E-02  0.8046202E-01
       -2   -1    0    0    0  501  0.00000000000E+00  0.00000000000E+00  0.16867294115E+04  0.16867294115E+04  0.25500000920E-02 0.  1.
        2   -1    0    0  501    0  0.00000000000E+00  0.00000000000E+00 -0.21399885847E+04  0.21399885847E+04  0.25500000920E-02 0. -1.
    10030    2    1    2    0    0  0.00000000000E+00  0.00000000000E+00 -0.45325917321E+03  0.38267179962E+04  0.37997798284E+04 0.  0.
        2    1    3    3  502    0 -0.79665846007E+03  0.50916781912E+03 -0.18862399292E+04  0.21099330892E+04  0.25500000920E-02 0. -1.
       -2    1    3    3    0  502  0.79665846007E+03 -0.50916781912E+03  0.14329807560E+04  0.17167849071E+04  0.25500000920E-02 0.  1.
</event>
<event>
 5   0  0.4071750E-09  0.3799876E+04  0.7818609E-02  0.8046182E-01
        1   -1    0    0  501    0  0.00000000000E+00  0.00000000000E+00  0.27587488423E+04  0.27587488423E+04  0.50400001928E-02 0. -1.
       -1   -1    0    0    0  501  0.00000000000E+00  0.00000000000E+00 -0.13084785934E+04  0.13084785934E+04  0.50400001928E-02 0.  1.
    10030    2    1    2    0    0  0.00000000000E+00  0.00000000000E+00  0.14502702489E+04  0.40672274357E+04  0.37998756847E+04 0.  0.
        2    1    3    3  502    0 -0.54776487046E+03  0.16336755011E+04 -0.13170088816E+03  0.17280877061E+04  0.25500000920E-02 0.  1.
       -2    1    3    3    0  502  0.54776487046E+03 -0.16336755011E+04  0.15819711370E+04  0.23391397296E+04  0.25500000920E-02 0. -1.
</event>
<event>
 5   0  0.1327249E-08  0.3798629E+04  0.7818609E-02  0.8046449E-01
       -2   -1    0    0    0  501  0.00000000000E+00  0.00000000000E+00  0.21071420229E+04  0.21071420229E+04  0.25500000920E-02 0. -1.
        2   -1    0    0  501    0  0.00000000000E+00  0.00000000000E+00 -0.17119850157E+04  0.17119850157E+04  0.25500000920E-02 0.  1.
    10030    2    1    2    0    0  0.00000000000E+00  0.00000000000E+00  0.39515700725E+03  0.38191270386E+04  0.37986289996E+04 0.  0.
        1    1    3    3  502    0  0.16874996557E+04 -0.39433898796E+03 -0.58394306937E+03  0.18287011330E+04  0.50400001928E-02 0. -1.
       -1    1    3    3    0  502 -0.16874996557E+04  0.39433898796E+03  0.97910007662E+03  0.19904259056E+04  0.50400001928E-02 0.  1.
</event>
<event>
 5   0  0.4071750E-09  0.3800639E+04  0.7818609E-02  0.8046018E-01
       -1   -1    0    0    0  501  0.00000000000E+00  0.00000000000E+00  0.18562458819E+04  0.18562458819E+04  0.50400001928E-02 0.  1.
        1   -1    0    0  501    0  0.00000000000E+00  0.00000000000E+00 -0.19454398751E+04  0.19454398751E+04  0.50400001928E-02 0. -1.
    10030    2    1    2    0    0  0.00000000000E+00  0.00000000000E+00 -0.89193993179E+02  0.38016857571E+04  0.38006392919E+04 0.  0.
        3    1    3    3  502    0 -0.13191163855E+04 -0.13308589081E+04  0.27165658676E+03  0.18934230333E+04  0.10100000352E+00 0.  1.
       -3    1    3    3    0  502  0.13191163855E+04  0.13308589081E+04 -0.36085057994E+03  0.19082627238E+04  0.10100000352E+00 0. -1.
</event>
<event>
 5   0  0.4071750E-09  0.3800515E+04  0.7818609E-02  0.8046044E-01
       -1   -1    0    0    0  501  0.00000000000E+00  0.00000000000E+00  0.19241708807E+04  0.19241708807E+04  0.50400001928E-02 0.  1.
        1   -1    0    0  501    0  0.00000000000E+00  0.00000000000E+00 -0.18766412380E+04  0.18766412380E+04  0.50400001928E-02 0. -1.
    10030    2    1    2    0    0  0.00000000000E+00  0.00000000000E+00  0.47529642719E+02  0.38008121187E+04  0.38005149249E+04 0.  0.
        3    1    3    3  502    0 -0.88651993844E+03  0.16602091948E+04 -0.23848886676E+03  0.18971265434E+04  0.10100000352E+00 0. -1.
       -3    1    3    3    0  502  0.88651993844E+03 -0.16602091948E+04  0.28601850948E+03  0.19036855753E+04  0.10100000352E+00 0.  1.
</event>
<event>
 5   0  0.1264013E-08  0.3795153E+04  0.7818609E-02  0.8047196E-01
        2   -1    0    0  501    0  0.00000000000E+00  0.00000000000E+00  0.16356609593E+04  0.16356609593E+04  0.25500000920E-02 0.  1.
       -2   -1    0    0    0  501  0.00000000000E+00  0.00000000000E+00 -0.22014317127E+04  0.22014317127E+04  0.25500000920E-02 0. -1.
    10030    2    1    2    0    0  0.00000000000E+00  0.00000000000E+00 -0.56577075335E+03  0.38370926720E+04  0.37951526489E+04 0.  0.
        4    1    3    3  502    0 -0.45374679897E+03  0.67843698436E+03  0.14491223260E+04  0.16631656646E+04  0.12699999809E+01 0.  1.
       -4    1    3    3    0  502  0.45374679897E+03 -0.67843698436E+03 -0.20148930793E+04  0.21739270074E+04  0.12699999809E+01 0. -1.
</event>
<event>
 5   0  0.1327249E-08  0.3805807E+04  0.7818609E-02  0.8044910E-01
        2   -1    0    0  501    0  0.00000000000E+00  0.00000000000E+00  0.30136781516E+04  0.30136781516E+04  0.25500000920E-02 0. -1.
       -2   -1    0    0    0  501  0.00000000000E+00  0.00000000000E+00 -0.12015359522E+04  0.12015359522E+04  0.25500000920E-02 0.  1.
    10030    2    1    2    0    0  0.00000000000E+00  0.00000000000E+00  0.18121421994E+04  0.42152141039E+04  0.38058074821E+04 0.  0.
        1    1    3    3  502    0  0.46108476157E+03 -0.59863072444E+03 -0.10282509224E+04  0.12760320768E+04  0.50400001928E-02 0.  1.
       -1    1    3    3    0  502 -0.46108476157E+03  0.59863072444E+03  0.28403931218E+04  0.29391820270E+04  0.50400001928E-02 0. -1.
</event>
<event>
 5   0  0.4071750E-09  0.3798575E+04  0.7818609E-02  0.8046461E-01
        1   -1    0    0  501    0  0.00000000000E+00  0.00000000000E+00  0.23481957719E+04  0.23481957719E+04  0.50400001928E-02 0. -1.
       -1   -1    0    0    0  501  0.00000000000E+00  0.00000000000E+00 -0.15361974168E+04  0.15361974168E+04  0.50400001928E-02 0.  1.
    10030    2    1    2    0    0  0.00000000000E+00  0.00000000000E+00  0.81199835518E+03  0.38843931887E+04  0.37985746163E+04 0.  0.
        2    1    3    3  502    0 -0.72518911774E+03  0.13761979304E+04 -0.70833194973E+03  0.17092554376E+04  0.25500000920E-02 0.  1.
       -2    1    3    3    0  502  0.72518911774E+03 -0.13761979304E+04  0.15203303049E+04  0.21751377511E+04  0.25500000920E-02 0. -1.
</event>
<event>
 5   0  0.4071750E-09  0.3803248E+04  0.7818609E-02  0.8045458E-01
       -1   -1    0    0    0  501  0.00000000000E+00  0.00000000000E+00  0.26436032695E+04  0.26436032695E+04  0.50400001928E-02 0.  1.
        1   -1    0    0  501    0  0.00000000000E+00  0.00000000000E+00 -0.13678957756E+04  0.13678957756E+04  0.50400001928E-02 0. -1.
    10030    2    1    2    0    0  0.00000000000E+00  0.00000000000E+00  0.12757074939E+04  0.40114990451E+04  0.38032479513E+04 0.  0.
        4    1    3    3  502    0  0.14221652396E+04  0.10771884817E+04  0.13321390103E+04  0.22265410280E+04  0.12699999809E+01 0.  1.
       -4    1    3    3    0  502 -0.14221652396E+04 -0.10771884817E+04 -0.56431516469E+02  0.17849580171E+04  0.12699999809E+01 0. -1.
</event>
<event>
 5   0  0.4071750E-09  0.3801545E+04  0.7818609E-02  0.8045823E-01
       -1   -1    0    0    0  501  0.00000000000E+00  0.00000000000E+00  0.22273427494E+04  0.22273427494E+04  0.50400001928E-02 0.  1.
        1   -1    0    0  501    0  0.00000000000E+00  0.00000000000E+00 -0.16220832844E+04  0.16220832844E+04  0.50400001928E-02 0. -1.
    10030    2    1    2    0    0  0.00000000000E+00  0.00000000000E+00  0.60525946497E+03  0.38494260338E+04  0.38015446557E+04 0.  0.
        5    1    3    3  502    0 -0.13349454323E+03 -0.15354836538E+04  0.14290173537E+04  0.21018191005E+04  0.46999998093E+01 0.  1.
       -5    1    3    3    0  502  0.13349454323E+03  0.15354836538E+04 -0.82375788871E+03  0.17476069333E+04  0.46999998093E+01 0. -1.
</event>
<event>
 5   0  0.1261152E-08  0.3798393E+04  0.7818609E-02  0.8046500E-01
        2   -1    0    0  501    0  0.00000000000E+00  0.00000000000E+00  0.24939040293E+04  0.24939040293E+04  0.25500000920E-02 0. -1.
       -2   -1    0    0    0  501  0.00000000000E+00  0.00000000000E+00 -0.14463053174E+04  0.14463053174E+04  0.25500000920E-02 0.  1.
    10030    2    1    2    0    0  0.00000000000E+00  0.00000000000E+00  0.10475987119E+04  0.39402093468E+04  0.37983926383E+04 0.  0.
        2    1    3    3  502    0  0.99966341354E+03  0.15199164789E+04 -0.41975531999E+02  0.18196799137E+04  0.25500000920E-02 0. -1.
       -2    1    3    3    0  502 -0.99966341354E+03 -0.15199164789E+04  0.10895742439E+04  0.21205294330E+04  0.25500000920E-02 0.  1.
</event>
<event>
 5   0  0.4071750E-09  0.3797632E+04  0.7818609E-02  0.8046663E-01
        1   -1    0    0  501    0  0.00000000000E+00  0.00000000000E+00  0.14047291303E+04  0.14047291303E+04  0.50400001928E-02 0. -1.
       -1   -1    0    0    0  501  0.00000000000E+00  0.00000000000E+00 -0.25666885700E+04  0.25666885700E+04  0.50400001928E-02 0.  1.
    10030    2    1    2    0    0  0.00000000000E+00  0.00000000000E+00 -0.11619594397E+04  0.39714177003E+04  0.37976320004E+04 0.  0.
        4    1    3    3  502    0 -0.30651932639E+03  0.16190706616E+04  0.40567663557E+03  0.16970324246E+04  0.12699999809E+01 0. -1.
       -4    1    3    3    0  502  0.30651932639E+03 -0.16190706616E+04 -0.15676360753E+04  0.22743852756E+04  0.12699999809E+01 0.  1.
</event>
<event>
 5   0  0.1293993E-08  0.3798723E+04  0.7818609E-02  0.8046429E-01
       -2   -1    0    0    0  501  0.00000000000E+00  0.00000000000E+00  0.20632893096E+04  0.20632893096E+04  0.25500000920E-02 0.  1.
        2   -1    0    0  501    0  0.00000000000E+00  0.00000000000E+00 -0.17484573489E+04  0.17484573489E+04  0.25500000920E-02 0. -1.
    10030    2    1    2    0    0  0.00000000000E+00  0.00000000000E+00  0.31483196068E+03  0.38117466584E+04  0.37987226043E+04 0.  0.
        5    1    3    3  502    0  0.88713831370E+03  0.14782337263E+04 -0.64241282565E+03  0.18398113126E+04  0.46999998093E+01 0. -1.
       -5    1    3    3    0  502 -0.88713831370E+03 -0.14782337263E+04  0.95724478633E+03  0.19719353459E+04  0.46999998093E+01 0.  1.
</event>
<event>
 5   0  0.4071750E-09  0.3800031E+04  0.7818609E-02  0.8046148E-01
       -1   -1    0    0    0  501  0.00000000000E+00  0.00000000000E+00  0.29504536649E+04  0.29504536649E+04  0.50400001928E-02 0.  1.
        1   -1    0    0  501    0  0.00000000000E+00  0.00000000000E+00 -0.12235604906E+04  0.12235604906E+04  0.50400001928E-02 0. -1.
    10030    2    1    2    0    0  0.00000000000E+00  0.00000000000E+00  0.17268931743E+04  0.41740141555E+04  0.38000308071E+04 0.  0.
        5    1    3    3  502    0 -0.14037261404E+04  0.12783290284E+04  0.94464219623E+03  0.21205997149E+04  0.46999998093E+01 0.  1.
       -5    1    3    3    0  502  0.14037261404E+04 -0.12783290284E+04  0.78225097803E+03  0.20534144406E+04  0.46999998093E+01 0. -1.
</event>
<event>
 5   0  0.4071750E-09  0.3795484E+04  0.7818609E-02  0.8047125E-01
       -1   -1    0    0    0  501  0.00000000000E+00  0.00000000000E+00  0.25570811432E+04  0.25570811433E+04  0.50400001928E-02 0. -1.
        1   -1    0    0  501    0  0.00000000000E+00  0.00000000000E+00 -0.14084120260E+04  0.14084120260E+04  0.50400001928E-02 0.  1.
    10030    2    1    2    0    0  0.00000000000E+00  0.00000000000E+00  0.11486691172E+04  0.39654931693E+04  0.37954835443E+04 0.  0.
        1    1    3    3  502    0 -0.54748422568E+03 -0.15968633995E+04  0.14801836963E+04  0.22451404118E+04  0.50400001928E-02 0. -1.
       -1    1    3    3    0  502  0.54748422568E+03  0.15968633995E+04 -0.33151457906E+03  0.17203527575E+04  0.50400001928E-02 0.  1.
</event>
<event>
 5   0  0.1261152E-08  0.3796621E+04  0.7818609E-02  0.8046880E-01
       -2   -1    0    0    0  501  0.00000000000E+00  0.00000000000E+00  0.16174519658E+04  0.16174519658E+04  0.25500000920E-02 0. -1.
        2   -1    0    0  501    0  0.00000000000E+00  0.00000000000E+00 -0.22279384716E+04  0.22279384716E+04  0.25500000920E-02 0.  1.
    10030    2    1    2    0    0  0.00000000000E+00  0.00000000000E+00 -0.61048650577E+03  0.38453904374E+04  0.37966213720E+04 0.  0.
        2    1    3    3  502    0  0.17796258550E+04  0.45493573649E+03  0.18002359466E+03  0.18456552232E+04  0.25500000920E-02 0. -1.
       -2    1    3    3    0  502 -0.17796258550E+04 -0.45493573649E+03 -0.79051010043E+03  0.19997352142E+04  0.25500000920E-02 0.  1.
</event>
<event>
 5   0  0.4071750E-09  0.3800427E+04  0.7818609E-02  0.8046063E-01
        1   -1    0    0  501    0  0.00000000000E+00  0.00000000000E+00  0.21691360962E+04  0.21691360962E+04  0.50400001928E-02 0. -1.
       -1   -1    0    0    0  501  0.00000000000E+00  0.00000000000E+00 -0.16646309781E+04  0.16646309781E+04  0.50400001928E-02 0.  1.
    10030    2    1    2    0    0  0.00000000000E+00  0.00000000000E+00  0.50450511813E+03  0.38337670743E+04  0.38004268926E+04 0.  0.
        5    1    3    3  502    0 -0.34267585466E+02 -0.12973837343E+03 -0.16598395902E+04  0.16652615014E+04  0.46999998093E+01 0.  1.
       -5    1    3    3    0  502  0.34267585466E+02  0.12973837343E+03  0.21643447083E+04  0.21685055729E+04  0.46999998093E+01 0. -1.
</event>
<event>
 5   0  0.1327249E-08  0.3798018E+04  0.7818609E-02  0.8046580E-01
       -2   -1    0    0    0  501  0.00000000000E+00  0.00000000000E+00  0.15671803820E+04  0.15671803820E+04  0.25500000920E-02 0. -1.
        2   -1    0    0  501    0  0.00000000000E+00  0.00000000000E+00 -0.23010976362E+04  0.23010976362E+04  0.25500000920E-02 0.  1.
    10030    2    1    2    0    0  0.00000000000E+00  0.00000000000E+00 -0.73391725425E+03  0.38682780182E+04  0.37980179423E+04 0.  0.
        1    1    3    3  502    0 -0.11993293426E+04  0.24221096542E+03  0.11122086452E+04  0.16535008601E+04  0.50400001928E-02 0. -1.
       -1    1    3    3    0  502  0.11993293426E+04 -0.24221096542E+03 -0.18461258994E+04  0.22147771582E+04  0.50400001928E-02 0.  1.
</event>
<event>
 5   0  0.4071750E-09  0.3801411E+04  0.7818609E-02  0.8045852E-01
       -1   -1    0    0    0  501  0.00000000000E+00  0.00000000000E+00  0.16522452365E+04  0.16522452365E+04  0.50400001928E-02 0.  1.
        1   -1    0    0  501    0  0.00000000000E+00  0.00000000000E+00 -0.21865280770E+04  0.21865280770E+04  0.50400001928E-02 0. -1.
    10030    2    1    2    0    0  0.00000000000E+00  0.00000000000E+00 -0.53428284053E+03  0.38387733135E+04  0.38014105802E+04 0.  0.
        1    1    3    3  502    0 -0.91956442848E+03 -0.10245662340E+04 -0.15904970702E+04  0.21035721134E+04  0.50400001928E-02 0. -1.
       -1    1    3    3    0  502  0.91956442848E+03  0.10245662340E+04  0.10562142297E+04  0.17352012001E+04  0.50400001928E-02 0.  1.
</event>
<event>
 5   0  0.4071750E-09  0.3798468E+04  0.7818609E-02  0.8046484E-01
       -1   -1    0    0    0  501  0.00000000000E+00  0.00000000000E+00  0.19078534110E+04  0.19078534110E+04  0.50400001928E-02 0. -1.
        1   -1    0    0  501    0  0.00000000000E+00  0.00000000000E+00 -0.18906539847E+04  0.18906539848E+04  0.50400001928E-02 0.  1.
    10030    2    1    2    0    0  0.00000000000E+00  0.00000000000E+00  0.17199426219E+02  0.37985073957E+04  0.37984684565E+04 0.  0.
        2    1    3    3  502    0  0.41892493744E+03  0.18312169494E+04  0.28831141972E+03  0.19005202166E+04  0.25500000920E-02 0. -1.
       -2    1    3    3    0  502 -0.41892493744E+03 -0.18312169494E+04 -0.27111199350E+03  0.18979871791E+04  0.25500000920E-02 0.  1.
</event>
<event>
 5   0  0.1264013E-08  0.3795173E+04  0.7818609E-02  0.8047192E-01
       -2   -1    0    0    0  501  0.00000000000E+00  0.00000000000E+00  0.17111987533E+04  0.17111987533E+04  0.25500000920E-02 0. -1.
        2   -1    0    0  501    0  0.00000000000E+00  0.00000000000E+00 -0.21042754931E+04  0.21042754931E+04  0.25500000920E-02 0.  1.
    10030    2    1    2    0    0  0.00000000000E+00  0.00000000000E+00 -0.39307673976E+03  0.38154742464E+04  0.37951725128E+04 0.  0.
        4    1    3    3  502    0  0.16950425929E+04  0.14607547829E+03  0.64838856605E+03  0.18206912925E+04  0.12699999809E+01 0. -1.
       -4    1    3    3    0  502 -0.16950425929E+04 -0.14607547829E+03 -0.10414653058E+04  0.19947829539E+04  0.12699999809E+01 0.  1.
</event>
<event>
 5   0  0.1261152E-08  0.3799968E+04  0.7818609E-02  0.8046162E-01
        2   -1    0    0  501    0  0.00000000000E+00  0.00000000000E+00  0.19027580823E+04  0.19027580823E+04  0.25500000920E-02 0.  1.
       -2   -1    0    0    0  501  0.00000000000E+00  0.00000000000E+00 -0.18972137010E+04  0.18972137010E+04  0.25500000920E-02 0. -1.
    10030    2    1    2    0    0  0.00000000000E+00  0.00000000000E+00  0.55443812952E+01  0.37999717832E+04  0.37999677384E+04 0.  0.
        2    1    3    3  502    0  0.54942303357E+03  0.15302680322E+04  0.98580567949E+03  0.19014201950E+04  0.25500000920E-02 0.  1.
       -2    1    3    3    0  502 -0.54942303357E+03 -0.15302680322E+04 -0.98026129820E+03  0.18985515882E+04  0.25500000920E-02 0. -1.
</event>
<event>
 5   0  0.1264013E-08  0.3800024E+04  0.7818609E-02  0.8046150E-01
        2   -1    0    0  501    0  0.00000000000E+00  0.00000000000E+00  0.23642462786E+04  0.23642462786E+04  0.25500000920E-02 0.  1.
       -2   -1    0    0    0  501  0.00000000000E+00  0.00000000000E+00 -0.15269331853E+04  0.15269331853E+04  0.25500000920E-02 0. -1.
    10030    2    1    2    0    0  0.00000000000E+00  0.00000000000E+00  0.83731309328E+03  0.38911794639E+04  0.38000242636E+04 0.  0.
        4    1    3    3  502    0  0.47034941422E+02 -0.27904893836E+03 -0.15052325047E+04  0.15316027885E+04  0.12699999809E+01 0. -1.
       -4    1    3    3    0  502 -0.47034941422E+02  0.27904893836E+03  0.23425455980E+04  0.23595766754E+04  0.12699999809E+01 0.  1.
</event>
<event>
 5   0  0.4071750E-09  0.3799296E+04  0.7818609E-02  0.8046306E-01
        1   -1    0    0  501    0  0.00000000000E+00  0.00000000000E+00  0.30519509061E+04  0.30519509061E+04  0.50400001928E-02 0.  1.
       -1   -1    0    0    0  501  0.00000000000E+00  0.00000000000E+00 -0.11824118823E+04  0.11824118823E+04  0.50400001928E-02 0. -1.
    10030    2    1    2    0    0  0.00000000000E+00  0.00000000000E+00  0.18695390238E+04  0.42343627884E+04  0.37992962588E+04 0.  0.
        2    1    3    3  502    0  0.16981730553E+04  0.32413040403E+03  0.57335502018E+02  0.17297802185E+04  0.25500000920E-02 0. -1.
       -2    1    3    3    0  502 -0.16981730553E+04 -0.32413040403E+03  0.18122035218E+04  0.25045825698E+04  0.25500000920E-02 0.  1.
</event>
<event>
 5   0  0.1327249E-08  0.3800373E+04  0.7818609E-02  0.8046075E-01
        2   -1    0    0  501    0  0.00000000000E+00  0.00000000000E+00  0.19956455846E+04  0.19956455846E+04  0.25500000920E-02 0.  1.
       -2   -1    0    0    0  501  0.00000000000E+00  0.00000000000E+00 -0.18092938389E+04  0.18092938389E+04  0.25500000920E-02 0. -1.
    10030    2    1    2    0    0  0.00000000000E+00  0.00000000000E+00  0.18635174562E+03  0.38049394235E+04  0.38003732768E+04 0.  0.
        1    1    3    3  502    0 -0.27316710150E+03  0.23668029461E+03 -0.17745604752E+04  0.18109949496E+04  0.50400001928E-02 0. -1.
       -1    1    3    3    0  502  0.27316710150E+03 -0.23668029461E+03  0.19609122208E+04  0.19939444739E+04  0.50400001928E-02 0.  1.
</event>
<event>
 5   0  0.4071750E-09  0.3797812E+04  0.7818609E-02  0.8046625E-01
       -1   -1    0    0    0  501  0.00000000000E+00  0.00000000000E+00  0.15621916927E+04  0.15621916927E+04  0.50400001928E-02 0.  1.
        1   -1    0    0  501    0  0.00000000000E+00  0.00000000000E+00 -0.23081954979E+04  0.23081954979E+04  0.50400001928E-02 0. -1.
    10030    2    1    2    0    0  0.00000000000E+00  0.00000000000E+00 -0.74600380526E+03  0.38703871906E+04  0.37978119131E+04 0.  0.
        4    1    3    3  502    0 -0.71475645607E+03  0.15195365333E+04 -0.12764955285E+04  0.21093388809E+04  0.12699999809E+01 0. -1.
       -4    1    3    3    0  502  0.71475645607E+03 -0.15195365333E+04  0.53049172320E+03  0.17610483096E+04  0.12699999809E+01 0.  1.
</event>
<event>
 5   0  0.4071750E-09  0.3802971E+04  0.7818609E-02  0.8045518E-01
       -1   -1    0    0    0  501  0.00000000000E+00  0.00000000000E+00  0.14363211418E+04  0.14363211418E+04  0.50400001928E-02 0.  1.
        1   -1    0    0  501    0  0.00000000000E+00  0.00000000000E+00 -0.25172969161E+04  0.25172969161E+04  0.50400001928E-02 0. -1.
    10030    2    1    2    0    0  0.00000000000E+00  0.00000000000E+00 -0.10809757743E+04  0.39536180579E+04  0.38029708285E+04 0.  0.
        2    1    3    3  502    0 -0.17634346275E+04  0.58538178667E+03 -0.96056522054E+03  0.20916641854E+04  0.25500000920E-02 0. -1.
       -2    1    3    3    0  502  0.17634346275E+04 -0.58538178667E+03 -0.12041055379E+03  0.18619538724E+04  0.25500000920E-02 0.  1.
</event>
<event>
 5   0  0.4071750E-09  0.3800238E+04  0.7818609E-02  0.8046104E-01
        1   -1    0    0  501    0  0.00000000000E+00  0.00000000000E+00  0.26386704538E+04  0.26386704538E+04  0.50400001928E-02 0.  1.
       -1   -1    0    0    0  501  0.00000000000E+00  0.00000000000E+00 -0.13682845509E+04  0.13682845509E+04  0.50400001928E-02 0. -1.
    10030    2    1    2    0    0  0.00000000000E+00  0.00000000000E+00  0.12703859029E+04  0.40069550047E+04  0.38002378961E+04 0.  0.
        1    1    3    3  502    0  0.71521416785E+03 -0.14342690052E+04  0.17113965159E+04  0.23446826906E+04  0.50400001928E-02 0.  1.
       -1    1    3    3    0  502 -0.71521416785E+03  0.14342690052E+04 -0.44101061302E+03  0.16622723140E+04  0.50400001928E-02 0. -1.
</event>
<event>
 5   0  0.1264013E-08  0.3802950E+04  0.7818609E-02  0.8045522E-01
       -2   -1    0    0    0  501  0.00000000000E+00  0.00000000000E+00  0.16954791268E+04  0.16954791268E+04  0.25500000920E-02 0.  1.
        2   -1    0    0  501    0  0.00000000000E+00  0.00000000000E+00 -0.21324990622E+04  0.21324990622E+04  0.25500000920E-02 0. -1.
    10030    2    1    2    0    0  0.00000000000E+00  0.00000000000E+00 -0.43701993537E+03  0.38279781890E+04  0.38029502484E+04 0.  0.
        4    1    3    3  502    0 -0.63689993647E+03 -0.65048975761E+03 -0.18988758718E+04  0.21058275436E+04  0.12699999809E+01 0. -1.
       -4    1    3    3    0  502  0.63689993647E+03  0.65048975761E+03  0.14618559364E+04  0.17221506454E+04  0.12699999809E+01 0.  1.
</event>
<event>
 5   0  0.4071750E-09  0.3797977E+04  0.7818609E-02  0.8046589E-01
        1   -1    0    0  501    0  0.00000000000E+00  0.00000000000E+00  0.22211055739E+04  0.22211055740E+04  0.50400001928E-02 0. -1.
       -1   -1    0    0    0  501  0.00000000000E+00  0.00000000000E+00 -0.16235867601E+04  0.16235867601E+04  0.50400001928E-02 0.  1.
    10030    2    1    2    0    0  0.00000000000E+00  0.00000000000E+00  0.59751881386E+03  0.38446923340E+04  0.37979771472E+04 0.  0.
        3    1    3    3  502    0 -0.17323002809E+04  0.62563032484E+03 -0.16940065142E+03  0.18495875641E+04  0.10100000352E+00 0. -1.
       -3    1    3    3    0  502  0.17323002809E+04 -0.62563032484E+03  0.76691946528E+03  0.19951047699E+04  0.10100000352E+00 0.  1.
</event>
<event>
 5   0  0.4071750E-09  0.3801249E+04  0.7818609E-02  0.8045887E-01
       -1   -1    0    0    0  501  0.00000000000E+00  0.00000000000E+00  0.26160814215E+04  0.26160814215E+04  0.50400001928E-02 0. -1.
        1   -1    0    0  501    0  0.00000000000E+00  0.00000000000E+00 -0.13808338361E+04  0.13808338361E+04  0.50400001928E-02 0.  1.
    10030    2    1    2    0    0  0.00000000000E+00  0.00000000000E+00  0.12352475854E+04  0.39969152576E+04  0.38012491340E+04 0.  0.
        5    1    3    3  502    0  0.11626953433E+04  0.10450086312E+04 -0.51896489610E+03  0.16471946314E+04  0.46999998093E+01 0.  1.
       -5    1    3    3    0  502 -0.11626953433E+04 -0.10450086312E+04  0.17542124815E+04  0.23497206261E+04  0.46999998093E+01 0. -1.
</event>
<event>
 5   0  0.4071750E-09  0.3804363E+04  0.7818609E-02  0.8045219E-01
        1   -1    0    0  501    0  0.00000000000E+00  0.00000000000E+00  0.26058822393E+04  0.26058822393E+04  0.50400001928E-02 0.  1.
       -1   -1    0    0    0  501  0.00000000000E+00  0.00000000000E+00 -0.13885102796E+04  0.13885102796E+04  0.50400001928E-02 0. -1.
    10030    2    1    2    0    0  0.00000000000E+00  0.00000000000E+00  0.12173719597E+04  0.39943925190E+04  0.38043629043E+04 0.  0.
        3    1    3    3  502    0  0.12427160731E+04  0.34483520601E+03  0.20767554012E+04  0.24446201268E+04  0.10100000352E+00 0.  1.
       -3    1    3    3    0  502 -0.12427160731E+04 -0.34483520601E+03 -0.85938344152E+03  0.15497723922E+04  0.10100000352E+00 0. -1.
</event>
<event>
 5   0  0.1261152E-08  0.3800045E+04  0.7818609E-02  0.8046145E-01
        2   -1    0    0  501    0  0.00000000000E+00  0.00000000000E+00  0.20067197523E+04  0.20067197523E+04  0.25500000920E-02 0.  1.
       -2   -1    0    0    0  501  0.00000000000E+00  0.00000000000E+00 -0.17989987577E+04  0.17989987577E+04  0.25500000920E-02 0. -1.
    10030    2    1    2    0    0  0.00000000000E+00  0.00000000000E+00  0.20772099459E+03  0.38057185100E+04  0.38000454426E+04 0.  0.
        2    1    3    3  502    0 -0.77356793422E+03 -0.32979998936E+03  0.18101971902E+04  0.19959932989E+04  0.25500000920E-02 0.  1.
       -2    1    3    3    0  502  0.77356793422E+03  0.32979998936E+03 -0.16024761957E+04  0.18097252110E+04  0.25500000920E-02 0. -1.
</event>
<event>
 5   0  0.1261152E-08  0.3796541E+04  0.7818609E-02  0.8046898E-01
        2   -1    0    0  501    0  0.00000000000E+00  0.00000000000E+00  0.20467604092E+04  0.20467604092E+04  0.25500000920E-02 0.  1.
       -2   -1    0    0    0  501  0.00000000000E+00  0.00000000000E+00 -0.17605528847E+04  0.17605528847E+04  0.25500000920E-02 0. -1.
    10030    2    1    2    0    0  0.00000000000E+00  0.00000000000E+00  0.28620752448E+03  0.38073132939E+04  0.37965405004E+04 0.  0.
        2    1    3    3  502    0 -0.68986810180E+03 -0.49571725866E+03 -0.15592927235E+04  0.17756822340E+04  0.25500000920E-02 0. -1.
       -2    1    3    3    0  502  0.68986810180E+03  0.49571725866E+03  0.18455002480E+04  0.20316310600E+04  0.25500000920E-02 0.  1.
</event>
<event>
 5   0  0.1264013E-08  0.3797773E+04  0.7818609E-02  0.8046633E-01
        2   -1    0    0  501    0  0.00000000000E+00  0.00000000000E+00  0.21902982782E+04  0.21902982782E+04  0.25500000920E-02 0.  1.
       -2   -1    0    0    0  501  0.00000000000E+00  0.00000000000E+00 -0.16462462361E+04  0.16462462361E+04  0.25500000920E-02 0. -1.
    10030    2    1    2    0    0  0.00000000000E+00  0.00000000000E+00  0.54405204211E+03  0.38365445142E+04  0.37977731877E+04 0.  0.
        4    1    3    3  502    0  0.15310231759E+04 -0.10595156036E+04 -0.10482850785E+03  0.18648313352E+04  0.12699999809E+01 0.  1.
       -4    1    3    3    0  502 -0.15310231759E+04  0.10595156036E+04  0.64888054996E+03  0.19717131791E+04  0.12699999809E+01 0. -1.
</event>
<event>
 5   0  0.4071750E-09  0.3795393E+04  0.7818609E-02  0.8047144E-01
       -1   -1    0    0    0  501  0.00000000000E+00  0.00000000000E+00  0.25975001433E+04  0.25975001433E+04  0.50400001928E-02 0.  1.
        1   -1    0    0  501    0  0.00000000000E+00  0.00000000000E+00 -0.13864297718E+04  0.13864297718E+04  0.50400001928E-02 0. -1.
    10030    2    1    2    0    0  0.00000000000E+00  0.00000000000E+00  0.12110703715E+04  0.39839299151E+04  0.37953927496E+04 0.  0.
        3    1    3    3  502    0 -0.22456730847E+03 -0.11196586435E+04  0.21964722714E+04  0.24755921318E+04  0.10100000352E+00 0.  1.
       -3    1    3    3    0  502  0.22456730847E+03  0.11196586435E+04 -0.98540189993E+03  0.15083377833E+04  0.10100000352E+00 0. -1.
</event>
<event>
 5   0  0.4071750E-09  0.3798927E+04  0.7818609E-02  0.8046385E-01
       -1   -1    0    0    0  501  0.00000000000E+00  0.00000000000E+00  0.11844709157E+04  0.11844709157E+04  0.50400001928E-02 0.  1.
        1   -1    0    0  501    0  0.00000000000E+00  0.00000000000E+00 -0.30460526071E+04  0.30460526071E+04  0.50400001928E-02 0. -1.
    10030    2    1    2    0    0  0.00000000000E+00  0.00000000000E+00 -0.18615816914E+04  0.42305235229E+04  0.37989265436E+04 0.  0.
        4    1    3    3  502    0 -0.96970847153E+03 -0.29661439626E+03  0.85780882792E+03  0.13282139203E+04  0.12699999809E+01 0.  1.
       -4    1    3    3    0  502  0.96970847153E+03  0.29661439626E+03 -0.27193905193E+04  0.29023096026E+04  0.12699999809E+01 0. -1.
</event>
<event>
 5   0  0.1293993E-08  0.3800529E+04  0.7818609E-02  0.8046041E-01
       -2   -1    0    0    0  501  0.00000000000E+00  0.00000000000E+00  0.15502506690E+04  0.15502506690E+04  0.25500000920E-02 0.  1.
        2   -1    0    0  501    0  0.00000000000E+00  0.00000000000E+00 -0.23293037778E+04  0.23293037778E+04  0.25500000920E-02 0. -1.
    10030    2    1    2    0    0  0.00000000000E+00  0.00000000000E+00 -0.77905310886E+03  0.38795544468E+04  0.38005287737E+04 0.  0.
        5    1    3    3  502    0  0.40203470257E+03 -0.17092137422E+03  0.14982889753E+04  0.15606850937E+04  0.46999998093E+01 0.  1.
       -5    1    3    3    0  502 -0.40203470257E+03  0.17092137422E+03 -0.22773420842E+04  0.23188693531E+04  0.46999998093E+01 0. -1.
</event>
<event>
 5   0  0.4071750E-09  0.3801769E+04  0.7818609E-02  0.8045775E-01
       -1   -1    0    0    0  501  0.00000000000E+00  0.00000000000E+00  0.21972085964E+04  0.21972085965E+04  0.50400001928E-02 0. -1.
        1   -1    0    0  501    0  0.00000000000E+00  0.00000000000E+00 -0.16445234196E+04  0.16445234197E+04  0.50400001928E-02 0.  1.
    10030    2    1    2    0    0  0.00000000000E+00  0.00000000000E+00  0.55268517680E+03  0.38417320161E+04  0.38017685331E+04 0.  0.
        5    1    3    3  502    0  0.72042907926E+03  0.10050559343E+04 -0.11825031231E+04  0.17109912962E+04  0.46999998093E+01 0.  1.
       -5    1    3    3    0  502 -0.72042907926E+03 -0.10050559343E+04  0.17351882999E+04  0.21307407199E+04  0.46999998093E+01 0. -1.
</event>
<event>
 5   0  0.4071750E-09  0.3798548E+04  0.7818609E-02  0.8046466E-01
        1   -1    0    0  501    0  0.00000000000E+00  0.00000000000E+00  0.15872552184E+04  0.15872552185E+04  0.50400001928E-02 0.  1.
       -1   -1    0    0    0  501  0.00000000000E+00  0.00000000000E+00 -0.22726292253E+04  0.22726292253E+04  0.50400001928E-02 0. -1.
    10030    2    1    2    0    0  0.00000000000E+00  0.00000000000E+00 -0.68537400689E+03  0.38598844438E+04  0.37985484583E+04 0.  0.
        2    1    3    3  502    0 -0.91088781670E+03  0.13166147783E+04 -0.13809744294E+04  0.21143040140E+04  0.25500000920E-02 0. -1.
       -2    1    3    3    0  502  0.91088781670E+03 -0.13166147783E+04  0.69560042253E+03  0.17455804298E+04  0.25500000920E-02 0.  1.
</event>
<event>
 5   0  0.1305088E-08  0.3800247E+04  0.7818609E-02  0.8046102E-01
       -2   -1    0    0    0  501  0.00000000000E+00  0.00000000000E+00  0.27312424264E+04  0.27312424264E+04  0.25500000920E-02 0. -1.
        2   -1    0    0  501    0  0.00000000000E+00  0.00000000000E+00 -0.13219143797E+04  0.13219143797E+04  0.25500000920E-02 0.  1.
    10030    2    1    2    0    0  0.00000000000E+00  0.00000000000E+00  0.14093280467E+04  0.40531568060E+04  0.38002466435E+04 0.  0.
        3    1    3    3  502    0  0.75177390727E+03  0.17399405238E+04  0.84740502403E+03  0.20762110487E+04  0.10100000352E+00 0. -1.
       -3    1    3    3    0  502 -0.75177390727E+03 -0.17399405238E+04  0.56192302266E+03  0.19769457573E+04  0.10100000352E+00 0.  1.
</event>
<event>
 5   0  0.4071750E-09  0.3801315E+04  0.7818609E-02  0.8045873E-01
        1   -1    0    0  501    0  0.00000000000E+00  0.00000000000E+00  0.14302597549E+04  0.14302597550E+04  0.50400001928E-02 0.  1.
       -1   -1    0    0    0  501  0.00000000000E+00  0.00000000000E+00 -0.25257646347E+04  0.25257646347E+04  0.50400001928E-02 0. -1.
    10030    2    1    2    0    0  0.00000000000E+00  0.00000000000E+00 -0.10955048797E+04  0.39560243896E+04  0.38013153026E+04 0.  0.
        3    1    3    3  502    0 -0.14749340439E+04 -0.11972553598E+04 -0.48488986373E+03  0.19606042488E+04  0.10100000352E+00 0. -1.
       -3    1    3    3    0  502  0.14749340439E+04  0.11972553598E+04 -0.61061501600E+03  0.19954201408E+04  0.10100000352E+00 0.  1.
</event>
<event>
 5   0  0.4071750E-09  0.3799166E+04  0.7818609E-02  0.8046334E-01
       -1   -1    0    0    0  501  0.00000000000E+00  0.00000000000E+00  0.12430194112E+04  0.12430194112E+04  0.50400001928E-02 0.  1.
        1   -1    0    0  501    0  0.00000000000E+00  0.00000000000E+00 -0.29029433274E+04  0.29029433274E+04  0.50400001928E-02 0. -1.
    10030    2    1    2    0    0  0.00000000000E+00  0.00000000000E+00 -0.16599239163E+04  0.41459627386E+04  0.37991656482E+04 0.  0.
        3    1    3    3  502    0 -0.10352478375E+04  0.15799370736E+04 -0.10495122917E+04  0.21608829913E+04  0.10100000352E+00 0. -1.
       -3    1    3    3    0  502  0.10352478375E+04 -0.15799370736E+04 -0.61041162457E+03  0.19850797473E+04  0.10100000352E+00 0.  1.
</event>
<event>
 5   0  0.4071750E-09  0.3804815E+04  0.7818609E-02  0.8045122E-01
        1   -1    0    0  501    0  0.00000000000E+00  0.00000000000E+00  0.18294985392E+04  0.18294985392E+04  0.50400001928E-02 0.  1.
       -1   -1    0    0    0  501  0.00000000000E+00  0.00000000000E+00 -0.19782224499E+04  0.19782224499E+04  0.50400001928E-02 0. -1.
    10030    2    1    2    0    0  0.00000000000E+00  0.00000000000E+00 -0.14872391065E+03  0.38077209891E+04  0.38048154133E+04 0.  0.
        3    1    3    3  502    0  0.76511760404E+03 -0.26578182427E+03 -0.17970451753E+04  0.19711459354E+04  0.10100000352E+00 0. -1.
       -3    1    3    3    0  502 -0.76511760404E+03  0.26578182427E+03  0.16483212647E+04  0.18365750537E+04  0.10100000352E+00 0.  1.
</event>
<event>
 5   0  0.4071750E-09  0.3797521E+04  0.7818609E-02  0.8046687E-01
       -1   -1    0    0    0  501  0.00000000000E+00  0.00000000000E+00  0.18776399475E+04  0.18776399475E+04  0.50400001928E-02 0. -1.
        1   -1    0    0  501    0  0.00000000000E+00  0.00000000000E+00 -0.19201187706E+04  0.19201187706E+04  0.50400001928E-02 0.  1.
    10030    2    1    2    0    0  0.00000000000E+00  0.00000000000E+00 -0.42478823108E+02  0.37977587182E+04  0.37975211429E+04 0.  0.
        2    1    3    3  502    0  0.39160992365E+03  0.43393403287E+03 -0.18279056766E+04  0.19190873455E+04  0.25500000920E-02 0.  1.
       -2    1    3    3    0  502 -0.39160992365E+03 -0.43393403287E+03  0.17854268535E+04  0.18786713726E+04  0.25500000920E-02 0. -1.
</event>
<event>
 5   0  0.4071750E-09  0.3798638E+04  0.7818609E-02  0.8046447E-01
        1   -1    0    0  501    0  0.00000000000E+00  0.00000000000E+00  0.20987763665E+04  0.20987763665E+04  0.50400001928E-02 0.  1.
       -1   -1    0    0    0  501  0.00000000000E+00  0.00000000000E+00 -0.17188173909E+04  0.17188173909E+04  0.50400001928E-02 0. -1.
    10030    2    1    2    0    0  0.00000000000E+00  0.00000000000E+00  0.37995897553E+03  0.38175937574E+04  0.37986383447E+04 0.  0.
        4    1    3    3  502    0  0.18769839444E+04 -0.28900388148E+03  0.16120561057E+03  0.19059330609E+04  0.12699999809E+01 0.  1.
       -4    1    3    3    0  502 -0.18769839444E+04  0.28900388148E+03  0.21875336496E+03  0.19116606965E+04  0.12699999809E+01 0. -1.
</event>
<event>
 5   0  0.4071750E-09  0.3800401E+04  0.7818609E-02  0.8046069E-01
        1   -1    0    0  501    0  0.00000000000E+00  0.00000000000E+00  0.12220195156E+04  0.12220195156E+04  0.50400001928E-02 0.  1.
       -1   -1    0    0    0  501  0.00000000000E+00  0.00000000000E+00 -0.29547493480E+04  0.29547493480E+04  0.50400001928E-02 0. -1.
    10030    2    1    2    0    0  0.00000000000E+00  0.00000000000E+00 -0.17327298324E+04  0.41767688636E+04  0.38004006983E+04 0.  0.
        4    1    3    3  502    0 -0.11218266916E+04  0.14662164246E+04 -0.37183142227E+03  0.18832275352E+04  0.12699999809E+01 0.  1.
       -4    1    3    3    0  502  0.11218266916E+04 -0.14662164246E+04 -0.13608984102E+04  0.22935413285E+04  0.12699999809E+01 0. -1.
</event>
<event>
 5   0  0.1305088E-08  0.3800994E+04  0.7818609E-02  0.8045942E-01
       -2   -1    0    0    0  501  0.00000000000E+00  0.00000000000E+00  0.19007230715E+04  0.19007230715E+04  0.25500000920E-02 0. -1.
        2   -1    0    0  501    0  0.00000000000E+00  0.00000000000E+00 -0.19002708161E+04  0.19002708161E+04  0.25500000920E-02 0.  1.
    10030    2    1    2    0    0  0.00000000000E+00  0.00000000000E+00  0.45225545083E+00  0.38009938876E+04  0.38009938607E+04 0.  0.
        3    1    3    3  502    0  0.17972457172E+03 -0.17609308163E+04 -0.69166282095E+03  0.19004146205E+04  0.10100000352E+00 0. -1.
       -3    1    3    3    0  502 -0.17972457172E+03  0.17609308163E+04  0.69211507640E+03  0.19005792672E+04  0.10100000352E+00 0.  1.
</event>
<event>
 5   0  0.1264013E-08  0.3799270E+04  0.7818609E-02  0.8046312E-01
       -2   -1    0    0    0  501  0.00000000000E+00  0.00000000000E+00  0.18701026202E+04  0.18701026202E+04  0.25500000920E-02 0. -1.
        2   -1    0    0  501    0  0.00000000000E+00  0.00000000000E+00 -0.19296335486E+04  0.19296335486E+04  0.25500000920E-02 0.  1.
    10030    2    1    2    0    0  0.00000000000E+00  0.00000000000E+00 -0.59530928436E+02  0.37997361688E+04  0.37992698010E+04 0.  0.
        4    1    3    3  502    0 -0.12915403601E+04 -0.14783192252E+03  0.13555689487E+04  0.18781638817E+04  0.12699999809E+01 0. -1.
       -4    1    3    3    0  502  0.12915403601E+04  0.14783192252E+03 -0.14150998771E+04  0.19215722870E+04  0.12699999809E+01 0.  1.
</event>
<event>
 5   0  0.1264013E-08  0.3799651E+04  0.7818609E-02  0.8046230E-01
        2   -1    0    0  501    0  0.00000000000E+00  0.00000000000E+00  0.24251289300E+04  0.24251289300E+04  0.25500000920E-02 0.  1.
       -2   -1    0    0    0  501  0.00000000000E+00  0.00000000000E+00 -0.14883070294E+04  0.14883070294E+04  0.25500000920E-02 0. -1.
    10030    2    1    2    0    0  0.00000000000E+00  0.00000000000E+00  0.93682190056E+03  0.39134359595E+04  0.37996507386E+04 0.  0.
        4    1    3    3  502    0  0.11314907183E+04 -0.67850005097E+03 -0.93953016536E+03  0.16196765447E+04  0.12699999809E+01 0. -1.
       -4    1    3    3    0  502 -0.11314907183E+04  0.67850005097E+03  0.18763520659E+04  0.22937594148E+04  0.12699999809E+01 0.  1.
</event>
<event>
 5   0  0.4071750E-09  0.3800308E+04  0.7818609E-02  0.8046089E-01
       -1   -1    0    0    0  501  0.00000000000E+00  0.00000000000E+00  0.16896841540E+04  0.16896841540E+04  0.50400001928E-02 0.  1.
        1   -1    0    0  501    0  0.00000000000E+00  0.00000000000E+00 -0.21368406747E+04  0.21368406747E+04  0.50400001928E-02 0. -1.
    10030    2    1    2    0    0  0.00000000000E+00  0.00000000000E+00 -0.44715652068E+03  0.38265248287E+04  0.38003083178E+04 0.  0.
        5    1    3    3  502    0  0.41758457503E+03  0.78049586898E+03 -0.19165496184E+04  0.21110981049E+04  0.46999998093E+01 0. -1.
       -5    1    3    3    0  502 -0.41758457503E+03 -0.78049586898E+03  0.14693930977E+04  0.17154267237E+04  0.46999998093E+01 0.  1.
</event>
<event>
 5   0  0.4071750E-09  0.3800183E+04  0.7818609E-02  0.8046116E-01
       -1   -1    0    0    0  501  0.00000000000E+00  0.00000000000E+00  0.23293610925E+04  0.23293610925E+04  0.50400001928E-02 0.  1.
        1   -1    0    0  501    0  0.00000000000E+00  0.00000000000E+00 -0.15499303303E+04  0.15499303303E+04  0.50400001928E-02 0. -1.
    10030    2    1    2    0    0  0.00000000000E+00  0.00000000000E+00  0.77943076220E+03  0.38792914227E+04  0.38001828416E+04 0.  0.
        3    1    3    3  502    0 -0.11351800144E+04 -0.12888655899E+04 -0.43993901585E+03  0.17729507951E+04  0.10100000352E+00 0. -1.
       -3    1    3    3    0  502  0.11351800144E+04  0.12888655899E+04  0.12193697781E+04  0.21063406277E+04  0.10100000352E+00 0.  1.
</event>
<event>
 5   0  0.1264013E-08  0.3800945E+04  0.7818609E-02  0.8045952E-01
       -2   -1    0    0    0  501  0.00000000000E+00  0.00000000000E+00  0.15542593455E+04  0.15542593455E+04  0.25500000920E-02 0. -1.
        2   -1    0    0  501    0  0.00000000000E+00  0.00000000000E+00 -0.23238045901E+04  0.23238045901E+04  0.25500000920E-02 0.  1.
    10030    2    1    2    0    0  0.00000000000E+00  0.00000000000E+00 -0.76954524458E+03  0.38780639357E+04  0.38009446202E+04 0.  0.
        4    1    3    3  502    0 -0.98369507840E+03  0.12318930968E+04 -0.14677111891E+04  0.21539253368E+04  0.12699999809E+01 0.  1.
       -4    1    3    3    0  502  0.98369507840E+03 -0.12318930968E+04  0.69816594448E+03  0.17241385989E+04  0.12699999809E+01 0. -1.
</event>
<event>
 5   0  0.1293993E-08  0.3799583E+04  0.7818609E-02  0.8046244E-01
        2   -1    0    0  501    0  0.00000000000E+00  0.00000000000E+00  0.27978822733E+04  0.27978822733E+04  0.25500000920E-02 0.  1.
       -2   -1    0    0    0  501  0.00000000000E+00  0.00000000000E+00 -0.12899782421E+04  0.12899782421E+04  0.25500000920E-02 0. -1.
    10030    2    1    2    0    0  0.00000000000E+00  0.00000000000E+00  0.15079040312E+04  0.40878605154E+04  0.37995827436E+04 0.  0.
        5    1    3    3  502    0 -0.85281262814E+03  0.16765615046E+04  0.10407020065E+04  0.21497047736E+04  0.46999998093E+01 0.  1.
       -5    1    3    3    0  502  0.85281262814E+03 -0.16765615046E+04  0.46720202472E+03  0.19381557417E+04  0.46999998093E+01 0. -1.
</event>
<event>
 5   0  0.4071750E-09  0.3799827E+04  0.7818609E-02  0.8046192E-01
        1   -1    0    0  501    0  0.00000000000E+00  0.00000000000E+00  0.22086211545E+04  0.22086211545E+04  0.50400001928E-02 0.  1.
       -1   -1    0    0    0  501  0.00000000000E+00  0.00000000000E+00 -0.16343553387E+04  0.16343553387E+04  0.50400001928E-02 0. -1.
    10030    2    1    2    0    0  0.00000000000E+00  0.00000000000E+00  0.57426581576E+03  0.38429764932E+04  0.37998272461E+04 0.  0.
        5    1    3    3  502    0 -0.18047101973E+04 -0.17396970528E+03 -0.28712235261E+03  0.18356758129E+04  0.46999998093E+01 0. -1.
       -5    1    3    3    0  502  0.18047101973E+04  0.17396970528E+03  0.86138816837E+03  0.20073006803E+04  0.46999998093E+01 0.  1.
</event>
<event>
 5   0  0.4071750E-09  0.3798830E+04  0.7818609E-02  0.8046406E-01
        1   -1    0    0  501    0  0.00000000000E+00  0.00000000000E+00  0.26320221371E+04  0.26320221372E+04  0.50400001928E-02 0. -1.
       -1   -1    0    0    0  501  0.00000000000E+00  0.00000000000E+00 -0.13707244491E+04  0.13707244491E+04  0.50400001928E-02 0.  1.
    10030    2    1    2    0    0  0.00000000000E+00  0.00000000000E+00  0.12612976881E+04  0.40027465862E+04  0.37988298693E+04 0.  0.
        3    1    3    3  502    0 -0.62587959831E+03 -0.65067275615E+03  0.23914835456E+04  0.25562264896E+04  0.10100000352E+00 0. -1.
       -3    1    3    3    0  502  0.62587959831E+03  0.65067275615E+03 -0.11301858575E+04  0.14465200966E+04  0.10100000352E+00 0.  1.
</event>
<event>
 5   0  0.1261152E-08  0.3799743E+04  0.7818609E-02  0.8046210E-01
        2   -1    0    0  501    0  0.00000000000E+00  0.00000000000E+00  0.24484490347E+04  0.24484490347E+04  0.25500000920E-02 0. -1.
       -2   -1    0    0    0  501  0.00000000000E+00  0.00000000000E+00 -0.14742034992E+04  0.14742034992E+04  0.25500000920E-02 0.  1.
    10030    2    1    2    0    0  0.00000000000E+00  0.00000000000E+00  0.97424553549E+03  0.39226525339E+04  0.37997432200E+04 0.  0.
        2    1    3    3  502    0 -0.75620804183E+03 -0.54943351663E+03  0.21946456071E+04  0.23854134092E+04  0.25500000920E-02 0. -1.
       -2    1    3    3    0  502  0.75620804183E+03  0.54943351663E+03 -0.12204000716E+04  0.15372391247E+04  0.25500000920E-02 0.  1.
</event>
<event>
 5   0  0.1293993E-08  0.3802201E+04  0.7818609E-02  0.8045683E-01
       -2   -1    0    0    0  501  0.00000000000E+00  0.00000000000E+00  0.15506230838E+04  0.15506230838E+04  0.25500000920E-02 0.  1.
        2   -1    0    0  501    0  0.00000000000E+00  0.00000000000E+00 -0.23307943518E+04  0.23307943518E+04  0.25500000920E-02 0. -1.
    10030    2    1    2    0    0  0.00000000000E+00  0.00000000000E+00 -0.78017126799E+03  0.38814174356E+04  0.38022012180E+04 0.  0.
        5    1    3    3  502    0  0.76520709890E+03  0.15834008461E+04  0.34708205947E+03  0.17925368029E+04  0.46999998093E+01 0.  1.
       -5    1    3    3    0  502 -0.76520709890E+03 -0.15834008461E+04 -0.11272533275E+04  0.20888806328E+04  0.46999998093E+01 0. -1.
</event>
<event>
 5   0  0.1327249E-08  0.3795036E+04  0.7818609E-02  0.8047221E-01
        2   -1    0    0  501    0  0.00000000000E+00  0.00000000000E+00  0.25511602589E+04  0.25511602589E+04  0.25500000920E-02 0. -1.
       -2   -1    0    0    0  501  0.00000000000E+00  0.00000000000E+00 -0.14113476816E+04  0.14113476816E+04  0.25500000920E-02 0.  1.
    10030    2    1    2    0    0  0.00000000000E+00  0.00000000000E+00  0.11398125773E+04  0.39625079404E+04  0.37950357662E+04 0.  0.
        1    1    3    3  502    0  0.71382858114E+03 -0.66618297464E+03 -0.11289222404E+04  0.14925871579E+04  0.50400001928E-02 0.  1.
       -1    1    3    3    0  502 -0.71382858114E+03  0.66618297464E+03  0.22687348177E+04  0.24699207826E+04  0.50400001928E-02 0. -1.
</event>
<event>
 5   0  0.1264013E-08  0.3801799E+04  0.7818609E-02  0.8045769E-01
        2   -1    0    0  501    0  0.00000000000E+00  0.00000000000E+00  0.26644256198E+04  0.26644256198E+04  0.25500000920E-02 0. -1.
       -2   -1    0    0    0  501  0.00000000000E+00  0.00000000000E+00 -0.13561720751E+04  0.13561720751E+04  0.25500000920E-02 0.  1.
    10030    2    1    2    0    0  0.00000000000E+00  0.00000000000E+00  0.13082535447E+04  0.40205976948E+04  0.38017993748E+04 0.  0.
        4    1    3    3  502    0 -0.10081373474E+04 -0.41567124377E+03 -0.99249598672E+03  0.14745078470E+04  0.12699999809E+01 0.  1.
       -4    1    3    3    0  502  0.10081373474E+04  0.41567124377E+03  0.23007495314E+04  0.25460898479E+04  0.12699999809E+01 0. -1.
</event>
<event>
 5   0  0.1293993E-08  0.3797652E+04  0.7818609E-02  0.8046659E-01
       -2   -1    0    0    0  501  0.00000000000E+00  0.00000000000E+00  0.14871585900E+04  0.14871585900E+04  0.25500000920E-02 0. -1.
        2   -1    0    0  501    0  0.00000000000E+00  0.00000000000E+00 -0.24244493670E+04  0.24244493670E+04  0.25500000920E-02 0.  1.
    10030    2    1    2    0    0  0.00000000000E+00  0.00000000000E+00 -0.93729077699E+03  0.39116079571E+04  0.37976522760E+04 0.  0.
        5    1    3    3  502    0 -0.97733060273E+03  0.10937754077E+04 -0.17106469944E+04  0.22534096341E+04  0.46999998093E+01 0.  1.
       -5    1    3    3    0  502  0.97733060273E+03 -0.10937754077E+04  0.77335621737E+03  0.16581983230E+04  0.46999998093E+01 0. -1.
</event>
<event>
 5   0  0.1305088E-08  0.3800392E+04  0.7818609E-02  0.8046071E-01
       -2   -1    0    0    0  501  0.00000000000E+00  0.00000000000E+00  0.20236888224E+04  0.20236888224E+04  0.25500000920E-02 0. -1.
        2   -1    0    0  501    0  0.00000000000E+00  0.00000000000E+00 -0.17842388756E+04  0.17842388756E+04  0.25500000920E-02 0.  1.
    10030    2    1    2    0    0  0.00000000000E+00  0.00000000000E+00  0.23944994680E+03  0.38079276981E+04  0.38003917004E+04 0.  0.
        3    1    3    3  502    0 -0.44078436391E+03 -0.18329720894E+04  0.35824474362E+03  0.19189624390E+04  0.10100000352E+00 0. -1.
       -3    1    3    3    0  502  0.44078436391E+03  0.18329720894E+04 -0.11879479682E+03  0.18889652590E+04  0.10100000352E+00 0.  1.
</event>
<event>
 5   0  0.4071750E-09  0.3801142E+04  0.7818609E-02  0.8045910E-01
       -1   -1    0    0    0  501  0.00000000000E+00  0.00000000000E+00  0.19475711203E+04  0.19475711203E+04  0.50400001928E-02 0. -1.
        1   -1    0    0  501    0  0.00000000000E+00  0.00000000000E+00 -0.18547054958E+04  0.18547054959E+04  0.50400001928E-02 0.  1.
    10030    2    1    2    0    0  0.00000000000E+00  0.00000000000E+00  0.92865624454E+02  0.38022766162E+04  0.38011423864E+04 0.  0.
        4    1    3    3  502    0  0.16790657236E+04  0.68534575276E+03 -0.52225133298E+03  0.18872489429E+04  0.12699999809E+01 0.  1.
       -4    1    3    3    0  502 -0.16790657236E+04 -0.68534575276E+03  0.61511695744E+03  0.19150276732E+04  0.12699999809E+01 0. -1.
</event>
<event>
 5   0  0.1293993E-08  0.3798127E+04  0.7818609E-02  0.8046557E-01
        2   -1    0    0  501    0  0.00000000000E+00  0.00000000000E+00  0.22349746558E+04  0.22349746558E+04  0.25500000920E-02 0. -1.
       -2   -1    0    0    0  501  0.00000000000E+00  0.00000000000E+00 -0.16136387948E+04  0.16136387948E+04  0.25500000920E-02 0.  1.
    10030    2    1    2    0    0  0.00000000000E+00  0.00000000000E+00  0.62133586102E+03  0.38486134506E+04  0.37981268068E+04 0.  0.
        5    1    3    3  502    0 -0.10818450588E+04 -0.87025054028E+03 -0.10021990622E+04  0.17123521204E+04  0.46999998093E+01 0. -1.
       -5    1    3    3    0  502  0.10818450588E+04  0.87025054028E+03  0.16235349232E+04  0.21362613302E+04  0.46999998093E+01 0.  1.
</event>
<event>
 5   0  0.4071750E-09  0.3800173E+04  0.7818609E-02  0.8046118E-01
        1   -1    0    0  501    0  0.00000000000E+00  0.00000000000E+00  0.12362108684E+04  0.12362108684E+04  0.50400001928E-02 0. -1.
       -1   -1    0    0    0  501  0.00000000000E+00  0.00000000000E+00 -0.29204796836E+04  0.29204796836E+04  0.50400001928E-02 0.  1.
    10030    2    1    2    0    0  0.00000000000E+00  0.00000000000E+00 -0.16842688152E+04  0.41566905520E+04  0.38001730097E+04 0.  0.
        5    1    3    3  502    0  0.15106848772E+04 -0.85193482429E+03 -0.16910547517E+04  0.24223232663E+04  0.46999998093E+01 0.  1.
       -5    1    3    3    0  502 -0.15106848772E+04  0.85193482429E+03  0.67859365167E+01  0.17343672858E+04  0.46999998093E+01 0. -1.
</event>
<event>
 5   0  0.4071750E-09  0.3800299E+04  0.7818609E-02  0.8046091E-01
        1   -1    0    0  501    0  0.00000000000E+00  0.00000000000E+00  0.17075059461E+04  0.17075059461E+04  0.50400001928E-02 0. -1.
       -1   -1    0    0    0  501  0.00000000000E+00  0.00000000000E+00 -0.21145268535E+04  0.21145268535E+04  0.50400001928E-02 0.  1.
    10030    2    1    2    0    0  0.00000000000E+00  0.00000000000E+00 -0.40702090744E+03  0.38220327996E+04  0.38002985017E+04 0.  0.
        5    1    3    3  502    0  0.17896195691E+04  0.73339842234E+02  0.43448983594E+03  0.18430736399E+04  0.46999998093E+01 0. -1.
       -5    1    3    3    0  502 -0.17896195691E+04 -0.73339842234E+02 -0.84151074338E+03  0.19789591597E+04  0.46999998093E+01 0.  1.
</event>
<event>
 5   0  0.4071750E-09  0.3799918E+04  0.7818609E-02  0.8046173E-01
        1   -1    0    0  501    0  0.00000000000E+00  0.00000000000E+00  0.25408074726E+04  0.25408074726E+04  0.50400001928E-02 0.  1.
       -1   -1    0    0    0  501  0.00000000000E+00  0.00000000000E+00 -0.14207465254E+04  0.14207465254E+04  0.50400001928E-02 0. -1.
    10030    2    1    2    0    0  0.00000000000E+00  0.00000000000E+00  0.11200609472E+04  0.39615539980E+04  0.37999175719E+04 0.  0.
        5    1    3    3  502    0 -0.88121850845E+03  0.16265760891E+04  0.10856813229E+03  0.18531338221E+04  0.46999998093E+01 0. -1.
       -5    1    3    3    0  502  0.88121850845E+03 -0.16265760891E+04  0.10114928149E+04  0.21084201758E+04  0.46999998093E+01 0.  1.
</event>
<event>
 5   0  0.4071750E-09  0.3799106E+04  0.7818609E-02  0.8046347E-01
       -1   -1    0    0    0  501  0.00000000000E+00  0.00000000000E+00  0.33336947387E+04  0.33336947387E+04  0.50400001928E-02 0. -1.
        1   -1    0    0  501    0  0.00000000000E+00  0.00000000000E+00 -0.10823732039E+04  0.10823732039E+04  0.50400001928E-02 0.  1.
    10030    2    1    2    0    0  0.00000000000E+00  0.00000000000E+00  0.22513215348E+04  0.44160679427E+04  0.37991061345E+04 0.  0.
        1    1    3    3  502    0  0.17240893031E+04 -0.34723856650E+03  0.29128727185E+03  0.17826684555E+04  0.50400001928E-02 0.  1.
       -1    1    3    3    0  502 -0.17240893031E+04  0.34723856650E+03  0.19600342630E+04  0.26333994872E+04  0.50400001928E-02 0. -1.
</event>
<event>
 5   0  0.1305088E-08  0.3800142E+04  0.7818609E-02  0.8046124E-01
        2   -1    0    0  501    0  0.00000000000E+00  0.00000000000E+00  0.15142527668E+04  0.15142527668E+04  0.25500000920E-02 0. -1.
       -2   -1    0    0    0  501  0.00000000000E+00  0.00000000000E+00 -0.23841921513E+04  0.23841921513E+04  0.25500000920E-02 0.  1.
    10030    2    1    2    0    0  0.00000000000E+00  0.00000000000E+00 -0.86993938444E+03  0.38984449181E+04  0.38001418720E+04 0.  0.
        3    1    3    3  502    0  0.11151467813E+04  0.46493742379E+03 -0.19393803598E+04  0.22849322402E+04  0.10100000352E+00 0.  1.
       -3    1    3    3    0  502 -0.11151467813E+04 -0.46493742379E+03  0.10694409754E+04  0.16135126779E+04  0.10100000352E+00 0. -1.
</event>
<event>
 5   0  0.1293993E-08  0.3807490E+04  0.7818609E-02  0.8044549E-01
        2   -1    0    0  501    0  0.00000000000E+00  0.00000000000E+00  0.14707672219E+04  0.14707672219E+04  0.25500000920E-02 0.  1.
       -2   -1    0    0    0  501  0.00000000000E+00  0.00000000000E+00 -0.24641867566E+04  0.24641867566E+04  0.25500000920E-02 0. -1.
    10030    2    1    2    0    0  0.00000000000E+00  0.00000000000E+00 -0.99341953476E+03  0.39349539785E+04  0.38074900447E+04 0.  0.
        5    1    3    3  502    0  0.17998470331E+04 -0.33249202705E+03 -0.10379033093E+04  0.21041068557E+04  0.46999998093E+01 0. -1.
       -5    1    3    3    0  502 -0.17998470331E+04  0.33249202705E+03  0.44483774533E+02  0.18308471228E+04  0.46999998093E+01 0.  1.
</event>
<event>
 5   0  0.4071750E-09  0.3800160E+04  0.7818609E-02  0.8046121E-01
       -1   -1    0    0    0  501  0.00000000000E+00  0.00000000000E+00  0.26637050422E+04  0.26637050422E+04  0.50400001928E-02 0. -1.
        1   -1    0    0  501    0  0.00000000000E+00  0.00000000000E+00 -0.13553693592E+04  0.13553693592E+04  0.50400001928E-02 0.  1.
    10030    2    1    2    0    0  0.00000000000E+00  0.00000000000E+00  0.13083356830E+04  0.40190744014E+04  0.38001600999E+04 0.  0.
        4    1    3    3  502    0  0.22960153165E+03  0.60415732757E+03  0.25438772368E+04  0.26246973061E+04  0.12699999809E+01 0. -1.
       -4    1    3    3    0  502 -0.22960153165E+03 -0.60415732757E+03 -0.12355415538E+04  0.13943770953E+04  0.12699999809E+01 0.  1.
</event>
<event>
 5   0  0.1261152E-08  0.3799823E+04  0.7818609E-02  0.8046193E-01
        2   -1    0    0  501    0  0.00000000000E+00  0.00000000000E+00  0.35529399104E+04  0.35529399104E+04  0.25500000920E-02 0.  1.
       -2   -1    0    0    0  501  0.00000000000E+00  0.00000000000E+00 -0.10159653263E+04  0.10159653263E+04  0.25500000920E-02 0. -1.
    10030    2    1    2    0    0  0.00000000000E+00  0.00000000000E+00  0.25369745842E+04  0.45689052367E+04  0.37998230250E+04 0.  0.
        2    1    3    3  502    0  0.49218675639E+03  0.10047299750E+04  0.31148395793E+04  0.33096760763E+04  0.25500000920E-02 0.  1.
       -2    1    3    3    0  502 -0.49218675639E+03 -0.10047299750E+04 -0.57786499507E+03  0.12592291604E+04  0.25500000920E-02 0. -1.
</event>
<event>
 5   0  0.1261152E-08  0.3790394E+04  0.7818609E-02  0.8048219E-01
       -2   -1    0    0    0  501  0.00000000000E+00  0.00000000000E+00  0.18455194424E+04  0.18455194424E+04  0.25500000920E-02 0. -1.
        2   -1    0    0  501    0  0.00000000000E+00  0.00000000000E+00 -0.19462122111E+04  0.19462122111E+04  0.25500000920E-02 0.  1.
    10030    2    1    2    0    0  0.00000000000E+00  0.00000000000E+00 -0.10069276867E+03  0.37917316534E+04  0.37903944251E+04 0.  0.
        2    1    3    3  502    0  0.18269243210E+04  0.38078954500E+03  0.28010229418E+03  0.18870904715E+04  0.25500000920E-02 0. -1.
       -2    1    3    3    0  502 -0.18269243210E+04 -0.38078954500E+03 -0.38079506285E+03  0.19046411820E+04  0.25500000920E-02 0.  1.
</event>
<event>
 5   0  0.4071750E-09  0.3797300E+04  0.7818609E-02  0.8046734E-01
        1   -1    0    0  501    0  0.00000000000E+00  0.00000000000E+00  0.17465596516E+04  0.17465596516E+04  0.50400001928E-02 0. -1.
       -1   -1    0    0    0  501  0.00000000000E+00  0.00000000000E+00 -0.20639845782E+04  0.20639845782E+04  0.50400001928E-02 0.  1.
    10030    2    1    2    0    0  0.00000000000E+00  0.00000000000E+00 -0.31742492664E+03  0.38105442298E+04  0.37973001914E+04 0.  0.
        1    1    3    3  502    0 -0.91169697889E+03 -0.65104960420E+03  0.13795446489E+04  0.17771326363E+04  0.50400001928E-02 0. -1.
       -1    1    3    3    0  502  0.91169697889E+03  0.65104960420E+03 -0.16969695756E+04  0.20334115936E+04  0.50400001928E-02 0.  1.
</event>
<event>
 5   0  0.1293993E-08  0.3799727E+04  0.7818609E-02  0.8046214E-01
        2   -1    0    0  501    0  0.00000000000E+00  0.00000000000E+00  0.14432187088E+04  0.14432187088E+04  0.25500000920E-02 0. -1.
       -2   -1    0    0    0  501  0.00000000000E+00  0.00000000000E+00 -0.25009933525E+04  0.25009933525E+04  0.25500000920E-02 0.  1.
    10030    2    1    2    0    0  0.00000000000E+00  0.00000000000E+00 -0.10577746436E+04  0.39442120613E+04  0.37997265149E+04 0.  0.
        5    1    3    3  502    0 -0.18038210624E+04 -0.47965219357E+03 -0.16097852431E+03  0.18734387706E+04  0.46999998093E+01 0. -1.
       -5    1    3    3    0  502  0.18038210624E+04  0.47965219357E+03 -0.89679611931E+03  0.20707732907E+04  0.46999998093E+01 0.  1.
</event>
<event>
 5   0  0.4071750E-09  0.3799919E+04  0.7818609E-02  0.8046172E-01
       -1   -1    0    0    0  501  0.00000000000E+00  0.00000000000E+00  0.13819914816E+04  0.13819914816E+04  0.50400001928E-02 0.  1.
        1   -1    0    0  501    0  0.00000000000E+00  0.00000000000E+00 -0.26120609690E+04  0.26120609690E+04  0.50400001928E-02 0. -1.
    10030    2    1    2    0    0  0.00000000000E+00  0.00000000000E+00 -0.12300694874E+04  0.39940524506E+04  0.37999189510E+04 0.  0.
        3    1    3    3  502    0 -0.13185005269E+04  0.13302141958E+04 -0.27945489107E+03  0.18936759207E+04  0.10100000352E+00 0.  1.
       -3    1    3    3    0  502  0.13185005269E+04 -0.13302141958E+04 -0.95061459634E+03  0.21003765299E+04  0.10100000352E+00 0. -1.
</event>
<event>
 5   0  0.1264013E-08  0.3800414E+04  0.7818609E-02  0.8046066E-01
        2   -1    0    0  501    0  0.00000000000E+00  0.00000000000E+00  0.18615199236E+04  0.18615199236E+04  0.25500000920E-02 0. -1.
       -2   -1    0    0    0  501  0.00000000000E+00  0.00000000000E+00 -0.19396981298E+04  0.19396981298E+04  0.25500000920E-02 0.  1.
    10030    2    1    2    0    0  0.00000000000E+00  0.00000000000E+00 -0.78178206201E+02  0.38012180535E+04  0.38004140377E+04 0.  0.
        4    1    3    3  502    0 -0.51155465712E+03 -0.13559207702E+04 -0.12684039618E+04  0.19258918780E+04  0.12699999809E+01 0.  1.
       -4    1    3    3    0  502  0.51155465712E+03  0.13559207702E+04  0.11902257556E+04  0.18753261755E+04  0.12699999809E+01 0. -1.
</event>
<event>
 5   0  0.4071750E-09  0.3799565E+04  0.7818609E-02  0.8046248E-01
       -4   -1    0    0    0  501  0.00000000000E+00  0.00000000000E+00  0.15387539938E+04  0.15387545179E+04  0.12699999809E+01 0. -1.
        4   -1    0    0  501    0  0.00000000000E+00  0.00000000000E+00 -0.23455160552E+04  0.23455163990E+04  0.12699999809E+01 0.  1.
    10030    2    1    2    0    0  0.00000000000E+00  0.00000000000E+00 -0.80676206143E+03  0.38842709169E+04  0.37995651768E+04 0.  0.
        2    1    3    3  502    0  0.14172235711E+04 -0.12566761663E+04 -0.55298643589E+03  0.19732084623E+04  0.25500000920E-02 0.  1.
       -2    1    3    3    0  502 -0.14172235711E+04  0.12566761663E+04 -0.25377562554E+03  0.19110624546E+04  0.25500000920E-02 0. -1.
</event>
<event>
 5   0  0.4071750E-09  0.3799002E+04  0.7818609E-02  0.8046369E-01
       -1   -1    0    0    0  501  0.00000000000E+00  0.00000000000E+00  0.16630186620E+04  0.16630186620E+04  0.50400001928E-02 0. -1.
        1   -1    0    0  501    0  0.00000000000E+00  0.00000000000E+00 -0.21696110937E+04  0.21696110937E+04  0.50400001928E-02 0.  1.
    10030    2    1    2    0    0  0.00000000000E+00  0.00000000000E+00 -0.50659243170E+03  0.38326297557E+04  0.37990018364E+04 0.  0.
        3    1    3    3  502    0 -0.79448806743E+03  0.97997570036E+03 -0.16859154945E+04  0.21056767861E+04  0.10100000352E+00 0.  1.
       -3    1    3    3    0  502  0.79448806743E+03 -0.97997570036E+03  0.11793230628E+04  0.17269529696E+04  0.10100000352E+00 0. -1.
</event>
<event>
 5   0  0.4071750E-09  0.3799098E+04  0.7818609E-02  0.8046349E-01
        1   -1    0    0  501    0  0.00000000000E+00  0.00000000000E+00  0.30051688183E+04  0.30051688183E+04  0.50400001928E-02 0.  1.
       -1   -1    0    0    0  501  0.00000000000E+00  0.00000000000E+00 -0.12006931385E+04  0.12006931385E+04  0.50400001928E-02 0. -1.
    10030    2    1    2    0    0  0.00000000000E+00  0.00000000000E+00  0.18044756798E+04  0.42058619568E+04  0.37990975667E+04 0.  0.
        1    1    3    3  502    0  0.55628257177E+03 -0.16526573333E+04  0.68210894132E+02  0.17451015120E+04  0.50400001928E-02 0. -1.
       -1    1    3    3    0  502 -0.55628257177E+03  0.16526573333E+04  0.17362647857E+04  0.24607604449E+04  0.50400001928E-02 0.  1.
</event>
<event>
 5   0  0.4071750E-09  0.3798562E+04  0.7818609E-02  0.8046464E-01
       -1   -1    0    0    0  501  0.00000000000E+00  0.00000000000E+00  0.35445764356E+04  0.35445764356E+04  0.50400001928E-02 0.  1.
        1   -1    0    0  501    0  0.00000000000E+00  0.00000000000E+00 -0.10176867628E+04  0.10176867629E+04  0.50400001928E-02 0. -1.
    10030    2    1    2    0    0  0.00000000000E+00  0.00000000000E+00  0.25268896727E+04  0.45622631985E+04  0.37985621061E+04 0.  0.
        3    1    3    3  502    0  0.47732009335E+03 -0.83988851647E+03  0.32274541245E+04  0.33689326689E+04  0.10100000352E+00 0.  1.
       -3    1    3    3    0  502 -0.47732009335E+03  0.83988851647E+03 -0.70056445173E+03  0.11933305296E+04  0.10100000352E+00 0. -1.
</event>
<event>
 5   0  0.1264013E-08  0.3798962E+04  0.7818609E-02  0.8046378E-01
       -2   -1    0    0    0  501  0.00000000000E+00  0.00000000000E+00  0.18446946999E+04  0.18446946999E+04  0.25500000920E-02 0. -1.
        2   -1    0    0  501    0  0.00000000000E+00  0.00000000000E+00 -0.19558943125E+04  0.19558943125E+04  0.25500000920E-02 0.  1.
    10030    2    1    2    0    0  0.00000000000E+00  0.00000000000E+00 -0.11119961254E+03  0.38005890124E+04  0.37989618960E+04 0.  0.
        4    1    3    3  502    0  0.13055506430E+04 -0.68759701969E+03  0.11410622159E+04  0.18652819456E+04  0.12699999809E+01 0. -1.
       -4    1    3    3    0  502 -0.13055506430E+04  0.68759701969E+03 -0.12522618285E+04  0.19353070668E+04  0.12699999809E+01 0.  1.
</event>
<event>
 5   0  0.1327249E-08  0.3800056E+04  0.7818609E-02  0.8046143E-01
       -2   -1    0    0    0  501  0.00000000000E+00  0.00000000000E+00  0.15635774528E+04  0.15635774528E+04  0.25500000920E-02 0.  1.
        2   -1    0    0  501    0  0.00000000000E+00  0.00000000000E+00 -0.23088757816E+04  0.23088757816E+04  0.25500000920E-02 0. -1.
    10030    2    1    2    0    0  0.00000000000E+00  0.00000000000E+00 -0.74529832876E+03  0.38724532344E+04  0.38000558488E+04 0.  0.
        1    1    3    3  502    0  0.64837328898E+03 -0.86247663685E+03  0.12210682232E+04  0.16294973080E+04  0.50400001928E-02 0.  1.
       -1    1    3    3    0  502 -0.64837328898E+03  0.86247663685E+03 -0.19663665520E+04  0.22429559264E+04  0.50400001928E-02 0. -1.
</event>
<event>
 5   0  0.4071750E-09  0.3795207E+04  0.7818609E-02  0.8047184E-01
        4   -1    0    0  501    0  0.00000000000E+00  0.00000000000E+00  0.16114292489E+04  0.16114297493E+04  0.12699999809E+01 0. -1.
       -4   -1    0    0    0  501  0.00000000000E+00  0.00000000000E+00 -0.22345984450E+04  0.22345988059E+04  0.12699999809E+01 0.  1.
    10030    2    1    2    0    0  0.00000000000E+00  0.00000000000E+00 -0.62316919616E+03  0.38460285553E+04  0.37952069510E+04 0.  0.
        1    1    3    3  502    0  0.50308259778E+03 -0.16134185056E+04  0.56292402415E+03  0.17813182847E+04  0.50400001928E-02 0. -1.
       -1    1    3    3    0  502 -0.50308259778E+03  0.16134185056E+04 -0.11860932203E+04  0.20647102706E+04  0.50400001928E-02 0.  1.
</event>
<event>
 5   0  0.4071750E-09  0.3804886E+04  0.7818609E-02  0.8045107E-01
       -1   -1    0    0    0  501  0.00000000000E+00  0.00000000000E+00  0.14660695078E+04  0.14660695079E+04  0.50400001928E-02 0.  1.
        1   -1    0    0  501    0  0.00000000000E+00  0.00000000000E+00 -0.24687021609E+04  0.24687021609E+04  0.50400001928E-02 0. -1.
    10030    2    1    2    0    0  0.00000000000E+00  0.00000000000E+00 -0.10026326531E+04  0.39347716688E+04  0.38048857865E+04 0.  0.
        2    1    3    3  502    0 -0.80994641159E+03 -0.74091840700E+03  0.11055322003E+04  0.15579392547E+04  0.25500000920E-02 0.  1.
       -2    1    3    3    0  502  0.80994641159E+03  0.74091840700E+03 -0.21081648534E+04  0.23768324141E+04  0.25500000920E-02 0. -1.
</event>
<event>
 5   0  0.4071750E-09  0.3800537E+04  0.7818609E-02  0.8046040E-01
        3   -1    0    0  501    0  0.00000000000E+00  0.00000000000E+00  0.21242877711E+04  0.21242877735E+04  0.10100000352E+00 0.  1.
       -3   -1    0    0    0  501  0.00000000000E+00  0.00000000000E+00 -0.16998733341E+04  0.16998733371E+04  0.10100000352E+00 0. -1.
    10030    2    1    2    0    0  0.00000000000E+00  0.00000000000E+00  0.42441443701E+03  0.38241611106E+04  0.38005368812E+04 0.  0.
        5    1    3    3  502    0  0.10258233589E+04 -0.13584747422E+04 -0.63757236870E+03  0.18177700086E+04  0.46999998093E+01 0. -1.
       -5    1    3    3    0  502 -0.10258233589E+04  0.13584747422E+04  0.10619868057E+04  0.20063911020E+04  0.46999998093E+01 0.  1.
</event>
<event>
 5   0  0.1264013E-08  0.3800262E+04  0.7818609E-02  0.8046099E-01
        2   -1    0    0  501    0  0.00000000000E+00  0.00000000000E+00  0.17215179253E+04  0.17215179253E+04  0.25500000920E-02 0.  1.
       -2   -1    0    0    0  501  0.00000000000E+00  0.00000000000E+00 -0.20972754644E+04  0.20972754644E+04  0.25500000920E-02 0. -1.
    10030    2    1    2    0    0  0.00000000000E+00  0.00000000000E+00 -0.37575753912E+03  0.38187933897E+04  0.38002617311E+04 0.  0.
        4    1    3    3  502    0 -0.18409997001E+04  0.36373886448E+03 -0.48751033165E+03  0.19388795202E+04  0.12699999809E+01 0.  1.
       -4    1    3    3    0  502  0.18409997001E+04 -0.36373886448E+03  0.11175279253E+03  0.18799138695E+04  0.12699999809E+01 0. -1.
</event>
<event>
 5   0  0.4071750E-09  0.3800167E+04  0.7818609E-02  0.8046119E-01
        1   -1    0    0  501    0  0.00000000000E+00  0.00000000000E+00  0.98816655475E+03  0.98816655476E+03  0.50400001928E-02 0.  1.
       -1   -1    0    0    0  501  0.00000000000E+00  0.00000000000E+00 -0.36535513148E+04  0.36535513149E+04  0.50400001928E-02 0. -1.
    10030    2    1    2    0    0  0.00000000000E+00  0.00000000000E+00 -0.26653847601E+04  0.46417178696E+04  0.38001669518E+04 0.  0.
        3    1    3    3  502    0 -0.10512319612E+04 -0.13764792880E+04 -0.37829166724E+03  0.17728193541E+04  0.10100000352E+00 0.  1.
       -3    1    3    3    0  502  0.10512319612E+04  0.13764792880E+04 -0.22870930929E+04  0.28688985155E+04  0.10100000352E+00 0. -1.
</event>
<event>
 5   0  0.1264013E-08  0.3799718E+04  0.7818609E-02  0.8046215E-01
       -2   -1    0    0    0  501  0.00000000000E+00  0.00000000000E+00  0.13782195416E+04  0.13782195416E+04  0.25500000920E-02 0.  1.
        2   -1    0    0  501    0  0.00000000000E+00  0.00000000000E+00 -0.26189321474E+04  0.26189321474E+04  0.25500000920E-02 0. -1.
    10030    2    1    2    0    0  0.00000000000E+00  0.00000000000E+00 -0.12407126057E+04  0.39971516890E+04  0.37997176020E+04 0.  0.
        4    1    3    3  502    0  0.31322032111E+03 -0.14917984910E+04  0.57253694541E+03  0.16283027587E+04  0.12699999809E+01 0.  1.
       -4    1    3    3    0  502 -0.31322032111E+03  0.14917984910E+04 -0.18132495511E+04  0.23688489303E+04  0.12699999809E+01 0. -1.
</event>
<event>
 5   0  0.4071750E-09  0.3801810E+04  0.7818609E-02  0.8045766E-01
        1   -1    0    0  501    0  0.00000000000E+00  0.00000000000E+00  0.12468520556E+04  0.12468520556E+04  0.50400001928E-02 0. -1.
       -1   -1    0    0    0  501  0.00000000000E+00  0.00000000000E+00 -0.28980508385E+04  0.28980508385E+04  0.50400001928E-02 0.  1.
    10030    2    1    2    0    0  0.00000000000E+00  0.00000000000E+00 -0.16511987829E+04  0.41449028941E+04  0.38018104346E+04 0.  0.
        3    1    3    3  502    0 -0.86549134413E+03  0.13689321069E+04 -0.19105927538E+04  0.25046786343E+04  0.10100000352E+00 0.  1.
       -3    1    3    3    0  502  0.86549134413E+03 -0.13689321069E+04  0.25939397091E+03  0.16402242598E+04  0.10100000352E+00 0. -1.
</event>
<event>
 5   0  0.4071750E-09  0.3797082E+04  0.7818609E-02  0.8046781E-01
       -1   -1    0    0    0  501  0.00000000000E+00  0.00000000000E+00  0.16765116060E+04  0.16765116060E+04  0.50400001928E-02 0.  1.
        1   -1    0    0  501    0  0.00000000000E+00  0.00000000000E+00 -0.21499748144E+04  0.21499748144E+04  0.50400001928E-02 0. -1.
    10030    2    1    2    0    0  0.00000000000E+00  0.00000000000E+00 -0.47346320836E+03  0.38264864204E+04  0.37970818948E+04 0.  0.
        3    1    3    3  502    0  0.14806262226E+04 -0.28765684506E+03 -0.13986814972E+04  0.20570149276E+04  0.10100000352E+00 0. -1.
       -3    1    3    3    0  502 -0.14806262226E+04  0.28765684506E+03  0.92521828880E+03  0.17694714928E+04  0.10100000352E+00 0.  1.
</event>
<event>
 5   0  0.1264013E-08  0.3810292E+04  0.7818609E-02  0.8043950E-01
        2   -1    0    0  501    0  0.00000000000E+00  0.00000000000E+00  0.19936986750E+04  0.19936986750E+04  0.25500000920E-02 0. -1.
       -2   -1    0    0    0  501  0.00000000000E+00  0.00000000000E+00 -0.18205263811E+04  0.18205263811E+04  0.25500000920E-02 0.  1.
    10030    2    1    2    0    0  0.00000000000E+00  0.00000000000E+00  0.17317229386E+03  0.38142250561E+04  0.38102918701E+04 0.  0.
        4    1    3    3  502    0 -0.90110279094E+03 -0.14851100068E+04 -0.69655219615E+03  0.18715567176E+04  0.12699999809E+01 0.  1.
       -4    1    3    3    0  502  0.90110279094E+03  0.14851100068E+04  0.86972449001E+03  0.19426683386E+04  0.12699999809E+01 0. -1.
</event>
<event>
 5   0  0.1327249E-08  0.3801194E+04  0.7818609E-02  0.8045899E-01
       -2   -1    0    0    0  501  0.00000000000E+00  0.00000000000E+00  0.15021725485E+04  0.15021725485E+04  0.25500000920E-02 0. -1.
        2   -1    0    0  501    0  0.00000000000E+00  0.00000000000E+00 -0.24046964392E+04  0.24046964392E+04  0.25500000920E-02 0.  1.
    10030    2    1    2    0    0  0.00000000000E+00  0.00000000000E+00 -0.90252389074E+03  0.39068689877E+04  0.38011940116E+04 0.  0.
        1    1    3    3  502    0 -0.11607894906E+04 -0.33564409672E+03 -0.19590770329E+04  0.23017541185E+04  0.50400001928E-02 0.  1.
       -1    1    3    3    0  502  0.11607894906E+04  0.33564409672E+03  0.10565531422E+04  0.16051148692E+04  0.50400001928E-02 0. -1.
</event>
<event>
 5   0  0.1261152E-08  0.3798335E+04  0.7818609E-02  0.8046512E-01
       -2   -1    0    0    0  501  0.00000000000E+00  0.00000000000E+00  0.30587996124E+04  0.30587996124E+04  0.25500000920E-02 0. -1.
        2   -1    0    0  501    0  0.00000000000E+00  0.00000000000E+00 -0.11791675453E+04  0.11791675453E+04  0.25500000920E-02 0.  1.
    10030    2    1    2    0    0  0.00000000000E+00  0.00000000000E+00  0.18796320671E+04  0.42379671577E+04  0.37983350198E+04 0.  0.
        2    1    3    3  502    0  0.25843532663E+03 -0.99441891718E+03  0.27219273231E+04  0.29093893093E+04  0.25500000920E-02 0. -1.
       -2    1    3    3    0  502 -0.25843532663E+03  0.99441891718E+03 -0.84229525606E+03  0.13285778484E+04  0.25500000920E-02 0.  1.
</event>
<event>
 5   0  0.1264013E-08  0.3799086E+04  0.7818609E-02  0.8046351E-01
        2   -1    0    0  501    0  0.00000000000E+00  0.00000000000E+00  0.19897959678E+04  0.19897959678E+04  0.25500000920E-02 0. -1.
       -2   -1    0    0    0  501  0.00000000000E+00  0.00000000000E+00 -0.18133839817E+04  0.18133839817E+04  0.25500000920E-02 0.  1.
    10030    2    1    2    0    0  0.00000000000E+00  0.00000000000E+00  0.17641198607E+03  0.38031799495E+04  0.37990862769E+04 0.  0.
        4    1    3    3  502    0 -0.92710858085E+03  0.72611064203E+03  0.15802802616E+04  0.19708004220E+04  0.12699999809E+01 0. -1.
       -4    1    3    3    0  502  0.92710858085E+03 -0.72611064203E+03 -0.14038682755E+04  0.18323795276E+04  0.12699999809E+01 0.  1.
</event>
<event>
 5   0  0.4071750E-09  0.3799973E+04  0.7818609E-02  0.8046161E-01
       -1   -1    0    0    0  501  0.00000000000E+00  0.00000000000E+00  0.19576182718E+04  0.19576182718E+04  0.50400001928E-02 0. -1.
        1   -1    0    0  501    0  0.00000000000E+00  0.00000000000E+00 -0.18440516490E+04  0.18440516490E+04  0.50400001928E-02 0.  1.
    10030    2    1    2    0    0  0.00000000000E+00  0.00000000000E+00  0.11356662273E+03  0.38016699208E+04  0.37999732642E+04 0.  0.
        1    1    3    3  502    0 -0.36230442026E+03 -0.18126371544E+04  0.49633270306E+03  0.19139655427E+04  0.50400001928E-02 0.  1.
       -1    1    3    3    0  502  0.36230442026E+03  0.18126371544E+04 -0.38276608033E+03  0.18877043781E+04  0.50400001928E-02 0. -1.
</event>
<event>
 5   0  0.4071750E-09  0.3800087E+04  0.7818609E-02  0.8046136E-01
        1   -1    0    0  501    0  0.00000000000E+00  0.00000000000E+00  0.17128196832E+04  0.17128196832E+04  0.50400001928E-02 0. -1.
       -1   -1    0    0    0  501  0.00000000000E+00  0.00000000000E+00 -0.21077319507E+04  0.21077319507E+04  0.50400001928E-02 0.  1.
    10030    2    1    2    0    0  0.00000000000E+00  0.00000000000E+00 -0.39491226750E+03  0.38205516339E+04  0.38000867212E+04 0.  0.
        3    1    3    3  502    0  0.15628661318E+04 -0.10789663778E+04 -0.13843931508E+03  0.19041755289E+04  0.10100000352E+00 0.  1.
       -3    1    3    3    0  502 -0.15628661318E+04  0.10789663778E+04 -0.25647295242E+03  0.19163761051E+04  0.10100000352E+00 0. -1.
</event>
<event>
 5   0  0.1261152E-08  0.3797331E+04  0.7818609E-02  0.8046728E-01
       -2   -1    0    0    0  501  0.00000000000E+00  0.00000000000E+00  0.20527513458E+04  0.20527513458E+04  0.25500000920E-02 0. -1.
        2   -1    0    0  501    0  0.00000000000E+00  0.00000000000E+00 -0.17561462547E+04  0.17561462548E+04  0.25500000920E-02 0.  1.
    10030    2    1    2    0    0  0.00000000000E+00  0.00000000000E+00  0.29660509105E+03  0.38088976005E+04  0.37973314777E+04 0.  0.
        2    1    3    3  502    0 -0.11279626891E+04  0.13881718926E+04  0.78711799753E+03  0.19541944052E+04  0.25500000920E-02 0. -1.
       -2    1    3    3    0  502  0.11279626891E+04 -0.13881718926E+04 -0.49051290648E+03  0.18547031953E+04  0.25500000920E-02 0.  1.
</event>
<event>
 5   0  0.4071750E-09  0.3799816E+04  0.7818609E-02  0.8046194E-01
       -1   -1    0    0    0  501  0.00000000000E+00  0.00000000000E+00  0.14973105321E+04  0.14973105321E+04  0.50400001928E-02 0.  1.
        1   -1    0    0  501    0  0.00000000000E+00  0.00000000000E+00 -0.24107564872E+04  0.24107564872E+04  0.50400001928E-02 0. -1.
    10030    2    1    2    0    0  0.00000000000E+00  0.00000000000E+00 -0.91344595507E+03  0.39080670194E+04  0.37998163528E+04 0.  0.
        2    1    3    3  502    0 -0.15101799235E+03 -0.91780805758E+03  0.12471172896E+04  0.15557890598E+04  0.25500000920E-02 0.  1.
       -2    1    3    3    0  502  0.15101799235E+03  0.91780805758E+03 -0.21605632447E+04  0.23522779595E+04  0.25500000920E-02 0. -1.
</event>
<event>
 5   0  0.4071750E-09  0.3798904E+04  0.7818609E-02  0.8046390E-01
        1   -1    0    0  501    0  0.00000000000E+00  0.00000000000E+00  0.28647898569E+04  0.28647898569E+04  0.50400001928E-02 0. -1.
       -1   -1    0    0    0  501  0.00000000000E+00  0.00000000000E+00 -0.12594008029E+04  0.12594008029E+04  0.50400001928E-02 0.  1.
    10030    2    1    2    0    0  0.00000000000E+00  0.00000000000E+00  0.16053890540E+04  0.41241906599E+04  0.37989043926E+04 0.  0.
        4    1    3    3  502    0  0.59560419031E+03  0.36275221857E+03  0.27207795290E+04  0.28087321663E+04  0.12699999809E+01 0. -1.
       -4    1    3    3    0  502 -0.59560419031E+03 -0.36275221857E+03 -0.11153904750E+04  0.13154584936E+04  0.12699999809E+01 0.  1.
</event>
<event>
 5   0  0.4071750E-09  0.3799991E+04  0.7818609E-02  0.8046157E-01
       -1   -1    0    0    0  501  0.00000000000E+00  0.00000000000E+00  0.23383851850E+04  0.23383851850E+04  0.50400001928E-02 0.  1.
        1   -1    0    0  501    0  0.00000000000E+00  0.00000000000E+00 -0.15437928027E+04  0.15437928027E+04  0.50400001928E-02 0. -1.
    10030    2    1    2    0    0  0.00000000000E+00  0.00000000000E+00  0.79459238227E+03  0.38821779877E+04  0.37999906413E+04 0.  0.
        4    1    3    3  502    0 -0.18456632148E+04  0.43751071156E+03  0.28495293089E+03  0.19180949170E+04  0.12699999809E+01 0. -1.
       -4    1    3    3    0  502  0.18456632148E+04 -0.43751071156E+03  0.50963945138E+03  0.19640830706E+04  0.12699999809E+01 0.  1.
</event>
<event>
 5   0  0.1261152E-08  0.3799242E+04  0.7818609E-02  0.8046318E-01
        2   -1    0    0  501    0  0.00000000000E+00  0.00000000000E+00  0.26197581521E+04  0.26197581521E+04  0.25500000920E-02 0.  1.
       -2   -1    0    0    0  501  0.00000000000E+00  0.00000000000E+00 -0.13774397740E+04  0.13774397740E+04  0.25500000920E-02 0. -1.
    10030    2    1    2    0    0  0.00000000000E+00  0.00000000000E+00  0.12423183781E+04  0.39971979261E+04  0.37992415437E+04 0.  0.
        2    1    3    3  502    0 -0.15991478897E+04  0.86494430785E+03  0.12004440156E+04  0.21786391310E+04  0.25500000920E-02 0.  1.
       -2    1    3    3    0  502  0.15991478897E+04 -0.86494430785E+03  0.41874362565E+02  0.18185587950E+04  0.25500000920E-02 0. -1.
</event>
<event>
 5   0  0.4071750E-09  0.3802773E+04  0.7818609E-02  0.8045560E-01
        1   -1    0    0  501    0  0.00000000000E+00  0.00000000000E+00  0.29773820208E+04  0.29773820208E+04  0.50400001928E-02 0.  1.
       -1   -1    0    0    0  501  0.00000000000E+00  0.00000000000E+00 -0.12142450732E+04  0.12142450732E+04  0.50400001928E-02 0. -1.
    10030    2    1    2    0    0  0.00000000000E+00  0.00000000000E+00  0.17631369476E+04  0.41916270940E+04  0.38027734352E+04 0.  0.
        1    1    3    3  502    0 -0.11014211665E+04 -0.15146368576E+04  0.12438367971E+04  0.22481955818E+04  0.50400001928E-02 0.  1.
       -1    1    3    3    0  502  0.11014211665E+04  0.15146368576E+04  0.51930015042E+03  0.19434315122E+04  0.50400001928E-02 0. -1.
</event>
<event>
 5   0  0.1261152E-08  0.3800732E+04  0.7818609E-02  0.8045998E-01
        2   -1    0    0  501    0  0.00000000000E+00  0.00000000000E+00  0.24718183371E+04  0.24718183371E+04  0.25500000920E-02 0. -1.
       -2   -1    0    0    0  501  0.00000000000E+00  0.00000000000E+00 -0.14610263937E+04  0.14610263937E+04  0.25500000920E-02 0.  1.
    10030    2    1    2    0    0  0.00000000000E+00  0.00000000000E+00  0.10107919434E+04  0.39328447308E+04  0.38007324720E+04 0.  0.
        2    1    3    3  502    0  0.11880790803E+04  0.61370696065E+03  0.19025988697E+04  0.23255215746E+04  0.25500000920E-02 0. -1.
       -2    1    3    3    0  502 -0.11880790803E+04 -0.61370696065E+03 -0.89180692635E+03  0.16073231562E+04  0.25500000920E-02 0.  1.
</event>
<event>
 5   0  0.1261152E-08  0.3800719E+04  0.7818609E-02  0.8046001E-01
       -2   -1    0    0    0  501  0.00000000000E+00  0.00000000000E+00  0.16411831661E+04  0.16411831661E+04  0.25500000920E-02 0. -1.
        2   -1    0    0  501    0  0.00000000000E+00  0.00000000000E+00 -0.22004654391E+04  0.22004654391E+04  0.25500000920E-02 0.  1.
    10030    2    1    2    0    0  0.00000000000E+00  0.00000000000E+00 -0.55928227305E+03  0.38416486052E+04  0.38007193194E+04 0.  0.
        2    1    3    3  502    0  0.11624311650E+04  0.14976016271E+04 -0.14665687647E+03  0.19014639324E+04  0.25500000920E-02 0. -1.
       -2    1    3    3    0  502 -0.11624311650E+04 -0.14976016271E+04 -0.41262539658E+03  0.19401846728E+04  0.25500000920E-02 0.  1.
</event>
<event>
 5   0  0.1261152E-08  0.3800590E+04  0.7818609E-02  0.8046028E-01
       -2   -1    0    0    0  501  0.00000000000E+00  0.00000000000E+00  0.15871778377E+04  0.15871778377E+04  0.25500000920E-02 0.  1.
        2   -1    0    0  501    0  0.00000000000E+00  0.00000000000E+00 -0.22751838514E+04  0.22751838514E+04  0.25500000920E-02 0. -1.
    10030    2    1    2    0    0  0.00000000000E+00  0.00000000000E+00 -0.68800601364E+03  0.38623616891E+04  0.38005901571E+04 0.  0.
        2    1    3    3  502    0  0.74020347152E+03  0.16283137172E+04 -0.99616095966E+03  0.20473503360E+04  0.25500000920E-02 0.  1.
       -2    1    3    3    0  502 -0.74020347152E+03 -0.16283137172E+04  0.30815494602E+03  0.18150113530E+04  0.25500000920E-02 0. -1.
</event>
<event>
 5   0  0.1327249E-08  0.3797892E+04  0.7818609E-02  0.8046607E-01
       -2   -1    0    0    0  501  0.00000000000E+00  0.00000000000E+00  0.13210580302E+04  0.13210580302E+04  0.25500000920E-02 0. -1.
        2   -1    0    0  501    0  0.00000000000E+00  0.00000000000E+00 -0.27296273269E+04  0.27296273269E+04  0.25500000920E-02 0.  1.
    10030    2    1    2    0    0  0.00000000000E+00  0.00000000000E+00 -0.14085692967E+04  0.40506853571E+04  0.37978920993E+04 0.  0.
        1    1    3    3  502    0  0.70895495107E+03 -0.14967374627E+04  0.28661693183E+03  0.16807704842E+04  0.50400001928E-02 0. -1.
       -1    1    3    3    0  502 -0.70895495107E+03  0.14967374627E+04 -0.16951862285E+04  0.23699148728E+04  0.50400001928E-02 0.  1.
</event>
<event>
 5   0  0.4071750E-09  0.3796276E+04  0.7818609E-02  0.8046955E-01
        1   -1    0    0  501    0  0.00000000000E+00  0.00000000000E+00  0.29791796183E+04  0.29791796183E+04  0.50400001928E-02 0. -1.
       -1   -1    0    0    0  501  0.00000000000E+00  0.00000000000E+00 -0.12093688272E+04  0.12093688272E+04  0.50400001928E-02 0.  1.
    10030    2    1    2    0    0  0.00000000000E+00  0.00000000000E+00  0.17698107911E+04  0.41885484455E+04  0.37962755227E+04 0.  0.
        2    1    3    3  502    0 -0.96214255734E+03 -0.16352081311E+04  0.94831601110E+03  0.21210674647E+04  0.25500000920E-02 0. -1.
       -2    1    3    3    0  502  0.96214255734E+03  0.16352081311E+04  0.82149477999E+03  0.20674809809E+04  0.25500000920E-02 0.  1.
</event>
<event>
 5   0  0.1264013E-08  0.3799464E+04  0.7818609E-02  0.8046270E-01
        2   -1    0    0  501    0  0.00000000000E+00  0.00000000000E+00  0.13706942154E+04  0.13706942154E+04  0.25500000920E-02 0. -1.
       -2   -1    0    0    0  501  0.00000000000E+00  0.00000000000E+00 -0.26329584719E+04  0.26329584719E+04  0.25500000920E-02 0.  1.
    10030    2    1    2    0    0  0.00000000000E+00  0.00000000000E+00 -0.12622642565E+04  0.40036526872E+04  0.37994636183E+04 0.  0.
        4    1    3    3  502    0 -0.44317667527E+03 -0.17658234900E+04 -0.12029179382E+04  0.21820979223E+04  0.12699999809E+01 0.  1.
       -4    1    3    3    0  502  0.44317667527E+03  0.17658234900E+04 -0.59346318247E+02  0.18215547650E+04  0.12699999809E+01 0. -1.
</event>
<event>
 5   0  0.1293993E-08  0.3799442E+04  0.7818609E-02  0.8046275E-01
        2   -1    0    0  501    0  0.00000000000E+00  0.00000000000E+00  0.23949868228E+04  0.23949868228E+04  0.25500000920E-02 0.  1.
       -2   -1    0    0    0  501  0.00000000000E+00  0.00000000000E+00 -0.15068728067E+04  0.15068728067E+04  0.25500000920E-02 0. -1.
    10030    2    1    2    0    0  0.00000000000E+00  0.00000000000E+00  0.88811401612E+03  0.39018596295E+04  0.37994423357E+04 0.  0.
        5    1    3    3  502    0  0.64433173564E+03 -0.78600304041E+03  0.20922985565E+04  0.23260910353E+04  0.46999998093E+01 0.  1.
       -5    1    3    3    0  502 -0.64433173564E+03  0.78600304041E+03 -0.12041845404E+04  0.15757685942E+04  0.46999998093E+01 0. -1.
</event>
<event>
 5   0  0.4071750E-09  0.3785859E+04  0.7818609E-02  0.8049196E-01
        1   -1    0    0  501    0  0.00000000000E+00  0.00000000000E+00  0.26423995464E+04  0.26423995464E+04  0.50400001928E-02 0. -1.
       -1   -1    0    0    0  501  0.00000000000E+00  0.00000000000E+00 -0.13560332006E+04  0.13560332006E+04  0.50400001928E-02 0.  1.
    10030    2    1    2    0    0  0.00000000000E+00  0.00000000000E+00  0.12863663457E+04  0.39984327470E+04  0.37858586948E+04 0.  0.
        5    1    3    3  502    0  0.15856520481E+04 -0.10152857568E+04  0.43713428413E+03  0.19329268114E+04  0.46999998093E+01 0. -1.
       -5    1    3    3    0  502 -0.15856520481E+04  0.10152857568E+04  0.84923206162E+03  0.20655059356E+04  0.46999998093E+01 0.  1.
</event>
<event>
 5   0  0.1293993E-08  0.3795956E+04  0.7818609E-02  0.8047023E-01
        2   -1    0    0  501    0  0.00000000000E+00  0.00000000000E+00  0.17316689435E+04  0.17316689435E+04  0.25500000920E-02 0.  1.
       -2   -1    0    0    0  501  0.00000000000E+00  0.00000000000E+00 -0.20802593332E+04  0.20802593332E+04  0.25500000920E-02 0. -1.
    10030    2    1    2    0    0  0.00000000000E+00  0.00000000000E+00 -0.34859038976E+03  0.38119282767E+04  0.37959559964E+04 0.  0.
        5    1    3    3  502    0  0.16858943168E+03 -0.18494656302E+04  0.21895551639E+03  0.18700024390E+04  0.46999998093E+01 0.  1.
       -5    1    3    3    0  502 -0.16858943168E+03  0.18494656302E+04 -0.56754590615E+03  0.19419258377E+04  0.46999998093E+01 0. -1.
</event>
<event>
 5   0  0.4071750E-09  0.3800869E+04  0.7818609E-02  0.8045968E-01
       -1   -1    0    0    0  501  0.00000000000E+00  0.00000000000E+00  0.21678008112E+04  0.21678008112E+04  0.50400001928E-02 0. -1.
        1   -1    0    0  501    0  0.00000000000E+00  0.00000000000E+00 -0.16660441681E+04  0.16660441681E+04  0.50400001928E-02 0.  1.
    10030    2    1    2    0    0  0.00000000000E+00  0.00000000000E+00  0.50175664316E+03  0.38338449793E+04  0.38008693211E+04 0.  0.
        5    1    3    3  502    0 -0.18364202511E+04  0.10624862000E+03 -0.23065394494E+03  0.18539016803E+04  0.46999998093E+01 0.  1.
       -5    1    3    3    0  502  0.18364202511E+04 -0.10624862000E+03  0.73241058810E+03  0.19799432990E+04  0.46999998093E+01 0. -1.
</event>
<event>
 5   0  0.1293993E-08  0.3799498E+04  0.7818609E-02  0.8046263E-01
        2   -1    0    0  501    0  0.00000000000E+00  0.00000000000E+00  0.19750958811E+04  0.19750958811E+04  0.25500000920E-02 0. -1.
       -2   -1    0    0    0  501  0.00000000000E+00  0.00000000000E+00 -0.18272764112E+04  0.18272764112E+04  0.25500000920E-02 0.  1.
    10030    2    1    2    0    0  0.00000000000E+00  0.00000000000E+00  0.14781946992E+03  0.38023722923E+04  0.37994979213E+04 0.  0.
        5    1    3    3  502    0 -0.92805741363E+03  0.82032618729E+03  0.15154154824E+04  0.19572255340E+04  0.46999998093E+01 0. -1.
       -5    1    3    3    0  502  0.92805741363E+03 -0.82032618729E+03 -0.13675960125E+04  0.18451467584E+04  0.46999998093E+01 0.  1.
</event>
<event>
 5   0  0.1261152E-08  0.3800156E+04  0.7818609E-02  0.8046121E-01
       -2   -1    0    0    0  501  0.00000000000E+00  0.00000000000E+00  0.20691221593E+04  0.20691221593E+04  0.25500000920E-02 0. -1.
        2   -1    0    0  501    0  0.00000000000E+00  0.00000000000E+00 -0.17448440940E+04  0.17448440940E+04  0.25500000920E-02 0.  1.
    10030    2    1    2    0    0  0.00000000000E+00  0.00000000000E+00  0.32427806528E+03  0.38139662533E+04  0.38001555650E+04 0.  0.
        2    1    3    3  502    0 -0.35729932979E+03  0.37854601909E+03  0.19961651226E+04  0.20629190717E+04  0.25500000920E-02 0. -1.
       -2    1    3    3    0  502  0.35729932979E+03 -0.37854601909E+03 -0.16718870574E+04  0.17510471816E+04  0.25500000920E-02 0.  1.
</event>
<event>
 5   0  0.4071750E-09  0.3804732E+04  0.7818609E-02  0.8045140E-01
        1   -1    0    0  501    0  0.00000000000E+00  0.00000000000E+00  0.14838534052E+04  0.14838534052E+04  0.50400001928E-02 0.  1.
       -1   -1    0    0    0  501  0.00000000000E+00  0.00000000000E+00 -0.24389177436E+04  0.24389177436E+04  0.50400001928E-02 0. -1.
    10030    2    1    2    0    0  0.00000000000E+00  0.00000000000E+00 -0.95506433847E+03  0.39227711488E+04  0.38047320005E+04 0.  0.
        1    1    3    3  502    0 -0.14587016197E+04 -0.89971458875E+03 -0.13287984566E+04  0.21686406099E+04  0.50400001928E-02 0. -1.
       -1    1    3    3    0  502  0.14587016197E+04  0.89971458875E+03  0.37373411812E+03  0.17541305389E+04  0.50400001928E-02 0.  1.
</event>
<event>
 5   0  0.4071750E-09  0.3826895E+04  0.7818609E-02  0.8040408E-01
        1   -1    0    0  501    0  0.00000000000E+00  0.00000000000E+00  0.20082897299E+04  0.20082897299E+04  0.50400001928E-02 0. -1.
       -1   -1    0    0    0  501  0.00000000000E+00  0.00000000000E+00 -0.18230846917E+04  0.18230846917E+04  0.50400001928E-02 0.  1.
    10030    2    1    2    0    0  0.00000000000E+00  0.00000000000E+00  0.18520503822E+03  0.38313744217E+04  0.38268954850E+04 0.  0.
        3    1    3    3  502    0 -0.51097032613E+03  0.67369231394E+02 -0.17522839413E+04  0.18265071334E+04  0.10100000352E+00 0.  1.
       -3    1    3    3    0  502  0.51097032613E+03 -0.67369231394E+02  0.19374889795E+04  0.20048672882E+04  0.10100000352E+00 0. -1.
</event>
<event>
 5   0  0.1264013E-08  0.3800022E+04  0.7818609E-02  0.8046150E-01
       -2   -1    0    0    0  501  0.00000000000E+00  0.00000000000E+00  0.14197760149E+04  0.14197760149E+04  0.25500000920E-02 0.  1.
        2   -1    0    0  501    0  0.00000000000E+00  0.00000000000E+00 -0.25426836043E+04  0.25426836043E+04  0.25500000920E-02 0. -1.
    10030    2    1    2    0    0  0.00000000000E+00  0.00000000000E+00 -0.11229075894E+04  0.39624596192E+04  0.38000216815E+04 0.  0.
        4    1    3    3  502    0  0.32771593351E+03 -0.11948289654E+04  0.94061735123E+03  0.15555631148E+04  0.12699999809E+01 0. -1.
       -4    1    3    3    0  502 -0.32771593351E+03  0.11948289654E+04 -0.20635249406E+04  0.24068965044E+04  0.12699999809E+01 0.  1.
</event>
<event>
 5   0  0.1264013E-08  0.3797248E+04  0.7818609E-02  0.8046746E-01
        2   -1    0    0  501    0  0.00000000000E+00  0.00000000000E+00  0.21472540648E+04  0.21472540648E+04  0.25500000920E-02 0.  1.
       -2   -1    0    0    0  501  0.00000000000E+00  0.00000000000E+00 -0.16787829570E+04  0.16787829570E+04  0.25500000920E-02 0. -1.
    10030    2    1    2    0    0  0.00000000000E+00  0.00000000000E+00  0.46847110779E+03  0.38260370218E+04  0.37972482291E+04 0.  0.
        4    1    3    3  502    0  0.18873136216E+04 -0.12068494267E+03  0.64870864496E+02  0.18922810054E+04  0.12699999809E+01 0. -1.
       -4    1    3    3    0  502 -0.18873136216E+04  0.12068494267E+03  0.40360024329E+03  0.19337560164E+04  0.12699999809E+01 0.  1.
</event>
<event>
 5   0  0.1327249E-08  0.3800115E+04  0.7818609E-02  0.8046130E-01
        2   -1    0    0  501    0  0.00000000000E+00  0.00000000000E+00  0.27062436771E+04  0.27062436771E+04  0.25500000920E-02 0. -1.
       -2   -1    0    0    0  501  0.00000000000E+00  0.00000000000E+00 -0.13340332120E+04  0.13340332120E+04  0.25500000920E-02 0.  1.
    10030    2    1    2    0    0  0.00000000000E+00  0.00000000000E+00  0.13722104651E+04  0.40402768891E+04  0.38001152325E+04 0.  0.
        1    1    3    3  502    0 -0.11423834911E+04  0.14360800671E+04  0.12100506552E+04  0.21980874842E+04  0.50400001928E-02 0. -1.
       -1    1    3    3    0  502  0.11423834911E+04 -0.14360800671E+04  0.16215980984E+03  0.18421894050E+04  0.50400001928E-02 0.  1.
</event>
<event>
 5   0  0.1293993E-08  0.3777644E+04  0.7818609E-02  0.8050970E-01
        2   -1    0    0  501    0  0.00000000000E+00  0.00000000000E+00  0.21209852054E+04  0.21209852054E+04  0.25500000920E-02 0. -1.
       -2   -1    0    0    0  501  0.00000000000E+00  0.00000000000E+00 -0.16820709623E+04  0.16820709623E+04  0.25500000920E-02 0.  1.
    10030    2    1    2    0    0  0.00000000000E+00  0.00000000000E+00  0.43891424310E+03  0.38030561676E+04  0.37776435117E+04 0.  0.
        5    1    3    3  502    0 -0.62107965296E+03 -0.17534375404E+04  0.54929262524E+03  0.19395947055E+04  0.46999998093E+01 0.  1.
       -5    1    3    3    0  502  0.62107965296E+03  0.17534375404E+04 -0.11037838214E+03  0.18634614621E+04  0.46999998093E+01 0. -1.
</event>
<event>
 5   0  0.4071750E-09  0.3800535E+04  0.7818609E-02  0.8046040E-01
       -1   -1    0    0    0  501  0.00000000000E+00  0.00000000000E+00  0.32469906521E+04  0.32469906521E+04  0.50400001928E-02 0. -1.
        1   -1    0    0  501    0  0.00000000000E+00  0.00000000000E+00 -0.11121116921E+04  0.11121116921E+04  0.50400001928E-02 0.  1.
    10030    2    1    2    0    0  0.00000000000E+00  0.00000000000E+00  0.21348789600E+04  0.43591023442E+04  0.38005348405E+04 0.  0.
        3    1    3    3  502    0  0.13295104198E+04 -0.11000899881E+04  0.15473586871E+03  0.17325527806E+04  0.10100000352E+00 0.  1.
       -3    1    3    3    0  502 -0.13295104198E+04  0.11000899881E+04  0.19801430913E+04  0.26265495637E+04  0.10100000352E+00 0. -1.
</event>
<event>
 5   0  0.4071750E-09  0.3799961E+04  0.7818609E-02  0.8046163E-01
        1   -1    0    0  501    0  0.00000000000E+00  0.00000000000E+00  0.25465101018E+04  0.25465101018E+04  0.50400001928E-02 0. -1.
       -1   -1    0    0    0  501  0.00000000000E+00  0.00000000000E+00 -0.14175973207E+04  0.14175973207E+04  0.50400001928E-02 0.  1.
    10030    2    1    2    0    0  0.00000000000E+00  0.00000000000E+00  0.11289127811E+04  0.39641074225E+04  0.37999609985E+04 0.  0.
        1    1    3    3  502    0  0.87393080885E+03  0.14236860905E+04 -0.37978878059E+03  0.17131481725E+04  0.50400001928E-02 0.  1.
       -1    1    3    3    0  502 -0.87393080885E+03 -0.14236860905E+04  0.15087015617E+04  0.22509592500E+04  0.50400001928E-02 0. -1.
</event>
<event>
 5   0  0.1261152E-08  0.3799022E+04  0.7818609E-02  0.8046365E-01
        2   -1    0    0  501    0  0.00000000000E+00  0.00000000000E+00  0.27718730225E+04  0.27718730225E+04  0.25500000920E-02 0. -1.
       -2   -1    0    0    0  501  0.00000000000E+00  0.00000000000E+00 -0.13016984798E+04  0.13016984798E+04  0.25500000920E-02 0.  1.
    10030    2    1    2    0    0  0.00000000000E+00  0.00000000000E+00  0.14701745428E+04  0.40735715023E+04  0.37990224530E+04 0.  0.
        2    1    3    3  502    0 -0.14863549086E+04  0.10163153633E+04  0.13837830916E+04  0.22709036696E+04  0.25500000920E-02 0. -1.
       -2    1    3    3    0  502  0.14863549086E+04 -0.10163153633E+04  0.86391451145E+02  0.18026678327E+04  0.25500000920E-02 0.  1.
</event>
<event>
 5   0  0.4071750E-09  0.3803204E+04  0.7818609E-02  0.8045468E-01
       -1   -1    0    0    0  501  0.00000000000E+00  0.00000000000E+00  0.17789233939E+04  0.17789233940E+04  0.50400001928E-02 0.  1.
        1   -1    0    0  501    0  0.00000000000E+00  0.00000000000E+00 -0.20327412043E+04  0.20327412043E+04  0.50400001928E-02 0. -1.
    10030    2    1    2    0    0  0.00000000000E+00  0.00000000000E+00 -0.25381781039E+03  0.38116645983E+04  0.38032043765E+04 0.  0.
        5    1    3    3  502    0 -0.22864692319E+03  0.12119710660E+04 -0.15775109011E+04  0.20024275301E+04  0.46999998093E+01 0. -1.
       -5    1    3    3    0  502  0.22864692319E+03 -0.12119710660E+04  0.13236930907E+04  0.18092370682E+04  0.46999998093E+01 0.  1.
</event>
<event>
 5   0  0.4071750E-09  0.3801707E+04  0.7818609E-02  0.8045789E-01
        1   -1    0    0  501    0  0.00000000000E+00  0.00000000000E+00  0.24401731378E+04  0.24401731378E+04  0.50400001928E-02 0. -1.
       -1   -1    0    0    0  501  0.00000000000E+00  0.00000000000E+00 -0.14807323066E+04  0.14807323066E+04  0.50400001928E-02 0.  1.
    10030    2    1    2    0    0  0.00000000000E+00  0.00000000000E+00  0.95944083123E+03  0.39209054444E+04  0.38017065636E+04 0.  0.
        3    1    3    3  502    0 -0.59908456583E+03  0.11863649273E+04 -0.92188902308E+03  0.16174805838E+04  0.10100000352E+00 0.  1.
       -3    1    3    3    0  502  0.59908456583E+03 -0.11863649273E+04  0.18813298543E+04  0.23034248607E+04  0.10100000352E+00 0. -1.
</event>
<event>
 5   0  0.4071750E-09  0.3799417E+04  0.7818609E-02  0.8046280E-01
        1   -1    0    0  501    0  0.00000000000E+00  0.00000000000E+00  0.21654089676E+04  0.21654089676E+04  0.50400001928E-02 0. -1.
       -1   -1    0    0    0  501  0.00000000000E+00  0.00000000000E+00 -0.16666101712E+04  0.16666101712E+04  0.50400001928E-02 0.  1.
    10030    2    1    2    0    0  0.00000000000E+00  0.00000000000E+00  0.49879879643E+03  0.38320191388E+04  0.37994171185E+04 0.  0.
        2    1    3    3  502    0 -0.16667229973E+04 -0.68232815785E+01  0.11687474889E+04  0.20356774793E+04  0.25500000920E-02 0. -1.
       -2    1    3    3    0  502  0.16667229973E+04  0.68232815785E+01 -0.66994869250E+03  0.17963416594E+04  0.25500000920E-02 0.  1.
</event>
<event>
 5   0  0.1261152E-08  0.3797481E+04  0.7818609E-02  0.8046696E-01
       -2   -1    0    0    0  501  0.00000000000E+00  0.00000000000E+00  0.18885223515E+04  0.18885223515E+04  0.25500000920E-02 0.  1.
        2   -1    0    0  501    0  0.00000000000E+00  0.00000000000E+00 -0.19090137668E+04  0.19090137668E+04  0.25500000920E-02 0. -1.
    10030    2    1    2    0    0  0.00000000000E+00  0.00000000000E+00 -0.20491415293E+02  0.37975361182E+04  0.37974808322E+04 0.  0.
        2    1    3    3  502    0 -0.72770538785E+02  0.17792298474E+04 -0.66923994963E+03  0.19023239765E+04  0.25500000920E-02 0. -1.
       -2    1    3    3    0  502  0.72770538785E+02 -0.17792298474E+04  0.64874853434E+03  0.18952121417E+04  0.25500000920E-02 0.  1.
</event>
<event>
 5   0  0.1305088E-08  0.3800354E+04  0.7818609E-02  0.8046079E-01
       -2   -1    0    0    0  501  0.00000000000E+00  0.00000000000E+00  0.14604625634E+04  0.14604625635E+04  0.25500000920E-02 0. -1.
        2   -1    0    0  501    0  0.00000000000E+00  0.00000000000E+00 -0.24722795822E+04  0.24722795822E+04  0.25500000920E-02 0.  1.
    10030    2    1    2    0    0  0.00000000000E+00  0.00000000000E+00 -0.10118170188E+04  0.39327421457E+04  0.38003535500E+04 0.  0.
        3    1    3    3  502    0  0.70934241407E+03 -0.35130174053E+03  0.12817213051E+04  0.15064491653E+04  0.10100000352E+00 0. -1.
       -3    1    3    3    0  502 -0.70934241407E+03  0.35130174053E+03 -0.22935383239E+04  0.24262929804E+04  0.10100000352E+00 0.  1.
</event>
<event>
 5   0  0.4071750E-09  0.3800149E+04  0.7818609E-02  0.8046123E-01
        1   -1    0    0  501    0  0.00000000000E+00  0.00000000000E+00  0.25461152704E+04  0.25461152704E+04  0.50400001928E-02 0.  1.
       -1   -1    0    0    0  501  0.00000000000E+00  0.00000000000E+00 -0.14179574379E+04  0.14179574379E+04  0.50400001928E-02 0. -1.
    10030    2    1    2    0    0  0.00000000000E+00  0.00000000000E+00  0.11281578326E+04  0.39640727083E+04  0.38001489894E+04 0.  0.
        5    1    3    3  502    0  0.73064300959E+03 -0.17423548848E+04  0.77432000392E+03  0.20418700523E+04  0.46999998093E+01 0.  1.
       -5    1    3    3    0  502 -0.73064300959E+03  0.17423548848E+04  0.35383782864E+03  0.19222026560E+04  0.46999998093E+01 0. -1.
</event>
<event>
 5   0  0.4071750E-09  0.3801004E+04  0.7818609E-02  0.8045939E-01
        1   -1    0    0  501    0  0.00000000000E+00  0.00000000000E+00  0.13461015238E+04  0.13461015238E+04  0.50400001928E-02 0.  1.
       -1   -1    0    0    0  501  0.00000000000E+00  0.00000000000E+00 -0.26832364974E+04  0.26832364974E+04  0.50400001928E-02 0. -1.
    10030    2    1    2    0    0  0.00000000000E+00  0.00000000000E+00 -0.13371349736E+04  0.40293380212E+04  0.38010044662E+04 0.  0.
        1    1    3    3  502    0 -0.71094823096E+02 -0.58780574695E+03 -0.25829700709E+04  0.26499631049E+04  0.50400001928E-02 0. -1.
       -1    1    3    3    0  502  0.71094823096E+02  0.58780574695E+03  0.12458350974E+04  0.13793749163E+04  0.50400001928E-02 0.  1.
</event>
<event>
 5   0  0.4071750E-09  0.3799324E+04  0.7818609E-02  0.8046300E-01
       -1   -1    0    0    0  501  0.00000000000E+00  0.00000000000E+00  0.11553611234E+04  0.11553611234E+04  0.50400001928E-02 0.  1.
        1   -1    0    0  501    0  0.00000000000E+00  0.00000000000E+00 -0.31234523211E+04  0.31234523211E+04  0.50400001928E-02 0. -1.
    10030    2    1    2    0    0  0.00000000000E+00  0.00000000000E+00 -0.19680911977E+04  0.42788134446E+04  0.37993238255E+04 0.  0.
        5    1    3    3  502    0 -0.15393048323E+04  0.74755781448E+03 -0.55086918248E+02  0.17121211147E+04  0.46999998093E+01 0.  1.
       -5    1    3    3    0  502  0.15393048323E+04 -0.74755781448E+03 -0.19130042795E+04  0.25666923299E+04  0.46999998093E+01 0. -1.
</event>
<event>
 5   0  0.1293993E-08  0.3799411E+04  0.7818609E-02  0.8046281E-01
       -2   -1    0    0    0  501  0.00000000000E+00  0.00000000000E+00  0.31812266226E+04  0.31812266226E+04  0.25500000920E-02 0. -1.
        2   -1    0    0  501    0  0.00000000000E+00  0.00000000000E+00 -0.11344307801E+04  0.11344307801E+04  0.25500000920E-02 0.  1.
    10030    2    1    2    0    0  0.00000000000E+00  0.00000000000E+00  0.20467958424E+04  0.43156574027E+04  0.37994112171E+04 0.  0.
        5    1    3    3  502    0 -0.50744489940E+03  0.17789174791E+04  0.15143426076E+04  0.23906700623E+04  0.46999998093E+01 0. -1.
       -5    1    3    3    0  502  0.50744489940E+03 -0.17789174791E+04  0.53245323486E+03  0.19249873404E+04  0.46999998093E+01 0.  1.
</event>
<event>
 5   0  0.1261152E-08  0.3804332E+04  0.7818609E-02  0.8045226E-01
       -2   -1    0    0    0  501  0.00000000000E+00  0.00000000000E+00  0.12482957673E+04  0.12482957673E+04  0.25500000920E-02 0. -1.
        2   -1    0    0  501    0  0.00000000000E+00  0.00000000000E+00 -0.28985401951E+04  0.28985401951E+04  0.25500000920E-02 0.  1.
    10030    2    1    2    0    0  0.00000000000E+00  0.00000000000E+00 -0.16502444278E+04  0.41468359624E+04  0.38043319818E+04 0.  0.
        2    1    3    3  502    0 -0.15528271010E+04 -0.24147135287E+03  0.34312097754E+03  0.16085124883E+04  0.25500000920E-02 0. -1.
       -2    1    3    3    0  502  0.15528271010E+04  0.24147135287E+03 -0.19933654053E+04  0.25383234741E+04  0.25500000920E-02 0.  1.
</event>
<event>
 5   0  0.1261152E-08  0.3793599E+04  0.7818609E-02  0.8047530E-01
        2   -1    0    0  501    0  0.00000000000E+00  0.00000000000E+00  0.22841717793E+04  0.22841717793E+04  0.25500000920E-02 0.  1.
       -2   -1    0    0    0  501  0.00000000000E+00  0.00000000000E+00 -0.15751217532E+04  0.15751217532E+04  0.25500000920E-02 0. -1.
    10030    2    1    2    0    0  0.00000000000E+00  0.00000000000E+00  0.70905002605E+03  0.38592935325E+04  0.37935991658E+04 0.  0.
        2    1    3    3  502    0 -0.45925231914E+03  0.25934051551E+03 -0.14990253079E+04  0.15891025987E+04  0.25500000920E-02 0. -1.
       -2    1    3    3    0  502  0.45925231914E+03 -0.25934051551E+03  0.22080753339E+04  0.22701909338E+04  0.25500000920E-02 0.  1.
</event>
<event>
 5   0  0.1293993E-08  0.3798016E+04  0.7818609E-02  0.8046581E-01
        2   -1    0    0  501    0  0.00000000000E+00  0.00000000000E+00  0.20559857678E+04  0.20559857678E+04  0.25500000920E-02 0. -1.
       -2   -1    0    0    0  501  0.00000000000E+00  0.00000000000E+00 -0.17540156996E+04  0.17540156996E+04  0.25500000920E-02 0.  1.
    10030    2    1    2    0    0  0.00000000000E+00  0.00000000000E+00  0.30197006820E+03  0.38100014673E+04  0.37980159635E+04 0.  0.
        5    1    3    3  502    0 -0.13574873999E+04 -0.86598826799E+03 -0.85892004362E+03  0.18249584797E+04  0.46999998093E+01 0.  1.
       -5    1    3    3    0  502  0.13574873999E+04  0.86598826799E+03  0.11608901118E+04  0.19850429877E+04  0.46999998093E+01 0. -1.
</event>
<event>
 5   0  0.1327249E-08  0.3785815E+04  0.7818609E-02  0.8049206E-01
       -2   -1    0    0    0  501  0.00000000000E+00  0.00000000000E+00  0.16541767518E+04  0.16541767518E+04  0.25500000920E-02 0.  1.
        2   -1    0    0  501    0  0.00000000000E+00  0.00000000000E+00 -0.21660924072E+04  0.21660924072E+04  0.25500000920E-02 0. -1.
    10030    2    1    2    0    0  0.00000000000E+00  0.00000000000E+00 -0.51191565537E+03  0.38202691590E+04  0.37858154748E+04 0.  0.
        1    1    3    3  502    0 -0.81001444025E+03  0.12443854388E+04  0.92881460995E+03  0.17513752006E+04  0.50400001928E-02 0.  1.
       -1    1    3    3    0  502  0.81001444025E+03 -0.12443854388E+04 -0.14407302653E+04  0.20688939584E+04  0.50400001928E-02 0. -1.
</event>
<event>
 5   0  0.1261152E-08  0.3800060E+04  0.7818609E-02  0.8046142E-01
       -2   -1    0    0    0  501  0.00000000000E+00  0.00000000000E+00  0.15898374663E+04  0.15898374663E+04  0.25500000920E-02 0.  1.
        2   -1    0    0  501    0  0.00000000000E+00  0.00000000000E+00 -0.22707439118E+04  0.22707439118E+04  0.25500000920E-02 0. -1.
    10030    2    1    2    0    0  0.00000000000E+00  0.00000000000E+00 -0.68090644550E+03  0.38605813782E+04  0.38000598666E+04 0.  0.
        2    1    3    3  502    0 -0.12774057815E+04  0.49705142140E+03  0.99628678076E+03  0.16945244158E+04  0.25500000920E-02 0.  1.
       -2    1    3    3    0  502  0.12774057815E+04 -0.49705142140E+03 -0.16771932263E+04  0.21660569624E+04  0.25500000920E-02 0. -1.
</event>
<event>
 5   0  0.1327249E-08  0.3797472E+04  0.7818609E-02  0.8046698E-01
        2   -1    0    0  501    0  0.00000000000E+00  0.00000000000E+00  0.27037705512E+04  0.27037705512E+04  0.25500000920E-02 0. -1.
       -2   -1    0    0    0  501  0.00000000000E+00  0.00000000000E+00 -0.13333965684E+04  0.13333965684E+04  0.25500000920E-02 0.  1.
    10030    2    1    2    0    0  0.00000000000E+00  0.00000000000E+00  0.13703739828E+04  0.40371671195E+04  0.37974719878E+04 0.  0.
        1    1    3    3  502    0 -0.17045141737E+03 -0.85576791766E+03 -0.11076141853E+04  0.14100360273E+04  0.50400001928E-02 0.  1.
       -1    1    3    3    0  502  0.17045141737E+03  0.85576791766E+03  0.24779881681E+04  0.26271310923E+04  0.50400001928E-02 0. -1.
</event>
<event>
 5   0  0.4071750E-09  0.3799427E+04  0.7818609E-02  0.8046278E-01
       -1   -1    0    0    0  501  0.00000000000E+00  0.00000000000E+00  0.24855054189E+04  0.24855054189E+04  0.50400001928E-02 0.  1.
        1   -1    0    0  501    0  0.00000000000E+00  0.00000000000E+00 -0.14519827409E+04  0.14519827409E+04  0.50400001928E-02 0. -1.
    10030    2    1    2    0    0  0.00000000000E+00  0.00000000000E+00  0.10335226780E+04  0.39374881599E+04  0.37994267835E+04 0.  0.
        4    1    3    3  502    0 -0.42007206648E+03  0.39037962049E+03 -0.13601406002E+04  0.14760897176E+04  0.12699999809E+01 0. -1.
       -4    1    3    3    0  502  0.42007206648E+03 -0.39037962049E+03  0.23936632782E+04  0.24613984423E+04  0.12699999809E+01 0.  1.
</event>
<event>
 5   0  0.4071750E-09  0.3800425E+04  0.7818609E-02  0.8046064E-01
        1   -1    0    0  501    0  0.00000000000E+00  0.00000000000E+00  0.16360852698E+04  0.16360852699E+04  0.50400001928E-02 0.  1.
       -1   -1    0    0    0  501  0.00000000000E+00  0.00000000000E+00 -0.22069797576E+04  0.22069797576E+04  0.50400001928E-02 0. -1.
    10030    2    1    2    0    0  0.00000000000E+00  0.00000000000E+00 -0.57089448773E+03  0.38430650274E+04  0.38004247511E+04 0.  0.
        1    1    3    3  502    0  0.61511828153E+03 -0.11029120210E+04 -0.17212447366E+04  0.21348229130E+04  0.50400001928E-02 0. -1.
       -1    1    3    3    0  502 -0.61511828153E+03  0.11029120210E+04  0.11503502489E+04  0.17082421144E+04  0.50400001928E-02 0.  1.
</event>
<event>
 5   0  0.4071750E-09  0.3807268E+04  0.7818609E-02  0.8044597E-01
       -1   -1    0    0    0  501  0.00000000000E+00  0.00000000000E+00  0.26122656539E+04  0.26122656539E+04  0.50400001928E-02 0. -1.
        1   -1    0    0  501    0  0.00000000000E+00  0.00000000000E+00 -0.13872334440E+04  0.13872334440E+04  0.50400001928E-02 0.  1.
    10030    2    1    2    0    0  0.00000000000E+00  0.00000000000E+00  0.12250322100E+04  0.39994990979E+04  0.38072679337E+04 0.  0.
        4    1    3    3  502    0 -0.45767628984E+03  0.10629218693E+04  0.22003040965E+04  0.24860833084E+04  0.12699999809E+01 0. -1.
       -4    1    3    3    0  502  0.45767628984E+03 -0.10629218693E+04 -0.97527188649E+03  0.15134157895E+04  0.12699999809E+01 0.  1.
</event>
<event>
 5   0  0.1264013E-08  0.3800581E+04  0.7818609E-02  0.8046030E-01
       -2   -1    0    0    0  501  0.00000000000E+00  0.00000000000E+00  0.16081563509E+04  0.16081563509E+04  0.25500000920E-02 0. -1.
        2   -1    0    0  501    0  0.00000000000E+00  0.00000000000E+00 -0.22454926883E+04  0.22454926883E+04  0.25500000920E-02 0.  1.
    10030    2    1    2    0    0  0.00000000000E+00  0.00000000000E+00 -0.63733633737E+03  0.38536490392E+04  0.38005806543E+04 0.  0.
        4    1    3    3  502    0  0.13058828751E+04  0.37896033452E+03  0.10273315269E+04  0.17042161535E+04  0.12699999809E+01 0. -1.
       -4    1    3    3    0  502 -0.13058828751E+04 -0.37896033452E+03 -0.16646678643E+04  0.21494328857E+04  0.12699999809E+01 0.  1.
</event>
<event>
 5   0  0.4071750E-09  0.3800184E+04  0.7818609E-02  0.8046115E-01
       -1   -1    0    0    0  501  0.00000000000E+00  0.00000000000E+00  0.22663850516E+04  0.22663850516E+04  0.50400001928E-02 0. -1.
        1   -1    0    0  501    0  0.00000000000E+00  0.00000000000E+00 -0.15929988261E+04  0.15929988261E+04  0.50400001928E-02 0.  1.
    10030    2    1    2    0    0  0.00000000000E+00  0.00000000000E+00  0.67338622555E+03  0.38593838777E+04  0.38001835359E+04 0.  0.
        5    1    3    3  502    0  0.18085697904E+03  0.17613770113E+04  0.10367562149E+04  0.20518391170E+04  0.46999998093E+01 0. -1.
       -5    1    3    3    0  502 -0.18085697904E+03 -0.17613770113E+04 -0.36336998932E+03  0.18075447607E+04  0.46999998093E+01 0.  1.
</event>
<event>
 5   0  0.4071750E-09  0.3800356E+04  0.7818609E-02  0.8046078E-01
        1   -1    0    0  501    0  0.00000000000E+00  0.00000000000E+00  0.16279024523E+04  0.16279024523E+04  0.50400001928E-02 0. -1.
       -1   -1    0    0    0  501  0.00000000000E+00  0.00000000000E+00 -0.22179933345E+04  0.22179933345E+04  0.50400001928E-02 0.  1.
    10030    2    1    2    0    0  0.00000000000E+00  0.00000000000E+00 -0.59009088216E+03  0.38458957868E+04  0.38003561878E+04 0.  0.
        2    1    3    3  502    0  0.14757437430E+04 -0.17975475349E+03  0.90258219290E+03  0.17391911859E+04  0.25500000920E-02 0. -1.
       -2    1    3    3    0  502 -0.14757437430E+04  0.17975475349E+03 -0.14926730751E+04  0.21067046009E+04  0.25500000920E-02 0.  1.
</event>
<event>
 5   0  0.4071750E-09  0.3800190E+04  0.7818609E-02  0.8046114E-01
       -1   -1    0    0    0  501  0.00000000000E+00  0.00000000000E+00  0.17426256147E+04  0.17426256147E+04  0.50400001928E-02 0.  1.
        1   -1    0    0  501    0  0.00000000000E+00  0.00000000000E+00 -0.20717936786E+04  0.20717936786E+04  0.50400001928E-02 0. -1.
    10030    2    1    2    0    0  0.00000000000E+00  0.00000000000E+00 -0.32916806390E+03  0.38144192933E+04  0.38001898545E+04 0.  0.
        4    1    3    3  502    0 -0.94945612701E+03  0.65352595929E+03 -0.16808016676E+04  0.20380527410E+04  0.12699999809E+01 0. -1.
       -4    1    3    3    0  502  0.94945612701E+03 -0.65352595929E+03  0.13516336037E+04  0.17763665523E+04  0.12699999809E+01 0.  1.
</event>
<event>
 5   0  0.4071750E-09  0.3798587E+04  0.7818609E-02  0.8046458E-01
        1   -1    0    0  501    0  0.00000000000E+00  0.00000000000E+00  0.15963247687E+04  0.15963247687E+04  0.50400001928E-02 0. -1.
       -1   -1    0    0    0  501  0.00000000000E+00  0.00000000000E+00 -0.22597634384E+04  0.22597634384E+04  0.50400001928E-02 0.  1.
    10030    2    1    2    0    0  0.00000000000E+00  0.00000000000E+00 -0.66343866971E+03  0.38560882071E+04  0.37985872891E+04 0.  0.
        4    1    3    3  502    0 -0.19772737835E+03 -0.18884230007E+04 -0.28545323021E+03  0.19200840359E+04  0.12699999809E+01 0. -1.
       -4    1    3    3    0  502  0.19772737835E+03  0.18884230007E+04 -0.37798543949E+03  0.19360041712E+04  0.12699999809E+01 0.  1.
</event>
<event>
 5   0  0.1305088E-08  0.3800259E+04  0.7818609E-02  0.8046099E-01
       -2   -1    0    0    0  501  0.00000000000E+00  0.00000000000E+00  0.18641597922E+04  0.18641597922E+04  0.25500000920E-02 0. -1.
        2   -1    0    0  501    0  0.00000000000E+00  0.00000000000E+00 -0.19367929623E+04  0.19367929623E+04  0.25500000920E-02 0.  1.
    10030    2    1    2    0    0  0.00000000000E+00  0.00000000000E+00 -0.72633170067E+02  0.38009527545E+04  0.38002587102E+04 0.  0.
        3    1    3    3  502    0  0.13860591078E+04  0.71318922270E+03  0.10504787680E+04  0.18797085864E+04  0.10100000352E+00 0. -1.
       -3    1    3    3    0  502 -0.13860591078E+04 -0.71318922270E+03 -0.11231119380E+04  0.19212441681E+04  0.10100000352E+00 0.  1.
</event>
<event>
 5   0  0.4071750E-09  0.3800986E+04  0.7818609E-02  0.8045943E-01
       -1   -1    0    0    0  501  0.00000000000E+00  0.00000000000E+00  0.25405504281E+04  0.25405504281E+04  0.50400001928E-02 0.  1.
        1   -1    0    0  501    0  0.00000000000E+00  0.00000000000E+00 -0.14216895482E+04  0.14216895482E+04  0.50400001928E-02 0. -1.
    10030    2    1    2    0    0  0.00000000000E+00  0.00000000000E+00  0.11188608798E+04  0.39622399763E+04  0.38009861827E+04 0.  0.
        2    1    3    3  502    0 -0.10330894257E+03  0.15584887451E+04 -0.56923824541E+03  0.16624055120E+04  0.25500000920E-02 0. -1.
       -2    1    3    3    0  502  0.10330894257E+03 -0.15584887451E+04  0.16880991253E+04  0.22998344643E+04  0.25500000920E-02 0.  1.
</event>
<event>
 5   0  0.1305088E-08  0.3800004E+04  0.7818609E-02  0.8046154E-01
        2   -1    0    0  501    0  0.00000000000E+00  0.00000000000E+00  0.30493788287E+04  0.30493788287E+04  0.25500000920E-02 0. -1.
       -2   -1    0    0    0  501  0.00000000000E+00  0.00000000000E+00 -0.11838500576E+04  0.11838500576E+04  0.25500000920E-02 0.  1.
    10030    2    1    2    0    0  0.00000000000E+00  0.00000000000E+00  0.18655287711E+04  0.42332288862E+04  0.38000038431E+04 0.  0.
        3    1    3    3  502    0  0.65532200220E+03  0.10234826243E+04 -0.69423575283E+03  0.13996166973E+04  0.10100000352E+00 0.  1.
       -3    1    3    3    0  502 -0.65532200220E+03 -0.10234826243E+04  0.25597645240E+04  0.28336121889E+04  0.10100000352E+00 0. -1.
</event>
<event>
 5   0  0.4071750E-09  0.3801863E+04  0.7818609E-02  0.8045755E-01
       -3   -1    0    0    0  501  0.00000000000E+00  0.00000000000E+00  0.17151615058E+04  0.17151615088E+04  0.10100000352E+00 0. -1.
        3   -1    0    0  501    0  0.00000000000E+00  0.00000000000E+00 -0.21068227709E+04  0.21068227734E+04  0.10100000352E+00 0.  1.
    10030    2    1    2    0    0  0.00000000000E+00  0.00000000000E+00 -0.39166126511E+03  0.38219842822E+04  0.38018633992E+04 0.  0.
        4    1    3    3  502    0 -0.13364992941E+04  0.79811241914E+03  0.90096404145E+03  0.17985971238E+04  0.12699999809E+01 0. -1.
       -4    1    3    3    0  502  0.13364992941E+04 -0.79811241914E+03 -0.12926253066E+04  0.20233871584E+04  0.12699999809E+01 0.  1.
</event>
<event>
 5   0  0.1305088E-08  0.3793135E+04  0.7818609E-02  0.8047630E-01
       -2   -1    0    0    0  501  0.00000000000E+00  0.00000000000E+00  0.16825051585E+04  0.16825051585E+04  0.25500000920E-02 0. -1.
        2   -1    0    0  501    0  0.00000000000E+00  0.00000000000E+00 -0.21378647805E+04  0.21378647805E+04  0.25500000920E-02 0.  1.
    10030    2    1    2    0    0  0.00000000000E+00  0.00000000000E+00 -0.45535962206E+03  0.38203699390E+04  0.37931351262E+04 0.  0.
        3    1    3    3  502    0  0.13384582672E+04  0.96062607439E+03 -0.11739443534E+04  0.20229726501E+04  0.10100000352E+00 0.  1.
       -3    1    3    3    0  502 -0.13384582672E+04 -0.96062607439E+03  0.71858473134E+03  0.17973972889E+04  0.10100000352E+00 0. -1.
</event>
<event>
 5   0  0.4071750E-09  0.3779707E+04  0.7818609E-02  0.8050524E-01
       -1   -1    0    0    0  501  0.00000000000E+00  0.00000000000E+00  0.30277300213E+04  0.30277300214E+04  0.50400001928E-02 0.  1.
        1   -1    0    0  501    0  0.00000000000E+00  0.00000000000E+00 -0.11796117623E+04  0.11796117623E+04  0.50400001928E-02 0. -1.
    10030    2    1    2    0    0  0.00000000000E+00  0.00000000000E+00  0.18481182591E+04  0.42073417836E+04  0.37797068385E+04 0.  0.
        3    1    3    3  502    0  0.18023481942E+04 -0.67808621062E+02  0.15522575452E+04  0.23796135231E+04  0.10100000352E+00 0. -1.
       -3    1    3    3    0  502 -0.18023481942E+04  0.67808621062E+02  0.29586071387E+03  0.18277282606E+04  0.10100000352E+00 0.  1.
</event>
<event>
 5   0  0.4071750E-09  0.3795345E+04  0.7818609E-02  0.8047155E-01
       -1   -1    0    0    0  501  0.00000000000E+00  0.00000000000E+00  0.19951077047E+04  0.19951077047E+04  0.50400001928E-02 0. -1.
        1   -1    0    0  501    0  0.00000000000E+00  0.00000000000E+00 -0.18049959539E+04  0.18049959539E+04  0.50400001928E-02 0.  1.
    10030    2    1    2    0    0  0.00000000000E+00  0.00000000000E+00  0.19011175081E+03  0.38001036586E+04  0.37953452199E+04 0.  0.
        5    1    3    3  502    0  0.72950420969E+03  0.21562219377E+03  0.18357607774E+04  0.19871358897E+04  0.46999998093E+01 0. -1.
       -5    1    3    3    0  502 -0.72950420969E+03 -0.21562219377E+03 -0.16456490266E+04  0.18129677689E+04  0.46999998093E+01 0.  1.
</event>
<event>
 5   0  0.1293993E-08  0.3799944E+04  0.7818609E-02  0.8046167E-01
       -2   -1    0    0    0  501  0.00000000000E+00  0.00000000000E+00  0.13363406022E+04  0.13363406022E+04  0.25500000920E-02 0. -1.
        2   -1    0    0  501    0  0.00000000000E+00  0.00000000000E+00 -0.27013279684E+04  0.27013279684E+04  0.25500000920E-02 0.  1.
    10030    2    1    2    0    0  0.00000000000E+00  0.00000000000E+00 -0.13649873662E+04  0.40376685706E+04  0.37999443385E+04 0.  0.
        5    1    3    3  502    0  0.18588925505E+04  0.21542266420E+03 -0.10316601799E+04  0.21368746466E+04  0.46999998093E+01 0. -1.
       -5    1    3    3    0  502 -0.18588925505E+04 -0.21542266420E+03 -0.33332718635E+03  0.19007939240E+04  0.46999998093E+01 0.  1.
</event>
<event>
 5   0  0.4071750E-09  0.3800875E+04  0.7818609E-02  0.8045967E-01
        1   -1    0    0  501    0  0.00000000000E+00  0.00000000000E+00  0.21374390486E+04  0.21374390486E+04  0.50400001928E-02 0.  1.
       -1   -1    0    0    0  501  0.00000000000E+00  0.00000000000E+00 -0.16897147504E+04  0.16897147504E+04  0.50400001928E-02 0. -1.
    10030    2    1    2    0    0  0.00000000000E+00  0.00000000000E+00  0.44772429813E+03  0.38271537990E+04  0.38008747880E+04 0.  0.
        3    1    3    3  502    0  0.13244828630E+04 -0.91908103081E+03 -0.78942425992E+03  0.17950363417E+04  0.10100000352E+00 0. -1.
       -3    1    3    3    0  502 -0.13244828630E+04  0.91908103081E+03  0.12371485580E+04  0.20321174573E+04  0.10100000352E+00 0.  1.
</event>
<event>
 5   0  0.4071750E-09  0.3801187E+04  0.7818609E-02  0.8045900E-01
       -1   -1    0    0    0  501  0.00000000000E+00  0.00000000000E+00  0.14138785144E+04  0.14138785144E+04  0.50400001928E-02 0.  1.
        1   -1    0    0  501    0  0.00000000000E+00  0.00000000000E+00 -0.25548556737E+04  0.25548556737E+04  0.50400001928E-02 0. -1.
    10030    2    1    2    0    0  0.00000000000E+00  0.00000000000E+00 -0.11409771593E+04  0.39687341882E+04  0.38011869434E+04 0.  0.
        2    1    3    3  502    0  0.10377665536E+04  0.75846580782E+03 -0.20322068363E+04  0.24045985999E+04  0.25500000920E-02 0. -1.
       -2    1    3    3    0  502 -0.10377665536E+04 -0.75846580782E+03  0.89122967697E+03  0.15641355883E+04  0.25500000920E-02 0.  1.
</event>
<event>
 5   0  0.1261152E-08  0.3800131E+04  0.7818609E-02  0.8046127E-01
        2   -1    0    0  501    0  0.00000000000E+00  0.00000000000E+00  0.23496967005E+04  0.23496967005E+04  0.25500000920E-02 0. -1.
       -2   -1    0    0    0  501  0.00000000000E+00  0.00000000000E+00 -0.15364745739E+04  0.15364745739E+04  0.25500000920E-02 0.  1.
    10030    2    1    2    0    0  0.00000000000E+00  0.00000000000E+00  0.81322212660E+03  0.38861712744E+04  0.38001311749E+04 0.  0.
        2    1    3    3  502    0 -0.18474627907E+04  0.44391202947E+03  0.41532356245E+03  0.19449088191E+04  0.25500000920E-02 0. -1.
       -2    1    3    3    0  502  0.18474627907E+04 -0.44391202947E+03  0.39789856415E+03  0.19412624553E+04  0.25500000920E-02 0.  1.
</event>
<event>
 5   0  0.1261152E-08  0.3799532E+04  0.7818609E-02  0.8046255E-01
       -2   -1    0    0    0  501  0.00000000000E+00  0.00000000000E+00  0.21125714269E+04  0.21125714269E+04  0.25500000920E-02 0.  1.
        2   -1    0    0  501    0  0.00000000000E+00  0.00000000000E+00 -0.17083970685E+04  0.17083970686E+04  0.25500000920E-02 0. -1.
    10030    2    1    2    0    0  0.00000000000E+00  0.00000000000E+00  0.40417435834E+03  0.38209684954E+04  0.37995319884E+04 0.  0.
        2    1    3    3  502    0 -0.28995316132E+03  0.16707069644E+04  0.10635274551E+04  0.20016056666E+04  0.25500000920E-02 0.  1.
       -2    1    3    3    0  502  0.28995316132E+03 -0.16707069644E+04 -0.65935309679E+03  0.18193628288E+04  0.25500000920E-02 0. -1.
</event>
<event>
 5   0  0.1264013E-08  0.3800078E+04  0.7818609E-02  0.8046138E-01
       -2   -1    0    0    0  501  0.00000000000E+00  0.00000000000E+00  0.22430983354E+04  0.22430983354E+04  0.25500000920E-02 0.  1.
        2   -1    0    0  501    0  0.00000000000E+00  0.00000000000E+00 -0.16094473851E+04  0.16094473851E+04  0.25500000920E-02 0. -1.
    10030    2    1    2    0    0  0.00000000000E+00  0.00000000000E+00  0.63365095031E+03  0.38525457205E+04  0.38000782889E+04 0.  0.
        4    1    3    3  502    0 -0.18945686577E+04 -0.36143375524E+02  0.45821572867E+03  0.19495281504E+04  0.12699999809E+01 0.  1.
       -4    1    3    3    0  502  0.18945686577E+04  0.36143375524E+02  0.17543522164E+03  0.19030175701E+04  0.12699999809E+01 0. -1.
</event>
<event>
 5   0  0.1327249E-08  0.3800215E+04  0.7818609E-02  0.8046109E-01
        2   -1    0    0  501    0  0.00000000000E+00  0.00000000000E+00  0.13655574214E+04  0.13655574214E+04  0.25500000920E-02 0. -1.
       -2   -1    0    0    0  501  0.00000000000E+00  0.00000000000E+00 -0.26439082017E+04  0.26439082017E+04  0.25500000920E-02 0.  1.
    10030    2    1    2    0    0  0.00000000000E+00  0.00000000000E+00 -0.12783507803E+04  0.40094656231E+04  0.38002149763E+04 0.  0.
        1    1    3    3  502    0 -0.96100962812E+03  0.94627910256E+03  0.77296417999E+03  0.15544958246E+04  0.50400001928E-02 0. -1.
       -1    1    3    3    0  502  0.96100962812E+03 -0.94627910256E+03 -0.20513149603E+04  0.24549697985E+04  0.50400001928E-02 0.  1.
</event>
<event>
 5   0  0.4071750E-09  0.3798547E+04  0.7818609E-02  0.8046467E-01
       -4   -1    0    0    0  501  0.00000000000E+00  0.00000000000E+00  0.23777230997E+04  0.23777234389E+04  0.12699999809E+01 0.  1.
        4   -1    0    0  501    0  0.00000000000E+00  0.00000000000E+00 -0.15170976419E+04  0.15170981735E+04  0.12699999809E+01 0. -1.
    10030    2    1    2    0    0  0.00000000000E+00  0.00000000000E+00  0.86062545778E+03  0.38948216123E+04  0.37985469871E+04 0.  0.
        5    1    3    3  502    0  0.11003272213E+04 -0.11830281339E+04 -0.59346351606E+03  0.17211904584E+04  0.46999998093E+01 0.  1.
       -5    1    3    3    0  502 -0.11003272213E+04  0.11830281339E+04  0.14540889738E+04  0.21736311539E+04  0.46999998093E+01 0. -1.
</event>
<event>
 5   0  0.1261152E-08  0.3801535E+04  0.7818609E-02  0.8045826E-01
        2   -1    0    0  501    0  0.00000000000E+00  0.00000000000E+00  0.15100235504E+04  0.15100235505E+04  0.25500000920E-02 0. -1.
       -2   -1    0    0    0  501  0.00000000000E+00  0.00000000000E+00 -0.23926231381E+04  0.23926231381E+04  0.25500000920E-02 0.  1.
    10030    2    1    2    0    0  0.00000000000E+00  0.00000000000E+00 -0.88259958763E+03  0.39026466885E+04  0.38015351035E+04 0.  0.
        2    1    3    3  502    0  0.28934039732E+03  0.10890470349E+04 -0.20127574518E+04  0.23067149520E+04  0.25500000920E-02 0.  1.
       -2    1    3    3    0  502 -0.28934039732E+03 -0.10890470349E+04  0.11301578642E+04  0.15959317366E+04  0.25500000920E-02 0. -1.
</event>
<event>
 5   0  0.1327249E-08  0.3800655E+04  0.7818609E-02  0.8046014E-01
       -2   -1    0    0    0  501  0.00000000000E+00  0.00000000000E+00  0.28316080893E+04  0.28316080893E+04  0.25500000920E-02 0. -1.
        2   -1    0    0  501    0  0.00000000000E+00  0.00000000000E+00 -0.12753335027E+04  0.12753335027E+04  0.25500000920E-02 0.  1.
    10030    2    1    2    0    0  0.00000000000E+00  0.00000000000E+00  0.15562745865E+04  0.41069415920E+04  0.38006550292E+04 0.  0.
        1    1    3    3  502    0 -0.15651551143E+03 -0.84325438539E+03 -0.10543018799E+04  0.13590906952E+04  0.50400001928E-02 0.  1.
       -1    1    3    3    0  502  0.15651551143E+03  0.84325438539E+03  0.26105764664E+04  0.27478508968E+04  0.50400001928E-02 0. -1.
</event>
<event>
 5   0  0.4071750E-09  0.3798668E+04  0.7818609E-02  0.8046441E-01
       -1   -1    0    0    0  501  0.00000000000E+00  0.00000000000E+00  0.14189890684E+04  0.14189890684E+04  0.50400001928E-02 0. -1.
        1   -1    0    0  501    0  0.00000000000E+00  0.00000000000E+00 -0.25422819214E+04  0.25422819214E+04  0.50400001928E-02 0.  1.
    10030    2    1    2    0    0  0.00000000000E+00  0.00000000000E+00 -0.11232928529E+04  0.39612709898E+04  0.37986683221E+04 0.  0.
        3    1    3    3  502    0 -0.65538473149E+03  0.10228606815E+04 -0.20841766695E+04  0.24123775658E+04  0.10100000352E+00 0.  1.
       -3    1    3    3    0  502  0.65538473149E+03 -0.10228606815E+04  0.96088381652E+03  0.15488934240E+04  0.10100000352E+00 0. -1.
</event>
<event>
 5   0  0.1293993E-08  0.3799951E+04  0.7818609E-02  0.8046165E-01
        2   -1    0    0  501    0  0.00000000000E+00  0.00000000000E+00  0.21544912123E+04  0.21544912123E+04  0.25500000920E-02 0.  1.
       -2   -1    0    0    0  501  0.00000000000E+00  0.00000000000E+00 -0.16755265287E+04  0.16755265287E+04  0.25500000920E-02 0. -1.
    10030    2    1    2    0    0  0.00000000000E+00  0.00000000000E+00  0.47896468363E+03  0.38300177410E+04  0.37999511481E+04 0.  0.
        5    1    3    3  502    0  0.37848578759E+03 -0.14511043328E+04 -0.93633709973E+03  0.17679662130E+04  0.46999998093E+01 0. -1.
       -5    1    3    3    0  502 -0.37848578759E+03  0.14511043328E+04  0.14153017834E+04  0.20620515280E+04  0.46999998093E+01 0.  1.
</event>
<event>
 5   0  0.4071750E-09  0.3800610E+04  0.7818609E-02  0.8046024E-01
        1   -1    0    0  501    0  0.00000000000E+00  0.00000000000E+00  0.24184637800E+04  0.24184637801E+04  0.50400001928E-02 0.  1.
       -1   -1    0    0    0  501  0.00000000000E+00  0.00000000000E+00 -0.14931625777E+04  0.14931625777E+04  0.50400001928E-02 0. -1.
    10030    2    1    2    0    0  0.00000000000E+00  0.00000000000E+00  0.92530120232E+03  0.39116263578E+04  0.38006102731E+04 0.  0.
        4    1    3    3  502    0  0.69814082221E+03 -0.17549299369E+04  0.24681489890E+03  0.19047569132E+04  0.12699999809E+01 0. -1.
       -4    1    3    3    0  502 -0.69814082221E+03  0.17549299369E+04  0.67848630342E+03  0.20068694446E+04  0.12699999809E+01 0.  1.
</event>
<event>
 5   0  0.1327249E-08  0.3800877E+04  0.7818609E-02  0.8045967E-01
       -2   -1    0    0    0  501  0.00000000000E+00  0.00000000000E+00  0.16248122095E+04  0.16248122095E+04  0.25500000920E-02 0. -1.
        2   -1    0    0  501    0  0.00000000000E+00  0.00000000000E+00 -0.22228213621E+04  0.22228213621E+04  0.25500000920E-02 0.  1.
    10030    2    1    2    0    0  0.00000000000E+00  0.00000000000E+00 -0.59800915258E+03  0.38476335716E+04  0.38008774190E+04 0.  0.
        1    1    3    3  502    0  0.65449215154E+03 -0.31471794271E+03 -0.20768145062E+04  0.22001285992E+04  0.50400001928E-02 0.  1.
       -1    1    3    3    0  502 -0.65449215154E+03  0.31471794271E+03  0.14788053537E+04  0.16475049723E+04  0.50400001928E-02 0. -1.
</event>
<event>
 5   0  0.1261152E-08  0.3802067E+04  0.7818609E-02  0.8045711E-01
        2   -1    0    0  501    0  0.00000000000E+00  0.00000000000E+00  0.21529593594E+04  0.21529593594E+04  0.25500000920E-02 0. -1.
       -2   -1    0    0    0  501  0.00000000000E+00  0.00000000000E+00 -0.16785862609E+04  0.16785862609E+04  0.25500000920E-02 0.  1.
    10030    2    1    2    0    0  0.00000000000E+00  0.00000000000E+00  0.47437309847E+03  0.38315456203E+04  0.38020668069E+04 0.  0.
        2    1    3    3  502    0  0.44345079864E+03 -0.18433871891E+04  0.37683608277E+03  0.19330624338E+04  0.25500000920E-02 0.  1.
       -2    1    3    3    0  502 -0.44345079864E+03  0.18433871891E+04  0.97537015694E+02  0.18984831865E+04  0.25500000920E-02 0. -1.
</event>
<event>
 5   0  0.4071750E-09  0.3799894E+04  0.7818609E-02  0.8046178E-01
        1   -1    0    0  501    0  0.00000000000E+00  0.00000000000E+00  0.18673442555E+04  0.18673442555E+04  0.50400001928E-02 0.  1.
       -1   -1    0    0    0  501  0.00000000000E+00  0.00000000000E+00 -0.19331185660E+04  0.19331185660E+04  0.50400001928E-02 0. -1.
    10030    2    1    2    0    0  0.00000000000E+00  0.00000000000E+00 -0.65774310495E+02  0.38004628216E+04  0.37998936035E+04 0.  0.
        5    1    3    3  502    0 -0.45978019395E+03  0.48858392844E+03 -0.18106977115E+04  0.19309998379E+04  0.46999998093E+01 0. -1.
       -5    1    3    3    0  502  0.45978019395E+03 -0.48858392844E+03  0.17449234010E+04  0.18694629836E+04  0.46999998093E+01 0.  1.
</event>
<event>
 5   0  0.1264013E-08  0.3797562E+04  0.7818609E-02  0.8046678E-01
       -2   -1    0    0    0  501  0.00000000000E+00  0.00000000000E+00  0.11974695019E+04  0.11974695019E+04  0.25500000920E-02 0. -1.
        2   -1    0    0  501    0  0.00000000000E+00  0.00000000000E+00 -0.30108239126E+04  0.30108239126E+04  0.25500000920E-02 0.  1.
    10030    2    1    2    0    0  0.00000000000E+00  0.00000000000E+00 -0.18133544107E+04  0.42082934146E+04  0.37975622765E+04 0.  0.
        4    1    3    3  502    0  0.85790037341E+03  0.16448744770E+04 -0.45823225653E+03  0.19109116959E+04  0.12699999809E+01 0. -1.
       -4    1    3    3    0  502 -0.85790037341E+03 -0.16448744770E+04 -0.13551221542E+04  0.22973817187E+04  0.12699999809E+01 0.  1.
</event>
<event>
 5   0  0.1293993E-08  0.3797516E+04  0.7818609E-02  0.8046688E-01
       -2   -1    0    0    0  501  0.00000000000E+00  0.00000000000E+00  0.18804284712E+04  0.18804284712E+04  0.25500000920E-02 0. -1.
        2   -1    0    0  501    0  0.00000000000E+00  0.00000000000E+00 -0.19172663780E+04  0.19172663780E+04  0.25500000920E-02 0.  1.
    10030    2    1    2    0    0  0.00000000000E+00  0.00000000000E+00 -0.36837906769E+02  0.37976948492E+04  0.37975161798E+04 0.  0.
        5    1    3    3  502    0  0.14925470945E+04  0.10914333361E+04 -0.45010653945E+03  0.19030348245E+04  0.46999998093E+01 0.  1.
       -5    1    3    3    0  502 -0.14925470945E+04 -0.10914333361E+04  0.41326863268E+03  0.18946600247E+04  0.46999998093E+01 0. -1.
</event>
<event>
 5   0  0.4071750E-09  0.3800140E+04  0.7818609E-02  0.8046125E-01
       -1   -1    0    0    0  501  0.00000000000E+00  0.00000000000E+00  0.14636599261E+04  0.14636599261E+04  0.50400001928E-02 0.  1.
        1   -1    0    0  501    0  0.00000000000E+00  0.00000000000E+00 -0.24666019142E+04  0.24666019142E+04  0.50400001928E-02 0. -1.
    10030    2    1    2    0    0  0.00000000000E+00  0.00000000000E+00 -0.10029419882E+04  0.39302618403E+04  0.38001401950E+04 0.  0.
        4    1    3    3  502    0 -0.10382708927E+03 -0.16615429088E+04  0.44572681568E+03  0.17234207001E+04  0.12699999809E+01 0.  1.
       -4    1    3    3    0  502  0.10382708927E+03  0.16615429088E+04 -0.14486688039E+04  0.22068411403E+04  0.12699999809E+01 0. -1.
</event>
<event>
 5   0  0.1327249E-08  0.3799815E+04  0.7818609E-02  0.8046195E-01
       -2   -1    0    0    0  501  0.00000000000E+00  0.00000000000E+00  0.11973028995E+04  0.11973028995E+04  0.25500000920E-02 0.  1.
        2   -1    0    0  501    0  0.00000000000E+00  0.00000000000E+00 -0.30148158433E+04  0.30148158433E+04  0.25500000920E-02 0. -1.
    10030    2    1    2    0    0  0.00000000000E+00  0.00000000000E+00 -0.18175129438E+04  0.42121187428E+04  0.37998146010E+04 0.  0.
        1    1    3    3  502    0  0.13216726168E+04  0.17169643515E+03  0.59217491708E+03  0.14584132831E+04  0.50400001928E-02 0.  1.
       -1    1    3    3    0  502 -0.13216726168E+04 -0.17169643515E+03 -0.24096878609E+04  0.27537054597E+04  0.50400001928E-02 0. -1.
</event>
<event>
 5   0  0.4071750E-09  0.3801802E+04  0.7818609E-02  0.8045768E-01
       -3   -1    0    0    0  501  0.00000000000E+00  0.00000000000E+00  0.31878928240E+04  0.31878928256E+04  0.10100000352E+00 0.  1.
        3   -1    0    0  501    0  0.00000000000E+00  0.00000000000E+00 -0.11334834273E+04  0.11334834318E+04  0.10100000352E+00 0. -1.
    10030    2    1    2    0    0  0.00000000000E+00  0.00000000000E+00  0.20544093967E+04  0.43213762574E+04  0.38018015188E+04 0.  0.
        3    1    3    3  502    0  0.11238926583E+04  0.14984747086E+04  0.13952851909E+04  0.23356759052E+04  0.10100000352E+00 0.  1.
       -3    1    3    3    0  502 -0.11238926583E+04 -0.14984747086E+04  0.65912420583E+03  0.19857003522E+04  0.10100000352E+00 0. -1.
</event>
<event>
 5   0  0.4071750E-09  0.3799592E+04  0.7818609E-02  0.8046242E-01
       -1   -1    0    0    0  501  0.00000000000E+00  0.00000000000E+00  0.17384685213E+04  0.17384685213E+04  0.50400001928E-02 0. -1.
        1   -1    0    0  501    0  0.00000000000E+00  0.00000000000E+00 -0.20760944572E+04  0.20760944572E+04  0.50400001928E-02 0.  1.
    10030    2    1    2    0    0  0.00000000000E+00  0.00000000000E+00 -0.33762593588E+03  0.38145629786E+04  0.37995920103E+04 0.  0.
        3    1    3    3  502    0  0.99312039275E+03  0.68581681573E+03  0.13041393490E+04  0.17769108787E+04  0.10100000352E+00 0. -1.
       -3    1    3    3    0  502 -0.99312039275E+03 -0.68581681573E+03 -0.16417652848E+04  0.20376520998E+04  0.10100000352E+00 0.  1.
</event>
<event>
 5   0  0.4071750E-09  0.3800149E+04  0.7818609E-02  0.8046123E-01
        1   -1    0    0  501    0  0.00000000000E+00  0.00000000000E+00  0.15438631566E+04  0.15438631566E+04  0.50400001928E-02 0.  1.
       -1   -1    0    0    0  501  0.00000000000E+00  0.00000000000E+00 -0.23384733678E+04  0.23384733678E+04  0.50400001928E-02 0. -1.
    10030    2    1    2    0    0  0.00000000000E+00  0.00000000000E+00 -0.79461021117E+03  0.38823365244E+04  0.38001488788E+04 0.  0.
        3    1    3    3  502    0 -0.12213854790E+04 -0.35282379484E+03 -0.18399414133E+04  0.22364372411E+04  0.10100000352E+00 0. -1.
       -3    1    3    3    0  502  0.12213854790E+04  0.35282379484E+03  0.10453312022E+04  0.16458992834E+04  0.10100000352E+00 0.  1.
</event>
<event>
 5   0  0.4071750E-09  0.3799376E+04  0.7818609E-02  0.8046289E-01
       -1   -1    0    0    0  501  0.00000000000E+00  0.00000000000E+00  0.11406796574E+04  0.11406796574E+04  0.50400001928E-02 0.  1.
        1   -1    0    0  501    0  0.00000000000E+00  0.00000000000E+00 -0.31637404253E+04  0.31637404253E+04  0.50400001928E-02 0. -1.
    10030    2    1    2    0    0  0.00000000000E+00  0.00000000000E+00 -0.20230607679E+04  0.43044200826E+04  0.37993759194E+04 0.  0.
        1    1    3    3  502    0 -0.50080215795E+02  0.92396651271E+03  0.86810373871E+03  0.12687892835E+04  0.50400001928E-02 0.  1.
       -1    1    3    3    0  502  0.50080215795E+02 -0.92396651271E+03 -0.28911645066E+04  0.30356307992E+04  0.50400001928E-02 0. -1.
</event>
<event>
 5   0  0.1305088E-08  0.3797758E+04  0.7818609E-02  0.8046636E-01
       -2   -1    0    0    0  501  0.00000000000E+00  0.00000000000E+00  0.11364742928E+04  0.11364742928E+04  0.25500000920E-02 0. -1.
        2   -1    0    0  501    0  0.00000000000E+00  0.00000000000E+00 -0.31727431423E+04  0.31727431423E+04  0.25500000920E-02 0.  1.
    10030    2    1    2    0    0  0.00000000000E+00  0.00000000000E+00 -0.20362688495E+04  0.43092174350E+04  0.37977577694E+04 0.  0.
        3    1    3    3  502    0 -0.45836580618E+03  0.81272264618E+03  0.85841338463E+03  0.12678686292E+04  0.10100000352E+00 0. -1.
       -3    1    3    3    0  502  0.45836580618E+03 -0.81272264618E+03 -0.28946822341E+04  0.30413488058E+04  0.10100000352E+00 0.  1.
</event>
<event>
 5   0  0.1305088E-08  0.3799456E+04  0.7818609E-02  0.8046272E-01
       -2   -1    0    0    0  501  0.00000000000E+00  0.00000000000E+00  0.19672951949E+04  0.19672951949E+04  0.25500000920E-02 0.  1.
        2   -1    0    0  501    0  0.00000000000E+00  0.00000000000E+00 -0.18344814757E+04  0.18344814757E+04  0.25500000920E-02 0. -1.
    10030    2    1    2    0    0  0.00000000000E+00  0.00000000000E+00  0.13281371912E+03  0.38017766706E+04  0.37994560623E+04 0.  0.
        3    1    3    3  502    0  0.13445432245E+04 -0.13110969014E+04  0.35327869610E+03  0.19109101011E+04  0.10100000352E+00 0.  1.
       -3    1    3    3    0  502 -0.13445432245E+04  0.13110969014E+04 -0.22046497698E+03  0.18908665695E+04  0.10100000352E+00 0. -1.
</event>
<event>
 5   0  0.1293993E-08  0.3801330E+04  0.7818609E-02  0.8045869E-01
        2   -1    0    0  501    0  0.00000000000E+00  0.00000000000E+00  0.27533190298E+04  0.27533190298E+04  0.25500000920E-02 0. -1.
       -2   -1    0    0    0  501  0.00000000000E+00  0.00000000000E+00 -0.13120628772E+04  0.13120628772E+04  0.25500000920E-02 0.  1.
    10030    2    1    2    0    0  0.00000000000E+00  0.00000000000E+00  0.14412561527E+04  0.40653819070E+04  0.38013301293E+04 0.  0.
        5    1    3    3  502    0 -0.84062117809E+03 -0.77800426951E+02 -0.11005417173E+04  0.13870512005E+04  0.46999998093E+01 0.  1.
       -5    1    3    3    0  502  0.84062117809E+03  0.77800426951E+02  0.25417978699E+04  0.26783307064E+04  0.46999998093E+01 0. -1.
</event>
<event>
 5   0  0.4071750E-09  0.3811486E+04  0.7818609E-02  0.8043695E-01
       -1   -1    0    0    0  501  0.00000000000E+00  0.00000000000E+00  0.15882539749E+04  0.15882539749E+04  0.50400001928E-02 0. -1.
        1   -1    0    0  501    0  0.00000000000E+00  0.00000000000E+00 -0.22866972663E+04  0.22866972663E+04  0.50400001928E-02 0.  1.
    10030    2    1    2    0    0  0.00000000000E+00  0.00000000000E+00 -0.69844329137E+03  0.38749512412E+04  0.38114858114E+04 0.  0.
        2    1    3    3  502    0 -0.60911805786E+03 -0.16706006585E+04 -0.10461466556E+04  0.20630933555E+04  0.25500000920E-02 0.  1.
       -2    1    3    3    0  502  0.60911805786E+03  0.16706006585E+04  0.34770336427E+03  0.18118578857E+04  0.25500000920E-02 0. -1.
</event>
<event>
 5   0  0.4071750E-09  0.3796828E+04  0.7818609E-02  0.8046836E-01
       -1   -1    0    0    0  501  0.00000000000E+00  0.00000000000E+00  0.16019426981E+04  0.16019426981E+04  0.50400001928E-02 0.  1.
        1   -1    0    0  501    0  0.00000000000E+00  0.00000000000E+00 -0.22497532284E+04  0.22497532284E+04  0.50400001928E-02 0. -1.
    10030    2    1    2    0    0  0.00000000000E+00  0.00000000000E+00 -0.64781053033E+03  0.38516959266E+04  0.37968280218E+04 0.  0.
        4    1    3    3  502    0 -0.15371190566E+04 -0.10142788233E+04 -0.79151943499E+03  0.20044952369E+04  0.12699999809E+01 0. -1.
       -4    1    3    3    0  502  0.15371190566E+04  0.10142788233E+04  0.14370890466E+03  0.18472006897E+04  0.12699999809E+01 0.  1.
</event>
<event>
 5   0  0.1261152E-08  0.3798663E+04  0.7818609E-02  0.8046442E-01
       -2   -1    0    0    0  501  0.00000000000E+00  0.00000000000E+00  0.29807849241E+04  0.29807849241E+04  0.25500000920E-02 0.  1.
        2   -1    0    0  501    0  0.00000000000E+00  0.00000000000E+00 -0.12102383284E+04  0.12102383284E+04  0.25500000920E-02 0. -1.
    10030    2    1    2    0    0  0.00000000000E+00  0.00000000000E+00  0.17705465957E+04  0.41910232525E+04  0.37986630089E+04 0.  0.
        2    1    3    3  502    0  0.63720258204E+03 -0.23907012441E+03  0.28416379456E+04  0.29220006621E+04  0.25500000920E-02 0.  1.
       -2    1    3    3    0  502 -0.63720258204E+03  0.23907012441E+03 -0.10710913500E+04  0.12690225904E+04  0.25500000920E-02 0. -1.
</event>
<event>
 5   0  0.1305088E-08  0.3800183E+04  0.7818609E-02  0.8046116E-01
        2   -1    0    0  501    0  0.00000000000E+00  0.00000000000E+00  0.20528338541E+04  0.20528338541E+04  0.25500000920E-02 0.  1.
       -2   -1    0    0    0  501  0.00000000000E+00  0.00000000000E+00 -0.17587143858E+04  0.17587143858E+04  0.25500000920E-02 0. -1.
    10030    2    1    2    0    0  0.00000000000E+00  0.00000000000E+00  0.29411946833E+03  0.38115482399E+04  0.38001833803E+04 0.  0.
        3    1    3    3  502    0 -0.13462340633E+03 -0.17537338730E+04 -0.57386830172E+03  0.18501434530E+04  0.10100000352E+00 0. -1.
       -3    1    3    3    0  502  0.13462340633E+03  0.17537338730E+04  0.86798777005E+03  0.19614047869E+04  0.10100000352E+00 0.  1.
</event>
<event>
 5   0  0.4071750E-09  0.3800284E+04  0.7818609E-02  0.8046094E-01
       -1   -1    0    0    0  501  0.00000000000E+00  0.00000000000E+00  0.33142238496E+04  0.33142238496E+04  0.50400001928E-02 0.  1.
        1   -1    0    0  501    0  0.00000000000E+00  0.00000000000E+00 -0.10894070891E+04  0.10894070891E+04  0.50400001928E-02 0. -1.
    10030    2    1    2    0    0  0.00000000000E+00  0.00000000000E+00  0.22248167605E+04  0.44036309387E+04  0.38002836508E+04 0.  0.
        1    1    3    3  502    0 -0.30614804951E+03 -0.18733632434E+04  0.10132511939E+04  0.21517189528E+04  0.50400001928E-02 0.  1.
       -1    1    3    3    0  502  0.30614804951E+03  0.18733632434E+04  0.12115655666E+04  0.22519119859E+04  0.50400001928E-02 0. -1.
</event>
<event>
 5   0  0.1293993E-08  0.3800205E+04  0.7818609E-02  0.8046111E-01
        2   -1    0    0  501    0  0.00000000000E+00  0.00000000000E+00  0.24122585899E+04  0.24122585899E+04  0.25500000920E-02 0.  1.
       -2   -1    0    0    0  501  0.00000000000E+00  0.00000000000E+00 -0.14966841473E+04  0.14966841473E+04  0.25500000920E-02 0. -1.
    10030    2    1    2    0    0  0.00000000000E+00  0.00000000000E+00  0.91557444258E+03  0.39089427371E+04  0.38002048316E+04 0.  0.
        5    1    3    3  502    0  0.17064859892E+04  0.45770106507E+03 -0.26134721250E+03  0.17860316772E+04  0.46999998093E+01 0. -1.
       -5    1    3    3    0  502 -0.17064859892E+04 -0.45770106507E+03  0.11769216551E+04  0.21229110600E+04  0.46999998093E+01 0.  1.
</event>
<event>
 5   0  0.4071750E-09  0.3800046E+04  0.7818609E-02  0.8046145E-01
       -1   -1    0    0    0  501  0.00000000000E+00  0.00000000000E+00  0.16298015479E+04  0.16298015479E+04  0.50400001928E-02 0.  1.
        1   -1    0    0  501    0  0.00000000000E+00  0.00000000000E+00 -0.22150472378E+04  0.22150472378E+04  0.50400001928E-02 0. -1.
    10030    2    1    2    0    0  0.00000000000E+00  0.00000000000E+00 -0.58524568994E+03  0.38448487857E+04  0.38000460086E+04 0.  0.
        4    1    3    3  502    0  0.88327953831E+03 -0.50848478662E+03  0.13298248051E+04  0.16754626663E+04  0.12699999809E+01 0.  1.
       -4    1    3    3    0  502 -0.88327953831E+03  0.50848478662E+03 -0.19150704950E+04  0.21693861194E+04  0.12699999809E+01 0. -1.
</event>
<event>
 5   0  0.4071750E-09  0.3800001E+04  0.7818609E-02  0.8046155E-01
       -1   -1    0    0    0  501  0.00000000000E+00  0.00000000000E+00  0.19784665966E+04  0.19784665966E+04  0.50400001928E-02 0.  1.
        1   -1    0    0  501    0  0.00000000000E+00  0.00000000000E+00 -0.18246459906E+04  0.18246459906E+04  0.50400001928E-02 0. -1.
    10030    2    1    2    0    0  0.00000000000E+00  0.00000000000E+00  0.15382060601E+03  0.38031125872E+04  0.38000006016E+04 0.  0.
        5    1    3    3  502    0 -0.94471463528E+02 -0.12532214818E+04 -0.13492093232E+04  0.18438754914E+04  0.46999998093E+01 0. -1.
       -5    1    3    3    0  502  0.94471463528E+02  0.12532214818E+04  0.15030299292E+04  0.19592370959E+04  0.46999998093E+01 0.  1.
</event>
<event>
 5   0  0.1261152E-08  0.3805885E+04  0.7818609E-02  0.8044893E-01
       -2   -1    0    0    0  501  0.00000000000E+00  0.00000000000E+00  0.17722201842E+04  0.17722201842E+04  0.25500000920E-02 0.  1.
        2   -1    0    0  501    0  0.00000000000E+00  0.00000000000E+00 -0.20433069169E+04  0.20433069169E+04  0.25500000920E-02 0. -1.
    10030    2    1    2    0    0  0.00000000000E+00  0.00000000000E+00 -0.27108673268E+03  0.38155271011E+04  0.38058847911E+04 0.  0.
        2    1    3    3  502    0  0.14282911534E+04  0.83442348727E+01  0.11250621250E+04  0.18181996673E+04  0.25500000920E-02 0.  1.
       -2    1    3    3    0  502 -0.14282911534E+04 -0.83442348727E+01 -0.13961488577E+04  0.19973274338E+04  0.25500000920E-02 0. -1.
</event>
<event>
 5   0  0.4071750E-09  0.3800209E+04  0.7818609E-02  0.8046110E-01
       -1   -1    0    0    0  501  0.00000000000E+00  0.00000000000E+00  0.11653811707E+04  0.11653811707E+04  0.50400001928E-02 0. -1.
        1   -1    0    0  501    0  0.00000000000E+00  0.00000000000E+00 -0.30980400528E+04  0.30980400528E+04  0.50400001928E-02 0.  1.
    10030    2    1    2    0    0  0.00000000000E+00  0.00000000000E+00 -0.19326588821E+04  0.42634212235E+04  0.38002092278E+04 0.  0.
        1    1    3    3  502    0 -0.38657086154E+03 -0.13757394391E+04 -0.23712944712E+04  0.27685977506E+04  0.50400001928E-02 0.  1.
       -1    1    3    3    0  502  0.38657086154E+03  0.13757394391E+04  0.43863558912E+03  0.14948234730E+04  0.50400001928E-02 0. -1.
</event>
<event>
 5   0  0.4071750E-09  0.3799420E+04  0.7818609E-02  0.8046279E-01
        1   -1    0    0  501    0  0.00000000000E+00  0.00000000000E+00  0.15864930407E+04  0.15864930407E+04  0.50400001928E-02 0.  1.
       -1   -1    0    0    0  501  0.00000000000E+00  0.00000000000E+00 -0.22747645627E+04  0.22747645627E+04  0.50400001928E-02 0. -1.
    10030    2    1    2    0    0  0.00000000000E+00  0.00000000000E+00 -0.68827152198E+03  0.38612576033E+04  0.37994200336E+04 0.  0.
        2    1    3    3  502    0  0.97092972491E+03  0.15132298757E+04 -0.96757665852E+03  0.20417575218E+04  0.25500000920E-02 0. -1.
       -2    1    3    3    0  502 -0.97092972491E+03 -0.15132298757E+04  0.27930513653E+03  0.18195000816E+04  0.25500000920E-02 0.  1.
</event>
<event>
 5   0  0.1293993E-08  0.3799462E+04  0.7818609E-02  0.8046270E-01
       -2   -1    0    0    0  501  0.00000000000E+00  0.00000000000E+00  0.14220892876E+04  0.14220892876E+04  0.25500000920E-02 0.  1.
        2   -1    0    0  501    0  0.00000000000E+00  0.00000000000E+00 -0.25377996360E+04  0.25377996360E+04  0.25500000920E-02 0. -1.
    10030    2    1    2    0    0  0.00000000000E+00  0.00000000000E+00 -0.11157103484E+04  0.39598889236E+04  0.37994618968E+04 0.  0.
        5    1    3    3  502    0 -0.11981908934E+04 -0.49664821365E+03  0.88878526731E+03  0.15723492635E+04  0.46999998093E+01 0.  1.
       -5    1    3    3    0  502  0.11981908934E+04  0.49664821365E+03 -0.20044956157E+04  0.23875396601E+04  0.46999998093E+01 0. -1.
</event>
<event>
 5   0  0.1264013E-08  0.3798694E+04  0.7818609E-02  0.8046435E-01
        2   -1    0    0  501    0  0.00000000000E+00  0.00000000000E+00  0.28035444426E+04  0.28035444426E+04  0.25500000920E-02 0.  1.
       -2   -1    0    0    0  501  0.00000000000E+00  0.00000000000E+00 -0.12867706078E+04  0.12867706078E+04  0.25500000920E-02 0. -1.
    10030    2    1    2    0    0  0.00000000000E+00  0.00000000000E+00  0.15167738348E+04  0.40903150504E+04  0.37986937683E+04 0.  0.
        4    1    3    3  502    0 -0.10753589332E+04  0.14422733777E+04  0.10255810744E+03  0.18019625716E+04  0.12699999809E+01 0. -1.
       -4    1    3    3    0  502  0.10753589332E+04 -0.14422733777E+04  0.14142157274E+04  0.22883524788E+04  0.12699999809E+01 0.  1.
</event>
<event>
 5   0  0.4071750E-09  0.3798719E+04  0.7818609E-02  0.8046430E-01
        1   -1    0    0  501    0  0.00000000000E+00  0.00000000000E+00  0.18773401055E+04  0.18773401055E+04  0.50400001928E-02 0.  1.
       -1   -1    0    0    0  501  0.00000000000E+00  0.00000000000E+00 -0.19216372833E+04  0.19216372834E+04  0.50400001928E-02 0. -1.
    10030    2    1    2    0    0  0.00000000000E+00  0.00000000000E+00 -0.44297177830E+02  0.37989773889E+04  0.37987191211E+04 0.  0.
        2    1    3    3  502    0 -0.11719225377E+04  0.60608739851E+03  0.13442613874E+04  0.18835559579E+04  0.25500000920E-02 0.  1.
       -2    1    3    3    0  502  0.11719225377E+04 -0.60608739851E+03 -0.13885585652E+04  0.19154214309E+04  0.25500000920E-02 0. -1.
</event>
<event>
 5   0  0.4071750E-09  0.3799224E+04  0.7818609E-02  0.8046321E-01
        1   -1    0    0  501    0  0.00000000000E+00  0.00000000000E+00  0.21496128856E+04  0.21496128856E+04  0.50400001928E-02 0.  1.
       -1   -1    0    0    0  501  0.00000000000E+00  0.00000000000E+00 -0.16786862731E+04  0.16786862731E+04  0.50400001928E-02 0. -1.
    10030    2    1    2    0    0  0.00000000000E+00  0.00000000000E+00  0.47092661257E+03  0.38282991587E+04  0.37992239437E+04 0.  0.
        3    1    3    3  502    0 -0.66825552791E+03  0.33022776411E+03  0.19960927534E+04  0.21307280721E+04  0.10100000352E+00 0.  1.
       -3    1    3    3    0  502  0.66825552791E+03 -0.33022776411E+03 -0.15251661408E+04  0.16975710866E+04  0.10100000352E+00 0. -1.
</event>
<event>
 5   0  0.4071750E-09  0.3801457E+04  0.7818609E-02  0.8045842E-01
       -1   -1    0    0    0  501  0.00000000000E+00  0.00000000000E+00  0.21597310101E+04  0.21597310101E+04  0.50400001928E-02 0.  1.
        1   -1    0    0  501    0  0.00000000000E+00  0.00000000000E+00 -0.16727865966E+04  0.16727865966E+04  0.50400001928E-02 0. -1.
    10030    2    1    2    0    0  0.00000000000E+00  0.00000000000E+00  0.48694441357E+03  0.38325176067E+04  0.38014571343E+04 0.  0.
        2    1    3    3  502    0 -0.18554605059E+04 -0.35768354025E+03  0.45032633118E+03  0.19425408640E+04  0.25500000920E-02 0. -1.
       -2    1    3    3    0  502  0.18554605059E+04  0.35768354025E+03  0.36618082389E+02  0.18899767427E+04  0.25500000920E-02 0.  1.
</event>
<event>
 5   0  0.1305088E-08  0.3800055E+04  0.7818609E-02  0.8046143E-01
        2   -1    0    0  501    0  0.00000000000E+00  0.00000000000E+00  0.19237494480E+04  0.19237494480E+04  0.25500000920E-02 0.  1.
       -2   -1    0    0    0  501  0.00000000000E+00  0.00000000000E+00 -0.18765982495E+04  0.18765982495E+04  0.25500000920E-02 0. -1.
    10030    2    1    2    0    0  0.00000000000E+00  0.00000000000E+00  0.47151198525E+02  0.38003476975E+04  0.38000551820E+04 0.  0.
        3    1    3    3  502    0  0.86238252545E+02  0.18231546910E+04  0.55160750444E+03  0.19067251801E+04  0.10100000352E+00 0.  1.
       -3    1    3    3    0  502 -0.86238252545E+02 -0.18231546910E+04 -0.50445630591E+03  0.18936225174E+04  0.10100000352E+00 0. -1.
</event>
<event>
 5   0  0.4071750E-09  0.3799312E+04  0.7818609E-02  0.8046303E-01
        3   -1    0    0  501    0  0.00000000000E+00  0.00000000000E+00  0.17966165688E+04  0.17966165716E+04  0.10100000352E+00 0. -1.
       -3   -1    0    0    0  501  0.00000000000E+00  0.00000000000E+00 -0.20086044176E+04  0.20086044202E+04  0.10100000352E+00 0.  1.
    10030    2    1    2    0    0  0.00000000000E+00  0.00000000000E+00 -0.21198784884E+03  0.38052209918E+04  0.37993115098E+04 0.  0.
        5    1    3    3  502    0  0.74692675310E+02 -0.15985008322E+04 -0.11312491647E+04  0.19597271925E+04  0.46999998093E+01 0.  1.
       -5    1    3    3    0  502 -0.74692675310E+02  0.15985008322E+04  0.91926131583E+03  0.18454937993E+04  0.46999998093E+01 0. -1.
</event>
<event>
 5   0  0.4071750E-09  0.3801102E+04  0.7818609E-02  0.8045919E-01
        1   -1    0    0  501    0  0.00000000000E+00  0.00000000000E+00  0.29304045863E+04  0.29304045863E+04  0.50400001928E-02 0. -1.
       -1   -1    0    0    0  501  0.00000000000E+00  0.00000000000E+00 -0.12326261869E+04  0.12326261869E+04  0.50400001928E-02 0.  1.
    10030    2    1    2    0    0  0.00000000000E+00  0.00000000000E+00  0.16977783994E+04  0.41630307732E+04  0.38011016462E+04 0.  0.
        4    1    3    3  502    0  0.14696499199E+04  0.50300684755E+03  0.20482417442E+04  0.25706385649E+04  0.12699999809E+01 0. -1.
       -4    1    3    3    0  502 -0.14696499199E+04 -0.50300684755E+03 -0.35046334483E+03  0.15923922082E+04  0.12699999809E+01 0.  1.
</event>
<event>
 5   0  0.4071750E-09  0.3798821E+04  0.7818609E-02  0.8046408E-01
       -1   -1    0    0    0  501  0.00000000000E+00  0.00000000000E+00  0.19262787568E+04  0.19262787568E+04  0.50400001928E-02 0. -1.
        1   -1    0    0  501    0  0.00000000000E+00  0.00000000000E+00 -0.18729168261E+04  0.18729168261E+04  0.50400001928E-02 0.  1.
    10030    2    1    2    0    0  0.00000000000E+00  0.00000000000E+00  0.53361930718E+02  0.37991955830E+04  0.37988208147E+04 0.  0.
        3    1    3    3  502    0  0.11477612576E+04 -0.14947467442E+04  0.26363502887E+03  0.19029259503E+04  0.10100000352E+00 0. -1.
       -3    1    3    3    0  502 -0.11477612576E+04  0.14947467442E+04 -0.21027309815E+03  0.18962696327E+04  0.10100000352E+00 0.  1.
</event>
<event>
 5   0  0.1327249E-08  0.3799244E+04  0.7818609E-02  0.8046317E-01
        2   -1    0    0  501    0  0.00000000000E+00  0.00000000000E+00  0.24012841677E+04  0.24012841677E+04  0.25500000920E-02 0. -1.
       -2   -1    0    0    0  501  0.00000000000E+00  0.00000000000E+00 -0.15027644012E+04  0.15027644012E+04  0.25500000920E-02 0.  1.
    10030    2    1    2    0    0  0.00000000000E+00  0.00000000000E+00  0.89851976648E+03  0.39040485689E+04  0.37992443272E+04 0.  0.
        1    1    3    3  502    0  0.16939565488E+04 -0.60003721708E+03 -0.18337815975E+03  0.18064221546E+04  0.50400001928E-02 0.  1.
       -1    1    3    3    0  502 -0.16939565488E+04  0.60003721708E+03  0.10818979262E+04  0.20976264143E+04  0.50400001928E-02 0. -1.
</event>
<event>
 5   0  0.4071750E-09  0.3798902E+04  0.7818609E-02  0.8046391E-01
       -1   -1    0    0    0  501  0.00000000000E+00  0.00000000000E+00  0.13854095887E+04  0.13854095888E+04  0.50400001928E-02 0.  1.
        1   -1    0    0  501    0  0.00000000000E+00  0.00000000000E+00 -0.26042212960E+04  0.26042212960E+04  0.50400001928E-02 0. -1.
    10030    2    1    2    0    0  0.00000000000E+00  0.00000000000E+00 -0.12188117073E+04  0.39896308848E+04  0.37989015016E+04 0.  0.
        1    1    3    3  502    0 -0.74104575012E+03 -0.16815975725E+04 -0.11141543006E+04  0.21490134958E+04  0.50400001928E-02 0. -1.
       -1    1    3    3    0  502  0.74104575012E+03  0.16815975725E+04 -0.10465740667E+03  0.18406173889E+04  0.50400001928E-02 0.  1.
</event>
<event>
 5   0  0.1305088E-08  0.3799858E+04  0.7818609E-02  0.8046185E-01
        2   -1    0    0  501    0  0.00000000000E+00  0.00000000000E+00  0.13338542543E+04  0.13338542543E+04  0.25500000920E-02 0.  1.
       -2   -1    0    0    0  501  0.00000000000E+00  0.00000000000E+00 -0.27062396510E+04  0.27062396510E+04  0.25500000920E-02 0. -1.
    10030    2    1    2    0    0  0.00000000000E+00  0.00000000000E+00 -0.13723853967E+04  0.40400939053E+04  0.37998575087E+04 0.  0.
        3    1    3    3  502    0  0.39402711036E+03 -0.15221335395E+04  0.44781339185E+03  0.16348347683E+04  0.10100000352E+00 0.  1.
       -3    1    3    3    0  502 -0.39402711036E+03  0.15221335395E+04 -0.18201987886E+04  0.24052591369E+04  0.10100000352E+00 0. -1.
</event>
<event>
 5   0  0.1305088E-08  0.3799259E+04  0.7818609E-02  0.8046314E-01
       -2   -1    0    0    0  501  0.00000000000E+00  0.00000000000E+00  0.18605095972E+04  0.18605095972E+04  0.25500000920E-02 0. -1.
        2   -1    0    0  501    0  0.00000000000E+00  0.00000000000E+00 -0.19395719899E+04  0.19395719899E+04  0.25500000920E-02 0.  1.
    10030    2    1    2    0    0  0.00000000000E+00  0.00000000000E+00 -0.79062392692E+02  0.38000815871E+04  0.37992590339E+04 0.  0.
        3    1    3    3  502    0  0.97075854913E+03 -0.10309402292E+04  0.12269903099E+04  0.18736902486E+04  0.10100000352E+00 0. -1.
       -3    1    3    3    0  502 -0.97075854913E+03  0.10309402292E+04 -0.13060527025E+04  0.19263913385E+04  0.10100000352E+00 0.  1.
</event>
<event>
 5   0  0.1264013E-08  0.3802015E+04  0.7818609E-02  0.8045723E-01
       -2   -1    0    0    0  501  0.00000000000E+00  0.00000000000E+00  0.31463530322E+04  0.31463530322E+04  0.25500000920E-02 0.  1.
        2   -1    0    0  501    0  0.00000000000E+00  0.00000000000E+00 -0.11485770743E+04  0.11485770743E+04  0.25500000920E-02 0. -1.
    10030    2    1    2    0    0  0.00000000000E+00  0.00000000000E+00  0.19977759579E+04  0.42949301066E+04  0.38020147083E+04 0.  0.
        4    1    3    3  502    0 -0.60015145037E+03 -0.10170270063E+04 -0.68398166434E+03  0.13646824631E+04  0.12699999809E+01 0. -1.
       -4    1    3    3    0  502  0.60015145037E+03  0.10170270063E+04  0.26817576222E+04  0.29302476435E+04  0.12699999809E+01 0.  1.
</event>
<event>
 5   0  0.4071750E-09  0.3809508E+04  0.7818609E-02  0.8044118E-01
       -1   -1    0    0    0  501  0.00000000000E+00  0.00000000000E+00  0.17603426432E+04  0.17603426432E+04  0.50400001928E-02 0. -1.
        1   -1    0    0  501    0  0.00000000000E+00  0.00000000000E+00 -0.20610123643E+04  0.20610123643E+04  0.50400001928E-02 0.  1.
    10030    2    1    2    0    0  0.00000000000E+00  0.00000000000E+00 -0.30066972113E+03  0.38213550075E+04  0.38095080800E+04 0.  0.
        5    1    3    3  502    0 -0.59990326148E+03 -0.77465918740E+03  0.14881722268E+04  0.17817574039E+04  0.46999998093E+01 0. -1.
       -5    1    3    3    0  502  0.59990326148E+03  0.77465918740E+03 -0.17888419479E+04  0.20395976036E+04  0.46999998093E+01 0.  1.
</event>
<event>
 5   0  0.1264013E-08  0.3791683E+04  0.7818609E-02  0.8047942E-01
       -2   -1    0    0    0  501  0.00000000000E+00  0.00000000000E+00  0.20886544552E+04  0.20886544552E+04  0.25500000920E-02 0.  1.
        2   -1    0    0  501    0  0.00000000000E+00  0.00000000000E+00 -0.17208279640E+04  0.17208279640E+04  0.25500000920E-02 0. -1.
    10030    2    1    2    0    0  0.00000000000E+00  0.00000000000E+00  0.36782649124E+03  0.38094824192E+04  0.37916830003E+04 0.  0.
        4    1    3    3  502    0  0.12482305234E+04 -0.82443764012E+03 -0.98621560923E+03  0.17917588294E+04  0.12699999809E+01 0. -1.
       -4    1    3    3    0  502 -0.12482305234E+04  0.82443764012E+03  0.13540421005E+04  0.20177235898E+04  0.12699999809E+01 0.  1.
</event>
<event>
 5   0  0.4071750E-09  0.3799936E+04  0.7818609E-02  0.8046169E-01
       -1   -1    0    0    0  501  0.00000000000E+00  0.00000000000E+00  0.26693672320E+04  0.26693672320E+04  0.50400001928E-02 0.  1.
        1   -1    0    0  501    0  0.00000000000E+00  0.00000000000E+00 -0.13523348447E+04  0.13523348448E+04  0.50400001928E-02 0. -1.
    10030    2    1    2    0    0  0.00000000000E+00  0.00000000000E+00  0.13170323873E+04  0.40217020768E+04  0.37999359580E+04 0.  0.
        5    1    3    3  502    0  0.76676202352E+03  0.84324964221E+03 -0.95035267828E+03  0.14839765035E+04  0.46999998093E+01 0. -1.
       -5    1    3    3    0  502 -0.76676202352E+03 -0.84324964221E+03  0.22673850655E+04  0.25377255733E+04  0.46999998093E+01 0.  1.
</event>
<event>
 5   0  0.1327249E-08  0.3803447E+04  0.7818609E-02  0.8045416E-01
       -2   -1    0    0    0  501  0.00000000000E+00  0.00000000000E+00  0.14690043232E+04  0.14690043232E+04  0.25500000920E-02 0.  1.
        2   -1    0    0  501    0  0.00000000000E+00  0.00000000000E+00 -0.24619071195E+04  0.24619071195E+04  0.25500000920E-02 0. -1.
    10030    2    1    2    0    0  0.00000000000E+00  0.00000000000E+00 -0.99290279626E+03  0.39309114427E+04  0.38034469640E+04 0.  0.
        1    1    3    3  502    0  0.13863804524E+04  0.74227312277E+03  0.60874654153E+03  0.16862954959E+04  0.50400001928E-02 0.  1.
       -1    1    3    3    0  502 -0.13863804524E+04 -0.74227312277E+03 -0.16016493378E+04  0.22446159468E+04  0.50400001928E-02 0. -1.
</event>
<event>
 5   0  0.4071750E-09  0.3799393E+04  0.7818609E-02  0.8046285E-01
        1   -1    0    0  501    0  0.00000000000E+00  0.00000000000E+00  0.21710461860E+04  0.21710461860E+04  0.50400001928E-02 0. -1.
       -1   -1    0    0    0  501  0.00000000000E+00  0.00000000000E+00 -0.16622612653E+04  0.16622612653E+04  0.50400001928E-02 0.  1.
    10030    2    1    2    0    0  0.00000000000E+00  0.00000000000E+00  0.50878492071E+03  0.38333074514E+04  0.37993925727E+04 0.  0.
        2    1    3    3  502    0  0.11363810565E+04  0.15216698444E+04  0.20921599190E+03  0.19106575706E+04  0.25500000920E-02 0.  1.
       -2    1    3    3    0  502 -0.11363810565E+04 -0.15216698444E+04  0.29956892881E+03  0.19226498808E+04  0.25500000920E-02 0. -1.
</event>
<event>
 5   0  0.1293993E-08  0.3802908E+04  0.7818609E-02  0.8045531E-01
       -2   -1    0    0    0  501  0.00000000000E+00  0.00000000000E+00  0.15765308407E+04  0.15765308407E+04  0.25500000920E-02 0.  1.
        2   -1    0    0  501    0  0.00000000000E+00  0.00000000000E+00 -0.22933434509E+04  0.22933434509E+04  0.25500000920E-02 0. -1.
    10030    2    1    2    0    0  0.00000000000E+00  0.00000000000E+00 -0.71681261015E+03  0.38698742916E+04  0.38029076658E+04 0.  0.
        5    1    3    3  502    0  0.49172761104E+03  0.10488538530E+04  0.11759967607E+04  0.16507213332E+04  0.46999998093E+01 0.  1.
       -5    1    3    3    0  502 -0.49172761104E+03 -0.10488538530E+04 -0.18928093709E+04  0.22191529584E+04  0.46999998093E+01 0. -1.
</event>
<event>
 5   0  0.4071750E-09  0.3800786E+04  0.7818609E-02  0.8045986E-01
        1   -1    0    0  501    0  0.00000000000E+00  0.00000000000E+00  0.16069009761E+04  0.16069009761E+04  0.50400001928E-02 0.  1.
       -1   -1    0    0    0  501  0.00000000000E+00  0.00000000000E+00 -0.22474898591E+04  0.22474898591E+04  0.50400001928E-02 0. -1.
    10030    2    1    2    0    0  0.00000000000E+00  0.00000000000E+00 -0.64058888298E+03  0.38543908352E+04  0.38007860494E+04 0.  0.
        3    1    3    3  502    0 -0.66031081677E+03  0.17059837278E+04  0.20184857126E+03  0.18404167219E+04  0.10100000352E+00 0. -1.
       -3    1    3    3    0  502  0.66031081677E+03 -0.17059837278E+04 -0.84243745424E+03  0.20139741133E+04  0.10100000352E+00 0.  1.
</event>
<event>
 5   0  0.4071750E-09  0.3798926E+04  0.7818609E-02  0.8046385E-01
       -1   -1    0    0    0  501  0.00000000000E+00  0.00000000000E+00  0.21650848246E+04  0.21650848246E+04  0.50400001928E-02 0. -1.
        1   -1    0    0  501    0  0.00000000000E+00  0.00000000000E+00 -0.16664286149E+04  0.16664286149E+04  0.50400001928E-02 0.  1.
    10030    2    1    2    0    0  0.00000000000E+00  0.00000000000E+00  0.49865620974E+03  0.38315134395E+04  0.37989257984E+04 0.  0.
        3    1    3    3  502    0  0.89094438672E+03  0.16459564077E+04 -0.77496182511E+02  0.18732218408E+04  0.10100000352E+00 0.  1.
       -3    1    3    3    0  502 -0.89094438672E+03 -0.16459564077E+04  0.57615239225E+03  0.19582915987E+04  0.10100000352E+00 0. -1.
</event>
<event>
 5   0  0.4071750E-09  0.3799810E+04  0.7818609E-02  0.8046196E-01
        1   -1    0    0  501    0  0.00000000000E+00  0.00000000000E+00  0.28716529344E+04  0.28716529344E+04  0.50400001928E-02 0.  1.
       -1   -1    0    0    0  501  0.00000000000E+00  0.00000000000E+00 -0.12569897082E+04  0.12569897082E+04  0.50400001928E-02 0. -1.
    10030    2    1    2    0    0  0.00000000000E+00  0.00000000000E+00  0.16146632262E+04  0.41286426426E+04  0.37998095658E+04 0.  0.
        3    1    3    3  502    0  0.99326056645E+03 -0.10123964303E+04  0.21809017713E+04  0.26015083377E+04  0.10100000352E+00 0.  1.
       -3    1    3    3    0  502 -0.99326056645E+03  0.10123964303E+04 -0.56623854510E+03  0.15271343049E+04  0.10100000352E+00 0. -1.
</event>
<event>
 5   0  0.4071750E-09  0.3800867E+04  0.7818609E-02  0.8045969E-01
       -1   -1    0    0    0  501  0.00000000000E+00  0.00000000000E+00  0.11653962246E+04  0.11653962246E+04  0.50400001928E-02 0.  1.
        1   -1    0    0  501    0  0.00000000000E+00  0.00000000000E+00 -0.30990720230E+04  0.30990720230E+04  0.50400001928E-02 0. -1.
    10030    2    1    2    0    0  0.00000000000E+00  0.00000000000E+00 -0.19336757985E+04  0.42644682476E+04  0.38008666566E+04 0.  0.
        2    1    3    3  502    0  0.45328427896E+03 -0.11215933190E+04  0.67761136640E+03  0.13865768549E+04  0.25500000920E-02 0.  1.
       -2    1    3    3    0  502 -0.45328427896E+03  0.11215933190E+04 -0.26112871649E+04  0.28778913927E+04  0.25500000920E-02 0. -1.
</event>
<event>
 5   0  0.4071750E-09  0.3795764E+04  0.7818609E-02  0.8047065E-01
       -1   -1    0    0    0  501  0.00000000000E+00  0.00000000000E+00  0.23201410672E+04  0.23201410672E+04  0.50400001928E-02 0. -1.
        1   -1    0    0  501    0  0.00000000000E+00  0.00000000000E+00 -0.15524726347E+04  0.15524726347E+04  0.50400001928E-02 0.  1.
    10030    2    1    2    0    0  0.00000000000E+00  0.00000000000E+00  0.76766843258E+03  0.38726137019E+04  0.37957636994E+04 0.  0.
        5    1    3    3  502    0 -0.66453365395E+03 -0.51133140076E+03  0.21209120488E+04  0.22806478877E+04  0.46999998093E+01 0. -1.
       -5    1    3    3    0  502  0.66453365395E+03  0.51133140076E+03 -0.13532436163E+04  0.15919658142E+04  0.46999998093E+01 0.  1.
</event>
<event>
 5   0  0.1293993E-08  0.3800385E+04  0.7818609E-02  0.8046072E-01
       -2   -1    0    0    0  501  0.00000000000E+00  0.00000000000E+00  0.13118455540E+04  0.13118455540E+04  0.25500000920E-02 0. -1.
        2   -1    0    0  501    0  0.00000000000E+00  0.00000000000E+00 -0.27524058347E+04  0.27524058347E+04  0.25500000920E-02 0.  1.
    10030    2    1    2    0    0  0.00000000000E+00  0.00000000000E+00 -0.14405602807E+04  0.40642513887E+04  0.38003849053E+04 0.  0.
        5    1    3    3  502    0 -0.42539685044E+03  0.17775474911E+04 -0.12760468387E+04  0.22291153376E+04  0.46999998093E+01 0.  1.
       -5    1    3    3    0  502  0.42539685044E+03 -0.17775474911E+04 -0.16451344202E+03  0.18351360512E+04  0.46999998093E+01 0. -1.
</event>
<event>
 5   0  0.4071750E-09  0.3800535E+04  0.7818609E-02  0.8046040E-01
        3   -1    0    0  501    0  0.00000000000E+00  0.00000000000E+00  0.22997580170E+04  0.22997580192E+04  0.10100000352E+00 0.  1.
       -3   -1    0    0    0  501  0.00000000000E+00  0.00000000000E+00 -0.15701722022E+04  0.15701722055E+04  0.10100000352E+00 0. -1.
    10030    2    1    2    0    0  0.00000000000E+00  0.00000000000E+00  0.72958581476E+03  0.38699302247E+04  0.38005347628E+04 0.  0.
        3    1    3    3  502    0 -0.55200612013E+01  0.89578383671E+03 -0.13416825370E+04  0.16132486459E+04  0.10100000352E+00 0. -1.
       -3    1    3    3    0  502  0.55200612013E+01 -0.89578383671E+03  0.20712683517E+04  0.22566815789E+04  0.10100000352E+00 0.  1.
</event>
<event>
 5   0  0.1327249E-08  0.3800595E+04  0.7818609E-02  0.8046027E-01
       -2   -1    0    0    0  501  0.00000000000E+00  0.00000000000E+00  0.12155139135E+04  0.12155139135E+04  0.25500000920E-02 0. -1.
        2   -1    0    0  501    0  0.00000000000E+00  0.00000000000E+00 -0.29708675988E+04  0.29708675988E+04  0.25500000920E-02 0.  1.
    10030    2    1    2    0    0  0.00000000000E+00  0.00000000000E+00 -0.17553536853E+04  0.41863815123E+04  0.38005951647E+04 0.  0.
        1    1    3    3  502    0 -0.14560265750E+04  0.48566505996E+03  0.35642722029E+03  0.15757297678E+04  0.50400001928E-02 0. -1.
       -1    1    3    3    0  502  0.14560265750E+04 -0.48566505996E+03 -0.21117809056E+04  0.26106517445E+04  0.50400001928E-02 0.  1.
</event>
<event>
 5   0  0.4071750E-09  0.3798546E+04  0.7818609E-02  0.8046467E-01
        1   -1    0    0  501    0  0.00000000000E+00  0.00000000000E+00  0.23315251171E+04  0.23315251171E+04  0.50400001928E-02 0. -1.
       -1   -1    0    0    0  501  0.00000000000E+00  0.00000000000E+00 -0.15471580724E+04  0.15471580724E+04  0.50400001928E-02 0.  1.
    10030    2    1    2    0    0  0.00000000000E+00  0.00000000000E+00  0.78436704478E+03  0.38786831895E+04  0.37985459881E+04 0.  0.
        1    1    3    3  502    0  0.11013963362E+04  0.61394213025E+03  0.18424426434E+04  0.22326203714E+04  0.50400001928E-02 0. -1.
       -1    1    3    3    0  502 -0.11013963362E+04 -0.61394213025E+03 -0.10580755986E+04  0.16460628181E+04  0.50400001928E-02 0.  1.
</event>
<event>
 5   0  0.1264013E-08  0.3799979E+04  0.7818609E-02  0.8046159E-01
       -2   -1    0    0    0  501  0.00000000000E+00  0.00000000000E+00  0.14513530982E+04  0.14513530982E+04  0.25500000920E-02 0.  1.
        2   -1    0    0  501    0  0.00000000000E+00  0.00000000000E+00 -0.24873066850E+04  0.24873066850E+04  0.25500000920E-02 0. -1.
    10030    2    1    2    0    0  0.00000000000E+00  0.00000000000E+00 -0.10359535868E+04  0.39386597833E+04  0.37999790861E+04 0.  0.
        4    1    3    3  502    0  0.74100231331E+03 -0.85339251953E+03 -0.21009988733E+04  0.23856992893E+04  0.12699999809E+01 0. -1.
       -4    1    3    3    0  502 -0.74100231331E+03  0.85339251953E+03  0.10650452865E+04  0.15529604940E+04  0.12699999809E+01 0.  1.
</event>
<event>
 5   0  0.1305088E-08  0.3799182E+04  0.7818609E-02  0.8046330E-01
       -2   -1    0    0    0  501  0.00000000000E+00  0.00000000000E+00  0.22832647756E+04  0.22832647756E+04  0.25500000920E-02 0.  1.
        2   -1    0    0  501    0  0.00000000000E+00  0.00000000000E+00 -0.15803885434E+04  0.15803885434E+04  0.25500000920E-02 0. -1.
    10030    2    1    2    0    0  0.00000000000E+00  0.00000000000E+00  0.70287623223E+03  0.38636533189E+04  0.37991817502E+04 0.  0.
        3    1    3    3  502    0 -0.10200026496E+04  0.15003574604E+04  0.92399085233E+03  0.20359855155E+04  0.10100000352E+00 0.  1.
       -3    1    3    3    0  502  0.10200026496E+04 -0.15003574604E+04 -0.22111462010E+03  0.18276678034E+04  0.10100000352E+00 0. -1.
</event>
<event>
 5   0  0.4071750E-09  0.3799711E+04  0.7818609E-02  0.8046217E-01
       -1   -1    0    0    0  501  0.00000000000E+00  0.00000000000E+00  0.20924186374E+04  0.20924186374E+04  0.50400001928E-02 0.  1.
        1   -1    0    0  501    0  0.00000000000E+00  0.00000000000E+00 -0.17250134945E+04  0.17250134945E+04  0.50400001928E-02 0. -1.
    10030    2    1    2    0    0  0.00000000000E+00  0.00000000000E+00  0.36740514288E+03  0.38174321319E+04  0.37997107183E+04 0.  0.
        3    1    3    3  502    0 -0.45033686466E+03 -0.17625454564E+03  0.20295469556E+04  0.20863676119E+04  0.10100000352E+00 0.  1.
       -3    1    3    3    0  502  0.45033686466E+03  0.17625454564E+03 -0.16621418128E+04  0.17310645200E+04  0.10100000352E+00 0. -1.
</event>
<event>
 5   0  0.4071750E-09  0.3799628E+04  0.7818609E-02  0.8046235E-01
        1   -1    0    0  501    0  0.00000000000E+00  0.00000000000E+00  0.26853874480E+04  0.26853874481E+04  0.50400001928E-02 0. -1.
       -1   -1    0    0    0  501  0.00000000000E+00  0.00000000000E+00 -0.13440493516E+04  0.13440493516E+04  0.50400001928E-02 0.  1.
    10030    2    1    2    0    0  0.00000000000E+00  0.00000000000E+00  0.13413380965E+04  0.40294367996E+04  0.37996280125E+04 0.  0.
        5    1    3    3  502    0  0.17792180002E+04  0.15924488599E+03 -0.15205813628E+02  0.17864011120E+04  0.46999998093E+01 0.  1.
       -5    1    3    3    0  502 -0.17792180002E+04 -0.15924488599E+03  0.13565439101E+04  0.22430356877E+04  0.46999998093E+01 0. -1.
</event>
<event>
 5   0  0.4071750E-09  0.3804410E+04  0.7818609E-02  0.8045209E-01
       -1   -1    0    0    0  501  0.00000000000E+00  0.00000000000E+00  0.31742659129E+04  0.31742659129E+04  0.50400001928E-02 0.  1.
        1   -1    0    0  501    0  0.00000000000E+00  0.00000000000E+00 -0.11399120262E+04  0.11399120262E+04  0.50400001928E-02 0. -1.
    10030    2    1    2    0    0  0.00000000000E+00  0.00000000000E+00  0.20343538867E+04  0.43141779392E+04  0.38044100140E+04 0.  0.
        4    1    3    3  502    0 -0.16579668420E+04  0.77928588879E+03  0.15978900634E+04  0.24309246828E+04  0.12699999809E+01 0. -1.
       -4    1    3    3    0  502  0.16579668420E+04 -0.77928588879E+03  0.43646382328E+03  0.18832532564E+04  0.12699999809E+01 0.  1.
</event>
<event>
 5   0  0.1305088E-08  0.3795764E+04  0.7818609E-02  0.8047064E-01
       -2   -1    0    0    0  501  0.00000000000E+00  0.00000000000E+00  0.25874224813E+04  0.25874224813E+04  0.25500000920E-02 0. -1.
        2   -1    0    0  501    0  0.00000000000E+00  0.00000000000E+00 -0.13921022378E+04  0.13921022378E+04  0.25500000920E-02 0.  1.
    10030    2    1    2    0    0  0.00000000000E+00  0.00000000000E+00  0.11953202435E+04  0.39795247192E+04  0.37957642848E+04 0.  0.
        3    1    3    3  502    0 -0.76745473633E+03  0.80894528926E+02  0.24155066917E+04  0.25357845502E+04  0.10100000352E+00 0. -1.
       -3    1    3    3    0  502  0.76745473633E+03 -0.80894528926E+02 -0.12201864482E+04  0.14437401690E+04  0.10100000352E+00 0.  1.
</event>
<event>
 5   0  0.1261152E-08  0.3808251E+04  0.7818609E-02  0.8044386E-01
       -2   -1    0    0    0  501  0.00000000000E+00  0.00000000000E+00  0.17087795424E+04  0.17087795424E+04  0.25500000920E-02 0.  1.
        2   -1    0    0  501    0  0.00000000000E+00  0.00000000000E+00 -0.21218035495E+04  0.21218035495E+04  0.25500000920E-02 0. -1.
    10030    2    1    2    0    0  0.00000000000E+00  0.00000000000E+00 -0.41302400702E+03  0.38305830919E+04  0.38082513039E+04 0.  0.
        2    1    3    3  502    0 -0.15350709265E+04 -0.62358821571E+03 -0.11503049161E+04  0.20170538942E+04  0.25500000920E-02 0. -1.
       -2    1    3    3    0  502  0.15350709265E+04  0.62358821571E+03  0.73728090910E+03  0.18135291977E+04  0.25500000920E-02 0.  1.
</event>
<event>
 5   0  0.1305088E-08  0.3826362E+04  0.7818609E-02  0.8040521E-01
        2   -1    0    0  501    0  0.00000000000E+00  0.00000000000E+00  0.17550289725E+04  0.17550289725E+04  0.25500000920E-02 0. -1.
       -2   -1    0    0    0  501  0.00000000000E+00  0.00000000000E+00 -0.20855846030E+04  0.20855846030E+04  0.25500000920E-02 0.  1.
    10030    2    1    2    0    0  0.00000000000E+00  0.00000000000E+00 -0.33055563053E+03  0.38406135756E+04  0.38263619290E+04 0.  0.
        3    1    3    3  502    0  0.14060075226E+04  0.95982099359E+03  0.71098462038E+03  0.18448882443E+04  0.10100000352E+00 0. -1.
       -3    1    3    3    0  502 -0.14060075226E+04 -0.95982099359E+03 -0.10415402509E+04  0.19957253313E+04  0.10100000352E+00 0.  1.
</event>
<event>
 5   0  0.1261152E-08  0.3798648E+04  0.7818609E-02  0.8046445E-01
       -2   -1    0    0    0  501  0.00000000000E+00  0.00000000000E+00  0.24278463209E+04  0.24278463209E+04  0.25500000920E-02 0. -1.
        2   -1    0    0  501    0  0.00000000000E+00  0.00000000000E+00 -0.14858564029E+04  0.14858564029E+04  0.25500000920E-02 0.  1.
    10030    2    1    2    0    0  0.00000000000E+00  0.00000000000E+00  0.94198991809E+03  0.39137027238E+04  0.37986476547E+04 0.  0.
        2    1    3    3  502    0 -0.15969434476E+03  0.10316362441E+04 -0.11637761863E+04  0.15633779568E+04  0.25500000920E-02 0.  1.
       -2    1    3    3    0  502  0.15969434476E+03 -0.10316362441E+04  0.21057661044E+04  0.23503247670E+04  0.25500000920E-02 0. -1.
</event>
<event>
 5   0  0.1305088E-08  0.3805724E+04  0.7818609E-02  0.8044928E-01
        2   -1    0    0  501    0  0.00000000000E+00  0.00000000000E+00  0.17350930434E+04  0.17350930434E+04  0.25500000920E-02 0. -1.
       -2   -1    0    0    0  501  0.00000000000E+00  0.00000000000E+00 -0.20868522802E+04  0.20868522802E+04  0.25500000920E-02 0.  1.
    10030    2    1    2    0    0  0.00000000000E+00  0.00000000000E+00 -0.35175923679E+03  0.38219453236E+04  0.38057235181E+04 0.  0.
        3    1    3    3  502    0 -0.24158024591E+03  0.10194956451E+04 -0.17710931018E+04  0.20577908473E+04  0.10100000352E+00 0.  1.
       -3    1    3    3    0  502  0.24158024591E+03 -0.10194956451E+04  0.14193338651E+04  0.17641544763E+04  0.10100000352E+00 0. -1.
</event>
<event>
 5   0  0.1293993E-08  0.3799076E+04  0.7818609E-02  0.8046353E-01
        2   -1    0    0  501    0  0.00000000000E+00  0.00000000000E+00  0.20295219279E+04  0.20295219279E+04  0.25500000920E-02 0. -1.
       -2   -1    0    0    0  501  0.00000000000E+00  0.00000000000E+00 -0.17778791538E+04  0.17778791538E+04  0.25500000920E-02 0.  1.
    10030    2    1    2    0    0  0.00000000000E+00  0.00000000000E+00  0.25164277407E+03  0.38074010816E+04  0.37990760601E+04 0.  0.
        5    1    3    3  502    0 -0.15070431512E+04  0.59565977703E+03  0.11190698525E+04  0.19693473676E+04  0.46999998093E+01 0. -1.
       -5    1    3    3    0  502  0.15070431512E+04 -0.59565977703E+03 -0.86742707841E+03  0.18380537141E+04  0.46999998093E+01 0.  1.
</event>
<event>
 5   0  0.1264013E-08  0.3799211E+04  0.7818609E-02  0.8046324E-01
       -2   -1    0    0    0  501  0.00000000000E+00  0.00000000000E+00  0.24689594266E+04  0.24689594266E+04  0.25500000920E-02 0. -1.
        2   -1    0    0  501    0  0.00000000000E+00  0.00000000000E+00 -0.14615476850E+04  0.14615476850E+04  0.25500000920E-02 0.  1.
    10030    2    1    2    0    0  0.00000000000E+00  0.00000000000E+00  0.10074117416E+04  0.39305071116E+04  0.37992114626E+04 0.  0.
        4    1    3    3  502    0 -0.42553110777E+03 -0.16851295162E+04 -0.28944519648E+03  0.17619643427E+04  0.12699999809E+01 0.  1.
       -4    1    3    3    0  502  0.42553110777E+03  0.16851295162E+04  0.12968569381E+04  0.21685427690E+04  0.12699999809E+01 0. -1.
</event>
<event>
 5   0  0.1264013E-08  0.3800764E+04  0.7818609E-02  0.8045991E-01
        2   -1    0    0  501    0  0.00000000000E+00  0.00000000000E+00  0.15644468694E+04  0.15644468694E+04  0.25500000920E-02 0. -1.
       -2   -1    0    0    0  501  0.00000000000E+00  0.00000000000E+00 -0.23084528626E+04  0.23084528626E+04  0.25500000920E-02 0.  1.
    10030    2    1    2    0    0  0.00000000000E+00  0.00000000000E+00 -0.74400599320E+03  0.38728997320E+04  0.38007640569E+04 0.  0.
        4    1    3    3  502    0 -0.84166204951E+03 -0.16162813039E+04  0.17738652962E+03  0.18309090236E+04  0.12699999809E+01 0. -1.
       -4    1    3    3    0  502  0.84166204951E+03  0.16162813039E+04 -0.92139252282E+03  0.20419907083E+04  0.12699999809E+01 0.  1.
</event>
<event>
 5   0  0.4071750E-09  0.3799945E+04  0.7818609E-02  0.8046167E-01
       -1   -1    0    0    0  501  0.00000000000E+00  0.00000000000E+00  0.15375074951E+04  0.15375074951E+04  0.50400001928E-02 0. -1.
        1   -1    0    0  501    0  0.00000000000E+00  0.00000000000E+00 -0.23478882455E+04  0.23478882455E+04  0.50400001928E-02 0.  1.
    10030    2    1    2    0    0  0.00000000000E+00  0.00000000000E+00 -0.81038075048E+03  0.38853957406E+04  0.37999451444E+04 0.  0.
        1    1    3    3  502    0 -0.86300187771E+03 -0.15025218224E+03 -0.21290893920E+04  0.23022531569E+04  0.50400001928E-02 0.  1.
       -1    1    3    3    0  502  0.86300187771E+03  0.15025218224E+03  0.13187086415E+04  0.15831425837E+04  0.50400001928E-02 0. -1.
</event>
<event>
 5   0  0.1261152E-08  0.3802471E+04  0.7818609E-02  0.8045625E-01
       -2   -1    0    0    0  501  0.00000000000E+00  0.00000000000E+00  0.21872303537E+04  0.21872303537E+04  0.25500000920E-02 0. -1.
        2   -1    0    0  501    0  0.00000000000E+00  0.00000000000E+00 -0.16526364284E+04  0.16526364284E+04  0.25500000920E-02 0.  1.
    10030    2    1    2    0    0  0.00000000000E+00  0.00000000000E+00  0.53459392536E+03  0.38398667821E+04  0.38024710701E+04 0.  0.
        2    1    3    3  502    0 -0.16320685445E+04  0.60279166043E+03 -0.50685242337E+03  0.18121547668E+04  0.25500000920E-02 0.  1.
       -2    1    3    3    0  502  0.16320685445E+04 -0.60279166043E+03  0.10414463487E+04  0.20277120153E+04  0.25500000920E-02 0. -1.
</event>
<event>
 5   0  0.4071750E-09  0.3800596E+04  0.7818609E-02  0.8046027E-01
       -1   -1    0    0    0  501  0.00000000000E+00  0.00000000000E+00  0.23100212636E+04  0.23100212636E+04  0.50400001928E-02 0.  1.
        1   -1    0    0  501    0  0.00000000000E+00  0.00000000000E+00 -0.15632461697E+04  0.15632461697E+04  0.50400001928E-02 0. -1.
    10030    2    1    2    0    0  0.00000000000E+00  0.00000000000E+00  0.74677509384E+03  0.38732674333E+04  0.38005956861E+04 0.  0.
        5    1    3    3  502    0 -0.54876262107E+03  0.13420204178E+04 -0.87849424331E+03  0.16952679557E+04  0.46999998093E+01 0. -1.
       -5    1    3    3    0  502  0.54876262107E+03 -0.13420204178E+04  0.16252693372E+04  0.21779994776E+04  0.46999998093E+01 0.  1.
</event>
<event>
 5   0  0.4071750E-09  0.3800632E+04  0.7818609E-02  0.8046019E-01
       -1   -1    0    0    0  501  0.00000000000E+00  0.00000000000E+00  0.20143860554E+04  0.20143860554E+04  0.50400001928E-02 0.  1.
        1   -1    0    0  501    0  0.00000000000E+00  0.00000000000E+00 -0.17927050810E+04  0.17927050810E+04  0.50400001928E-02 0. -1.
    10030    2    1    2    0    0  0.00000000000E+00  0.00000000000E+00  0.22168097441E+03  0.38070911364E+04  0.38006315878E+04 0.  0.
        1    1    3    3  502    0 -0.95314949549E+03 -0.26519120255E+03  0.17360590462E+04  0.19981795081E+04  0.50400001928E-02 0.  1.
       -1    1    3    3    0  502  0.95314949549E+03  0.26519120255E+03 -0.15143780718E+04  0.18089116283E+04  0.50400001928E-02 0. -1.
</event>
<event>
 5   0  0.4071750E-09  0.3800294E+04  0.7818609E-02  0.8046092E-01
        1   -1    0    0  501    0  0.00000000000E+00  0.00000000000E+00  0.22445989726E+04  0.22445989726E+04  0.50400001928E-02 0.  1.
       -1   -1    0    0    0  501  0.00000000000E+00  0.00000000000E+00 -0.16085538604E+04  0.16085538604E+04  0.50400001928E-02 0. -1.
    10030    2    1    2    0    0  0.00000000000E+00  0.00000000000E+00  0.63604511224E+03  0.38531528330E+04  0.38002938530E+04 0.  0.
        5    1    3    3  502    0  0.11272061618E+04 -0.95859766418E+03  0.15266741912E+04  0.21260901649E+04  0.46999998093E+01 0.  1.
       -5    1    3    3    0  502 -0.11272061618E+04  0.95859766418E+03 -0.89062907899E+03  0.17270626681E+04  0.46999998093E+01 0. -1.
</event>
<event>
 5   0  0.1327249E-08  0.3801298E+04  0.7818609E-02  0.8045876E-01
        2   -1    0    0  501    0  0.00000000000E+00  0.00000000000E+00  0.26409128149E+04  0.26409128149E+04  0.25500000920E-02 0. -1.
       -2   -1    0    0    0  501  0.00000000000E+00  0.00000000000E+00 -0.13678852989E+04  0.13678852989E+04  0.25500000920E-02 0.  1.
    10030    2    1    2    0    0  0.00000000000E+00  0.00000000000E+00  0.12730275159E+04  0.40087981138E+04  0.38012975760E+04 0.  0.
        1    1    3    3  502    0 -0.28214766706E+03  0.93016591464E+03  0.23589641844E+04  0.25513776588E+04  0.50400001928E-02 0. -1.
       -1    1    3    3    0  502  0.28214766706E+03 -0.93016591464E+03 -0.10859366684E+04  0.14574204550E+04  0.50400001928E-02 0.  1.
</event>
<event>
 5   0  0.1305088E-08  0.3803798E+04  0.7818609E-02  0.8045340E-01
       -2   -1    0    0    0  501  0.00000000000E+00  0.00000000000E+00  0.12932712316E+04  0.12932712316E+04  0.25500000920E-02 0.  1.
        2   -1    0    0  501    0  0.00000000000E+00  0.00000000000E+00 -0.27969539104E+04  0.27969539104E+04  0.25500000920E-02 0. -1.
    10030    2    1    2    0    0  0.00000000000E+00  0.00000000000E+00 -0.15036826787E+04  0.40902251420E+04  0.38037981169E+04 0.  0.
        3    1    3    3  502    0 -0.16065727152E+04 -0.43609274227E+02 -0.18453970570E+04  0.24471346440E+04  0.10100000352E+00 0. -1.
       -3    1    3    3    0  502  0.16065727152E+04  0.43609274227E+02  0.34171437825E+03  0.16430904979E+04  0.10100000352E+00 0.  1.
</event>
<event>
 5   0  0.1293993E-08  0.3800000E+04  0.7818609E-02  0.8046155E-01
       -2   -1    0    0    0  501  0.00000000000E+00  0.00000000000E+00  0.15256367929E+04  0.15256367929E+04  0.25500000920E-02 0.  1.
        2   -1    0    0  501    0  0.00000000000E+00  0.00000000000E+00 -0.23662246011E+04  0.23662246011E+04  0.25500000920E-02 0. -1.
    10030    2    1    2    0    0  0.00000000000E+00  0.00000000000E+00 -0.84058780827E+03  0.38918613940E+04  0.37999996377E+04 0.  0.
        5    1    3    3  502    0 -0.14041534807E+03  0.24295328275E+03 -0.23448788578E+04  0.23616142181E+04  0.46999998093E+01 0. -1.
       -5    1    3    3    0  502  0.14041534807E+03 -0.24295328275E+03  0.15042910495E+04  0.15302471759E+04  0.46999998093E+01 0.  1.
</event>
<event>
 5   0  0.4071750E-09  0.3798100E+04  0.7818609E-02  0.8046563E-01
        1   -1    0    0  501    0  0.00000000000E+00  0.00000000000E+00  0.25877530877E+04  0.25877530877E+04  0.50400001928E-02 0.  1.
       -1   -1    0    0    0  501  0.00000000000E+00  0.00000000000E+00 -0.13936381238E+04  0.13936381238E+04  0.50400001928E-02 0. -1.
    10030    2    1    2    0    0  0.00000000000E+00  0.00000000000E+00  0.11941149639E+04  0.39813912116E+04  0.37981002399E+04 0.  0.
        5    1    3    3  502    0  0.24993760848E+03  0.16120669486E+04  0.16161571114E+04  0.22963480907E+04  0.46999998093E+01 0.  1.
       -5    1    3    3    0  502 -0.24993760848E+03 -0.16120669486E+04 -0.42204214752E+03  0.16850431208E+04  0.46999998093E+01 0. -1.
</event>
<event>
 5   0  0.1305088E-08  0.3799416E+04  0.7818609E-02  0.8046280E-01
        2   -1    0    0  501    0  0.00000000000E+00  0.00000000000E+00  0.22052827555E+04  0.22052827555E+04  0.25500000920E-02 0.  1.
       -2   -1    0    0    0  501  0.00000000000E+00  0.00000000000E+00 -0.16364748586E+04  0.16364748586E+04  0.25500000920E-02 0. -1.
    10030    2    1    2    0    0  0.00000000000E+00  0.00000000000E+00  0.56880789687E+03  0.38417576142E+04  0.37994156317E+04 0.  0.
        3    1    3    3  502    0  0.14711843810E+04 -0.28793607847E+03  0.14642837989E+04  0.20955709776E+04  0.10100000352E+00 0.  1.
       -3    1    3    3    0  502 -0.14711843810E+04  0.28793607847E+03 -0.89547590204E+03  0.17461866365E+04  0.10100000352E+00 0. -1.
</event>
<event>
 5   0  0.1264013E-08  0.3800351E+04  0.7818609E-02  0.8046080E-01
        2   -1    0    0  501    0  0.00000000000E+00  0.00000000000E+00  0.23436422091E+04  0.23436422091E+04  0.25500000920E-02 0.  1.
       -2   -1    0    0    0  501  0.00000000000E+00  0.00000000000E+00 -0.15406220136E+04  0.15406220136E+04  0.25500000920E-02 0. -1.
    10030    2    1    2    0    0  0.00000000000E+00  0.00000000000E+00  0.80302019549E+03  0.38842642227E+04  0.38003509203E+04 0.  0.
        4    1    3    3  502    0 -0.99461220875E+03 -0.10068819530E+04 -0.89439776196E+03  0.16742203208E+04  0.12699999809E+01 0. -1.
       -4    1    3    3    0  502  0.99461220875E+03  0.10068819530E+04  0.16974179575E+04  0.22100439019E+04  0.12699999809E+01 0.  1.
</event>
<event>
 5   0  0.1293993E-08  0.3798200E+04  0.7818609E-02  0.8046541E-01
        2   -1    0    0  501    0  0.00000000000E+00  0.00000000000E+00  0.12598112126E+04  0.12598112126E+04  0.25500000920E-02 0.  1.
       -2   -1    0    0    0  501  0.00000000000E+00  0.00000000000E+00 -0.28627940571E+04  0.28627940571E+04  0.25500000920E-02 0. -1.
    10030    2    1    2    0    0  0.00000000000E+00  0.00000000000E+00 -0.16029828444E+04  0.41226052697E+04  0.37981996012E+04 0.  0.
        5    1    3    3  502    0  0.42498633207E+03  0.16633826577E+04 -0.16826833705E+04  0.24039344134E+04  0.46999998093E+01 0. -1.
       -5    1    3    3    0  502 -0.42498633207E+03 -0.16633826577E+04  0.79700526072E+02  0.17186708563E+04  0.46999998093E+01 0.  1.
</event>
<event>
 5   0  0.4071750E-09  0.3797208E+04  0.7818609E-02  0.8046754E-01
       -1   -1    0    0    0  501  0.00000000000E+00  0.00000000000E+00  0.15760612658E+04  0.15760612658E+04  0.50400001928E-02 0. -1.
        1   -1    0    0  501    0  0.00000000000E+00  0.00000000000E+00 -0.22871556984E+04  0.22871556984E+04  0.50400001928E-02 0.  1.
    10030    2    1    2    0    0  0.00000000000E+00  0.00000000000E+00 -0.71109443265E+03  0.38632169642E+04  0.37972081877E+04 0.  0.
        5    1    3    3  502    0  0.13759123113E+04  0.23710852994E+03  0.95341077134E+03  0.16906712668E+04  0.46999998093E+01 0. -1.
       -5    1    3    3    0  502 -0.13759123113E+04 -0.23710852994E+03 -0.16645052040E+04  0.21725456975E+04  0.46999998093E+01 0.  1.
</event>
<event>
 5   0  0.1305088E-08  0.3802707E+04  0.7818609E-02  0.8045574E-01
        2   -1    0    0  501    0  0.00000000000E+00  0.00000000000E+00  0.16019064586E+04  0.16019064586E+04  0.25500000920E-02 0. -1.
       -2   -1    0    0    0  501  0.00000000000E+00  0.00000000000E+00 -0.22567771021E+04  0.22567771021E+04  0.25500000920E-02 0.  1.
    10030    2    1    2    0    0  0.00000000000E+00  0.00000000000E+00 -0.65487064355E+03  0.38586835607E+04  0.38027073595E+04 0.  0.
        3    1    3    3  502    0  0.14782608358E+04 -0.11851180580E+04 -0.16576045892E+03  0.19019033756E+04  0.10100000352E+00 0. -1.
       -3    1    3    3    0  502 -0.14782608358E+04  0.11851180580E+04 -0.48911018463E+03  0.19567801851E+04  0.10100000352E+00 0.  1.
</event>
<event>
 5   0  0.1327249E-08  0.3799366E+04  0.7818609E-02  0.8046291E-01
       -2   -1    0    0    0  501  0.00000000000E+00  0.00000000000E+00  0.16449839252E+04  0.16449839252E+04  0.25500000920E-02 0. -1.
        2   -1    0    0  501    0  0.00000000000E+00  0.00000000000E+00 -0.21938178098E+04  0.21938178098E+04  0.25500000920E-02 0.  1.
    10030    2    1    2    0    0  0.00000000000E+00  0.00000000000E+00 -0.54883388464E+03  0.38388017350E+04  0.37993657533E+04 0.  0.
        1    1    3    3  502    0 -0.62315704609E+03  0.17894326268E+04 -0.41147597857E+03  0.19389962122E+04  0.50400001928E-02 0. -1.
       -1    1    3    3    0  502  0.62315704609E+03 -0.17894326268E+04 -0.13735790607E+03  0.18998055228E+04  0.50400001928E-02 0.  1.
</event>
<event>
 5   0  0.1264013E-08  0.3800289E+04  0.7818609E-02  0.8046093E-01
       -2   -1    0    0    0  501  0.00000000000E+00  0.00000000000E+00  0.17290687661E+04  0.17290687661E+04  0.25500000920E-02 0. -1.
        2   -1    0    0  501    0  0.00000000000E+00  0.00000000000E+00 -0.20881469103E+04  0.20881469103E+04  0.25500000920E-02 0.  1.
    10030    2    1    2    0    0  0.00000000000E+00  0.00000000000E+00 -0.35907814421E+03  0.38172156763E+04  0.38002892529E+04 0.  0.
        4    1    3    3  502    0  0.14169783685E+04 -0.32125233323E+03 -0.14095409525E+04  0.20243117517E+04  0.12699999809E+01 0.  1.
       -4    1    3    3    0  502 -0.14169783685E+04  0.32125233323E+03  0.10504628083E+04  0.17929039246E+04  0.12699999809E+01 0. -1.
</event>
<event>
 5   0  0.1327249E-08  0.3797604E+04  0.7818609E-02  0.8046669E-01
        2   -1    0    0  501    0  0.00000000000E+00  0.00000000000E+00  0.11078690574E+04  0.11078690574E+04  0.25500000920E-02 0. -1.
       -2   -1    0    0    0  501  0.00000000000E+00  0.00000000000E+00 -0.32544004166E+04  0.32544004166E+04  0.25500000920E-02 0.  1.
    10030    2    1    2    0    0  0.00000000000E+00  0.00000000000E+00 -0.21465313592E+04  0.43622694739E+04  0.37976042563E+04 0.  0.
        1    1    3    3  502    0  0.92021071737E+02 -0.36402088780E+03 -0.32113322074E+04  0.32332079474E+04  0.50400001928E-02 0.  1.
       -1    1    3    3    0  502 -0.92021071737E+02  0.36402088780E+03  0.10648008482E+04  0.11290615266E+04  0.50400001928E-02 0. -1.
</event>
<event>
 5   0  0.1305088E-08  0.3798786E+04  0.7818609E-02  0.8046415E-01
       -2   -1    0    0    0  501  0.00000000000E+00  0.00000000000E+00  0.18098739144E+04  0.18098739144E+04  0.25500000920E-02 0.  1.
        2   -1    0    0  501    0  0.00000000000E+00  0.00000000000E+00 -0.19933400982E+04  0.19933400982E+04  0.25500000920E-02 0. -1.
    10030    2    1    2    0    0  0.00000000000E+00  0.00000000000E+00 -0.18346618389E+03  0.38032140126E+04  0.37987862515E+04 0.  0.
        3    1    3    3  502    0 -0.18016439313E+04 -0.41634231355E+03 -0.52632713029E+03  0.19225717244E+04  0.10100000352E+00 0.  1.
       -3    1    3    3    0  502  0.18016439313E+04  0.41634231355E+03  0.34286094640E+03  0.18806422882E+04  0.10100000352E+00 0. -1.
</event>
<event>
 5   0  0.1261152E-08  0.3801661E+04  0.7818609E-02  0.8045799E-01
       -2   -1    0    0    0  501  0.00000000000E+00  0.00000000000E+00  0.24027851959E+04  0.24027851959E+04  0.25500000920E-02 0. -1.
        2   -1    0    0  501    0  0.00000000000E+00  0.00000000000E+00 -0.15037364745E+04  0.15037364745E+04  0.25500000920E-02 0.  1.
    10030    2    1    2    0    0  0.00000000000E+00  0.00000000000E+00  0.89904872142E+03  0.39065216704E+04  0.38016605526E+04 0.  0.
        2    1    3    3  502    0  0.11920354656E+04 -0.89537540464E+03  0.16612490893E+04  0.22321277301E+04  0.25500000920E-02 0. -1.
       -2    1    3    3    0  502 -0.11920354656E+04  0.89537540464E+03 -0.76220036792E+03  0.16743939403E+04  0.25500000920E-02 0.  1.
</event>
<event>
 5   0  0.1327249E-08  0.3802086E+04  0.7818609E-02  0.8045707E-01
       -2   -1    0    0    0  501  0.00000000000E+00  0.00000000000E+00  0.11417045222E+04  0.11417045222E+04  0.25500000920E-02 0.  1.
        2   -1    0    0  501    0  0.00000000000E+00  0.00000000000E+00 -0.31654121998E+04  0.31654121998E+04  0.25500000920E-02 0. -1.
    10030    2    1    2    0    0  0.00000000000E+00  0.00000000000E+00 -0.20237076776E+04  0.43071167220E+04  0.38020864919E+04 0.  0.
        1    1    3    3  502    0  0.12586312235E+04  0.94393867255E+03  0.19703669391E+03  0.15855586502E+04  0.50400001928E-02 0.  1.
       -1    1    3    3    0  502 -0.12586312235E+04 -0.94393867255E+03 -0.22207443715E+04  0.27215580718E+04  0.50400001928E-02 0. -1.
</event>
<event>
 5   0  0.1261152E-08  0.3795826E+04  0.7818609E-02  0.8047051E-01
        2   -1    0    0  501    0  0.00000000000E+00  0.00000000000E+00  0.19853100874E+04  0.19853100874E+04  0.25500000920E-02 0. -1.
       -2   -1    0    0    0  501  0.00000000000E+00  0.00000000000E+00 -0.18143634060E+04  0.18143634060E+04  0.25500000920E-02 0.  1.
    10030    2    1    2    0    0  0.00000000000E+00  0.00000000000E+00  0.17094668143E+03  0.37996734934E+04  0.37958261141E+04 0.  0.
        2    1    3    3  502    0  0.83120233348E+02 -0.10143385037E+04  0.16890591065E+04  0.19719818048E+04  0.25500000920E-02 0. -1.
       -2    1    3    3    0  502 -0.83120233348E+02  0.10143385037E+04 -0.15181124250E+04  0.18276916886E+04  0.25500000920E-02 0.  1.
</event>
<event>
 5   0  0.4071750E-09  0.3798562E+04  0.7818609E-02  0.8046464E-01
       -1   -1    0    0    0  501  0.00000000000E+00  0.00000000000E+00  0.24054215483E+04  0.24054215483E+04  0.50400001928E-02 0.  1.
        1   -1    0    0  501    0  0.00000000000E+00  0.00000000000E+00 -0.14996408533E+04  0.14996408534E+04  0.50400001928E-02 0. -1.
    10030    2    1    2    0    0  0.00000000000E+00  0.00000000000E+00  0.90578069500E+03  0.39050624017E+04  0.37985620561E+04 0.  0.
        1    1    3    3  502    0  0.32954587674E+03  0.18610358279E+04  0.64580440628E+03  0.19972776894E+04  0.50400001928E-02 0.  1.
       -1    1    3    3    0  502 -0.32954587674E+03 -0.18610358279E+04  0.25997628872E+03  0.19077847123E+04  0.50400001928E-02 0. -1.
</event>
<event>
 5   0  0.4071750E-09  0.3799556E+04  0.7818609E-02  0.8046250E-01
       -1   -1    0    0    0  501  0.00000000000E+00  0.00000000000E+00  0.29149040073E+04  0.29149040073E+04  0.50400001928E-02 0. -1.
        1   -1    0    0  501    0  0.00000000000E+00  0.00000000000E+00 -0.12381735363E+04  0.12381735363E+04  0.50400001928E-02 0.  1.
    10030    2    1    2    0    0  0.00000000000E+00  0.00000000000E+00  0.16767304710E+04  0.41530775436E+04  0.37995562913E+04 0.  0.
        2    1    3    3  502    0 -0.10015753192E+04  0.90111621010E+03  0.23023871735E+04  0.26676113361E+04  0.25500000920E-02 0. -1.
       -2    1    3    3    0  502  0.10015753192E+04 -0.90111621010E+03 -0.62565670250E+03  0.14854662075E+04  0.25500000920E-02 0.  1.
</event>
<event>
 5   0  0.4071750E-09  0.3801543E+04  0.7818609E-02  0.8045824E-01
       -1   -1    0    0    0  501  0.00000000000E+00  0.00000000000E+00  0.18554025548E+04  0.18554025548E+04  0.50400001928E-02 0. -1.
        1   -1    0    0  501    0  0.00000000000E+00  0.00000000000E+00 -0.19472502659E+04  0.19472502659E+04  0.50400001928E-02 0.  1.
    10030    2    1    2    0    0  0.00000000000E+00  0.00000000000E+00 -0.91847711117E+02  0.38026528207E+04  0.38015434330E+04 0.  0.
        4    1    3    3  502    0  0.83396196272E+03 -0.28743821746E+03 -0.17301070427E+04  0.19420054779E+04  0.12699999809E+01 0.  1.
       -4    1    3    3    0  502 -0.83396196272E+03  0.28743821746E+03  0.16382593316E+04  0.18606473429E+04  0.12699999809E+01 0. -1.
</event>
<event>
 5   0  0.4071750E-09  0.3800955E+04  0.7818609E-02  0.8045950E-01
        3   -1    0    0  501    0  0.00000000000E+00  0.00000000000E+00  0.33315034266E+04  0.33315034281E+04  0.10100000352E+00 0. -1.
       -3   -1    0    0    0  501  0.00000000000E+00  0.00000000000E+00 -0.10841396818E+04  0.10841396865E+04  0.10100000352E+00 0.  1.
    10030    2    1    2    0    0  0.00000000000E+00  0.00000000000E+00  0.22473637448E+04  0.44156431147E+04  0.38009551845E+04 0.  0.
        4    1    3    3  502    0  0.55472543139E+03  0.37616334394E+03  0.31896468644E+04  0.32593048182E+04  0.12699999809E+01 0. -1.
       -4    1    3    3    0  502 -0.55472543139E+03 -0.37616334394E+03 -0.94228311958E+03  0.11563382965E+04  0.12699999809E+01 0.  1.
</event>
<event>
 5   0  0.1305088E-08  0.3798655E+04  0.7818609E-02  0.8046444E-01
       -2   -1    0    0    0  501  0.00000000000E+00  0.00000000000E+00  0.14361217875E+04  0.14361217875E+04  0.25500000920E-02 0.  1.
        2   -1    0    0  501    0  0.00000000000E+00  0.00000000000E+00 -0.25119355744E+04  0.25119355744E+04  0.25500000920E-02 0. -1.
    10030    2    1    2    0    0  0.00000000000E+00  0.00000000000E+00 -0.10758137869E+04  0.39480573619E+04  0.37986552396E+04 0.  0.
        3    1    3    3  502    0  0.25155814243E+03 -0.38784365946E+03  0.13767587066E+04  0.14522977483E+04  0.10100000352E+00 0.  1.
       -3    1    3    3    0  502 -0.25155814243E+03  0.38784365946E+03 -0.24525724935E+04  0.24957596136E+04  0.10100000352E+00 0. -1.
</event>
<event>
 5   0  0.1305088E-08  0.3809800E+04  0.7818609E-02  0.8044055E-01
        2   -1    0    0  501    0  0.00000000000E+00  0.00000000000E+00  0.23704016479E+04  0.23704016479E+04  0.25500000920E-02 0.  1.
       -2   -1    0    0    0  501  0.00000000000E+00  0.00000000000E+00 -0.15308140476E+04  0.15308140476E+04  0.25500000920E-02 0. -1.
    10030    2    1    2    0    0  0.00000000000E+00  0.00000000000E+00  0.83958760027E+03  0.39012156956E+04  0.38098000689E+04 0.  0.
        3    1    3    3  502    0  0.11120370098E+04 -0.57880855784E+03 -0.10488442036E+04  0.16345396389E+04  0.10100000352E+00 0. -1.
       -3    1    3    3    0  502 -0.11120370098E+04  0.57880855784E+03  0.18884318038E+04  0.22666760566E+04  0.10100000352E+00 0.  1.
</event>
<event>
 5   0  0.4071750E-09  0.3801225E+04  0.7818609E-02  0.8045892E-01
        1   -1    0    0  501    0  0.00000000000E+00  0.00000000000E+00  0.17827922551E+04  0.17827922551E+04  0.50400001928E-02 0. -1.
       -1   -1    0    0    0  501  0.00000000000E+00  0.00000000000E+00 -0.20262195239E+04  0.20262195239E+04  0.50400001928E-02 0.  1.
    10030    2    1    2    0    0  0.00000000000E+00  0.00000000000E+00 -0.24342726881E+03  0.38090117791E+04  0.38012253153E+04 0.  0.
        3    1    3    3  502    0 -0.92205545216E+03 -0.12475654728E+04 -0.12220169032E+04  0.19748243435E+04  0.10100000352E+00 0.  1.
       -3    1    3    3    0  502  0.92205545216E+03  0.12475654728E+04  0.97858963440E+03  0.18341874355E+04  0.10100000352E+00 0. -1.
</event>
<event>
 5   0  0.4071750E-09  0.3799194E+04  0.7818609E-02  0.8046328E-01
        1   -1    0    0  501    0  0.00000000000E+00  0.00000000000E+00  0.12025214704E+04  0.12025214704E+04  0.50400001928E-02 0.  1.
       -1   -1    0    0    0  501  0.00000000000E+00  0.00000000000E+00 -0.30007518178E+04  0.30007518178E+04  0.50400001928E-02 0. -1.
    10030    2    1    2    0    0  0.00000000000E+00  0.00000000000E+00 -0.17982303475E+04  0.42032732882E+04  0.37991938557E+04 0.  0.
        4    1    3    3  502    0  0.90445613625E+02  0.15205431599E+04 -0.21548377863E+04  0.26388557006E+04  0.12699999809E+01 0. -1.
       -4    1    3    3    0  502 -0.90445613625E+02 -0.15205431599E+04  0.35660743887E+03  0.15644175877E+04  0.12699999809E+01 0.  1.
</event>
<event>
 5   0  0.4071750E-09  0.3799010E+04  0.7818609E-02  0.8046367E-01
        3   -1    0    0  501    0  0.00000000000E+00  0.00000000000E+00  0.17962680673E+04  0.17962680701E+04  0.10100000352E+00 0. -1.
       -3   -1    0    0    0  501  0.00000000000E+00  0.00000000000E+00 -0.20086748246E+04  0.20086748271E+04  0.10100000352E+00 0.  1.
    10030    2    1    2    0    0  0.00000000000E+00  0.00000000000E+00 -0.21240675732E+03  0.38049428972E+04  0.37990095842E+04 0.  0.
        2    1    3    3  502    0 -0.65738322565E+03  0.37626813020E+03 -0.18508734598E+04  0.19998657393E+04  0.25500000920E-02 0.  1.
       -2    1    3    3    0  502  0.65738322565E+03 -0.37626813020E+03  0.16384667024E+04  0.18050771580E+04  0.25500000920E-02 0. -1.
</event>
<event>
 5   0  0.1264013E-08  0.3800333E+04  0.7818609E-02  0.8046084E-01
       -2   -1    0    0    0  501  0.00000000000E+00  0.00000000000E+00  0.32287183149E+04  0.32287183149E+04  0.25500000920E-02 0. -1.
        2   -1    0    0  501    0  0.00000000000E+00  0.00000000000E+00 -0.11182864068E+04  0.11182864068E+04  0.25500000920E-02 0.  1.
    10030    2    1    2    0    0  0.00000000000E+00  0.00000000000E+00  0.21104319082E+04  0.43470047217E+04  0.38003325133E+04 0.  0.
        4    1    3    3  502    0  0.55826686237E+03  0.16905469807E+04  0.29559442254E+03  0.18047129021E+04  0.12699999809E+01 0.  1.
       -4    1    3    3    0  502 -0.55826686237E+03 -0.16905469807E+04  0.18148374856E+04  0.25422918196E+04  0.12699999809E+01 0. -1.
</event>
<event>
 5   0  0.1264013E-08  0.3800916E+04  0.7818609E-02  0.8045958E-01
        2   -1    0    0  501    0  0.00000000000E+00  0.00000000000E+00  0.31356916067E+04  0.31356916067E+04  0.25500000920E-02 0. -1.
       -2   -1    0    0    0  501  0.00000000000E+00  0.00000000000E+00 -0.11518162758E+04  0.11518162759E+04  0.25500000920E-02 0.  1.
    10030    2    1    2    0    0  0.00000000000E+00  0.00000000000E+00  0.19838753309E+04  0.42875078826E+04  0.38009160099E+04 0.  0.
        4    1    3    3  502    0 -0.11267434467E+04  0.30499366820E+03 -0.69977857296E+03  0.13609789111E+04  0.12699999809E+01 0.  1.
       -4    1    3    3    0  502  0.11267434467E+04 -0.30499366820E+03  0.26836539038E+04  0.29265289715E+04  0.12699999809E+01 0. -1.
</event>
<event>
 5   0  0.1305088E-08  0.3800423E+04  0.7818609E-02  0.8046064E-01
       -2   -1    0    0    0  501  0.00000000000E+00  0.00000000000E+00  0.15450983090E+04  0.15450983090E+04  0.25500000920E-02 0.  1.
        2   -1    0    0  501    0  0.00000000000E+00  0.00000000000E+00 -0.23369413090E+04  0.23369413090E+04  0.25500000920E-02 0. -1.
    10030    2    1    2    0    0  0.00000000000E+00  0.00000000000E+00 -0.79184299996E+03  0.38820396180E+04  0.38004231685E+04 0.  0.
        3    1    3    3  502    0 -0.73227021963E+03 -0.12492972561E+04  0.86088408350E+03  0.16846616052E+04  0.10100000352E+00 0.  1.
       -3    1    3    3    0  502  0.73227021963E+03  0.12492972561E+04 -0.16527270835E+04  0.21973780128E+04  0.10100000352E+00 0. -1.
</event>
<event>
 5   0  0.4071750E-09  0.3800310E+04  0.7818609E-02  0.8046088E-01
       -1   -1    0    0    0  501  0.00000000000E+00  0.00000000000E+00  0.18044311495E+04  0.18044311495E+04  0.50400001928E-02 0. -1.
        1   -1    0    0  501    0  0.00000000000E+00  0.00000000000E+00 -0.20009567453E+04  0.20009567453E+04  0.50400001928E-02 0.  1.
    10030    2    1    2    0    0  0.00000000000E+00  0.00000000000E+00 -0.19652559582E+03  0.38053878948E+04  0.38003098189E+04 0.  0.
        1    1    3    3  502    0 -0.17825624350E+04  0.15010117619E+03 -0.73984469923E+03  0.19358278273E+04  0.50400001928E-02 0. -1.
       -1    1    3    3    0  502  0.17825624350E+04 -0.15010117619E+03  0.54331910341E+03  0.18695600675E+04  0.50400001928E-02 0.  1.
</event>
<event>
 5   0  0.1264013E-08  0.3799617E+04  0.7818609E-02  0.8046237E-01
       -2   -1    0    0    0  501  0.00000000000E+00  0.00000000000E+00  0.19335672943E+04  0.19335672943E+04  0.25500000920E-02 0. -1.
        2   -1    0    0  501    0  0.00000000000E+00  0.00000000000E+00 -0.18666386673E+04  0.18666386673E+04  0.25500000920E-02 0.  1.
    10030    2    1    2    0    0  0.00000000000E+00  0.00000000000E+00  0.66928626942E+02  0.38002059616E+04  0.37996165477E+04 0.  0.
        4    1    3    3  502    0 -0.12658065507E+04 -0.42538896823E+03  0.13849873211E+04  0.19239057905E+04  0.12699999809E+01 0. -1.
       -4    1    3    3    0  502  0.12658065507E+04  0.42538896823E+03 -0.13180586942E+04  0.18763001711E+04  0.12699999809E+01 0.  1.
</event>
<event>
 5   0  0.4071750E-09  0.3801915E+04  0.7818609E-02  0.8045744E-01
       -1   -1    0    0    0  501  0.00000000000E+00  0.00000000000E+00  0.20431172642E+04  0.20431172642E+04  0.50400001928E-02 0. -1.
        1   -1    0    0  501    0  0.00000000000E+00  0.00000000000E+00 -0.17686896358E+04  0.17686896358E+04  0.50400001928E-02 0.  1.
    10030    2    1    2    0    0  0.00000000000E+00  0.00000000000E+00  0.27442762839E+03  0.38118069000E+04  0.38019154803E+04 0.  0.
        4    1    3    3  502    0 -0.51176386495E+03  0.17772727577E+04 -0.30329017704E+03  0.18741897591E+04  0.12699999809E+01 0.  1.
       -4    1    3    3    0  502  0.51176386495E+03 -0.17772727577E+04  0.57771780543E+03  0.19376171408E+04  0.12699999809E+01 0. -1.
</event>
<event>
 5   0  0.1327249E-08  0.3799799E+04  0.7818609E-02  0.8046198E-01
       -2   -1    0    0    0  501  0.00000000000E+00  0.00000000000E+00  0.18100530245E+04  0.18100530245E+04  0.25500000920E-02 0. -1.
        2   -1    0    0  501    0  0.00000000000E+00  0.00000000000E+00 -0.19942059646E+04  0.19942059646E+04  0.25500000920E-02 0.  1.
    10030    2    1    2    0    0  0.00000000000E+00  0.00000000000E+00 -0.18415294011E+03  0.38042589891E+04  0.37997992251E+04 0.  0.
        1    1    3    3  502    0  0.17243601289E+04 -0.17509461012E+03 -0.87115594390E+03  0.19398424305E+04  0.50400001928E-02 0.  1.
       -1    1    3    3    0  502 -0.17243601289E+04  0.17509461012E+03  0.68700300379E+03  0.18644165586E+04  0.50400001928E-02 0. -1.
</event>
<event>
 5   0  0.1293993E-08  0.3799592E+04  0.7818609E-02  0.8046242E-01
        2   -1    0    0  501    0  0.00000000000E+00  0.00000000000E+00  0.26273601148E+04  0.26273601148E+04  0.25500000920E-02 0.  1.
       -2   -1    0    0    0  501  0.00000000000E+00  0.00000000000E+00 -0.13737078311E+04  0.13737078311E+04  0.25500000920E-02 0. -1.
    10030    2    1    2    0    0  0.00000000000E+00  0.00000000000E+00  0.12536522837E+04  0.40010679459E+04  0.37995921701E+04 0.  0.
        5    1    3    3  502    0 -0.12492213696E+03 -0.46102008952E+03  0.25630931862E+04  0.26072233956E+04  0.46999998093E+01 0.  1.
       -5    1    3    3    0  502  0.12492213696E+03  0.46102008952E+03 -0.13094409025E+04  0.13938445503E+04  0.46999998093E+01 0. -1.
</event>
<event>
 5   0  0.4071750E-09  0.3799839E+04  0.7818609E-02  0.8046189E-01
        1   -1    0    0  501    0  0.00000000000E+00  0.00000000000E+00  0.14819277366E+04  0.14819277366E+04  0.50400001928E-02 0.  1.
       -1   -1    0    0    0  501  0.00000000000E+00  0.00000000000E+00 -0.24358101263E+04  0.24358101263E+04  0.50400001928E-02 0. -1.
    10030    2    1    2    0    0  0.00000000000E+00  0.00000000000E+00 -0.95388238973E+03  0.39177378629E+04  0.37998392530E+04 0.  0.
        1    1    3    3  502    0  0.12558768326E+04 -0.85614734267E+03  0.69837548112E+03  0.16727053547E+04  0.50400001928E-02 0. -1.
       -1    1    3    3    0  502 -0.12558768326E+04  0.85614734267E+03 -0.16522578709E+04  0.22450325082E+04  0.50400001928E-02 0.  1.
</event>
<event>
 5   0  0.4071750E-09  0.3800861E+04  0.7818609E-02  0.8045970E-01
        1   -1    0    0  501    0  0.00000000000E+00  0.00000000000E+00  0.17191432246E+04  0.17191432246E+04  0.50400001928E-02 0.  1.
       -1   -1    0    0    0  501  0.00000000000E+00  0.00000000000E+00 -0.21008346979E+04  0.21008346979E+04  0.50400001928E-02 0. -1.
    10030    2    1    2    0    0  0.00000000000E+00  0.00000000000E+00 -0.38169147329E+03  0.38199779225E+04  0.38008608166E+04 0.  0.
        1    1    3    3  502    0  0.15052109332E+04 -0.11507757777E+04 -0.33886478310E+03  0.19247789964E+04  0.50400001928E-02 0. -1.
       -1    1    3    3    0  502 -0.15052109332E+04  0.11507757777E+04 -0.42826690193E+02  0.18951989261E+04  0.50400001928E-02 0.  1.
</event>
<event>
 5   0  0.4071750E-09  0.3800436E+04  0.7818609E-02  0.8046061E-01
        1   -1    0    0  501    0  0.00000000000E+00  0.00000000000E+00  0.24403864612E+04  0.24403864612E+04  0.50400001928E-02 0. -1.
       -1   -1    0    0    0  501  0.00000000000E+00  0.00000000000E+00 -0.14796131493E+04  0.14796131493E+04  0.50400001928E-02 0.  1.
    10030    2    1    2    0    0  0.00000000000E+00  0.00000000000E+00  0.96077331190E+03  0.39199996105E+04  0.38004357104E+04 0.  0.
        4    1    3    3  502    0 -0.72758944769E+03  0.65591249377E+03 -0.11990955589E+04  0.15483666802E+04  0.12699999809E+01 0.  1.
       -4    1    3    3    0  502  0.72758944769E+03 -0.65591249377E+03  0.21598688708E+04  0.23716329303E+04  0.12699999809E+01 0. -1.
</event>
<event>
 5   0  0.1264013E-08  0.3799609E+04  0.7818609E-02  0.8046239E-01
        2   -1    0    0  501    0  0.00000000000E+00  0.00000000000E+00  0.21179918283E+04  0.21179918283E+04  0.25500000920E-02 0. -1.
       -2   -1    0    0    0  501  0.00000000000E+00  0.00000000000E+00 -0.17040938755E+04  0.17040938755E+04  0.25500000920E-02 0.  1.
    10030    2    1    2    0    0  0.00000000000E+00  0.00000000000E+00  0.41389795290E+03  0.38220857038E+04  0.37996088762E+04 0.  0.
        4    1    3    3  502    0 -0.45118943703E+03 -0.55086925827E+03  0.19786819801E+04  0.21029058084E+04  0.12699999809E+01 0. -1.
       -4    1    3    3    0  502  0.45118943703E+03  0.55086925827E+03 -0.15647840272E+04  0.17191798954E+04  0.12699999809E+01 0.  1.
</event>
<event>
 5   0  0.4071750E-09  0.3800254E+04  0.7818609E-02  0.8046100E-01
       -1   -1    0    0    0  501  0.00000000000E+00  0.00000000000E+00  0.17245318560E+04  0.17245318560E+04  0.50400001928E-02 0. -1.
        1   -1    0    0  501    0  0.00000000000E+00  0.00000000000E+00 -0.20936013543E+04  0.20936013543E+04  0.50400001928E-02 0.  1.
    10030    2    1    2    0    0  0.00000000000E+00  0.00000000000E+00 -0.36906949828E+03  0.38181332103E+04  0.38002537964E+04 0.  0.
        1    1    3    3  502    0  0.23806286503E+02 -0.12539279527E+04 -0.16186888811E+04  0.20476952273E+04  0.50400001928E-02 0.  1.
       -1    1    3    3    0  502 -0.23806286503E+02  0.12539279527E+04  0.12496193828E+04  0.17704379831E+04  0.50400001928E-02 0. -1.
</event>
<event>
 5   0  0.1327249E-08  0.3803222E+04  0.7818609E-02  0.8045464E-01
        2   -1    0    0  501    0  0.00000000000E+00  0.00000000000E+00  0.15730940057E+04  0.15730940057E+04  0.25500000920E-02 0.  1.
       -2   -1    0    0    0  501  0.00000000000E+00  0.00000000000E+00 -0.22987343422E+04  0.22987343422E+04  0.25500000920E-02 0. -1.
    10030    2    1    2    0    0  0.00000000000E+00  0.00000000000E+00 -0.72564033653E+03  0.38718283478E+04  0.38032224307E+04 0.  0.
        1    1    3    3  502    0  0.18682200962E+03 -0.18657804143E+04 -0.68489105026E+03  0.19962752236E+04  0.50400001928E-02 0. -1.
       -1    1    3    3    0  502 -0.18682200962E+03  0.18657804143E+04 -0.40749286273E+02  0.18755531243E+04  0.50400001928E-02 0.  1.
</event>
<event>
 5   0  0.4071750E-09  0.3803297E+04  0.7818609E-02  0.8045448E-01
       -3   -1    0    0    0  501  0.00000000000E+00  0.00000000000E+00  0.28628778672E+04  0.28628778690E+04  0.10100000352E+00 0.  1.
        3   -1    0    0  501    0  0.00000000000E+00  0.00000000000E+00 -0.12631578108E+04  0.12631578148E+04  0.10100000352E+00 0. -1.
    10030    2    1    2    0    0  0.00000000000E+00  0.00000000000E+00  0.15997200564E+04  0.41260356838E+04  0.38032967548E+04 0.  0.
        1    1    3    3  502    0 -0.12820453610E+04  0.65142415520E+03 -0.55002416158E+03  0.15396494133E+04  0.50400001928E-02 0. -1.
       -1    1    3    3    0  502  0.12820453610E+04 -0.65142415520E+03  0.21497442179E+04  0.25863862705E+04  0.50400001928E-02 0.  1.
</event>
<event>
 5   0  0.1305088E-08  0.3799715E+04  0.7818609E-02  0.8046216E-01
       -2   -1    0    0    0  501  0.00000000000E+00  0.00000000000E+00  0.15081500629E+04  0.15081500630E+04  0.25500000920E-02 0. -1.
        2   -1    0    0  501    0  0.00000000000E+00  0.00000000000E+00 -0.23933013635E+04  0.23933013635E+04  0.25500000920E-02 0.  1.
    10030    2    1    2    0    0  0.00000000000E+00  0.00000000000E+00 -0.88515130051E+03  0.39014514264E+04  0.37997145166E+04 0.  0.
        3    1    3    3  502    0 -0.90199398776E+03 -0.16206077567E+04 -0.19854866714E+02  0.18548199052E+04  0.10100000352E+00 0. -1.
       -3    1    3    3    0  502  0.90199398776E+03  0.16206077567E+04 -0.86529643380E+03  0.20466315212E+04  0.10100000352E+00 0.  1.
</event>
<event>
 5   0  0.4071750E-09  0.3797865E+04  0.7818609E-02  0.8046613E-01
       -1   -1    0    0    0  501  0.00000000000E+00  0.00000000000E+00  0.12779856148E+04  0.12779856148E+04  0.50400001928E-02 0.  1.
        1   -1    0    0  501    0  0.00000000000E+00  0.00000000000E+00 -0.28215849983E+04  0.28215849983E+04  0.50400001928E-02 0. -1.
    10030    2    1    2    0    0  0.00000000000E+00  0.00000000000E+00 -0.15435993835E+04  0.40995706131E+04  0.37978652102E+04 0.  0.
        1    1    3    3  502    0  0.15084459241E+04 -0.42683343754E+03 -0.19285398168E+04  0.24853292970E+04  0.50400001928E-02 0. -1.
       -1    1    3    3    0  502 -0.15084459241E+04  0.42683343754E+03  0.38494043328E+03  0.16142413161E+04  0.50400001928E-02 0.  1.
</event>
<event>
 5   0  0.4071750E-09  0.3799771E+04  0.7818609E-02  0.8046204E-01
       -3   -1    0    0    0  501  0.00000000000E+00  0.00000000000E+00  0.21697971374E+04  0.21697971398E+04  0.10100000352E+00 0. -1.
        3   -1    0    0  501    0  0.00000000000E+00  0.00000000000E+00 -0.16635490594E+04  0.16635490625E+04  0.10100000352E+00 0.  1.
    10030    2    1    2    0    0  0.00000000000E+00  0.00000000000E+00  0.50624807799E+03  0.38333462022E+04  0.37997705180E+04 0.  0.
        1    1    3    3  502    0  0.14878077188E+04 -0.89454913136E+03  0.10318084187E+04  0.20195094873E+04  0.50400001928E-02 0. -1.
       -1    1    3    3    0  502 -0.14878077188E+04  0.89454913136E+03 -0.52556034068E+03  0.18138367149E+04  0.50400001928E-02 0.  1.
</event>
<event>
 5   0  0.1293993E-08  0.3794225E+04  0.7818609E-02  0.8047395E-01
        2   -1    0    0  501    0  0.00000000000E+00  0.00000000000E+00  0.20183918813E+04  0.20183918813E+04  0.25500000920E-02 0.  1.
       -2   -1    0    0    0  501  0.00000000000E+00  0.00000000000E+00 -0.17831200250E+04  0.17831200250E+04  0.25500000920E-02 0. -1.
    10030    2    1    2    0    0  0.00000000000E+00  0.00000000000E+00  0.23527185627E+03  0.38015119063E+04  0.37942245489E+04 0.  0.
        5    1    3    3  502    0  0.94802030497E+03  0.67168278274E+03 -0.13849486525E+04  0.18077624621E+04  0.46999998093E+01 0. -1.
       -5    1    3    3    0  502 -0.94802030497E+03 -0.67168278274E+03  0.16202205087E+04  0.19937494442E+04  0.46999998093E+01 0.  1.
</event>
<event>
 5   0  0.4071750E-09  0.3805911E+04  0.7818609E-02  0.8044888E-01
        1   -1    0    0  501    0  0.00000000000E+00  0.00000000000E+00  0.11670994112E+04  0.11670994112E+04  0.50400001928E-02 0. -1.
       -1   -1    0    0    0  501  0.00000000000E+00  0.00000000000E+00 -0.31027693465E+04  0.31027693465E+04  0.50400001928E-02 0.  1.
    10030    2    1    2    0    0  0.00000000000E+00  0.00000000000E+00 -0.19356699353E+04  0.42698687577E+04  0.38059113376E+04 0.  0.
        1    1    3    3  502    0  0.10426037648E+03  0.48801012850E+03  0.10923848605E+04  0.12009699393E+04  0.50400001928E-02 0. -1.
       -1    1    3    3    0  502 -0.10426037648E+03 -0.48801012850E+03 -0.30280547957E+04  0.30688988184E+04  0.50400001928E-02 0.  1.
</event>
<event>
 5   0  0.4071750E-09  0.3800934E+04  0.7818609E-02  0.8045955E-01
       -1   -1    0    0    0  501  0.00000000000E+00  0.00000000000E+00  0.16089789330E+04  0.16089789330E+04  0.50400001928E-02 0.  1.
        1   -1    0    0  501    0  0.00000000000E+00  0.00000000000E+00 -0.22447618823E+04  0.22447618823E+04  0.50400001928E-02 0. -1.
    10030    2    1    2    0    0  0.00000000000E+00  0.00000000000E+00 -0.63578294938E+03  0.38537408153E+04  0.38009338738E+04 0.  0.
        5    1    3    3  502    0  0.45540644157E+03  0.42725414289E+03 -0.21377693396E+04  0.22271104528E+04  0.46999998093E+01 0. -1.
       -5    1    3    3    0  502 -0.45540644157E+03 -0.42725414289E+03  0.15019863902E+04  0.16266303625E+04  0.46999998093E+01 0.  1.
</event>
<event>
 5   0  0.4071750E-09  0.3799988E+04  0.7818609E-02  0.8046157E-01
        1   -1    0    0  501    0  0.00000000000E+00  0.00000000000E+00  0.22902199074E+04  0.22902199074E+04  0.50400001928E-02 0.  1.
       -1   -1    0    0    0  501  0.00000000000E+00  0.00000000000E+00 -0.15762580320E+04  0.15762580320E+04  0.50400001928E-02 0. -1.
    10030    2    1    2    0    0  0.00000000000E+00  0.00000000000E+00  0.71396187541E+03  0.38664779394E+04  0.37999881706E+04 0.  0.
        3    1    3    3  502    0 -0.45440506939E+03 -0.67364834021E+02 -0.15189032947E+04  0.15868488323E+04  0.10100000352E+00 0. -1.
       -3    1    3    3    0  502  0.45440506939E+03  0.67364834021E+02  0.22328651701E+04  0.22796291071E+04  0.10100000352E+00 0.  1.
</event>
<event>
 5   0  0.1264013E-08  0.3799970E+04  0.7818609E-02  0.8046161E-01
        2   -1    0    0  501    0  0.00000000000E+00  0.00000000000E+00  0.16682428214E+04  0.16682428214E+04  0.25500000920E-02 0. -1.
       -2   -1    0    0    0  501  0.00000000000E+00  0.00000000000E+00 -0.21639190480E+04  0.21639190480E+04  0.25500000920E-02 0.  1.
    10030    2    1    2    0    0  0.00000000000E+00  0.00000000000E+00 -0.49567622653E+03  0.38321618694E+04  0.37999696935E+04 0.  0.
        4    1    3    3  502    0 -0.17707983272E+04 -0.33139631200E+03  0.36092352820E+03  0.18373398263E+04  0.12699999809E+01 0. -1.
       -4    1    3    3    0  502  0.17707983272E+04  0.33139631200E+03 -0.85659975473E+03  0.19948220431E+04  0.12699999809E+01 0.  1.
</event>
<event>
 5   0  0.4071750E-09  0.3799841E+04  0.7818609E-02  0.8046189E-01
       -1   -1    0    0    0  501  0.00000000000E+00  0.00000000000E+00  0.16464486268E+04  0.16464486268E+04  0.50400001928E-02 0.  1.
        1   -1    0    0  501    0  0.00000000000E+00  0.00000000000E+00 -0.21924142459E+04  0.21924142459E+04  0.50400001928E-02 0. -1.
    10030    2    1    2    0    0  0.00000000000E+00  0.00000000000E+00 -0.54596561912E+03  0.38388628727E+04  0.37998407465E+04 0.  0.
        2    1    3    3  502    0 -0.18670144704E+03  0.14050312176E+04 -0.15511741639E+04  0.21012166570E+04  0.25500000920E-02 0. -1.
       -2    1    3    3    0  502  0.18670144704E+03 -0.14050312176E+04  0.10052085448E+04  0.17376462158E+04  0.25500000920E-02 0.  1.
</event>
<event>
 5   0  0.1327249E-08  0.3803303E+04  0.7818609E-02  0.8045446E-01
        2   -1    0    0  501    0  0.00000000000E+00  0.00000000000E+00  0.23081552847E+04  0.23081552847E+04  0.25500000920E-02 0.  1.
       -2   -1    0    0    0  501  0.00000000000E+00  0.00000000000E+00 -0.15667394629E+04  0.15667394629E+04  0.25500000920E-02 0. -1.
    10030    2    1    2    0    0  0.00000000000E+00  0.00000000000E+00  0.74141582177E+03  0.38748947476E+04  0.38033027600E+04 0.  0.
        1    1    3    3  502    0 -0.14541618497E+04  0.47139282818E+03  0.15231411541E+04  0.21579520057E+04  0.50400001928E-02 0.  1.
       -1    1    3    3    0  502  0.14541618497E+04 -0.47139282818E+03 -0.78172533238E+03  0.17169427419E+04  0.50400001928E-02 0. -1.
</event>
<event>
 5   0  0.1264013E-08  0.3800970E+04  0.7818609E-02  0.8045947E-01
        2   -1    0    0  501    0  0.00000000000E+00  0.00000000000E+00  0.17585109576E+04  0.17585109576E+04  0.25500000920E-02 0. -1.
       -2   -1    0    0    0  501  0.00000000000E+00  0.00000000000E+00 -0.20539210226E+04  0.20539210226E+04  0.25500000920E-02 0.  1.
    10030    2    1    2    0    0  0.00000000000E+00  0.00000000000E+00 -0.29541006506E+03  0.38124319802E+04  0.38009696785E+04 0.  0.
        4    1    3    3  502    0  0.12756941812E+04  0.74533617664E+03  0.10512739154E+04  0.18133119197E+04  0.12699999809E+01 0. -1.
       -4    1    3    3    0  502 -0.12756941812E+04 -0.74533617664E+03 -0.13466839805E+04  0.19991200605E+04  0.12699999809E+01 0.  1.
</event>
<event>
 5   0  0.1264013E-08  0.3798885E+04  0.7818609E-02  0.8046394E-01
       -2   -1    0    0    0  501  0.00000000000E+00  0.00000000000E+00  0.17021793107E+04  0.17021793107E+04  0.25500000920E-02 0.  1.
        2   -1    0    0  501    0  0.00000000000E+00  0.00000000000E+00 -0.21195661154E+04  0.21195661154E+04  0.25500000920E-02 0. -1.
    10030    2    1    2    0    0  0.00000000000E+00  0.00000000000E+00 -0.41738680466E+03  0.38217454261E+04  0.37988848834E+04 0.  0.
        4    1    3    3  502    0 -0.17530083704E+04  0.11852367276E+03 -0.93469656179E+03  0.19901621751E+04  0.12699999809E+01 0. -1.
       -4    1    3    3    0  502  0.17530083704E+04 -0.11852367276E+03  0.51730975713E+03  0.18315832510E+04  0.12699999809E+01 0.  1.
</event>
<event>
 5   0  0.1261152E-08  0.3798641E+04  0.7818609E-02  0.8046447E-01
        2   -1    0    0  501    0  0.00000000000E+00  0.00000000000E+00  0.14538577758E+04  0.14538577758E+04  0.25500000920E-02 0. -1.
       -2   -1    0    0    0  501  0.00000000000E+00  0.00000000000E+00 -0.24812731007E+04  0.24812731007E+04  0.25500000920E-02 0.  1.
    10030    2    1    2    0    0  0.00000000000E+00  0.00000000000E+00 -0.10274153249E+04  0.39351308765E+04  0.37986409103E+04 0.  0.
        2    1    3    3  502    0  0.64943711575E+03 -0.12106817319E+04  0.84486370756E+03  0.16128587997E+04  0.25500000920E-02 0. -1.
       -2    1    3    3    0  502 -0.64943711575E+03  0.12106817319E+04 -0.18722790325E+04  0.23222720768E+04  0.25500000920E-02 0.  1.
</event>
<event>
 5   0  0.1305088E-08  0.3801561E+04  0.7818609E-02  0.8045820E-01
       -2   -1    0    0    0  501  0.00000000000E+00  0.00000000000E+00  0.13764239451E+04  0.13764239451E+04  0.25500000920E-02 0.  1.
        2   -1    0    0  501    0  0.00000000000E+00  0.00000000000E+00 -0.26248930360E+04  0.26248930360E+04  0.25500000920E-02 0. -1.
    10030    2    1    2    0    0  0.00000000000E+00  0.00000000000E+00 -0.12484690909E+04  0.40013169810E+04  0.38015605364E+04 0.  0.
        3    1    3    3  502    0  0.55556285314E+03 -0.15936008435E+04 -0.15446869250E+04  0.22878530194E+04  0.10100000352E+00 0. -1.
       -3    1    3    3    0  502 -0.55556285314E+03  0.15936008435E+04  0.29621783409E+03  0.17134639616E+04  0.10100000352E+00 0.  1.
</event>
<event>
 5   0  0.4071750E-09  0.3808566E+04  0.7818609E-02  0.8044319E-01
        1   -1    0    0  501    0  0.00000000000E+00  0.00000000000E+00  0.25262669381E+04  0.25262669381E+04  0.50400001928E-02 0.  1.
       -1   -1    0    0    0  501  0.00000000000E+00  0.00000000000E+00 -0.14354353978E+04  0.14354353978E+04  0.50400001928E-02 0. -1.
    10030    2    1    2    0    0  0.00000000000E+00  0.00000000000E+00  0.10908315402E+04  0.39617023359E+04  0.38085656026E+04 0.  0.
        3    1    3    3  502    0 -0.18344627032E+04  0.26881524629E+03  0.93459920389E+02  0.18564077712E+04  0.10100000352E+00 0. -1.
       -3    1    3    3    0  502  0.18344627032E+04 -0.26881524629E+03  0.99737161985E+03  0.21052945647E+04  0.10100000352E+00 0.  1.
</event>
<event>
 5   0  0.4071750E-09  0.3799965E+04  0.7818609E-02  0.8046162E-01
       -1   -1    0    0    0  501  0.00000000000E+00  0.00000000000E+00  0.17513118621E+04  0.17513118621E+04  0.50400001928E-02 0.  1.
        1   -1    0    0  501    0  0.00000000000E+00  0.00000000000E+00 -0.20612736073E+04  0.20612736073E+04  0.50400001928E-02 0. -1.
    10030    2    1    2    0    0  0.00000000000E+00  0.00000000000E+00 -0.30996174524E+03  0.38125854694E+04  0.37999646943E+04 0.  0.
        4    1    3    3  502    0  0.10549036545E+04 -0.13516331823E+04  0.66639392357E+03  0.18395152769E+04  0.12699999809E+01 0.  1.
       -4    1    3    3    0  502 -0.10549036545E+04  0.13516331823E+04 -0.97635566882E+03  0.19730701925E+04  0.12699999809E+01 0. -1.
</event>
<event>
 5   0  0.1305088E-08  0.3801757E+04  0.7818609E-02  0.8045778E-01
       -2   -1    0    0    0  501  0.00000000000E+00  0.00000000000E+00  0.18173149362E+04  0.18173149362E+04  0.25500000920E-02 0. -1.
        2   -1    0    0  501    0  0.00000000000E+00  0.00000000000E+00 -0.19882845195E+04  0.19882845195E+04  0.25500000920E-02 0.  1.
    10030    2    1    2    0    0  0.00000000000E+00  0.00000000000E+00 -0.17096958323E+03  0.38055994557E+04  0.38017570436E+04 0.  0.
        3    1    3    3  502    0  0.36795725074E+03  0.45163675896E+03 -0.18967252925E+04  0.19841711484E+04  0.10100000352E+00 0.  1.
       -3    1    3    3    0  502 -0.36795725074E+03 -0.45163675896E+03  0.17257557093E+04  0.18214283073E+04  0.10100000352E+00 0. -1.
</event>
<event>
 5   0  0.1261152E-08  0.3800312E+04  0.7818609E-02  0.8046088E-01
        2   -1    0    0  501    0  0.00000000000E+00  0.00000000000E+00  0.20487624161E+04  0.20487624161E+04  0.25500000920E-02 0.  1.
       -2   -1    0    0    0  501  0.00000000000E+00  0.00000000000E+00 -0.17623291559E+04  0.17623291559E+04  0.25500000920E-02 0. -1.
    10030    2    1    2    0    0  0.00000000000E+00  0.00000000000E+00  0.28643326015E+03  0.38110915720E+04  0.38003124816E+04 0.  0.
        2    1    3    3  502    0  0.13903395949E+04  0.40109002290E+03 -0.10918105982E+04  0.18127238560E+04  0.25500000920E-02 0. -1.
       -2    1    3    3    0  502 -0.13903395949E+04 -0.40109002290E+03  0.13782438584E+04  0.19983677161E+04  0.25500000920E-02 0.  1.
</event>
<event>
 5   0  0.4071750E-09  0.3799353E+04  0.7818609E-02  0.8046294E-01
        1   -1    0    0  501    0  0.00000000000E+00  0.00000000000E+00  0.24397853667E+04  0.24397853667E+04  0.50400001928E-02 0. -1.
       -1   -1    0    0    0  501  0.00000000000E+00  0.00000000000E+00 -0.14791348212E+04  0.14791348212E+04  0.50400001928E-02 0.  1.
    10030    2    1    2    0    0  0.00000000000E+00  0.00000000000E+00  0.96065054556E+03  0.39189201879E+04  0.37993533619E+04 0.  0.
        1    1    3    3  502    0  0.10415457629E+04  0.11580316720E+04 -0.64152213229E+03  0.16844600250E+04  0.50400001928E-02 0.  1.
       -1    1    3    3    0  502 -0.10415457629E+04 -0.11580316720E+04  0.16021726778E+04  0.22344601628E+04  0.50400001928E-02 0. -1.
</event>
<event>
 5   0  0.1327249E-08  0.3797401E+04  0.7818609E-02  0.8046713E-01
       -2   -1    0    0    0  501  0.00000000000E+00  0.00000000000E+00  0.13184363572E+04  0.13184363572E+04  0.25500000920E-02 0.  1.
        2   -1    0    0  501    0  0.00000000000E+00  0.00000000000E+00 -0.27343482095E+04  0.27343482095E+04  0.25500000920E-02 0. -1.
    10030    2    1    2    0    0  0.00000000000E+00  0.00000000000E+00 -0.14159118523E+04  0.40527845667E+04  0.37974012654E+04 0.  0.
        1    1    3    3  502    0 -0.32947600366E+03 -0.12512390767E+04  0.77506777528E+03  0.15082717661E+04  0.50400001928E-02 0.  1.
       -1    1    3    3    0  502  0.32947600366E+03  0.12512390767E+04 -0.21909796276E+04  0.25445128006E+04  0.50400001928E-02 0. -1.
</event>
<event>
 5   0  0.4071750E-09  0.3799613E+04  0.7818609E-02  0.8046238E-01
        1   -1    0    0  501    0  0.00000000000E+00  0.00000000000E+00  0.19751798336E+04  0.19751798336E+04  0.50400001928E-02 0.  1.
       -1   -1    0    0    0  501  0.00000000000E+00  0.00000000000E+00 -0.18273092129E+04  0.18273092129E+04  0.50400001928E-02 0. -1.
    10030    2    1    2    0    0  0.00000000000E+00  0.00000000000E+00  0.14787062072E+03  0.38024890465E+04  0.37996127734E+04 0.  0.
        2    1    3    3  502    0 -0.11876843223E+04  0.62891367280E+03  0.14177614902E+04  0.19535030331E+04  0.25500000920E-02 0.  1.
       -2    1    3    3    0  502  0.11876843223E+04 -0.62891367280E+03 -0.12698908694E+04  0.18489860134E+04  0.25500000920E-02 0. -1.
</event>
<event>
 5   0  0.1293993E-08  0.3804146E+04  0.7818609E-02  0.8045266E-01
        2   -1    0    0  501    0  0.00000000000E+00  0.00000000000E+00  0.18821546406E+04  0.18821546406E+04  0.25500000920E-02 0. -1.
       -2   -1    0    0    0  501  0.00000000000E+00  0.00000000000E+00 -0.19222019707E+04  0.19222019707E+04  0.25500000920E-02 0.  1.
    10030    2    1    2    0    0  0.00000000000E+00  0.00000000000E+00 -0.40047330145E+02  0.38043566113E+04  0.38041458223E+04 0.  0.
        5    1    3    3  502    0 -0.13346266920E+04 -0.12318259572E+04 -0.58506441783E+03  0.19081263215E+04  0.46999998093E+01 0. -1.
       -5    1    3    3    0  502  0.13346266920E+04  0.12318259572E+04  0.54501708769E+03  0.18962302898E+04  0.46999998093E+01 0.  1.
</event>
<event>
 5   0  0.4071750E-09  0.3800341E+04  0.7818609E-02  0.8046082E-01
        1   -1    0    0  501    0  0.00000000000E+00  0.00000000000E+00  0.25014626476E+04  0.25014626476E+04  0.50400001928E-02 0.  1.
       -1   -1    0    0    0  501  0.00000000000E+00  0.00000000000E+00 -0.14434149965E+04  0.14434149965E+04  0.50400001928E-02 0. -1.
    10030    2    1    2    0    0  0.00000000000E+00  0.00000000000E+00  0.10580476511E+04  0.39448776441E+04  0.38003414051E+04 0.  0.
        2    1    3    3  502    0  0.17986619254E+04 -0.51262437892E+03  0.18057839537E+03  0.18789829783E+04  0.25500000920E-02 0. -1.
       -2    1    3    3    0  502 -0.17986619254E+04  0.51262437892E+03  0.87746925574E+03  0.20658946659E+04  0.25500000920E-02 0.  1.
</event>
<event>
 5   0  0.4071750E-09  0.3800866E+04  0.7818609E-02  0.8045969E-01
        1   -1    0    0  501    0  0.00000000000E+00  0.00000000000E+00  0.14135293095E+04  0.14135293095E+04  0.50400001928E-02 0. -1.
       -1   -1    0    0    0  501  0.00000000000E+00  0.00000000000E+00 -0.25550559480E+04  0.25550559480E+04  0.50400001928E-02 0.  1.
    10030    2    1    2    0    0  0.00000000000E+00  0.00000000000E+00 -0.11415266386E+04  0.39685852575E+04  0.38008664644E+04 0.  0.
        3    1    3    3  502    0  0.73986213753E+03  0.10987555982E+03 -0.23949027041E+04  0.25089893570E+04  0.10100000352E+00 0.  1.
       -3    1    3    3    0  502 -0.73986213753E+03 -0.10987555982E+03  0.12533760655E+04  0.14595959006E+04  0.10100000352E+00 0. -1.
</event>
<event>
 5   0  0.4071750E-09  0.3806924E+04  0.7818609E-02  0.8044671E-01
        3   -1    0    0  501    0  0.00000000000E+00  0.00000000000E+00  0.16190946707E+04  0.16190946739E+04  0.10100000352E+00 0.  1.
       -3   -1    0    0    0  501  0.00000000000E+00  0.00000000000E+00 -0.22377734790E+04  0.22377734813E+04  0.10100000352E+00 0. -1.
    10030    2    1    2    0    0  0.00000000000E+00  0.00000000000E+00 -0.61867880825E+03  0.38568681552E+04  0.38069237579E+04 0.  0.
        2    1    3    3  502    0  0.10367586486E+04 -0.13294540227E+03 -0.19210031546E+04  0.21869604696E+04  0.25500000920E-02 0. -1.
       -2    1    3    3    0  502 -0.10367586486E+04  0.13294540227E+03  0.13023243464E+04  0.16699076856E+04  0.25500000920E-02 0.  1.
</event>
<event>
 5   0  0.1327249E-08  0.3799805E+04  0.7818609E-02  0.8046197E-01
        2   -1    0    0  501    0  0.00000000000E+00  0.00000000000E+00  0.19485159731E+04  0.19485159731E+04  0.25500000920E-02 0. -1.
       -2   -1    0    0    0  501  0.00000000000E+00  0.00000000000E+00 -0.18525018238E+04  0.18525018238E+04  0.25500000920E-02 0.  1.
    10030    2    1    2    0    0  0.00000000000E+00  0.00000000000E+00  0.96014149369E+02  0.38010177969E+04  0.37998049391E+04 0.  0.
        1    1    3    3  502    0  0.15472052351E+04  0.10918926577E+04  0.20153498202E+03  0.19043870311E+04  0.50400001928E-02 0.  1.
       -1    1    3    3    0  502 -0.15472052351E+04 -0.10918926577E+04 -0.10552083265E+03  0.18966307657E+04  0.50400001928E-02 0. -1.
</event>
<event>
 5   0  0.4071750E-09  0.3797661E+04  0.7818609E-02  0.8046657E-01
        1   -1    0    0  501    0  0.00000000000E+00  0.00000000000E+00  0.17800387043E+04  0.17800387043E+04  0.50400001928E-02 0. -1.
       -1   -1    0    0    0  501  0.00000000000E+00  0.00000000000E+00 -0.20255497208E+04  0.20255497208E+04  0.50400001928E-02 0.  1.
    10030    2    1    2    0    0  0.00000000000E+00  0.00000000000E+00 -0.24551101645E+03  0.38055884251E+04  0.37976608066E+04 0.  0.
        3    1    3    3  502    0  0.21050353922E+03  0.17910426935E+04  0.47296947241E+03  0.18643620362E+04  0.10100000352E+00 0. -1.
       -3    1    3    3    0  502 -0.21050353922E+03 -0.17910426935E+04 -0.71848048886E+03  0.19412263889E+04  0.10100000352E+00 0.  1.
</event>
<event>
 5   0  0.1261152E-08  0.3799416E+04  0.7818609E-02  0.8046280E-01
       -2   -1    0    0    0  501  0.00000000000E+00  0.00000000000E+00  0.27204483175E+04  0.27204483175E+04  0.25500000920E-02 0. -1.
        2   -1    0    0  501    0  0.00000000000E+00  0.00000000000E+00 -0.13265794910E+04  0.13265794910E+04  0.25500000920E-02 0.  1.
    10030    2    1    2    0    0  0.00000000000E+00  0.00000000000E+00  0.13938688265E+04  0.40470278086E+04  0.37994162417E+04 0.  0.
        2    1    3    3  502    0  0.57368292161E+03  0.80760423263E+03 -0.10296791959E+04  0.14288372677E+04  0.25500000920E-02 0.  1.
       -2    1    3    3    0  502 -0.57368292161E+03 -0.80760423263E+03  0.24235480224E+04  0.26181905408E+04  0.25500000920E-02 0. -1.
</event>
<event>
 5   0  0.4071750E-09  0.3793692E+04  0.7818609E-02  0.8047510E-01
        1   -1    0    0  501    0  0.00000000000E+00  0.00000000000E+00  0.30733882861E+04  0.30733882861E+04  0.50400001928E-02 0.  1.
       -1   -1    0    0    0  501  0.00000000000E+00  0.00000000000E+00 -0.11707028095E+04  0.11707028096E+04  0.50400001928E-02 0. -1.
    10030    2    1    2    0    0  0.00000000000E+00  0.00000000000E+00  0.19026854766E+04  0.42440910957E+04  0.37936917647E+04 0.  0.
        4    1    3    3  502    0  0.95313689955E+03  0.11869431595E+04  0.22173888579E+04  0.26896317542E+04  0.12699999809E+01 0.  1.
       -4    1    3    3    0  502 -0.95313689955E+03 -0.11869431595E+04 -0.31470338131E+03  0.15544593415E+04  0.12699999809E+01 0. -1.
</event>
<event>
 5   0  0.4071750E-09  0.3800155E+04  0.7818609E-02  0.8046122E-01
        1   -1    0    0  501    0  0.00000000000E+00  0.00000000000E+00  0.14552104264E+04  0.14552104264E+04  0.50400001928E-02 0.  1.
       -1   -1    0    0    0  501  0.00000000000E+00  0.00000000000E+00 -0.24809438594E+04  0.24809438594E+04  0.50400001928E-02 0. -1.
    10030    2    1    2    0    0  0.00000000000E+00  0.00000000000E+00 -0.10257334330E+04  0.39361542859E+04  0.38001554556E+04 0.  0.
        5    1    3    3  502    0 -0.18881557645E+04 -0.14658758768E+03 -0.35356684560E+03  0.19265647449E+04  0.46999998093E+01 0. -1.
       -5    1    3    3    0  502  0.18881557645E+04  0.14658758768E+03 -0.67216658740E+03  0.20095895410E+04  0.46999998093E+01 0.  1.
</event>
<event>
 5   0  0.1293993E-08  0.3799445E+04  0.7818609E-02  0.8046274E-01
        2   -1    0    0  501    0  0.00000000000E+00  0.00000000000E+00  0.18411338391E+04  0.18411338391E+04  0.25500000920E-02 0. -1.
       -2   -1    0    0    0  501  0.00000000000E+00  0.00000000000E+00 -0.19601760512E+04  0.19601760512E+04  0.25500000920E-02 0.  1.
    10030    2    1    2    0    0  0.00000000000E+00  0.00000000000E+00 -0.11904221213E+03  0.38013098902E+04  0.37994454639E+04 0.  0.
        5    1    3    3  502    0  0.72318924336E+03 -0.25845194052E+02 -0.18168720630E+04  0.19556883287E+04  0.46999998093E+01 0.  1.
       -5    1    3    3    0  502 -0.72318924336E+03  0.25845194052E+02  0.16978298509E+04  0.18456215615E+04  0.46999998093E+01 0. -1.
</event>
<event>
 5   0  0.4071750E-09  0.3799078E+04  0.7818609E-02  0.8046353E-01
        1   -1    0    0  501    0  0.00000000000E+00  0.00000000000E+00  0.21151216489E+04  0.21151216489E+04  0.50400001928E-02 0.  1.
       -1   -1    0    0    0  501  0.00000000000E+00  0.00000000000E+00 -0.17059298408E+04  0.17059298408E+04  0.50400001928E-02 0. -1.
    10030    2    1    2    0    0  0.00000000000E+00  0.00000000000E+00  0.40919180812E+03  0.38210514897E+04  0.37990783818E+04 0.  0.
        5    1    3    3  502    0  0.11790471039E+04 -0.60007020983E+03  0.15755610253E+04  0.20573407507E+04  0.46999998093E+01 0.  1.
       -5    1    3    3    0  502 -0.11790471039E+04  0.60007020983E+03 -0.11663692172E+04  0.17637107390E+04  0.46999998093E+01 0. -1.
</event>
<event>
 5   0  0.4071750E-09  0.3800350E+04  0.7818609E-02  0.8046080E-01
       -1   -1    0    0    0  501  0.00000000000E+00  0.00000000000E+00  0.22708233146E+04  0.22708233146E+04  0.50400001928E-02 0. -1.
        1   -1    0    0  501    0  0.00000000000E+00  0.00000000000E+00 -0.15900247986E+04  0.15900247986E+04  0.50400001928E-02 0.  1.
    10030    2    1    2    0    0  0.00000000000E+00  0.00000000000E+00  0.68079851600E+03  0.38608481132E+04  0.38003501856E+04 0.  0.
        2    1    3    3  502    0  0.15051071176E+04  0.45154640695E+02 -0.83705003590E+03  0.17227997967E+04  0.25500000920E-02 0.  1.
       -2    1    3    3    0  502 -0.15051071176E+04 -0.45154640695E+02  0.15178485519E+04  0.21380483164E+04  0.25500000920E-02 0. -1.
</event>
<event>
 5   0  0.1327249E-08  0.3799063E+04  0.7818609E-02  0.8046356E-01
       -2   -1    0    0    0  501  0.00000000000E+00  0.00000000000E+00  0.12906743474E+04  0.12906743474E+04  0.25500000920E-02 0.  1.
        2   -1    0    0  501    0  0.00000000000E+00  0.00000000000E+00 -0.27956086372E+04  0.27956086372E+04  0.25500000920E-02 0. -1.
    10030    2    1    2    0    0  0.00000000000E+00  0.00000000000E+00 -0.15049342898E+04  0.40862829846E+04  0.37990632284E+04 0.  0.
        1    1    3    3  502    0  0.16983379331E+04  0.63573620915E+03 -0.13606423791E+04  0.22671259221E+04  0.50400001928E-02 0. -1.
       -1    1    3    3    0  502 -0.16983379331E+04 -0.63573620915E+03 -0.14429191072E+03  0.18191570625E+04  0.50400001928E-02 0.  1.
</event>
<event>
 5   0  0.4071750E-09  0.3797202E+04  0.7818609E-02  0.8046756E-01
        1   -1    0    0  501    0  0.00000000000E+00  0.00000000000E+00  0.13222241512E+04  0.13222241512E+04  0.50400001928E-02 0. -1.
       -1   -1    0    0    0  501  0.00000000000E+00  0.00000000000E+00 -0.27262290823E+04  0.27262290823E+04  0.50400001928E-02 0.  1.
    10030    2    1    2    0    0  0.00000000000E+00  0.00000000000E+00 -0.14040049311E+04  0.40484532334E+04  0.37972020932E+04 0.  0.
        4    1    3    3  502    0 -0.15214345026E+04 -0.10346962371E+04 -0.20269327959E+03  0.18510660246E+04  0.12699999809E+01 0. -1.
       -4    1    3    3    0  502  0.15214345026E+04  0.10346962371E+04 -0.12013116515E+04  0.21973872089E+04  0.12699999809E+01 0.  1.
</event>
<event>
 5   0  0.1327249E-08  0.3800940E+04  0.7818609E-02  0.8045953E-01
       -2   -1    0    0    0  501  0.00000000000E+00  0.00000000000E+00  0.15926087628E+04  0.15926087628E+04  0.25500000920E-02 0.  1.
        2   -1    0    0  501    0  0.00000000000E+00  0.00000000000E+00 -0.22678422148E+04  0.22678422148E+04  0.25500000920E-02 0. -1.
    10030    2    1    2    0    0  0.00000000000E+00  0.00000000000E+00 -0.67523345196E+03  0.38604509777E+04  0.38009395597E+04 0.  0.
        1    1    3    3  502    0  0.34225616429E+02 -0.60723643563E+03 -0.21663291069E+04  0.22500865053E+04  0.50400001928E-02 0. -1.
       -1    1    3    3    0  502 -0.34225616429E+02  0.60723643563E+03  0.14910956550E+04  0.16103644724E+04  0.50400001928E-02 0.  1.
</event>
<event>
 5   0  0.1327249E-08  0.3800913E+04  0.7818609E-02  0.8045959E-01
        2   -1    0    0  501    0  0.00000000000E+00  0.00000000000E+00  0.23742940602E+04  0.23742940602E+04  0.25500000920E-02 0.  1.
       -2   -1    0    0    0  501  0.00000000000E+00  0.00000000000E+00 -0.15211829513E+04  0.15211829513E+04  0.25500000920E-02 0. -1.
    10030    2    1    2    0    0  0.00000000000E+00  0.00000000000E+00  0.85311110890E+03  0.38954770115E+04  0.38009133880E+04 0.  0.
        1    1    3    3  502    0  0.13843315413E+04  0.37750226858E+03 -0.85058285491E+03  0.16680446553E+04  0.50400001928E-02 0. -1.
       -1    1    3    3    0  502 -0.13843315413E+04 -0.37750226858E+03  0.17036939638E+04  0.22274323562E+04  0.50400001928E-02 0.  1.
</event>
<event>
 5   0  0.4071750E-09  0.3800894E+04  0.7818609E-02  0.8045963E-01
       -1   -1    0    0    0  501  0.00000000000E+00  0.00000000000E+00  0.14880210049E+04  0.14880210049E+04  0.50400001928E-02 0. -1.
        1   -1    0    0  501    0  0.00000000000E+00  0.00000000000E+00 -0.24271820909E+04  0.24271820909E+04  0.50400001928E-02 0.  1.
    10030    2    1    2    0    0  0.00000000000E+00  0.00000000000E+00 -0.93916108607E+03  0.39152030958E+04  0.38008935444E+04 0.  0.
        4    1    3    3  502    0  0.64310729919E+03 -0.29293079871E+03  0.13476472754E+04  0.15216932157E+04  0.12699999809E+01 0. -1.
       -4    1    3    3    0  502 -0.64310729919E+03  0.29293079871E+03 -0.22868083614E+04  0.23935098801E+04  0.12699999809E+01 0.  1.
</event>
<event>
 5   0  0.4071750E-09  0.3786296E+04  0.7818609E-02  0.8049102E-01
        1   -1    0    0  501    0  0.00000000000E+00  0.00000000000E+00  0.28295564399E+04  0.28295564399E+04  0.50400001928E-02 0. -1.
       -1   -1    0    0    0  501  0.00000000000E+00  0.00000000000E+00 -0.12666327086E+04  0.12666327086E+04  0.50400001928E-02 0.  1.
    10030    2    1    2    0    0  0.00000000000E+00  0.00000000000E+00  0.15629237313E+04  0.40961891485E+04  0.37862956766E+04 0.  0.
        5    1    3    3  502    0  0.32041197917E+03  0.17268818648E+04  0.17091987482E+02  0.17564449998E+04  0.46999998093E+01 0. -1.
       -5    1    3    3    0  502 -0.32041197917E+03 -0.17268818648E+04  0.15458317438E+04  0.23397441487E+04  0.46999998093E+01 0.  1.
</event>
<event>
 5   0  0.1264013E-08  0.3796596E+04  0.7818609E-02  0.8046886E-01
       -2   -1    0    0    0  501  0.00000000000E+00  0.00000000000E+00  0.15797869400E+04  0.15797869400E+04  0.25500000920E-02 0.  1.
        2   -1    0    0  501    0  0.00000000000E+00  0.00000000000E+00 -0.22810261870E+04  0.22810261870E+04  0.25500000920E-02 0. -1.
    10030    2    1    2    0    0  0.00000000000E+00  0.00000000000E+00 -0.70123924703E+03  0.38608131270E+04  0.37965960438E+04 0.  0.
        4    1    3    3  502    0 -0.12702951788E+04  0.54278378220E+03  0.97342855807E+03  0.16899197750E+04  0.12699999809E+01 0.  1.
       -4    1    3    3    0  502  0.12702951788E+04 -0.54278378220E+03 -0.16746678051E+04  0.21708933520E+04  0.12699999809E+01 0. -1.
</event>
<event>
 5   0  0.4071750E-09  0.3801875E+04  0.7818609E-02  0.8045753E-01
        1   -1    0    0  501    0  0.00000000000E+00  0.00000000000E+00  0.15641657704E+04  0.15641657704E+04  0.50400001928E-02 0. -1.
       -1   -1    0    0    0  501  0.00000000000E+00  0.00000000000E+00 -0.23102181847E+04  0.23102181847E+04  0.50400001928E-02 0.  1.
    10030    2    1    2    0    0  0.00000000000E+00  0.00000000000E+00 -0.74605241435E+03  0.38743839551E+04  0.38018754354E+04 0.  0.
        4    1    3    3  502    0  0.57965197798E+03  0.18007238104E+04 -0.56356793230E+03  0.19738827433E+04  0.12699999809E+01 0. -1.
       -4    1    3    3    0  502 -0.57965197798E+03 -0.18007238104E+04 -0.18248448205E+03  0.19005012118E+04  0.12699999809E+01 0.  1.
</event>
<event>
 5   0  0.4071750E-09  0.3799411E+04  0.7818609E-02  0.8046281E-01
        1   -1    0    0  501    0  0.00000000000E+00  0.00000000000E+00  0.20435619192E+04  0.20435619192E+04  0.50400001928E-02 0.  1.
       -1   -1    0    0    0  501  0.00000000000E+00  0.00000000000E+00 -0.17659762376E+04  0.17659762377E+04  0.50400001928E-02 0. -1.
    10030    2    1    2    0    0  0.00000000000E+00  0.00000000000E+00  0.27758568153E+03  0.38095381568E+04  0.37994114225E+04 0.  0.
        1    1    3    3  502    0  0.64411961765E+03 -0.62700592312E+03  0.18168290909E+04  0.20270408124E+04  0.50400001928E-02 0.  1.
       -1    1    3    3    0  502 -0.64411961765E+03  0.62700592312E+03 -0.15392434094E+04  0.17824973444E+04  0.50400001928E-02 0. -1.
</event>
<event>
 5   0  0.4071750E-09  0.3803765E+04  0.7818609E-02  0.8045347E-01
        1   -1    0    0  501    0  0.00000000000E+00  0.00000000000E+00  0.18187736362E+04  0.18187736363E+04  0.50400001928E-02 0. -1.
       -1   -1    0    0    0  501  0.00000000000E+00  0.00000000000E+00 -0.19887886756E+04  0.19887886756E+04  0.50400001928E-02 0.  1.
    10030    2    1    2    0    0  0.00000000000E+00  0.00000000000E+00 -0.17001503932E+03  0.38075623118E+04  0.38037646674E+04 0.  0.
        5    1    3    3  502    0  0.25440114721E+03 -0.12882207613E+04  0.12921937171E+04  0.18422864506E+04  0.46999998093E+01 0. -1.
       -5    1    3    3    0  502 -0.25440114721E+03  0.12882207613E+04 -0.14622087564E+04  0.19652758612E+04  0.46999998093E+01 0.  1.
</event>
<event>
 5   0  0.1264013E-08  0.3798536E+04  0.7818609E-02  0.8046469E-01
       -2   -1    0    0    0  501  0.00000000000E+00  0.00000000000E+00  0.17575554174E+04  0.17575554174E+04  0.25500000920E-02 0.  1.
        2   -1    0    0  501    0  0.00000000000E+00  0.00000000000E+00 -0.20524074217E+04  0.20524074217E+04  0.25500000920E-02 0. -1.
    10030    2    1    2    0    0  0.00000000000E+00  0.00000000000E+00 -0.29485200430E+03  0.38099628391E+04  0.37985364459E+04 0.  0.
        4    1    3    3  502    0 -0.32842635068E+03  0.51988024846E+03 -0.19497952371E+04  0.20444662922E+04  0.12699999809E+01 0. -1.
       -4    1    3    3    0  502  0.32842635068E+03 -0.51988024846E+03  0.16549432328E+04  0.17654965469E+04  0.12699999809E+01 0.  1.
</event>
<event>
 5   0  0.1261152E-08  0.3797886E+04  0.7818609E-02  0.8046609E-01
       -2   -1    0    0    0  501  0.00000000000E+00  0.00000000000E+00  0.17708353008E+04  0.17708353008E+04  0.25500000920E-02 0.  1.
        2   -1    0    0  501    0  0.00000000000E+00  0.00000000000E+00 -0.20363187238E+04  0.20363187238E+04  0.25500000920E-02 0. -1.
    10030    2    1    2    0    0  0.00000000000E+00  0.00000000000E+00 -0.26548342305E+03  0.38071540246E+04  0.37978862962E+04 0.  0.
        2    1    3    3  502    0 -0.79797972769E+03  0.13628235599E+04 -0.11897936092E+04  0.19772881767E+04  0.25500000920E-02 0. -1.
       -2    1    3    3    0  502  0.79797972769E+03 -0.13628235599E+04  0.92431018612E+03  0.18298658479E+04  0.25500000920E-02 0.  1.
</event>
<event>
 5   0  0.4071750E-09  0.3791676E+04  0.7818609E-02  0.8047944E-01
       -1   -1    0    0    0  501  0.00000000000E+00  0.00000000000E+00  0.21386430088E+04  0.21386430088E+04  0.50400001928E-02 0. -1.
        1   -1    0    0  501    0  0.00000000000E+00  0.00000000000E+00 -0.16805990924E+04  0.16805990924E+04  0.50400001928E-02 0.  1.
    10030    2    1    2    0    0  0.00000000000E+00  0.00000000000E+00  0.45804391642E+03  0.38192421013E+04  0.37916758826E+04 0.  0.
        5    1    3    3  502    0  0.90969859983E+03  0.75151201764E+02  0.19027219969E+04  0.21103488653E+04  0.46999998093E+01 0. -1.
       -5    1    3    3    0  502 -0.90969859983E+03 -0.75151201764E+02 -0.14446780805E+04  0.17088932360E+04  0.46999998093E+01 0.  1.
</event>
<event>
 5   0  0.4071750E-09  0.3800327E+04  0.7818609E-02  0.8046085E-01
        1   -1    0    0  501    0  0.00000000000E+00  0.00000000000E+00  0.15374866450E+04  0.15374866451E+04  0.50400001928E-02 0.  1.
       -1   -1    0    0    0  501  0.00000000000E+00  0.00000000000E+00 -0.23483923670E+04  0.23483923670E+04  0.50400001928E-02 0. -1.
    10030    2    1    2    0    0  0.00000000000E+00  0.00000000000E+00 -0.81090572195E+03  0.38858790121E+04  0.38003273025E+04 0.  0.
        1    1    3    3  502    0 -0.60822676840E+03  0.13446762482E+04  0.81837353344E+03  0.16875512598E+04  0.50400001928E-02 0.  1.
       -1    1    3    3    0  502  0.60822676840E+03 -0.13446762482E+04 -0.16292792554E+04  0.21983277522E+04  0.50400001928E-02 0. -1.
</event>
<event>
 5   0  0.1305088E-08  0.3798420E+04  0.7818609E-02  0.8046494E-01
        2   -1    0    0  501    0  0.00000000000E+00  0.00000000000E+00  0.17932145700E+04  0.17932145700E+04  0.25500000920E-02 0.  1.
       -2   -1    0    0    0  501  0.00000000000E+00  0.00000000000E+00 -0.20114707352E+04  0.20114707352E+04  0.25500000920E-02 0. -1.
    10030    2    1    2    0    0  0.00000000000E+00  0.00000000000E+00 -0.21825616526E+03  0.38046853052E+04  0.37984200028E+04 0.  0.
        3    1    3    3  502    0 -0.90677362507E+03  0.93607659954E+03  0.12746428602E+04  0.18229624896E+04  0.10100000352E+00 0.  1.
       -3    1    3    3    0  502  0.90677362507E+03 -0.93607659954E+03 -0.14928990254E+04  0.19817228156E+04  0.10100000352E+00 0. -1.
</event>
<event>
 5   0  0.1264013E-08  0.3800377E+04  0.7818609E-02  0.8046074E-01
       -2   -1    0    0    0  501  0.00000000000E+00  0.00000000000E+00  0.18237854776E+04  0.18237854776E+04  0.25500000920E-02 0.  1.
        2   -1    0    0  501    0  0.00000000000E+00  0.00000000000E+00 -0.19797917640E+04  0.19797917640E+04  0.25500000920E-02 0. -1.
    10030    2    1    2    0    0  0.00000000000E+00  0.00000000000E+00 -0.15600628638E+03  0.38035772417E+04  0.38003765434E+04 0.  0.
        4    1    3    3  502    0 -0.28008590087E+03  0.16481957376E+04 -0.98193407762E+03  0.19388639579E+04  0.12699999809E+01 0.  1.
       -4    1    3    3    0  502  0.28008590087E+03 -0.16481957376E+04  0.82592779125E+03  0.18647132838E+04  0.12699999809E+01 0. -1.
</event>
<event>
 5   0  0.1264013E-08  0.3799976E+04  0.7818609E-02  0.8046160E-01
        2   -1    0    0  501    0  0.00000000000E+00  0.00000000000E+00  0.19383025381E+04  0.19383025381E+04  0.25500000920E-02 0.  1.
       -2   -1    0    0    0  501  0.00000000000E+00  0.00000000000E+00 -0.18624309388E+04  0.18624309388E+04  0.25500000920E-02 0. -1.
    10030    2    1    2    0    0  0.00000000000E+00  0.00000000000E+00  0.75871599230E+02  0.38007334769E+04  0.37999761135E+04 0.  0.
        4    1    3    3  502    0 -0.12371515687E+04 -0.68995075791E+03 -0.12285617898E+04  0.18750844612E+04  0.12699999809E+01 0. -1.
       -4    1    3    3    0  502  0.12371515687E+04  0.68995075791E+03  0.13044333891E+04  0.19256490157E+04  0.12699999809E+01 0.  1.
</event>
<event>
 5   0  0.4071750E-09  0.3801099E+04  0.7818609E-02  0.8045919E-01
       -1   -1    0    0    0  501  0.00000000000E+00  0.00000000000E+00  0.18868006340E+04  0.18868006340E+04  0.50400001928E-02 0. -1.
        1   -1    0    0  501    0  0.00000000000E+00  0.00000000000E+00 -0.19143981074E+04  0.19143981074E+04  0.50400001928E-02 0.  1.
    10030    2    1    2    0    0  0.00000000000E+00  0.00000000000E+00 -0.27597473352E+02  0.38011987414E+04  0.38010985585E+04 0.  0.
        3    1    3    3  502    0  0.97059962152E+03  0.10153128209E+04 -0.12941308064E+04  0.19098948411E+04  0.10100000352E+00 0.  1.
       -3    1    3    3    0  502 -0.97059962152E+03 -0.10153128209E+04  0.12665333331E+04  0.18913039004E+04  0.10100000352E+00 0. -1.
</event>
<event>
 5   0  0.4071750E-09  0.3799772E+04  0.7818609E-02  0.8046204E-01
       -1   -1    0    0    0  501  0.00000000000E+00  0.00000000000E+00  0.17440532750E+04  0.17440532750E+04  0.50400001928E-02 0. -1.
        1   -1    0    0  501    0  0.00000000000E+00  0.00000000000E+00 -0.20696424987E+04  0.20696424987E+04  0.50400001928E-02 0.  1.
    10030    2    1    2    0    0  0.00000000000E+00  0.00000000000E+00 -0.32558922368E+03  0.38136957736E+04  0.37997719815E+04 0.  0.
        5    1    3    3  502    0  0.96986353484E+03  0.15307814337E+04 -0.73551475009E+03  0.19557431098E+04  0.46999998093E+01 0.  1.
       -5    1    3    3    0  502 -0.96986353484E+03 -0.15307814337E+04  0.40992552641E+03  0.18579526638E+04  0.46999998093E+01 0. -1.
</event>
<event>
 5   0  0.4071750E-09  0.3797278E+04  0.7818609E-02  0.8046739E-01
        1   -1    0    0  501    0  0.00000000000E+00  0.00000000000E+00  0.33793407813E+04  0.33793407813E+04  0.50400001928E-02 0. -1.
       -1   -1    0    0    0  501  0.00000000000E+00  0.00000000000E+00 -0.10667257037E+04  0.10667257037E+04  0.50400001928E-02 0.  1.
    10030    2    1    2    0    0  0.00000000000E+00  0.00000000000E+00  0.23126150777E+04  0.44460664850E+04  0.37972778002E+04 0.  0.
        3    1    3    3  502    0 -0.16238948119E+04 -0.90963692770E+03  0.71765664830E+03  0.19948696137E+04  0.10100000352E+00 0.  1.
       -3    1    3    3    0  502  0.16238948119E+04  0.90963692770E+03  0.15949584294E+04  0.24511968714E+04  0.10100000352E+00 0. -1.
</event>
<event>
 5   0  0.4071750E-09  0.3798921E+04  0.7818609E-02  0.8046387E-01
       -1   -1    0    0    0  501  0.00000000000E+00  0.00000000000E+00  0.20592090241E+04  0.20592090241E+04  0.50400001928E-02 0.  1.
        1   -1    0    0  501    0  0.00000000000E+00  0.00000000000E+00 -0.17521047156E+04  0.17521047156E+04  0.50400001928E-02 0. -1.
    10030    2    1    2    0    0  0.00000000000E+00  0.00000000000E+00  0.30710430847E+03  0.38113137397E+04  0.37989208160E+04 0.  0.
        2    1    3    3  502    0 -0.58435677392E+03  0.17887150981E+04  0.41319226970E+03  0.19265778970E+04  0.25500000920E-02 0.  1.
       -2    1    3    3    0  502  0.58435677392E+03 -0.17887150981E+04 -0.10608796123E+03  0.18847358427E+04  0.25500000920E-02 0. -1.
</event>
<event>
 5   0  0.1305088E-08  0.3800066E+04  0.7818609E-02  0.8046141E-01
        2   -1    0    0  501    0  0.00000000000E+00  0.00000000000E+00  0.22743340058E+04  0.22743340058E+04  0.25500000920E-02 0.  1.
       -2   -1    0    0    0  501  0.00000000000E+00  0.00000000000E+00 -0.15873327056E+04  0.15873327056E+04  0.25500000920E-02 0. -1.
    10030    2    1    2    0    0  0.00000000000E+00  0.00000000000E+00  0.68700130020E+03  0.38616667114E+04  0.38000656577E+04 0.  0.
        3    1    3    3  502    0  0.11135356646E+04  0.15386529426E+04  0.29059728642E+03  0.19214216994E+04  0.10100000352E+00 0. -1.
       -3    1    3    3    0  502 -0.11135356646E+04 -0.15386529426E+04  0.39640401378E+03  0.19402450119E+04  0.10100000352E+00 0.  1.
</event>
<event>
 5   0  0.1305088E-08  0.3799009E+04  0.7818609E-02  0.8046368E-01
       -2   -1    0    0    0  501  0.00000000000E+00  0.00000000000E+00  0.19378985464E+04  0.19378985464E+04  0.25500000920E-02 0.  1.
        2   -1    0    0  501    0  0.00000000000E+00  0.00000000000E+00 -0.18618714554E+04  0.18618714554E+04  0.25500000920E-02 0. -1.
    10030    2    1    2    0    0  0.00000000000E+00  0.00000000000E+00  0.76027091001E+02  0.37997700017E+04  0.37990093376E+04 0.  0.
        3    1    3    3  502    0 -0.40347896244E+03 -0.16116555255E+04  0.95900689247E+03  0.19183125491E+04  0.10100000352E+00 0.  1.
       -3    1    3    3    0  502  0.40347896244E+03  0.16116555255E+04 -0.88297980147E+03  0.18814574526E+04  0.10100000352E+00 0. -1.
</event>
<event>
 5   0  0.4071750E-09  0.3800297E+04  0.7818609E-02  0.8046091E-01
       -1   -1    0    0    0  501  0.00000000000E+00  0.00000000000E+00  0.23589551956E+04  0.23589551956E+04  0.50400001928E-02 0. -1.
        1   -1    0    0  501    0  0.00000000000E+00  0.00000000000E+00 -0.15305776634E+04  0.15305776634E+04  0.50400001928E-02 0.  1.
    10030    2    1    2    0    0  0.00000000000E+00  0.00000000000E+00  0.82837753224E+03  0.38895328590E+04  0.38002968996E+04 0.  0.
        3    1    3    3  502    0  0.64475324956E+03 -0.16224416449E+03 -0.14076465515E+04  0.15567590519E+04  0.10100000352E+00 0.  1.
       -3    1    3    3    0  502 -0.64475324956E+03  0.16224416449E+03  0.22360240837E+04  0.23327738071E+04  0.10100000352E+00 0. -1.
</event>
<event>
 5   0  0.1261152E-08  0.3810199E+04  0.7818609E-02  0.8043970E-01
       -2   -1    0    0    0  501  0.00000000000E+00  0.00000000000E+00  0.26417392751E+04  0.26417392751E+04  0.25500000920E-02 0. -1.
        2   -1    0    0  501    0  0.00000000000E+00  0.00000000000E+00 -0.13738689274E+04  0.13738689274E+04  0.25500000920E-02 0.  1.
    10030    2    1    2    0    0  0.00000000000E+00  0.00000000000E+00  0.12678703477E+04  0.40156082024E+04  0.38101986847E+04 0.  0.
        2    1    3    3  502    0  0.17425933102E+04 -0.75355401458E+03  0.46753607563E+03  0.19552659870E+04  0.25500000920E-02 0. -1.
       -2    1    3    3    0  502 -0.17425933102E+04  0.75355401458E+03  0.80033427207E+03  0.20603422155E+04  0.25500000920E-02 0.  1.
</event>
<event>
 5   0  0.1327249E-08  0.3802372E+04  0.7818609E-02  0.8045646E-01
       -2   -1    0    0    0  501  0.00000000000E+00  0.00000000000E+00  0.26225110498E+04  0.26225110498E+04  0.25500000920E-02 0. -1.
        2   -1    0    0  501    0  0.00000000000E+00  0.00000000000E+00 -0.13782625312E+04  0.13782625313E+04  0.25500000920E-02 0.  1.
    10030    2    1    2    0    0  0.00000000000E+00  0.00000000000E+00  0.12442485185E+04  0.40007735810E+04  0.38023722688E+04 0.  0.
        1    1    3    3  502    0 -0.10422180470E+04 -0.94100125062E+03 -0.72647401554E+03  0.15809700523E+04  0.50400001928E-02 0.  1.
       -1    1    3    3    0  502  0.10422180470E+04  0.94100125062E+03  0.19707225341E+04  0.24198035287E+04  0.50400001928E-02 0. -1.
</event>
<event>
 5   0  0.1264013E-08  0.3799878E+04  0.7818609E-02  0.8046181E-01
       -2   -1    0    0    0  501  0.00000000000E+00  0.00000000000E+00  0.14946881615E+04  0.14946881615E+04  0.25500000920E-02 0.  1.
        2   -1    0    0  501    0  0.00000000000E+00  0.00000000000E+00 -0.24150641388E+04  0.24150641388E+04  0.25500000920E-02 0. -1.
    10030    2    1    2    0    0  0.00000000000E+00  0.00000000000E+00 -0.92037597731E+03  0.39097523002E+04  0.37998777756E+04 0.  0.
        4    1    3    3  502    0 -0.71797687933E+03  0.16039978356E+04 -0.12031947115E+04  0.21297837878E+04  0.12699999809E+01 0. -1.
       -4    1    3    3    0  502  0.71797687933E+03 -0.16039978356E+04  0.28281873421E+03  0.17799685124E+04  0.12699999809E+01 0.  1.
</event>
<event>
 5   0  0.4071750E-09  0.3799741E+04  0.7818609E-02  0.8046211E-01
        1   -1    0    0  501    0  0.00000000000E+00  0.00000000000E+00  0.21253593895E+04  0.21253593895E+04  0.50400001928E-02 0.  1.
       -1   -1    0    0    0  501  0.00000000000E+00  0.00000000000E+00 -0.16983044102E+04  0.16983044102E+04  0.50400001928E-02 0. -1.
    10030    2    1    2    0    0  0.00000000000E+00  0.00000000000E+00  0.42705497937E+03  0.38236637997E+04  0.37997406356E+04 0.  0.
        5    1    3    3  502    0 -0.17808507189E+03  0.29449230689E+01 -0.16898787113E+04  0.16992454544E+04  0.46999998093E+01 0. -1.
       -5    1    3    3    0  502  0.17808507189E+03 -0.29449230689E+01  0.21169336907E+04  0.21244183453E+04  0.46999998093E+01 0.  1.
</event>
<event>
 5   0  0.1327249E-08  0.3800098E+04  0.7818609E-02  0.8046134E-01
        2   -1    0    0  501    0  0.00000000000E+00  0.00000000000E+00  0.17787717007E+04  0.17787717007E+04  0.25500000920E-02 0.  1.
       -2   -1    0    0    0  501  0.00000000000E+00  0.00000000000E+00 -0.20295949225E+04  0.20295949225E+04  0.25500000920E-02 0. -1.
    10030    2    1    2    0    0  0.00000000000E+00  0.00000000000E+00 -0.25082322186E+03  0.38083666232E+04  0.38000978998E+04 0.  0.
        1    1    3    3  502    0  0.17238027816E+04  0.68812083872E+03  0.28189578225E+03  0.18773575979E+04  0.50400001928E-02 0.  1.
       -1    1    3    3    0  502 -0.17238027816E+04 -0.68812083872E+03 -0.53271900412E+03  0.19310090253E+04  0.50400001928E-02 0. -1.
</event>
<event>
 5   0  0.1305088E-08  0.3800772E+04  0.7818609E-02  0.8045989E-01
        2   -1    0    0  501    0  0.00000000000E+00  0.00000000000E+00  0.12778365051E+04  0.12778365051E+04  0.25500000920E-02 0. -1.
       -2   -1    0    0    0  501  0.00000000000E+00  0.00000000000E+00 -0.28262355243E+04  0.28262355243E+04  0.25500000920E-02 0.  1.
    10030    2    1    2    0    0  0.00000000000E+00  0.00000000000E+00 -0.15483990192E+04  0.41040720294E+04  0.38007719874E+04 0.  0.
        3    1    3    3  502    0  0.31251344614E+03 -0.40149804117E+03  0.12029255044E+04  0.13060991962E+04  0.10100000352E+00 0. -1.
       -3    1    3    3    0  502 -0.31251344614E+03  0.40149804117E+03 -0.27513245236E+04  0.27979728332E+04  0.10100000352E+00 0.  1.
</event>
<event>
 5   0  0.4071750E-09  0.3798893E+04  0.7818609E-02  0.8046392E-01
        1   -1    0    0  501    0  0.00000000000E+00  0.00000000000E+00  0.15535217075E+04  0.15535217075E+04  0.50400001928E-02 0. -1.
       -1   -1    0    0    0  501  0.00000000000E+00  0.00000000000E+00 -0.23223989171E+04  0.23223989171E+04  0.50400001928E-02 0.  1.
    10030    2    1    2    0    0  0.00000000000E+00  0.00000000000E+00 -0.76887720952E+03  0.38759206246E+04  0.37988930658E+04 0.  0.
        4    1    3    3  502    0 -0.94181536241E+03 -0.16403004642E+04 -0.56201865379E+03  0.19731873631E+04  0.12699999809E+01 0. -1.
       -4    1    3    3    0  502  0.94181536241E+03  0.16403004642E+04 -0.20685855573E+03  0.19027332616E+04  0.12699999809E+01 0.  1.
</event>
<event>
 5   0  0.1293993E-08  0.3799989E+04  0.7818609E-02  0.8046157E-01
        2   -1    0    0  501    0  0.00000000000E+00  0.00000000000E+00  0.21859859546E+04  0.21859859546E+04  0.25500000920E-02 0.  1.
       -2   -1    0    0    0  501  0.00000000000E+00  0.00000000000E+00 -0.16514188186E+04  0.16514188186E+04  0.25500000920E-02 0. -1.
    10030    2    1    2    0    0  0.00000000000E+00  0.00000000000E+00  0.53456713597E+03  0.38374047733E+04  0.37999886014E+04 0.  0.
        5    1    3    3  502    0 -0.49818923511E+03 -0.16555273706E+04  0.10630738335E+04  0.20295594237E+04  0.46999998093E+01 0.  1.
       -5    1    3    3    0  502  0.49818923511E+03  0.16555273706E+04 -0.52850669755E+03  0.18078453496E+04  0.46999998093E+01 0. -1.
</event>
<event>
 5   0  0.1261152E-08  0.3798147E+04  0.7818609E-02  0.8046553E-01
        2   -1    0    0  501    0  0.00000000000E+00  0.00000000000E+00  0.23262984422E+04  0.23262984422E+04  0.25500000920E-02 0.  1.
       -2   -1    0    0    0  501  0.00000000000E+00  0.00000000000E+00 -0.15503087023E+04  0.15503087023E+04  0.25500000920E-02 0. -1.
    10030    2    1    2    0    0  0.00000000000E+00  0.00000000000E+00  0.77598973993E+03  0.38766071446E+04  0.37981472953E+04 0.  0.
        2    1    3    3  502    0 -0.74168780624E+03  0.10826187130E+04 -0.10130657629E+04  0.16578499087E+04  0.25500000920E-02 0. -1.
       -2    1    3    3    0  502  0.74168780624E+03 -0.10826187130E+04  0.17890555028E+04  0.22187572359E+04  0.25500000920E-02 0.  1.
</event>
<event>
 5   0  0.1261152E-08  0.3802184E+04  0.7818609E-02  0.8045686E-01
       -2   -1    0    0    0  501  0.00000000000E+00  0.00000000000E+00  0.20540251463E+04  0.20540251463E+04  0.25500000920E-02 0.  1.
        2   -1    0    0  501    0  0.00000000000E+00  0.00000000000E+00 -0.17595456296E+04  0.17595456296E+04  0.25500000920E-02 0. -1.
    10030    2    1    2    0    0  0.00000000000E+00  0.00000000000E+00  0.29447951671E+03  0.38135707759E+04  0.38021840930E+04 0.  0.
        2    1    3    3  502    0 -0.17198387608E+04  0.78956741367E+03  0.32913585569E+03  0.19208311938E+04  0.25500000920E-02 0. -1.
       -2    1    3    3    0  502  0.17198387608E+04 -0.78956741367E+03 -0.34656338986E+02  0.18927395821E+04  0.25500000920E-02 0.  1.
</event>
<event>
 5   0  0.4071750E-09  0.3802293E+04  0.7818609E-02  0.8045663E-01
       -1   -1    0    0    0  501  0.00000000000E+00  0.00000000000E+00  0.31347072932E+04  0.31347072932E+04  0.50400001928E-02 0.  1.
        1   -1    0    0  501    0  0.00000000000E+00  0.00000000000E+00 -0.11530130172E+04  0.11530130172E+04  0.50400001928E-02 0. -1.
    10030    2    1    2    0    0  0.00000000000E+00  0.00000000000E+00  0.19816942760E+04  0.42877203104E+04  0.38022931577E+04 0.  0.
        3    1    3    3  502    0 -0.16954195429E+03 -0.18690662996E+04  0.13332663158E+04  0.23021191076E+04  0.10100000352E+00 0.  1.
       -3    1    3    3    0  502  0.16954195429E+03  0.18690662996E+04  0.64842796021E+03  0.19856012028E+04  0.10100000352E+00 0. -1.
</event>
<event>
 5   0  0.4071750E-09  0.3806443E+04  0.7818609E-02  0.8044774E-01
       -1   -1    0    0    0  501  0.00000000000E+00  0.00000000000E+00  0.15553479756E+04  0.15553479756E+04  0.50400001928E-02 0. -1.
        1   -1    0    0  501    0  0.00000000000E+00  0.00000000000E+00 -0.23289015403E+04  0.23289015403E+04  0.50400001928E-02 0.  1.
    10030    2    1    2    0    0  0.00000000000E+00  0.00000000000E+00 -0.77355356478E+03  0.38842495159E+04  0.38064431145E+04 0.  0.
        2    1    3    3  502    0  0.50826839250E+03  0.18277622908E+04 -0.23134605661E+03  0.19111705179E+04  0.25500000920E-02 0. -1.
       -2    1    3    3    0  502 -0.50826839250E+03 -0.18277622908E+04 -0.54220750817E+03  0.19730789980E+04  0.25500000920E-02 0.  1.
</event>
<event>
 5   0  0.1327249E-08  0.3800817E+04  0.7818609E-02  0.8045980E-01
        2   -1    0    0  501    0  0.00000000000E+00  0.00000000000E+00  0.21167842670E+04  0.21167842670E+04  0.25500000920E-02 0.  1.
       -2   -1    0    0    0  501  0.00000000000E+00  0.00000000000E+00 -0.17061500481E+04  0.17061500481E+04  0.25500000920E-02 0. -1.
    10030    2    1    2    0    0  0.00000000000E+00  0.00000000000E+00  0.41063421896E+03  0.38229343151E+04  0.38008165327E+04 0.  0.
        1    1    3    3  502    0 -0.35822013118E+03  0.49007536246E+03  0.20166453460E+04  0.21060280091E+04  0.50400001928E-02 0.  1.
       -1    1    3    3    0  502  0.35822013118E+03 -0.49007536246E+03 -0.16060111271E+04  0.17169063060E+04  0.50400001928E-02 0. -1.
</event>
<event>
 5   0  0.4071750E-09  0.3811249E+04  0.7818609E-02  0.8043745E-01
       -1   -1    0    0    0  501  0.00000000000E+00  0.00000000000E+00  0.18567489576E+04  0.18567489576E+04  0.50400001928E-02 0. -1.
        1   -1    0    0  501    0  0.00000000000E+00  0.00000000000E+00 -0.19557866231E+04  0.19557866231E+04  0.50400001928E-02 0.  1.
    10030    2    1    2    0    0  0.00000000000E+00  0.00000000000E+00 -0.99037665468E+02  0.38125355806E+04  0.38112490203E+04 0.  0.
        2    1    3    3  502    0  0.10277431071E+04 -0.67544208872E+02 -0.16533649769E+04  0.19479306613E+04  0.25500000920E-02 0.  1.
       -2    1    3    3    0  502 -0.10277431071E+04  0.67544208872E+02  0.15543273114E+04  0.18646049194E+04  0.25500000920E-02 0. -1.
</event>
<event>
 5   0  0.4071750E-09  0.3799331E+04  0.7818609E-02  0.8046298E-01
       -1   -1    0    0    0  501  0.00000000000E+00  0.00000000000E+00  0.23943652602E+04  0.23943652602E+04  0.50400001928E-02 0.  1.
        1   -1    0    0  501    0  0.00000000000E+00  0.00000000000E+00 -0.15071759348E+04  0.15071759348E+04  0.50400001928E-02 0. -1.
    10030    2    1    2    0    0  0.00000000000E+00  0.00000000000E+00  0.88718932544E+03  0.39015411950E+04  0.37993313618E+04 0.  0.
        5    1    3    3  502    0 -0.16489909079E+04  0.46026386987E+03 -0.40177326906E+03  0.17585385108E+04  0.46999998093E+01 0.  1.
       -5    1    3    3    0  502  0.16489909079E+04 -0.46026386987E+03  0.12889625945E+04  0.21430026842E+04  0.46999998093E+01 0. -1.
</event>
<event>
 5   0  0.1293993E-08  0.3798999E+04  0.7818609E-02  0.8046370E-01
        2   -1    0    0  501    0  0.00000000000E+00  0.00000000000E+00  0.13843977959E+04  0.13843977959E+04  0.25500000920E-02 0. -1.
       -2   -1    0    0    0  501  0.00000000000E+00  0.00000000000E+00 -0.26062579952E+04  0.26062579952E+04  0.25500000920E-02 0.  1.
    10030    2    1    2    0    0  0.00000000000E+00  0.00000000000E+00 -0.12218601993E+04  0.39906557911E+04  0.37989987228E+04 0.  0.
        5    1    3    3  502    0  0.16408290051E+03  0.18282398075E+04 -0.97721624915E+02  0.18381935692E+04  0.46999998093E+01 0. -1.
       -5    1    3    3    0  502 -0.16408290051E+03 -0.18282398075E+04 -0.11241385744E+04  0.21524622218E+04  0.46999998093E+01 0.  1.
</event>
<event>
 5   0  0.4071750E-09  0.3800022E+04  0.7818609E-02  0.8046150E-01
       -1   -1    0    0    0  501  0.00000000000E+00  0.00000000000E+00  0.20500788936E+04  0.20500788936E+04  0.50400001928E-02 0.  1.
        1   -1    0    0  501    0  0.00000000000E+00  0.00000000000E+00 -0.17609283928E+04  0.17609283928E+04  0.50400001928E-02 0. -1.
    10030    2    1    2    0    0  0.00000000000E+00  0.00000000000E+00  0.28915050077E+03  0.38110072864E+04  0.38000221743E+04 0.  0.
        2    1    3    3  502    0  0.16247970530E+04  0.65126940103E+03 -0.59642793350E+03  0.18492819082E+04  0.25500000920E-02 0. -1.
       -2    1    3    3    0  502 -0.16247970530E+04 -0.65126940103E+03  0.88557843427E+03  0.19617253782E+04  0.25500000920E-02 0.  1.
</event>
<event>
 5   0  0.4071750E-09  0.3799041E+04  0.7818609E-02  0.8046361E-01
       -1   -1    0    0    0  501  0.00000000000E+00  0.00000000000E+00  0.12065786521E+04  0.12065786521E+04  0.50400001928E-02 0. -1.
        1   -1    0    0  501    0  0.00000000000E+00  0.00000000000E+00 -0.29904208452E+04  0.29904208452E+04  0.50400001928E-02 0.  1.
    10030    2    1    2    0    0  0.00000000000E+00  0.00000000000E+00 -0.17838421931E+04  0.41969994973E+04  0.37990409066E+04 0.  0.
        3    1    3    3  502    0 -0.14202130293E+04 -0.43720565523E+03  0.41525080690E+03  0.15429151229E+04  0.10100000352E+00 0. -1.
       -3    1    3    3    0  502  0.14202130293E+04  0.43720565523E+03 -0.21990930000E+04  0.26540843744E+04  0.10100000352E+00 0.  1.
</event>
<event>
 5   0  0.4071750E-09  0.3801453E+04  0.7818609E-02  0.8045843E-01
        1   -1    0    0  501    0  0.00000000000E+00  0.00000000000E+00  0.18930877334E+04  0.18930877334E+04  0.50400001928E-02 0.  1.
       -1   -1    0    0    0  501  0.00000000000E+00  0.00000000000E+00 -0.19083960510E+04  0.19083960510E+04  0.50400001928E-02 0. -1.
    10030    2    1    2    0    0  0.00000000000E+00  0.00000000000E+00 -0.15308317522E+02  0.38014837844E+04  0.38014529615E+04 0.  0.
        5    1    3    3  502    0  0.11802695114E+04  0.13191932992E+04 -0.70007004469E+03  0.19035302040E+04  0.46999998093E+01 0. -1.
       -5    1    3    3    0  502 -0.11802695114E+04 -0.13191932992E+04  0.68476172717E+03  0.18979535804E+04  0.46999998093E+01 0.  1.
</event>
<event>
 5   0  0.1261152E-08  0.3798495E+04  0.7818609E-02  0.8046478E-01
        2   -1    0    0  501    0  0.00000000000E+00  0.00000000000E+00  0.19448022236E+04  0.19448022236E+04  0.25500000920E-02 0.  1.
       -2   -1    0    0    0  501  0.00000000000E+00  0.00000000000E+00 -0.18547596965E+04  0.18547596965E+04  0.25500000920E-02 0. -1.
    10030    2    1    2    0    0  0.00000000000E+00  0.00000000000E+00  0.90042527116E+02  0.37995619201E+04  0.37984948503E+04 0.  0.
        2    1    3    3  502    0  0.17634370381E+04  0.69812541431E+03 -0.55264071557E+02  0.18974043847E+04  0.25500000920E-02 0.  1.
       -2    1    3    3    0  502 -0.17634370381E+04 -0.69812541431E+03  0.14530659867E+03  0.19021575353E+04  0.25500000920E-02 0. -1.
</event>
<event>
 5   0  0.1327249E-08  0.3799997E+04  0.7818609E-02  0.8046155E-01
       -2   -1    0    0    0  501  0.00000000000E+00  0.00000000000E+00  0.23344632731E+04  0.23344632731E+04  0.25500000920E-02 0. -1.
        2   -1    0    0  501    0  0.00000000000E+00  0.00000000000E+00 -0.15463918633E+04  0.15463918633E+04  0.25500000920E-02 0.  1.
    10030    2    1    2    0    0  0.00000000000E+00  0.00000000000E+00  0.78807140981E+03  0.38808551364E+04  0.37999973740E+04 0.  0.
        1    1    3    3  502    0 -0.13005741637E+03  0.15391346024E+04  0.15239890790E+04  0.21698831694E+04  0.50400001928E-02 0. -1.
       -1    1    3    3    0  502  0.13005741637E+03 -0.15391346024E+04 -0.73591766919E+03  0.17109719670E+04  0.50400001928E-02 0.  1.
</event>
<event>
 5   0  0.4071750E-09  0.3798696E+04  0.7818609E-02  0.8046435E-01
        1   -1    0    0  501    0  0.00000000000E+00  0.00000000000E+00  0.13708772675E+04  0.13708772675E+04  0.50400001928E-02 0. -1.
       -1   -1    0    0    0  501  0.00000000000E+00  0.00000000000E+00 -0.26315436971E+04  0.26315436971E+04  0.50400001928E-02 0.  1.
    10030    2    1    2    0    0  0.00000000000E+00  0.00000000000E+00 -0.12606664296E+04  0.40024209645E+04  0.37986963199E+04 0.  0.
        3    1    3    3  502    0  0.14603407044E+03 -0.13724059428E+04 -0.20051891102E+04  0.24342570529E+04  0.10100000352E+00 0.  1.
       -3    1    3    3    0  502 -0.14603407044E+03  0.13724059428E+04  0.74452268061E+03  0.15681639116E+04  0.10100000352E+00 0. -1.
</event>
<event>
 5   0  0.1327249E-08  0.3799764E+04  0.7818609E-02  0.8046205E-01
        2   -1    0    0  501    0  0.00000000000E+00  0.00000000000E+00  0.20326301359E+04  0.20326301359E+04  0.25500000920E-02 0.  1.
       -2   -1    0    0    0  501  0.00000000000E+00  0.00000000000E+00 -0.17758037865E+04  0.17758037865E+04  0.25500000920E-02 0. -1.
    10030    2    1    2    0    0  0.00000000000E+00  0.00000000000E+00  0.25682634942E+03  0.38084339225E+04  0.37997643569E+04 0.  0.
        1    1    3    3  502    0 -0.16363974665E+04 -0.36531344183E+03  0.10239290532E+04  0.19646071580E+04  0.50400001928E-02 0.  1.
       -1    1    3    3    0  502  0.16363974665E+04  0.36531344183E+03 -0.76710270376E+03  0.18438267645E+04  0.50400001928E-02 0. -1.
</event>
<event>
 5   0  0.1327249E-08  0.3800946E+04  0.7818609E-02  0.8045952E-01
       -2   -1    0    0    0  501  0.00000000000E+00  0.00000000000E+00  0.16935720212E+04  0.16935720212E+04  0.25500000920E-02 0.  1.
        2   -1    0    0  501    0  0.00000000000E+00  0.00000000000E+00 -0.21326508080E+04  0.21326508080E+04  0.25500000920E-02 0. -1.
    10030    2    1    2    0    0  0.00000000000E+00  0.00000000000E+00 -0.43907878675E+03  0.38262228292E+04  0.38009460609E+04 0.  0.
        1    1    3    3  502    0  0.24018417376E+03 -0.16204457556E+04  0.75033279535E+03  0.18018135830E+04  0.50400001928E-02 0.  1.
       -1    1    3    3    0  502 -0.24018417376E+03  0.16204457556E+04 -0.11894115821E+04  0.20244092461E+04  0.50400001928E-02 0. -1.
</event>
<event>
 5   0  0.1293993E-08  0.3800060E+04  0.7818609E-02  0.8046142E-01
       -2   -1    0    0    0  501  0.00000000000E+00  0.00000000000E+00  0.19752169710E+04  0.19752169710E+04  0.25500000920E-02 0. -1.
        2   -1    0    0  501    0  0.00000000000E+00  0.00000000000E+00 -0.18277054488E+04  0.18277054488E+04  0.25500000920E-02 0.  1.
    10030    2    1    2    0    0  0.00000000000E+00  0.00000000000E+00  0.14751152214E+03  0.38029224198E+04  0.38000604314E+04 0.  0.
        5    1    3    3  502    0 -0.16976385932E+04 -0.54753810545E+03  0.72870871570E+03  0.19268661739E+04  0.46999998093E+01 0. -1.
       -5    1    3    3    0  502  0.16976385932E+04  0.54753810545E+03 -0.58119719356E+03  0.18760562459E+04  0.46999998093E+01 0.  1.
</event>
<event>
 5   0  0.1305088E-08  0.3801162E+04  0.7818609E-02  0.8045906E-01
        2   -1    0    0  501    0  0.00000000000E+00  0.00000000000E+00  0.21483485725E+04  0.21483485725E+04  0.25500000920E-02 0.  1.
       -2   -1    0    0    0  501  0.00000000000E+00  0.00000000000E+00 -0.16813880345E+04  0.16813880345E+04  0.25500000920E-02 0. -1.
    10030    2    1    2    0    0  0.00000000000E+00  0.00000000000E+00  0.46696053798E+03  0.38297366070E+04  0.38011617086E+04 0.  0.
        3    1    3    3  502    0 -0.12698060691E+04 -0.67788591965E+03  0.14838864205E+04  0.20673305716E+04  0.10100000352E+00 0.  1.
       -3    1    3    3    0  502  0.12698060691E+04  0.67788591965E+03 -0.10169258825E+04  0.17624060355E+04  0.10100000352E+00 0. -1.
</event>
<event>
 5   0  0.4071750E-09  0.3795249E+04  0.7818609E-02  0.8047175E-01
       -1   -1    0    0    0  501  0.00000000000E+00  0.00000000000E+00  0.28801054779E+04  0.28801054779E+04  0.50400001928E-02 0.  1.
        1   -1    0    0  501    0  0.00000000000E+00  0.00000000000E+00 -0.12502942000E+04  0.12502942000E+04  0.50400001928E-02 0. -1.
    10030    2    1    2    0    0  0.00000000000E+00  0.00000000000E+00  0.16298112779E+04  0.41303996778E+04  0.37952492273E+04 0.  0.
        1    1    3    3  502    0 -0.14656535303E+04  0.52238807537E+03 -0.36727408618E+03  0.15987244373E+04  0.50400001928E-02 0. -1.
       -1    1    3    3    0  502  0.14656535303E+04 -0.52238807537E+03  0.19970853641E+04  0.25316752405E+04  0.50400001928E-02 0.  1.
</event>
<event>
 5   0  0.4071750E-09  0.3799454E+04  0.7818609E-02  0.8046272E-01
       -1   -1    0    0    0  501  0.00000000000E+00  0.00000000000E+00  0.17454021055E+04  0.17454021055E+04  0.50400001928E-02 0.  1.
        1   -1    0    0  501    0  0.00000000000E+00  0.00000000000E+00 -0.20676971420E+04  0.20676971420E+04  0.50400001928E-02 0. -1.
    10030    2    1    2    0    0  0.00000000000E+00  0.00000000000E+00 -0.32229503653E+03  0.38130992475E+04  0.37994541425E+04 0.  0.
        1    1    3    3  502    0  0.64146234299E+03 -0.25028754457E+03  0.16157605071E+04  0.17563598176E+04  0.50400001928E-02 0.  1.
       -1    1    3    3    0  502 -0.64146234299E+03  0.25028754457E+03 -0.19380555436E+04  0.20567394300E+04  0.50400001928E-02 0. -1.
</event>
<event>
 5   0  0.4071750E-09  0.3810522E+04  0.7818609E-02  0.8043901E-01
       -1   -1    0    0    0  501  0.00000000000E+00  0.00000000000E+00  0.21255922951E+04  0.21255922952E+04  0.50400001928E-02 0.  1.
        1   -1    0    0  501    0  0.00000000000E+00  0.00000000000E+00 -0.17077682478E+04  0.17077682478E+04  0.50400001928E-02 0. -1.
    10030    2    1    2    0    0  0.00000000000E+00  0.00000000000E+00  0.41782404737E+03  0.38333605429E+04  0.38105217645E+04 0.  0.
        3    1    3    3  502    0 -0.37294456116E+03 -0.14763161754E+04  0.13609490611E+04  0.20422486265E+04  0.10100000352E+00 0.  1.
       -3    1    3    3    0  502  0.37294456116E+03  0.14763161754E+04 -0.94312501373E+03  0.17911119164E+04  0.10100000352E+00 0. -1.
</event>
<event>
 5   0  0.1293993E-08  0.3801546E+04  0.7818609E-02  0.8045823E-01
        2   -1    0    0  501    0  0.00000000000E+00  0.00000000000E+00  0.16916566355E+04  0.16916566355E+04  0.25500000920E-02 0.  1.
       -2   -1    0    0    0  501  0.00000000000E+00  0.00000000000E+00 -0.21357392036E+04  0.21357392036E+04  0.25500000920E-02 0. -1.
    10030    2    1    2    0    0  0.00000000000E+00  0.00000000000E+00 -0.44408256807E+03  0.38273958391E+04  0.38015456833E+04 0.  0.
        5    1    3    3  502    0 -0.61693699162E+02 -0.11879281236E+02  0.16906051135E+04  0.16917786408E+04  0.46999998093E+01 0.  1.
       -5    1    3    3    0  502  0.61693699162E+02  0.11879281236E+02 -0.21346876816E+04  0.21356171983E+04  0.46999998093E+01 0. -1.
</event>
<event>
 5   0  0.1327249E-08  0.3799409E+04  0.7818609E-02  0.8046282E-01
        2   -1    0    0  501    0  0.00000000000E+00  0.00000000000E+00  0.17503747724E+04  0.17503747724E+04  0.25500000920E-02 0.  1.
       -2   -1    0    0    0  501  0.00000000000E+00  0.00000000000E+00 -0.20617736517E+04  0.20617736517E+04  0.25500000920E-02 0. -1.
    10030    2    1    2    0    0  0.00000000000E+00  0.00000000000E+00 -0.31139887933E+03  0.38121484240E+04  0.37994086836E+04 0.  0.
        1    1    3    3  502    0 -0.18280484920E+03  0.71494743793E+03  0.16006870113E+04  0.17626021559E+04  0.50400001928E-02 0.  1.
       -1    1    3    3    0  502  0.18280484920E+03 -0.71494743793E+03 -0.19120858906E+04  0.20495462681E+04  0.50400001928E-02 0. -1.
</event>
<event>
 5   0  0.4071750E-09  0.3800691E+04  0.7818609E-02  0.8046007E-01
        1   -1    0    0  501    0  0.00000000000E+00  0.00000000000E+00  0.20978860221E+04  0.20978860221E+04  0.50400001928E-02 0.  1.
       -1   -1    0    0    0  501  0.00000000000E+00  0.00000000000E+00 -0.17214057220E+04  0.17214057220E+04  0.50400001928E-02 0. -1.
    10030    2    1    2    0    0  0.00000000000E+00  0.00000000000E+00  0.37648030012E+03  0.38192917442E+04  0.38006909912E+04 0.  0.
        5    1    3    3  502    0  0.63388176993E+03  0.17868866924E+04  0.31740231680E+03  0.19223778168E+04  0.46999998093E+01 0.  1.
       -5    1    3    3    0  502 -0.63388176993E+03 -0.17868866924E+04  0.59077983320E+02  0.18969139274E+04  0.46999998093E+01 0. -1.
</event>
<event>
 5   0  0.4071750E-09  0.3801148E+04  0.7818609E-02  0.8045909E-01
        1   -1    0    0  501    0  0.00000000000E+00  0.00000000000E+00  0.25305163996E+04  0.25305163996E+04  0.50400001928E-02 0.  1.
       -1   -1    0    0    0  501  0.00000000000E+00  0.00000000000E+00 -0.14274483516E+04  0.14274483516E+04  0.50400001928E-02 0. -1.
    10030    2    1    2    0    0  0.00000000000E+00  0.00000000000E+00  0.11030680480E+04  0.39579647512E+04  0.38011479652E+04 0.  0.
        5    1    3    3  502    0 -0.17235876566E+04 -0.77191026717E+03  0.32928153449E+03  0.19170415461E+04  0.46999998093E+01 0. -1.
       -5    1    3    3    0  502  0.17235876566E+04  0.77191026717E+03  0.77378651349E+03  0.20409232051E+04  0.46999998093E+01 0.  1.
</event>
<event>
 5   0  0.1327249E-08  0.3798741E+04  0.7818609E-02  0.8046425E-01
        2   -1    0    0  501    0  0.00000000000E+00  0.00000000000E+00  0.31377139375E+04  0.31377139375E+04  0.25500000920E-02 0.  1.
       -2   -1    0    0    0  501  0.00000000000E+00  0.00000000000E+00 -0.11497571420E+04  0.11497571420E+04  0.25500000920E-02 0. -1.
    10030    2    1    2    0    0  0.00000000000E+00  0.00000000000E+00  0.19879567955E+04  0.42874710795E+04  0.37987413753E+04 0.  0.
        1    1    3    3  502    0 -0.10731596276E+04  0.11431556518E+04 -0.21591343526E+03  0.15827492038E+04  0.50400001928E-02 0. -1.
       -1    1    3    3    0  502  0.10731596276E+04 -0.11431556518E+04  0.22038702308E+04  0.27047218757E+04  0.50400001928E-02 0.  1.
</event>
<event>
 5   0  0.4071750E-09  0.3800388E+04  0.7818609E-02  0.8046072E-01
        1   -1    0    0  501    0  0.00000000000E+00  0.00000000000E+00  0.18087412633E+04  0.18087412633E+04  0.50400001928E-02 0. -1.
       -1   -1    0    0    0  501  0.00000000000E+00  0.00000000000E+00 -0.19962709857E+04  0.19962709857E+04  0.50400001928E-02 0.  1.
    10030    2    1    2    0    0  0.00000000000E+00  0.00000000000E+00 -0.18752972247E+03  0.38050122490E+04  0.38003882457E+04 0.  0.
        3    1    3    3  502    0  0.14026478788E+04 -0.70683461434E+03 -0.11645058520E+04  0.19552775081E+04  0.10100000352E+00 0.  1.
       -3    1    3    3    0  502 -0.14026478788E+04  0.70683461434E+03  0.97697612958E+03  0.18497347409E+04  0.10100000352E+00 0. -1.
</event>
<event>
 5   0  0.4071750E-09  0.3787514E+04  0.7818609E-02  0.8048840E-01
       -1   -1    0    0    0  501  0.00000000000E+00  0.00000000000E+00  0.18773060207E+04  0.18773060207E+04  0.50400001928E-02 0. -1.
        1   -1    0    0  501    0  0.00000000000E+00  0.00000000000E+00 -0.19103518216E+04  0.19103518216E+04  0.50400001928E-02 0.  1.
    10030    2    1    2    0    0  0.00000000000E+00  0.00000000000E+00 -0.33045800918E+02  0.37876578423E+04  0.37875136839E+04 0.  0.
        2    1    3    3  502    0 -0.89384045628E+02 -0.17752712731E+04  0.63675335120E+03  0.18881293470E+04  0.25500000920E-02 0. -1.
       -2    1    3    3    0  502  0.89384045628E+02  0.17752712731E+04 -0.66979915211E+03  0.18995284954E+04  0.25500000920E-02 0.  1.
</event>
<event>
 5   0  0.4071750E-09  0.3800368E+04  0.7818609E-02  0.8046076E-01
        1   -1    0    0  501    0  0.00000000000E+00  0.00000000000E+00  0.23620091688E+04  0.23620091688E+04  0.50400001928E-02 0.  1.
       -1   -1    0    0    0  501  0.00000000000E+00  0.00000000000E+00 -0.15286558234E+04  0.15286558234E+04  0.50400001928E-02 0. -1.
    10030    2    1    2    0    0  0.00000000000E+00  0.00000000000E+00  0.83335334546E+03  0.38906649922E+04  0.38003679142E+04 0.  0.
        4    1    3    3  502    0 -0.49682842637E+03 -0.36442810247E+02  0.22939665403E+04  0.23474349117E+04  0.12699999809E+01 0.  1.
       -4    1    3    3    0  502  0.49682842637E+03  0.36442810247E+02 -0.14606131948E+04  0.15432300805E+04  0.12699999809E+01 0. -1.
</event>
<event>
 5   0  0.4071750E-09  0.3797733E+04  0.7818609E-02  0.8046642E-01
        1   -1    0    0  501    0  0.00000000000E+00  0.00000000000E+00  0.15799421514E+04  0.15799421514E+04  0.50400001928E-02 0.  1.
       -1   -1    0    0    0  501  0.00000000000E+00  0.00000000000E+00 -0.22821684003E+04  0.22821684003E+04  0.50400001928E-02 0. -1.
    10030    2    1    2    0    0  0.00000000000E+00  0.00000000000E+00 -0.70222624885E+03  0.38621105517E+04  0.37977330355E+04 0.  0.
        4    1    3    3  502    0 -0.91036812465E+01 -0.13161532268E+04  0.10407924034E+04  0.16779727749E+04  0.12699999809E+01 0.  1.
       -4    1    3    3    0  502  0.91036812465E+01  0.13161532268E+04 -0.17430186522E+04  0.21841377768E+04  0.12699999809E+01 0. -1.
</event>
<event>
 5   0  0.4071750E-09  0.3800638E+04  0.7818609E-02  0.8046018E-01
        1   -1    0    0  501    0  0.00000000000E+00  0.00000000000E+00  0.25277547744E+04  0.25277547744E+04  0.50400001928E-02 0. -1.
       -1   -1    0    0    0  501  0.00000000000E+00  0.00000000000E+00 -0.14286245804E+04  0.14286245804E+04  0.50400001928E-02 0.  1.
    10030    2    1    2    0    0  0.00000000000E+00  0.00000000000E+00  0.10991301941E+04  0.39563793548E+04  0.38006381590E+04 0.  0.
        1    1    3    3  502    0 -0.12852529295E+04 -0.12944462903E+04  0.11040714368E+04  0.21322382673E+04  0.50400001928E-02 0. -1.
       -1    1    3    3    0  502  0.12852529295E+04  0.12944462903E+04 -0.49412426961E+01  0.18241410875E+04  0.50400001928E-02 0.  1.
</event>
<event>
 5   0  0.4071750E-09  0.3800068E+04  0.7818609E-02  0.8046140E-01
        1   -1    0    0  501    0  0.00000000000E+00  0.00000000000E+00  0.22868988083E+04  0.22868988083E+04  0.50400001928E-02 0. -1.
       -1   -1    0    0    0  501  0.00000000000E+00  0.00000000000E+00 -0.15786131003E+04  0.15786131003E+04  0.50400001928E-02 0.  1.
    10030    2    1    2    0    0  0.00000000000E+00  0.00000000000E+00  0.70828570797E+03  0.38655119086E+04  0.38000675878E+04 0.  0.
        3    1    3    3  502    0 -0.94028160508E+03  0.10599608306E+04 -0.93354994640E+03  0.16968093505E+04  0.10100000352E+00 0.  1.
       -3    1    3    3    0  502  0.94028160508E+03 -0.10599608306E+04  0.16418356544E+04  0.21687025581E+04  0.10100000352E+00 0. -1.
</event>
<event>
 5   0  0.4071750E-09  0.3800879E+04  0.7818609E-02  0.8045966E-01
       -1   -1    0    0    0  501  0.00000000000E+00  0.00000000000E+00  0.13647611370E+04  0.13647611370E+04  0.50400001928E-02 0. -1.
        1   -1    0    0  501    0  0.00000000000E+00  0.00000000000E+00 -0.26463757234E+04  0.26463757234E+04  0.50400001928E-02 0.  1.
    10030    2    1    2    0    0  0.00000000000E+00  0.00000000000E+00 -0.12816145863E+04  0.40111368604E+04  0.38008792358E+04 0.  0.
        4    1    3    3  502    0 -0.17674826358E+04 -0.67840621829E+03 -0.46599594009E+03  0.19497137467E+04  0.12699999809E+01 0.  1.
       -4    1    3    3    0  502  0.17674826358E+04  0.67840621829E+03 -0.81561864623E+03  0.20614231137E+04  0.12699999809E+01 0. -1.
</event>
<event>
 5   0  0.1305088E-08  0.3799844E+04  0.7818609E-02  0.8046188E-01
        2   -1    0    0  501    0  0.00000000000E+00  0.00000000000E+00  0.30929228330E+04  0.30929228330E+04  0.25500000920E-02 0.  1.
       -2   -1    0    0    0  501  0.00000000000E+00  0.00000000000E+00 -0.11670847633E+04  0.11670847633E+04  0.25500000920E-02 0. -1.
    10030    2    1    2    0    0  0.00000000000E+00  0.00000000000E+00  0.19258380697E+04  0.42600075963E+04  0.37998437402E+04 0.  0.
        3    1    3    3  502    0  0.10761053945E+04 -0.47511091341E+03  0.26355659727E+04  0.28861637526E+04  0.10100000352E+00 0.  1.
       -3    1    3    3    0  502 -0.10761053945E+04  0.47511091341E+03 -0.70972790307E+03  0.13738438437E+04  0.10100000352E+00 0. -1.
</event>
<event>
 5   0  0.4071750E-09  0.3794789E+04  0.7818609E-02  0.8047274E-01
        1   -1    0    0  501    0  0.00000000000E+00  0.00000000000E+00  0.31437386347E+04  0.31437386347E+04  0.50400001928E-02 0. -1.
       -1   -1    0    0    0  501  0.00000000000E+00  0.00000000000E+00 -0.11451673481E+04  0.11451673481E+04  0.50400001928E-02 0.  1.
    10030    2    1    2    0    0  0.00000000000E+00  0.00000000000E+00  0.19985712865E+04  0.42889059828E+04  0.37947894990E+04 0.  0.
        2    1    3    3  502    0  0.99485738919E+03 -0.16083896694E+04  0.11723526776E+04  0.22250998526E+04  0.25500000920E-02 0. -1.
       -2    1    3    3    0  502 -0.99485738919E+03  0.16083896694E+04  0.82621860894E+03  0.20638061302E+04  0.25500000920E-02 0.  1.
</event>
<event>
 5   0  0.4071750E-09  0.3799560E+04  0.7818609E-02  0.8046249E-01
        1   -1    0    0  501    0  0.00000000000E+00  0.00000000000E+00  0.14105482187E+04  0.14105482187E+04  0.50400001928E-02 0. -1.
       -1   -1    0    0    0  501  0.00000000000E+00  0.00000000000E+00 -0.25586956605E+04  0.25586956605E+04  0.50400001928E-02 0.  1.
    10030    2    1    2    0    0  0.00000000000E+00  0.00000000000E+00 -0.11481474418E+04  0.39692438791E+04  0.37995597671E+04 0.  0.
        3    1    3    3  502    0  0.11673431898E+04  0.13321868755E+04 -0.12915890686E+04  0.21921711444E+04  0.10100000352E+00 0.  1.
       -3    1    3    3    0  502 -0.11673431898E+04 -0.13321868755E+04  0.14344162679E+03  0.17770727347E+04  0.10100000352E+00 0. -1.
</event>
<event>
 5   0  0.4071750E-09  0.3799848E+04  0.7818609E-02  0.8046188E-01
        1   -1    0    0  501    0  0.00000000000E+00  0.00000000000E+00  0.20330623504E+04  0.20330623505E+04  0.50400001928E-02 0.  1.
       -1   -1    0    0    0  501  0.00000000000E+00  0.00000000000E+00 -0.17755042584E+04  0.17755042584E+04  0.50400001928E-02 0. -1.
    10030    2    1    2    0    0  0.00000000000E+00  0.00000000000E+00  0.25755809205E+03  0.38085666089E+04  0.37998478184E+04 0.  0.
        2    1    3    3  502    0 -0.13414493705E+04  0.93289786087E+03 -0.84294329961E+03  0.18385696176E+04  0.25500000920E-02 0. -1.
       -2    1    3    3    0  502  0.13414493705E+04 -0.93289786087E+03  0.11005013917E+04  0.19699969912E+04  0.25500000920E-02 0.  1.
</event>
<event>
 5   0  0.1327249E-08  0.3799501E+04  0.7818609E-02  0.8046262E-01
        2   -1    0    0  501    0  0.00000000000E+00  0.00000000000E+00  0.15535257138E+04  0.15535257138E+04  0.25500000920E-02 0. -1.
       -2   -1    0    0    0  501  0.00000000000E+00  0.00000000000E+00 -0.23231367397E+04  0.23231367397E+04  0.25500000920E-02 0.  1.
    10030    2    1    2    0    0  0.00000000000E+00  0.00000000000E+00 -0.76961102591E+03  0.38766624535E+04  0.37995013682E+04 0.  0.
        1    1    3    3  502    0 -0.61948573612E+03  0.16110116545E+04  0.42499501832E+03  0.17775662839E+04  0.50400001928E-02 0. -1.
       -1    1    3    3    0  502  0.61948573612E+03 -0.16110116545E+04 -0.11946060442E+04  0.20990961695E+04  0.50400001928E-02 0.  1.
</event>
<event>
 5   0  0.4071750E-09  0.3800041E+04  0.7818609E-02  0.8046146E-01
        1   -1    0    0  501    0  0.00000000000E+00  0.00000000000E+00  0.14965618989E+04  0.14965618989E+04  0.50400001928E-02 0. -1.
       -1   -1    0    0    0  501  0.00000000000E+00  0.00000000000E+00 -0.24122471770E+04  0.24122471770E+04  0.50400001928E-02 0.  1.
    10030    2    1    2    0    0  0.00000000000E+00  0.00000000000E+00 -0.91568527811E+03  0.39088090759E+04  0.38000406397E+04 0.  0.
        1    1    3    3  502    0  0.38567361840E+02 -0.34332097680E+03 -0.23796672642E+04  0.24046149428E+04  0.50400001928E-02 0.  1.
       -1    1    3    3    0  502 -0.38567361840E+02  0.34332097680E+03  0.14639819861E+04  0.15041941331E+04  0.50400001928E-02 0. -1.
</event>
<event>
 5   0  0.1261152E-08  0.3799332E+04  0.7818609E-02  0.8046298E-01
        2   -1    0    0  501    0  0.00000000000E+00  0.00000000000E+00  0.17831839872E+04  0.17831839872E+04  0.25500000920E-02 0.  1.
       -2   -1    0    0    0  501  0.00000000000E+00  0.00000000000E+00 -0.20237563922E+04  0.20237563922E+04  0.25500000920E-02 0. -1.
    10030    2    1    2    0    0  0.00000000000E+00  0.00000000000E+00 -0.24057240498E+03  0.38069403794E+04  0.37993315162E+04 0.  0.
        2    1    3    3  502    0  0.16002444774E+04 -0.10196447585E+04 -0.21141983010E+03  0.19092292071E+04  0.25500000920E-02 0. -1.
       -2    1    3    3    0  502 -0.16002444774E+04  0.10196447585E+04 -0.29152574888E+02  0.18977111723E+04  0.25500000920E-02 0.  1.
</event>
<event>
 5   0  0.4071750E-09  0.3809564E+04  0.7818609E-02  0.8044105E-01
       -3   -1    0    0    0  501  0.00000000000E+00  0.00000000000E+00  0.16273782868E+04  0.16273782899E+04  0.10100000352E+00 0. -1.
        3   -1    0    0  501    0  0.00000000000E+00  0.00000000000E+00 -0.22294726242E+04  0.22294726265E+04  0.10100000352E+00 0.  1.
    10030    2    1    2    0    0  0.00000000000E+00  0.00000000000E+00 -0.60209433742E+03  0.38568509164E+04  0.38095644633E+04 0.  0.
        5    1    3    3  502    0  0.15625835470E+04 -0.35109671643E+02  0.80116896273E+03  0.17563581147E+04  0.46999998093E+01 0. -1.
       -5    1    3    3    0  502 -0.15625835470E+04  0.35109671643E+02 -0.14032633001E+04  0.21004928017E+04  0.46999998093E+01 0.  1.
</event>
<event>
 5   0  0.4071750E-09  0.3800427E+04  0.7818609E-02  0.8046063E-01
        1   -1    0    0  501    0  0.00000000000E+00  0.00000000000E+00  0.15813965478E+04  0.15813965478E+04  0.50400001928E-02 0.  1.
       -1   -1    0    0    0  501  0.00000000000E+00  0.00000000000E+00 -0.22833050683E+04  0.22833050683E+04  0.50400001928E-02 0. -1.
    10030    2    1    2    0    0  0.00000000000E+00  0.00000000000E+00 -0.70190852046E+03  0.38647016161E+04  0.38004266879E+04 0.  0.
        1    1    3    3  502    0  0.58673715343E+03  0.67217018300E+03 -0.20570467057E+04  0.22422119417E+04  0.50400001928E-02 0. -1.
       -1    1    3    3    0  502 -0.58673715343E+03 -0.67217018300E+03  0.13551381853E+04  0.16224896743E+04  0.50400001928E-02 0.  1.
</event>
<event>
 5   0  0.4071750E-09  0.3795287E+04  0.7818609E-02  0.8047167E-01
       -1   -1    0    0    0  501  0.00000000000E+00  0.00000000000E+00  0.26956676866E+04  0.26956676866E+04  0.50400001928E-02 0.  1.
        1   -1    0    0  501    0  0.00000000000E+00  0.00000000000E+00 -0.13358662584E+04  0.13358662584E+04  0.50400001928E-02 0. -1.
    10030    2    1    2    0    0  0.00000000000E+00  0.00000000000E+00  0.13598014283E+04  0.40315339450E+04  0.37952873442E+04 0.  0.
        3    1    3    3  502    0  0.86191720425E+03  0.13550259279E+04  0.17537980984E+04  0.23779832447E+04  0.10100000352E+00 0.  1.
       -3    1    3    3    0  502 -0.86191720425E+03 -0.13550259279E+04 -0.39399667009E+03  0.16535507003E+04  0.10100000352E+00 0. -1.
</event>
<event>
 5   0  0.1305088E-08  0.3797831E+04  0.7818609E-02  0.8046621E-01
       -2   -1    0    0    0  501  0.00000000000E+00  0.00000000000E+00  0.17330087192E+04  0.17330087192E+04  0.25500000920E-02 0.  1.
        2   -1    0    0  501    0  0.00000000000E+00  0.00000000000E+00 -0.20807049642E+04  0.20807049642E+04  0.25500000920E-02 0. -1.
    10030    2    1    2    0    0  0.00000000000E+00  0.00000000000E+00 -0.34769624503E+03  0.38137136834E+04  0.37978308783E+04 0.  0.
        3    1    3    3  502    0  0.45010109347E+03  0.25347319162E+02  0.16784925844E+04  0.17379789548E+04  0.10100000352E+00 0.  1.
       -3    1    3    3    0  502 -0.45010109347E+03 -0.25347319162E+02 -0.20261888295E+04  0.20757347287E+04  0.10100000352E+00 0. -1.
</event>
<event>
 5   0  0.1264013E-08  0.3805111E+04  0.7818609E-02  0.8045059E-01
        2   -1    0    0  501    0  0.00000000000E+00  0.00000000000E+00  0.23963229813E+04  0.23963229813E+04  0.25500000920E-02 0.  1.
       -2   -1    0    0    0  501  0.00000000000E+00  0.00000000000E+00 -0.15105296452E+04  0.15105296452E+04  0.25500000920E-02 0. -1.
    10030    2    1    2    0    0  0.00000000000E+00  0.00000000000E+00  0.88579333604E+03  0.39068526265E+04  0.38051107226E+04 0.  0.
        4    1    3    3  502    0 -0.14195200547E+04  0.59206278556E+03  0.15927241890E+04  0.22141245410E+04  0.12699999809E+01 0.  1.
       -4    1    3    3    0  502  0.14195200547E+04 -0.59206278556E+03 -0.70693085295E+03  0.16927280856E+04  0.12699999809E+01 0. -1.
</event>
<event>
 5   0  0.4071750E-09  0.3797708E+04  0.7818609E-02  0.8046647E-01
       -1   -1    0    0    0  501  0.00000000000E+00  0.00000000000E+00  0.15712023553E+04  0.15712023553E+04  0.50400001928E-02 0. -1.
        1   -1    0    0  501    0  0.00000000000E+00  0.00000000000E+00 -0.22948332675E+04  0.22948332675E+04  0.50400001928E-02 0.  1.
    10030    2    1    2    0    0  0.00000000000E+00  0.00000000000E+00 -0.72363091217E+03  0.38660356228E+04  0.37977084854E+04 0.  0.
        1    1    3    3  502    0  0.11259475514E+04 -0.11152521682E+03 -0.19141949085E+04  0.22235867220E+04  0.50400001928E-02 0.  1.
       -1    1    3    3    0  502 -0.11259475514E+04  0.11152521682E+03  0.11905639963E+04  0.16424489008E+04  0.50400001928E-02 0. -1.
</event>
<event>
 5   0  0.4071750E-09  0.3800097E+04  0.7818609E-02  0.8046134E-01
       -1   -1    0    0    0  501  0.00000000000E+00  0.00000000000E+00  0.17800923369E+04  0.17800923369E+04  0.50400001928E-02 0. -1.
        1   -1    0    0  501    0  0.00000000000E+00  0.00000000000E+00 -0.20280881905E+04  0.20280881905E+04  0.50400001928E-02 0.  1.
    10030    2    1    2    0    0  0.00000000000E+00  0.00000000000E+00 -0.24799585364E+03  0.38081805274E+04  0.38000969706E+04 0.  0.
        5    1    3    3  502    0 -0.14667725965E+03  0.11413260653E+04 -0.16391740679E+04  0.20027613739E+04  0.46999998093E+01 0.  1.
       -5    1    3    3    0  502  0.14667725965E+03 -0.11413260653E+04  0.13911782143E+04  0.18054191535E+04  0.46999998093E+01 0. -1.
</event>
<event>
 5   0  0.1305088E-08  0.3801161E+04  0.7818609E-02  0.8045906E-01
       -2   -1    0    0    0  501  0.00000000000E+00  0.00000000000E+00  0.15137674342E+04  0.15137674342E+04  0.25500000920E-02 0. -1.
        2   -1    0    0  501    0  0.00000000000E+00  0.00000000000E+00 -0.23862363523E+04  0.23862363523E+04  0.25500000920E-02 0.  1.
    10030    2    1    2    0    0  0.00000000000E+00  0.00000000000E+00 -0.87246891806E+03  0.39000037865E+04  0.38011613386E+04 0.  0.
        3    1    3    3  502    0  0.14105792508E+03 -0.96616944525E+02 -0.23783300214E+04  0.23844676289E+04  0.10100000352E+00 0.  1.
       -3    1    3    3    0  502 -0.14105792508E+03  0.96616944525E+02  0.15058611034E+04  0.15155361576E+04  0.10100000352E+00 0. -1.
</event>
<event>
 5   0  0.4071750E-09  0.3800340E+04  0.7818609E-02  0.8046082E-01
        1   -1    0    0  501    0  0.00000000000E+00  0.00000000000E+00  0.11568438732E+04  0.11568438732E+04  0.50400001928E-02 0.  1.
       -1   -1    0    0    0  501  0.00000000000E+00  0.00000000000E+00 -0.31211177283E+04  0.31211177283E+04  0.50400001928E-02 0. -1.
    10030    2    1    2    0    0  0.00000000000E+00  0.00000000000E+00 -0.19642738551E+04  0.42779616015E+04  0.38003399435E+04 0.  0.
        4    1    3    3  502    0  0.68713509436E+03 -0.36395758875E+03  0.96955244317E+03  0.12428408254E+04  0.12699999809E+01 0.  1.
       -4    1    3    3    0  502 -0.68713509436E+03  0.36395758875E+03 -0.29338262983E+04  0.30351207761E+04  0.12699999809E+01 0. -1.
</event>
<event>
 5   0  0.1305088E-08  0.3799688E+04  0.7818609E-02  0.8046222E-01
       -2   -1    0    0    0  501  0.00000000000E+00  0.00000000000E+00  0.20362477585E+04  0.20362477585E+04  0.25500000920E-02 0. -1.
        2   -1    0    0  501    0  0.00000000000E+00  0.00000000000E+00 -0.17725780850E+04  0.17725780850E+04  0.25500000920E-02 0.  1.
    10030    2    1    2    0    0  0.00000000000E+00  0.00000000000E+00  0.26366967349E+03  0.38088258435E+04  0.37996884884E+04 0.  0.
        3    1    3    3  502    0  0.18003951621E+04  0.11721587078E+03  0.72845167024E+03  0.19457143023E+04  0.10100000352E+00 0. -1.
       -3    1    3    3    0  502 -0.18003951621E+04 -0.11721587078E+03 -0.46478199675E+03  0.18631115412E+04  0.10100000352E+00 0.  1.
</event>
<event>
 5   0  0.4071750E-09  0.3799305E+04  0.7818609E-02  0.8046304E-01
       -3   -1    0    0    0  501  0.00000000000E+00  0.00000000000E+00  0.19604609714E+04  0.19604609740E+04  0.10100000352E+00 0. -1.
        3   -1    0    0  501    0  0.00000000000E+00  0.00000000000E+00 -0.18407299397E+04  0.18407299425E+04  0.10100000352E+00 0.  1.
    10030    2    1    2    0    0  0.00000000000E+00  0.00000000000E+00  0.11973103168E+03  0.38011909165E+04  0.37993047869E+04 0.  0.
        3    1    3    3  502    0  0.87315050088E+03 -0.13121643792E+04 -0.10010910501E+04  0.18671771357E+04  0.10100000352E+00 0.  1.
       -3    1    3    3    0  502 -0.87315050088E+03  0.13121643792E+04  0.11208220817E+04  0.19340137808E+04  0.10100000352E+00 0. -1.
</event>
<event>
 5   0  0.4071750E-09  0.3799234E+04  0.7818609E-02  0.8046319E-01
       -1   -1    0    0    0  501  0.00000000000E+00  0.00000000000E+00  0.13217465717E+04  0.13217465717E+04  0.50400001928E-02 0. -1.
        1   -1    0    0  501    0  0.00000000000E+00  0.00000000000E+00 -0.27301337786E+04  0.27301337786E+04  0.50400001928E-02 0.  1.
    10030    2    1    2    0    0  0.00000000000E+00  0.00000000000E+00 -0.14083872069E+04  0.40518803503E+04  0.37992341134E+04 0.  0.
        2    1    3    3  502    0 -0.20671856950E+03 -0.18725161458E+04 -0.96433128664E+03  0.21163610547E+04  0.25500000920E-02 0.  1.
       -2    1    3    3    0  502  0.20671856950E+03  0.18725161458E+04 -0.44405592024E+03  0.19355192956E+04  0.25500000920E-02 0. -1.
</event>
<event>
 5   0  0.1293993E-08  0.3800897E+04  0.7818609E-02  0.8045962E-01
        2   -1    0    0  501    0  0.00000000000E+00  0.00000000000E+00  0.13837953998E+04  0.13837953998E+04  0.25500000920E-02 0.  1.
       -2   -1    0    0    0  501  0.00000000000E+00  0.00000000000E+00 -0.26099995361E+04  0.26099995361E+04  0.25500000920E-02 0. -1.
    10030    2    1    2    0    0  0.00000000000E+00  0.00000000000E+00 -0.12262041363E+04  0.39937949358E+04  0.38008974474E+04 0.  0.
        5    1    3    3  502    0  0.18708270571E+04  0.31532161072E+03 -0.72945420062E+03  0.20326207508E+04  0.46999998093E+01 0. -1.
       -5    1    3    3    0  502 -0.18708270571E+04 -0.31532161072E+03 -0.49674993570E+03  0.19611741851E+04  0.46999998093E+01 0.  1.
</event>
<event>
 5   0  0.4071750E-09  0.3800054E+04  0.7818609E-02  0.8046143E-01
        1   -1    0    0  501    0  0.00000000000E+00  0.00000000000E+00  0.20511902369E+04  0.20511902370E+04  0.50400001928E-02 0.  1.
       -1   -1    0    0    0  501  0.00000000000E+00  0.00000000000E+00 -0.17600041552E+04  0.17600041552E+04  0.50400001928E-02 0. -1.
    10030    2    1    2    0    0  0.00000000000E+00  0.00000000000E+00  0.29118608172E+03  0.38111943922E+04  0.38000543892E+04 0.  0.
        1    1    3    3  502    0 -0.66290815863E+03 -0.15516407070E+04  0.10216910425E+04  0.19725335730E+04  0.50400001928E-02 0.  1.
       -1    1    3    3    0  502  0.66290815863E+03  0.15516407070E+04 -0.73050496077E+03  0.18386608192E+04  0.50400001928E-02 0. -1.
</event>
<event>
 5   0  0.4071750E-09  0.3798864E+04  0.7818609E-02  0.8046399E-01
       -1   -1    0    0    0  501  0.00000000000E+00  0.00000000000E+00  0.27689069090E+04  0.27689069090E+04  0.50400001928E-02 0.  1.
        1   -1    0    0  501    0  0.00000000000E+00  0.00000000000E+00 -0.13029843696E+04  0.13029843696E+04  0.50400001928E-02 0. -1.
    10030    2    1    2    0    0  0.00000000000E+00  0.00000000000E+00  0.14659225394E+04  0.40718912787E+04  0.37988642637E+04 0.  0.
        1    1    3    3  502    0 -0.16886306048E+03 -0.17842892985E+04  0.58755974770E+02  0.17932248321E+04  0.50400001928E-02 0. -1.
       -1    1    3    3    0  502  0.16886306048E+03  0.17842892985E+04  0.14071665646E+04  0.22786664465E+04  0.50400001928E-02 0.  1.
</event>
<event>
 5   0  0.1305088E-08  0.3801875E+04  0.7818609E-02  0.8045753E-01
        2   -1    0    0  501    0  0.00000000000E+00  0.00000000000E+00  0.27568389902E+04  0.27568389902E+04  0.25500000920E-02 0. -1.
       -2   -1    0    0    0  501  0.00000000000E+00  0.00000000000E+00 -0.13107632200E+04  0.13107632200E+04  0.25500000920E-02 0.  1.
    10030    2    1    2    0    0  0.00000000000E+00  0.00000000000E+00  0.14460757702E+04  0.40676022102E+04  0.38018748805E+04 0.  0.
        3    1    3    3  502    0 -0.11857667782E+04 -0.12832493539E+04 -0.78162816957E+02  0.17489657494E+04  0.10100000352E+00 0. -1.
       -3    1    3    3    0  502  0.11857667782E+04  0.12832493539E+04  0.15242385871E+04  0.23186364608E+04  0.10100000352E+00 0.  1.
</event>
<event>
 5   0  0.4071750E-09  0.3797883E+04  0.7818609E-02  0.8046609E-01
       -1   -1    0    0    0  501  0.00000000000E+00  0.00000000000E+00  0.13474270336E+04  0.13474270336E+04  0.50400001928E-02 0.  1.
        1   -1    0    0  501    0  0.00000000000E+00  0.00000000000E+00 -0.26761963802E+04  0.26761963802E+04  0.50400001928E-02 0. -1.
    10030    2    1    2    0    0  0.00000000000E+00  0.00000000000E+00 -0.13287693466E+04  0.40236234138E+04  0.37978832788E+04 0.  0.
        4    1    3    3  502    0 -0.77303223576E+03  0.17319257488E+04 -0.56481944279E+03  0.19789310885E+04  0.12699999809E+01 0.  1.
       -4    1    3    3    0  502  0.77303223576E+03 -0.17319257488E+04 -0.76394990378E+03  0.20446923254E+04  0.12699999809E+01 0. -1.
</event>
<event>
 5   0  0.4071750E-09  0.3800302E+04  0.7818609E-02  0.8046090E-01
        1   -1    0    0  501    0  0.00000000000E+00  0.00000000000E+00  0.13403199929E+04  0.13403199929E+04  0.50400001928E-02 0. -1.
       -1   -1    0    0    0  501  0.00000000000E+00  0.00000000000E+00 -0.26938149608E+04  0.26938149608E+04  0.50400001928E-02 0.  1.
    10030    2    1    2    0    0  0.00000000000E+00  0.00000000000E+00 -0.13534949680E+04  0.40341349537E+04  0.38003021191E+04 0.  0.
        1    1    3    3  502    0 -0.45236403741E+03  0.86768878463E+03 -0.24057896682E+04  0.25971794271E+04  0.50400001928E-02 0.  1.
       -1    1    3    3    0  502  0.45236403741E+03 -0.86768878463E+03  0.10522947002E+04  0.14369555266E+04  0.50400001928E-02 0. -1.
</event>
<event>
 5   0  0.1293993E-08  0.3798950E+04  0.7818609E-02  0.8046380E-01
        2   -1    0    0  501    0  0.00000000000E+00  0.00000000000E+00  0.12983548272E+04  0.12983548272E+04  0.25500000920E-02 0. -1.
       -2   -1    0    0    0  501  0.00000000000E+00  0.00000000000E+00 -0.27789048965E+04  0.27789048965E+04  0.25500000920E-02 0.  1.
    10030    2    1    2    0    0  0.00000000000E+00  0.00000000000E+00 -0.14805500693E+04  0.40772597237E+04  0.37989496373E+04 0.  0.
        5    1    3    3  502    0  0.12877269949E+04 -0.13761227522E+04 -0.48623226687E+03  0.19463808851E+04  0.46999998093E+01 0. -1.
       -5    1    3    3    0  502 -0.12877269949E+04  0.13761227522E+04 -0.99431780239E+03  0.21308788386E+04  0.46999998093E+01 0.  1.
</event>
<event>
 5   0  0.4071750E-09  0.3801069E+04  0.7818609E-02  0.8045926E-01
       -1   -1    0    0    0  501  0.00000000000E+00  0.00000000000E+00  0.26584767544E+04  0.26584767544E+04  0.50400001928E-02 0. -1.
        1   -1    0    0  501    0  0.00000000000E+00  0.00000000000E+00 -0.13586844140E+04  0.13586844140E+04  0.50400001928E-02 0.  1.
    10030    2    1    2    0    0  0.00000000000E+00  0.00000000000E+00  0.12997923404E+04  0.40171611684E+04  0.38010687608E+04 0.  0.
        5    1    3    3  502    0 -0.55675676760E+03  0.16020428206E+04  0.15562583628E+04  0.23018430614E+04  0.46999998093E+01 0.  1.
       -5    1    3    3    0  502  0.55675676760E+03 -0.16020428206E+04 -0.25646602245E+03  0.17153181070E+04  0.46999998093E+01 0. -1.
</event>
<event>
 5   0  0.1305088E-08  0.3800449E+04  0.7818609E-02  0.8046058E-01
       -2   -1    0    0    0  501  0.00000000000E+00  0.00000000000E+00  0.22276746265E+04  0.22276746265E+04  0.25500000920E-02 0. -1.
        2   -1    0    0  501    0  0.00000000000E+00  0.00000000000E+00 -0.16209071356E+04  0.16209071356E+04  0.25500000920E-02 0.  1.
    10030    2    1    2    0    0  0.00000000000E+00  0.00000000000E+00  0.60676749086E+03  0.38485817621E+04  0.38004492881E+04 0.  0.
        3    1    3    3  502    0  0.14270960176E+04  0.11620828855E+04  0.78246525691E+03  0.19998228834E+04  0.10100000352E+00 0.  1.
       -3    1    3    3    0  502 -0.14270960176E+04 -0.11620828855E+04 -0.17569776605E+03  0.18487588787E+04  0.10100000352E+00 0. -1.
</event>
<event>
 5   0  0.4071750E-09  0.3799687E+04  0.7818609E-02  0.8046222E-01
        1   -1    0    0  501    0  0.00000000000E+00  0.00000000000E+00  0.12750618883E+04  0.12750618883E+04  0.50400001928E-02 0.  1.
       -1   -1    0    0    0  501  0.00000000000E+00  0.00000000000E+00 -0.28307691431E+04  0.28307691431E+04  0.50400001928E-02 0. -1.
    10030    2    1    2    0    0  0.00000000000E+00  0.00000000000E+00 -0.15557072548E+04  0.41058310314E+04  0.37996872760E+04 0.  0.
        2    1    3    3  502    0  0.16492518802E+04  0.60618480056E+03  0.27898251097E+01  0.17571282139E+04  0.25500000920E-02 0.  1.
       -2    1    3    3    0  502 -0.16492518802E+04 -0.60618480056E+03 -0.15584970799E+04  0.23487028175E+04  0.25500000920E-02 0. -1.
</event>
<event>
 5   0  0.4071750E-09  0.3800576E+04  0.7818609E-02  0.8046031E-01
        1   -1    0    0  501    0  0.00000000000E+00  0.00000000000E+00  0.17101064942E+04  0.17101064942E+04  0.50400001928E-02 0.  1.
       -1   -1    0    0    0  501  0.00000000000E+00  0.00000000000E+00 -0.21116193930E+04  0.21116193930E+04  0.50400001928E-02 0. -1.
    10030    2    1    2    0    0  0.00000000000E+00  0.00000000000E+00 -0.40151289877E+03  0.38217258872E+04  0.38005757655E+04 0.  0.
        4    1    3    3  502    0  0.11995044721E+04  0.10826156910E+04  0.80492150362E+03  0.18052057923E+04  0.12699999809E+01 0. -1.
       -4    1    3    3    0  502 -0.11995044721E+04 -0.10826156910E+04 -0.12064344024E+04  0.20165200949E+04  0.12699999809E+01 0.  1.
</event>
<event>
 5   0  0.4071750E-09  0.3804391E+04  0.7818609E-02  0.8045213E-01
       -1   -1    0    0    0  501  0.00000000000E+00  0.00000000000E+00  0.18526526218E+04  0.18526526218E+04  0.50400001928E-02 0.  1.
        1   -1    0    0  501    0  0.00000000000E+00  0.00000000000E+00 -0.19530633280E+04  0.19530633280E+04  0.50400001928E-02 0. -1.
    10030    2    1    2    0    0  0.00000000000E+00  0.00000000000E+00 -0.10041070624E+03  0.38057159498E+04  0.38043910920E+04 0.  0.
        1    1    3    3  502    0  0.85832418949E+03 -0.16128608339E+04  0.47941968068E+03  0.18888842511E+04  0.50400001928E-02 0.  1.
       -1    1    3    3    0  502 -0.85832418949E+03  0.16128608339E+04 -0.57983038693E+03  0.19168316988E+04  0.50400001928E-02 0. -1.
</event>
<event>
 5   0  0.4071750E-09  0.3800505E+04  0.7818609E-02  0.8046047E-01
       -1   -1    0    0    0  501  0.00000000000E+00  0.00000000000E+00  0.16286199187E+04  0.16286199187E+04  0.50400001928E-02 0.  1.
        1   -1    0    0  501    0  0.00000000000E+00  0.00000000000E+00 -0.22171894542E+04  0.22171894542E+04  0.50400001928E-02 0. -1.
    10030    2    1    2    0    0  0.00000000000E+00  0.00000000000E+00 -0.58856953544E+03  0.38458093729E+04  0.38005046553E+04 0.  0.
        4    1    3    3  502    0 -0.79831435110E+03  0.15562050972E+04 -0.10460248481E+04  0.20379523311E+04  0.12699999809E+01 0. -1.
       -4    1    3    3    0  502  0.79831435110E+03 -0.15562050972E+04  0.45745531267E+03  0.18078570419E+04  0.12699999809E+01 0.  1.
</event>
<event>
 5   0  0.1261152E-08  0.3800456E+04  0.7818609E-02  0.8046057E-01
        2   -1    0    0  501    0  0.00000000000E+00  0.00000000000E+00  0.25327953096E+04  0.25327953096E+04  0.25500000920E-02 0.  1.
       -2   -1    0    0    0  501  0.00000000000E+00  0.00000000000E+00 -0.14256445834E+04  0.14256445834E+04  0.25500000920E-02 0. -1.
    10030    2    1    2    0    0  0.00000000000E+00  0.00000000000E+00  0.11071507262E+04  0.39584398930E+04  0.38004557169E+04 0.  0.
        2    1    3    3  502    0 -0.83290330211E+03  0.16182160851E+04 -0.15501911829E+02  0.18200526141E+04  0.25500000920E-02 0. -1.
       -2    1    3    3    0  502  0.83290330211E+03 -0.16182160851E+04  0.11226526381E+04  0.21383872789E+04  0.25500000920E-02 0.  1.
</event>
<event>
 5   0  0.1327249E-08  0.3801545E+04  0.7818609E-02  0.8045823E-01
        2   -1    0    0  501    0  0.00000000000E+00  0.00000000000E+00  0.19432949613E+04  0.19432949613E+04  0.25500000920E-02 0. -1.
       -2   -1    0    0    0  501  0.00000000000E+00  0.00000000000E+00 -0.18591809736E+04  0.18591809736E+04  0.25500000920E-02 0.  1.
    10030    2    1    2    0    0  0.00000000000E+00  0.00000000000E+00  0.84113987694E+02  0.38024759349E+04  0.38015454848E+04 0.  0.
        1    1    3    3  502    0 -0.11841177972E+04 -0.44081783448E+03  0.14624333205E+04  0.19326578946E+04  0.50400001928E-02 0. -1.
       -1    1    3    3    0  502  0.11841177972E+04  0.44081783448E+03 -0.13783193328E+04  0.18698180403E+04  0.50400001928E-02 0.  1.
</event>
<event>
 5   0  0.1305088E-08  0.3800498E+04  0.7818609E-02  0.8046048E-01
       -2   -1    0    0    0  501  0.00000000000E+00  0.00000000000E+00  0.14568776329E+04  0.14568776330E+04  0.25500000920E-02 0.  1.
        2   -1    0    0  501    0  0.00000000000E+00  0.00000000000E+00 -0.24785513285E+04  0.24785513285E+04  0.25500000920E-02 0. -1.
    10030    2    1    2    0    0  0.00000000000E+00  0.00000000000E+00 -0.10216736955E+04  0.39354289614E+04  0.38004978582E+04 0.  0.
        3    1    3    3  502    0  0.38890171374E+03 -0.11806008854E+04 -0.19991846997E+04  0.23541033255E+04  0.10100000352E+00 0. -1.
       -3    1    3    3    0  502 -0.38890171374E+03  0.11806008854E+04  0.97751100415E+03  0.15813256359E+04  0.10100000352E+00 0.  1.
</event>
<event>
 5   0  0.1327249E-08  0.3799471E+04  0.7818609E-02  0.8046268E-01
        2   -1    0    0  501    0  0.00000000000E+00  0.00000000000E+00  0.22535975726E+04  0.22535975726E+04  0.25500000920E-02 0. -1.
       -2   -1    0    0    0  501  0.00000000000E+00  0.00000000000E+00 -0.16014375489E+04  0.16014375489E+04  0.25500000920E-02 0.  1.
    10030    2    1    2    0    0  0.00000000000E+00  0.00000000000E+00  0.65216002372E+03  0.38550351215E+04  0.37994714226E+04 0.  0.
        1    1    3    3  502    0 -0.31387808524E+03  0.17907947448E+04  0.88507295736E+03  0.20220829385E+04  0.50400001928E-02 0. -1.
       -1    1    3    3    0  502  0.31387808524E+03 -0.17907947448E+04 -0.23291293364E+03  0.18329521830E+04  0.50400001928E-02 0.  1.
</event>
<event>
 5   0  0.1264013E-08  0.3800025E+04  0.7818609E-02  0.8046150E-01
        2   -1    0    0  501    0  0.00000000000E+00  0.00000000000E+00  0.29586144427E+04  0.29586144427E+04  0.25500000920E-02 0.  1.
       -2   -1    0    0    0  501  0.00000000000E+00  0.00000000000E+00 -0.12201816022E+04  0.12201816022E+04  0.25500000920E-02 0. -1.
    10030    2    1    2    0    0  0.00000000000E+00  0.00000000000E+00  0.17384328405E+04  0.41787960448E+04  0.38000246898E+04 0.  0.
        4    1    3    3  502    0 -0.16148957102E+04  0.91345966972E+03  0.13196120589E+04  0.22767683944E+04  0.12699999809E+01 0.  1.
       -4    1    3    3    0  502  0.16148957102E+04 -0.91345966972E+03  0.41882078161E+03  0.19020276504E+04  0.12699999809E+01 0. -1.
</event>
<event>
 5   0  0.4071750E-09  0.3792763E+04  0.7818609E-02  0.8047710E-01
        1   -1    0    0  501    0  0.00000000000E+00  0.00000000000E+00  0.27336501732E+04  0.27336501732E+04  0.50400001928E-02 0.  1.
       -1   -1    0    0    0  501  0.00000000000E+00  0.00000000000E+00 -0.13155532584E+04  0.13155532584E+04  0.50400001928E-02 0. -1.
    10030    2    1    2    0    0  0.00000000000E+00  0.00000000000E+00  0.14180969148E+04  0.40492034316E+04  0.37927627886E+04 0.  0.
        3    1    3    3  502    0  0.14314730201E+04 -0.10677920978E+04  0.13901215638E+04  0.22631245975E+04  0.10100000352E+00 0.  1.
       -3    1    3    3    0  502 -0.14314730201E+04  0.10677920978E+04  0.27975351004E+02  0.17860788341E+04  0.10100000352E+00 0. -1.
</event>
<event>
 5   0  0.4071750E-09  0.3798510E+04  0.7818609E-02  0.8046475E-01
       -1   -1    0    0    0  501  0.00000000000E+00  0.00000000000E+00  0.18816295379E+04  0.18816295379E+04  0.50400001928E-02 0.  1.
        1   -1    0    0  501    0  0.00000000000E+00  0.00000000000E+00 -0.19170451156E+04  0.19170451156E+04  0.50400001928E-02 0. -1.
    10030    2    1    2    0    0  0.00000000000E+00  0.00000000000E+00 -0.35415577686E+02  0.37986746535E+04  0.37985095577E+04 0.  0.
        1    1    3    3  502    0 -0.70368640247E+03 -0.96303089452E+03  0.14603840754E+04  0.18855568685E+04  0.50400001928E-02 0.  1.
       -1    1    3    3    0  502  0.70368640247E+03  0.96303089452E+03 -0.14957996531E+04  0.19131177849E+04  0.50400001928E-02 0. -1.
</event>
<event>
 5   0  0.4071750E-09  0.3799966E+04  0.7818609E-02  0.8046162E-01
        1   -1    0    0  501    0  0.00000000000E+00  0.00000000000E+00  0.16445000861E+04  0.16445000861E+04  0.50400001928E-02 0. -1.
       -1   -1    0    0    0  501  0.00000000000E+00  0.00000000000E+00 -0.21951565390E+04  0.21951565390E+04  0.50400001928E-02 0.  1.
    10030    2    1    2    0    0  0.00000000000E+00  0.00000000000E+00 -0.55065645290E+03  0.38396566250E+04  0.37999658510E+04 0.  0.
        1    1    3    3  502    0  0.11103658320E+04  0.17989712000E+03 -0.18225501781E+04  0.21417199646E+04  0.50400001928E-02 0.  1.
       -1    1    3    3    0  502 -0.11103658320E+04 -0.17989712000E+03  0.12718937252E+04  0.16979366605E+04  0.50400001928E-02 0. -1.
</event>
<event>
 5   0  0.4071750E-09  0.3801308E+04  0.7818609E-02  0.8045874E-01
       -1   -1    0    0    0  501  0.00000000000E+00  0.00000000000E+00  0.23485367238E+04  0.23485367238E+04  0.50400001928E-02 0.  1.
        1   -1    0    0  501    0  0.00000000000E+00  0.00000000000E+00 -0.15381857235E+04  0.15381857235E+04  0.50400001928E-02 0. -1.
    10030    2    1    2    0    0  0.00000000000E+00  0.00000000000E+00  0.81035100031E+03  0.38867224473E+04  0.38013080168E+04 0.  0.
        4    1    3    3  502    0  0.77496947764E+03 -0.99995819412E+03 -0.10451429512E+04  0.16409812560E+04  0.12699999809E+01 0. -1.
       -4    1    3    3    0  502 -0.77496947764E+03  0.99995819412E+03  0.18554939515E+04  0.22457411913E+04  0.12699999809E+01 0.  1.
</event>
<event>
 5   0  0.4071750E-09  0.3800195E+04  0.7818609E-02  0.8046113E-01
        1   -1    0    0  501    0  0.00000000000E+00  0.00000000000E+00  0.15208748605E+04  0.15208748605E+04  0.50400001928E-02 0.  1.
       -1   -1    0    0    0  501  0.00000000000E+00  0.00000000000E+00 -0.23738770839E+04  0.23738770839E+04  0.50400001928E-02 0. -1.
    10030    2    1    2    0    0  0.00000000000E+00  0.00000000000E+00 -0.85300222335E+03  0.38947519444E+04  0.38001947207E+04 0.  0.
        3    1    3    3  502    0  0.11242541883E+04  0.84384977846E+03 -0.17367239427E+04  0.22343321132E+04  0.10100000352E+00 0. -1.
       -3    1    3    3    0  502 -0.11242541883E+04 -0.84384977846E+03  0.88372171936E+03  0.16604198312E+04  0.10100000352E+00 0.  1.
</event>
<event>
 5   0  0.1264013E-08  0.3799914E+04  0.7818609E-02  0.8046173E-01
        2   -1    0    0  501    0  0.00000000000E+00  0.00000000000E+00  0.25104592433E+04  0.25104592433E+04  0.25500000920E-02 0.  1.
       -2   -1    0    0    0  501  0.00000000000E+00  0.00000000000E+00 -0.14379191163E+04  0.14379191163E+04  0.25500000920E-02 0. -1.
    10030    2    1    2    0    0  0.00000000000E+00  0.00000000000E+00  0.10725401270E+04  0.39483783597E+04  0.37999143868E+04 0.  0.
        4    1    3    3  502    0  0.88043785688E+03  0.43029047729E+03 -0.11550591218E+04  0.15147553936E+04  0.12699999809E+01 0. -1.
       -4    1    3    3    0  502 -0.88043785688E+03 -0.43029047729E+03  0.22275992488E+04  0.24336229661E+04  0.12699999809E+01 0.  1.
</event>
<event>
 5   0  0.4071750E-09  0.3800695E+04  0.7818609E-02  0.8046006E-01
        1   -1    0    0  501    0  0.00000000000E+00  0.00000000000E+00  0.24447260915E+04  0.24447260915E+04  0.50400001928E-02 0. -1.
       -1   -1    0    0    0  501  0.00000000000E+00  0.00000000000E+00 -0.14771879316E+04  0.14771879316E+04  0.50400001928E-02 0.  1.
    10030    2    1    2    0    0  0.00000000000E+00  0.00000000000E+00  0.96753815989E+03  0.39219140231E+04  0.38006946094E+04 0.  0.
        2    1    3    3  502    0  0.11476199655E+01  0.10345466685E+03 -0.14742795733E+04  0.14779054251E+04  0.25500000920E-02 0.  1.
       -2    1    3    3    0  502 -0.11476199655E+01 -0.10345466685E+03  0.24418177332E+04  0.24440085980E+04  0.25500000920E-02 0. -1.
</event>
<event>
 5   0  0.4071750E-09  0.3800085E+04  0.7818609E-02  0.8046137E-01
       -1   -1    0    0    0  501  0.00000000000E+00  0.00000000000E+00  0.20164165471E+04  0.20164165471E+04  0.50400001928E-02 0.  1.
        1   -1    0    0  501    0  0.00000000000E+00  0.00000000000E+00 -0.17903844770E+04  0.17903844770E+04  0.50400001928E-02 0. -1.
    10030    2    1    2    0    0  0.00000000000E+00  0.00000000000E+00  0.22603207009E+03  0.38068010240E+04  0.38000846754E+04 0.  0.
        3    1    3    3  502    0 -0.51296302019E+03 -0.14702309486E+04 -0.97769238442E+03  0.18386387658E+04  0.10100000352E+00 0. -1.
       -3    1    3    3    0  502  0.51296302019E+03  0.14702309486E+04  0.12037244545E+04  0.19681622583E+04  0.10100000352E+00 0.  1.
</event>
<event>
 5   0  0.1293993E-08  0.3803447E+04  0.7818609E-02  0.8045416E-01
        2   -1    0    0  501    0  0.00000000000E+00  0.00000000000E+00  0.25077991235E+04  0.25077991235E+04  0.25500000920E-02 0.  1.
       -2   -1    0    0    0  501  0.00000000000E+00  0.00000000000E+00 -0.14421222022E+04  0.14421222022E+04  0.25500000920E-02 0. -1.
    10030    2    1    2    0    0  0.00000000000E+00  0.00000000000E+00  0.10656769213E+04  0.39499213258E+04  0.38034472757E+04 0.  0.
        5    1    3    3  502    0 -0.21303757951E+03 -0.72339572999E+03  0.23458786645E+04  0.24641134695E+04  0.46999998093E+01 0.  1.
       -5    1    3    3    0  502  0.21303757951E+03  0.72339572999E+03 -0.12802017431E+04  0.14858078562E+04  0.46999998093E+01 0. -1.
</event>
<event>
 5   0  0.4071750E-09  0.3802291E+04  0.7818609E-02  0.8045663E-01
       -1   -1    0    0    0  501  0.00000000000E+00  0.00000000000E+00  0.15605934623E+04  0.15605934623E+04  0.50400001928E-02 0.  1.
        1   -1    0    0  501    0  0.00000000000E+00  0.00000000000E+00 -0.23160130921E+04  0.23160130921E+04  0.50400001928E-02 0. -1.
    10030    2    1    2    0    0  0.00000000000E+00  0.00000000000E+00 -0.75541962978E+03  0.38766065544E+04  0.38022913566E+04 0.  0.
        2    1    3    3  502    0 -0.81554267226E+03  0.39635080576E+03 -0.20813418194E+04  0.22702835904E+04  0.25500000920E-02 0. -1.
       -2    1    3    3    0  502  0.81554267226E+03 -0.39635080576E+03  0.13259221897E+04  0.16063229640E+04  0.25500000920E-02 0.  1.
</event>
<event>
 5   0  0.4071750E-09  0.3799984E+04  0.7818609E-02  0.8046158E-01
        1   -1    0    0  501    0  0.00000000000E+00  0.00000000000E+00  0.17189683935E+04  0.17189683935E+04  0.50400001928E-02 0. -1.
       -1   -1    0    0    0  501  0.00000000000E+00  0.00000000000E+00 -0.21000787438E+04  0.21000787438E+04  0.50400001928E-02 0.  1.
    10030    2    1    2    0    0  0.00000000000E+00  0.00000000000E+00 -0.38111035027E+03  0.38190471372E+04  0.37999836759E+04 0.  0.
        5    1    3    3  502    0  0.58803097728E+03  0.16667209839E+04  0.51022881404E+03  0.18395909331E+04  0.46999998093E+01 0. -1.
       -5    1    3    3    0  502 -0.58803097728E+03 -0.16667209839E+04 -0.89133916432E+03  0.19794562042E+04  0.46999998093E+01 0.  1.
</event>
<event>
 5   0  0.4071750E-09  0.3797418E+04  0.7818609E-02  0.8046709E-01
        1   -1    0    0  501    0  0.00000000000E+00  0.00000000000E+00  0.14258714736E+04  0.14258714736E+04  0.50400001928E-02 0. -1.
       -1   -1    0    0    0  501  0.00000000000E+00  0.00000000000E+00 -0.25283455944E+04  0.25283455944E+04  0.50400001928E-02 0.  1.
    10030    2    1    2    0    0  0.00000000000E+00  0.00000000000E+00 -0.11024741208E+04  0.39542170681E+04  0.37974179957E+04 0.  0.
        5    1    3    3  502    0 -0.52939603621E+03  0.17182272674E+04  0.84299136366E+02  0.17999148702E+04  0.46999998093E+01 0.  1.
       -5    1    3    3    0  502  0.52939603621E+03 -0.17182272674E+04 -0.11867732572E+04  0.21543021978E+04  0.46999998093E+01 0. -1.
</event>
<event>
 5   0  0.1261152E-08  0.3797633E+04  0.7818609E-02  0.8046663E-01
        2   -1    0    0  501    0  0.00000000000E+00  0.00000000000E+00  0.22131113683E+04  0.22131113683E+04  0.25500000920E-02 0.  1.
       -2   -1    0    0    0  501  0.00000000000E+00  0.00000000000E+00 -0.16291561437E+04  0.16291561437E+04  0.25500000920E-02 0. -1.
    10030    2    1    2    0    0  0.00000000000E+00  0.00000000000E+00  0.58395522454E+03  0.38422675120E+04  0.37976329377E+04 0.  0.
        2    1    3    3  502    0  0.53565647387E+03 -0.96458587232E+03  0.18555047870E+04  0.21587616306E+04  0.25500000920E-02 0.  1.
       -2    1    3    3    0  502 -0.53565647387E+03  0.96458587232E+03 -0.12715495625E+04  0.16835058815E+04  0.25500000920E-02 0. -1.
</event>
<event>
 5   0  0.1261152E-08  0.3798778E+04  0.7818609E-02  0.8046417E-01
       -2   -1    0    0    0  501  0.00000000000E+00  0.00000000000E+00  0.16977632511E+04  0.16977632511E+04  0.25500000920E-02 0.  1.
        2   -1    0    0  501    0  0.00000000000E+00  0.00000000000E+00 -0.21249597991E+04  0.21249597991E+04  0.25500000920E-02 0. -1.
    10030    2    1    2    0    0  0.00000000000E+00  0.00000000000E+00 -0.42719654795E+03  0.38227230502E+04  0.37987780441E+04 0.  0.
        2    1    3    3  502    0 -0.19387588608E+03  0.87876550034E+03 -0.18968228382E+04  0.20994650612E+04  0.25500000920E-02 0. -1.
       -2    1    3    3    0  502  0.19387588608E+03 -0.87876550034E+03  0.14696262902E+04  0.17232579890E+04  0.25500000920E-02 0.  1.
</event>
<event>
 5   0  0.1305088E-08  0.3804949E+04  0.7818609E-02  0.8045094E-01
       -2   -1    0    0    0  501  0.00000000000E+00  0.00000000000E+00  0.24977772114E+04  0.24977772114E+04  0.25500000920E-02 0.  1.
        2   -1    0    0  501    0  0.00000000000E+00  0.00000000000E+00 -0.14490519147E+04  0.14490519147E+04  0.25500000920E-02 0. -1.
    10030    2    1    2    0    0  0.00000000000E+00  0.00000000000E+00  0.10487252967E+04  0.39468291261E+04  0.38049488042E+04 0.  0.
        3    1    3    3  502    0  0.14895146718E+04  0.11835317897E+04  0.52718163903E+03  0.19741636066E+04  0.10100000352E+00 0.  1.
       -3    1    3    3    0  502 -0.14895146718E+04 -0.11835317897E+04  0.52154365766E+03  0.19726655195E+04  0.10100000352E+00 0. -1.
</event>
<event>
 5   0  0.1264013E-08  0.3801156E+04  0.7818609E-02  0.8045907E-01
       -2   -1    0    0    0  501  0.00000000000E+00  0.00000000000E+00  0.17327285595E+04  0.17327285595E+04  0.25500000920E-02 0. -1.
        2   -1    0    0  501    0  0.00000000000E+00  0.00000000000E+00 -0.20846875663E+04  0.20846875663E+04  0.25500000920E-02 0.  1.
    10030    2    1    2    0    0  0.00000000000E+00  0.00000000000E+00 -0.35195900687E+03  0.38174161258E+04  0.38011564997E+04 0.  0.
        4    1    3    3  502    0 -0.12562783717E+04  0.13642437520E+04  0.24149048171E+03  0.18702180695E+04  0.12699999809E+01 0. -1.
       -4    1    3    3    0  502  0.12562783717E+04 -0.13642437520E+04 -0.59344948858E+03  0.19471980563E+04  0.12699999809E+01 0.  1.
</event>
<event>
 5   0  0.4071750E-09  0.3799868E+04  0.7818609E-02  0.8046183E-01
       -1   -1    0    0    0  501  0.00000000000E+00  0.00000000000E+00  0.16105691473E+04  0.16105691474E+04  0.50400001928E-02 0.  1.
        1   -1    0    0  501    0  0.00000000000E+00  0.00000000000E+00 -0.22412880341E+04  0.22412880341E+04  0.50400001928E-02 0. -1.
    10030    2    1    2    0    0  0.00000000000E+00  0.00000000000E+00 -0.63071888675E+03  0.38518571814E+04  0.37998680809E+04 0.  0.
        1    1    3    3  502    0  0.78824090764E+03  0.38739597270E+03  0.13924311990E+04  0.16462879493E+04  0.50400001928E-02 0.  1.
       -1    1    3    3    0  502 -0.78824090764E+03 -0.38739597270E+03 -0.20231500858E+04  0.22055692321E+04  0.50400001928E-02 0. -1.
</event>
<event>
 5   0  0.1264013E-08  0.3801117E+04  0.7818609E-02  0.8045915E-01
        2   -1    0    0  501    0  0.00000000000E+00  0.00000000000E+00  0.13384421005E+04  0.13384421005E+04  0.25500000920E-02 0.  1.
       -2   -1    0    0    0  501  0.00000000000E+00  0.00000000000E+00 -0.26987521293E+04  0.26987521293E+04  0.25500000920E-02 0. -1.
    10030    2    1    2    0    0  0.00000000000E+00  0.00000000000E+00 -0.13603100288E+04  0.40371942299E+04  0.38011174508E+04 0.  0.
        4    1    3    3  502    0 -0.51918475924E+03  0.61619812447E+03  0.11480486430E+04  0.14025941118E+04  0.12699999809E+01 0.  1.
       -4    1    3    3    0  502  0.51918475924E+03 -0.61619812447E+03 -0.25083586718E+04  0.26346001181E+04  0.12699999809E+01 0. -1.
</event>
<event>
 5   0  0.4071750E-09  0.3800150E+04  0.7818609E-02  0.8046123E-01
       -1   -1    0    0    0  501  0.00000000000E+00  0.00000000000E+00  0.20265198050E+04  0.20265198050E+04  0.50400001928E-02 0. -1.
        1   -1    0    0  501    0  0.00000000000E+00  0.00000000000E+00 -0.17815196529E+04  0.17815196529E+04  0.50400001928E-02 0.  1.
    10030    2    1    2    0    0  0.00000000000E+00  0.00000000000E+00  0.24500015212E+03  0.38080394579E+04  0.38001499231E+04 0.  0.
        4    1    3    3  502    0 -0.22029512903E+03  0.13541569556E+04 -0.11947678475E+04  0.18192698609E+04  0.12699999809E+01 0.  1.
       -4    1    3    3    0  502  0.22029512903E+03 -0.13541569556E+04  0.14397679996E+04  0.19887695970E+04  0.12699999809E+01 0. -1.
</event>
<event>
 5   0  0.1327249E-08  0.3796838E+04  0.7818609E-02  0.8046834E-01
        2   -1    0    0  501    0  0.00000000000E+00  0.00000000000E+00  0.11168411309E+04  0.11168411309E+04  0.25500000920E-02 0.  1.
       -2   -1    0    0    0  501  0.00000000000E+00  0.00000000000E+00 -0.32269545183E+04  0.32269545183E+04  0.25500000920E-02 0. -1.
    10030    2    1    2    0    0  0.00000000000E+00  0.00000000000E+00 -0.21101133874E+04  0.43437956492E+04  0.37968384394E+04 0.  0.
        1    1    3    3  502    0  0.15629657222E+04 -0.67841067757E+03 -0.97260697480E+02  0.17066231392E+04  0.50400001928E-02 0.  1.
       -1    1    3    3    0  502 -0.15629657222E+04  0.67841067757E+03 -0.20128526899E+04  0.26371725100E+04  0.50400001928E-02 0. -1.
</event>
<event>
 5   0  0.4071750E-09  0.3801239E+04  0.7818609E-02  0.8045889E-01
        1   -1    0    0  501    0  0.00000000000E+00  0.00000000000E+00  0.16560777278E+04  0.16560777279E+04  0.50400001928E-02 0. -1.
       -1   -1    0    0    0  501  0.00000000000E+00  0.00000000000E+00 -0.21812713967E+04  0.21812713967E+04  0.50400001928E-02 0.  1.
    10030    2    1    2    0    0  0.00000000000E+00  0.00000000000E+00 -0.52519366883E+03  0.38373491245E+04  0.38012392603E+04 0.  0.
        3    1    3    3  502    0 -0.52704862831E+03  0.49955481612E+03 -0.20357043797E+04  0.21613485611E+04  0.10100000352E+00 0.  1.
       -3    1    3    3    0  502  0.52704862831E+03 -0.49955481612E+03  0.15105107108E+04  0.16760005634E+04  0.10100000352E+00 0. -1.
</event>
<event>
 5   0  0.1305088E-08  0.3800052E+04  0.7818609E-02  0.8046144E-01
       -2   -1    0    0    0  501  0.00000000000E+00  0.00000000000E+00  0.20637316231E+04  0.20637316231E+04  0.25500000920E-02 0. -1.
        2   -1    0    0  501    0  0.00000000000E+00  0.00000000000E+00 -0.17493061423E+04  0.17493061423E+04  0.25500000920E-02 0.  1.
    10030    2    1    2    0    0  0.00000000000E+00  0.00000000000E+00  0.31442548079E+03  0.38130377654E+04  0.38000517914E+04 0.  0.
        3    1    3    3  502    0 -0.50365802474E+03  0.39599203731E+03  0.19520728631E+04  0.20545241718E+04  0.10100000352E+00 0. -1.
       -3    1    3    3    0  502  0.50365802474E+03 -0.39599203731E+03 -0.16376473823E+04  0.17585135935E+04  0.10100000352E+00 0.  1.
</event>
<event>
 5   0  0.4071750E-09  0.3821711E+04  0.7818609E-02  0.8041512E-01
       -1   -1    0    0    0  501  0.00000000000E+00  0.00000000000E+00  0.26693285382E+04  0.26693285382E+04  0.50400001928E-02 0. -1.
        1   -1    0    0  501    0  0.00000000000E+00  0.00000000000E+00 -0.13678976910E+04  0.13678976910E+04  0.50400001928E-02 0.  1.
    10030    2    1    2    0    0  0.00000000000E+00  0.00000000000E+00  0.13014308472E+04  0.40372262292E+04  0.38217107917E+04 0.  0.
        5    1    3    3  502    0  0.76356344754E+03 -0.22502212336E+03  0.24858250572E+04  0.26101747834E+04  0.46999998093E+01 0. -1.
       -5    1    3    3    0  502 -0.76356344754E+03  0.22502212336E+03 -0.11843942100E+04  0.14270514459E+04  0.46999998093E+01 0.  1.
</event>
<event>
 5   0  0.1327249E-08  0.3798782E+04  0.7818609E-02  0.8046416E-01
       -2   -1    0    0    0  501  0.00000000000E+00  0.00000000000E+00  0.18691999297E+04  0.18691999297E+04  0.25500000920E-02 0.  1.
        2   -1    0    0  501    0  0.00000000000E+00  0.00000000000E+00 -0.19300695117E+04  0.19300695117E+04  0.25500000920E-02 0. -1.
    10030    2    1    2    0    0  0.00000000000E+00  0.00000000000E+00 -0.60869581988E+02  0.37992694414E+04  0.37987818024E+04 0.  0.
        1    1    3    3  502    0 -0.85939895515E+03  0.12744126470E+04  0.10855003726E+04  0.18817558869E+04  0.50400001928E-02 0.  1.
       -1    1    3    3    0  502  0.85939895515E+03 -0.12744126470E+04 -0.11463699546E+04  0.19175135545E+04  0.50400001928E-02 0. -1.
</event>
<event>
 5   0  0.1305088E-08  0.3799173E+04  0.7818609E-02  0.8046332E-01
       -2   -1    0    0    0  501  0.00000000000E+00  0.00000000000E+00  0.21955797240E+04  0.21955797240E+04  0.25500000920E-02 0.  1.
        2   -1    0    0  501    0  0.00000000000E+00  0.00000000000E+00 -0.16434975133E+04  0.16434975133E+04  0.25500000920E-02 0. -1.
    10030    2    1    2    0    0  0.00000000000E+00  0.00000000000E+00  0.55208221070E+03  0.38390772373E+04  0.37991734978E+04 0.  0.
        3    1    3    3  502    0 -0.93500582992E+03  0.16486616212E+04  0.14778772475E+03  0.19010950173E+04  0.10100000352E+00 0.  1.
       -3    1    3    3    0  502  0.93500582992E+03 -0.16486616212E+04  0.40429448594E+03  0.19379822199E+04  0.10100000352E+00 0. -1.
</event>
<event>
 5   0  0.4071750E-09  0.3806811E+04  0.7818609E-02  0.8044695E-01
       -1   -1    0    0    0  501  0.00000000000E+00  0.00000000000E+00  0.16914369167E+04  0.16914369167E+04  0.50400001928E-02 0. -1.
        1   -1    0    0  501    0  0.00000000000E+00  0.00000000000E+00 -0.21419374805E+04  0.21419374805E+04  0.50400001928E-02 0.  1.
    10030    2    1    2    0    0  0.00000000000E+00  0.00000000000E+00 -0.45050056384E+03  0.38333743972E+04  0.38068108058E+04 0.  0.
        4    1    3    3  502    0  0.41454588249E+03 -0.15944555813E+04  0.73471905094E+03  0.18038710004E+04  0.12699999809E+01 0. -1.
       -4    1    3    3    0  502 -0.41454588249E+03  0.15944555813E+04 -0.11852196148E+04  0.20295033968E+04  0.12699999809E+01 0.  1.
</event>
<event>
 5   0  0.4071750E-09  0.3799612E+04  0.7818609E-02  0.8046238E-01
        1   -1    0    0  501    0  0.00000000000E+00  0.00000000000E+00  0.25310701103E+04  0.25310701103E+04  0.50400001928E-02 0. -1.
       -1   -1    0    0    0  501  0.00000000000E+00  0.00000000000E+00 -0.14259826369E+04  0.14259826369E+04  0.50400001928E-02 0.  1.
    10030    2    1    2    0    0  0.00000000000E+00  0.00000000000E+00  0.11050874734E+04  0.39570527471E+04  0.37996115749E+04 0.  0.
        2    1    3    3  502    0 -0.22788461792E+03  0.46983392296E+03  0.24548649268E+04  0.25097882626E+04  0.25500000920E-02 0. -1.
       -2    1    3    3    0  502  0.22788461792E+03 -0.46983392296E+03 -0.13497774534E+04  0.14472644845E+04  0.25500000920E-02 0.  1.
</event>
<event>
 5   0  0.1264013E-08  0.3800314E+04  0.7818609E-02  0.8046088E-01
        2   -1    0    0  501    0  0.00000000000E+00  0.00000000000E+00  0.20914738736E+04  0.20914738736E+04  0.25500000920E-02 0.  1.
       -2   -1    0    0    0  501  0.00000000000E+00  0.00000000000E+00 -0.17263403803E+04  0.17263403803E+04  0.25500000920E-02 0. -1.
    10030    2    1    2    0    0  0.00000000000E+00  0.00000000000E+00  0.36513349327E+03  0.38178142539E+04  0.38003135672E+04 0.  0.
        4    1    3    3  502    0  0.14907180408E+04  0.76657329050E+03  0.10815166952E+04  0.19948821674E+04  0.12699999809E+01 0.  1.
       -4    1    3    3    0  502 -0.14907180408E+04 -0.76657329050E+03 -0.71638320198E+03  0.18229320865E+04  0.12699999809E+01 0. -1.
</event>
<event>
 5   0  0.1327249E-08  0.3793347E+04  0.7818609E-02  0.8047584E-01
       -2   -1    0    0    0  501  0.00000000000E+00  0.00000000000E+00  0.14696198785E+04  0.14696198785E+04  0.25500000920E-02 0. -1.
        2   -1    0    0  501    0  0.00000000000E+00  0.00000000000E+00 -0.24478230685E+04  0.24478230685E+04  0.25500000920E-02 0.  1.
    10030    2    1    2    0    0  0.00000000000E+00  0.00000000000E+00 -0.97820318998E+03  0.39174429470E+04  0.37933465123E+04 0.  0.
        1    1    3    3  502    0 -0.75825033983E+03  0.11961508346E+04 -0.17919798036E+04  0.22840560443E+04  0.50400001928E-02 0.  1.
       -1    1    3    3    0  502  0.75825033983E+03 -0.11961508346E+04  0.81377661366E+03  0.16333869027E+04  0.50400001928E-02 0. -1.
</event>
<event>
 5   0  0.4071750E-09  0.3798324E+04  0.7818609E-02  0.8046515E-01
       -1   -1    0    0    0  501  0.00000000000E+00  0.00000000000E+00  0.17283041545E+04  0.17283041545E+04  0.50400001928E-02 0.  1.
        1   -1    0    0  501    0  0.00000000000E+00  0.00000000000E+00 -0.20869104069E+04  0.20869104069E+04  0.50400001928E-02 0. -1.
    10030    2    1    2    0    0  0.00000000000E+00  0.00000000000E+00 -0.35860625241E+03  0.38152145614E+04  0.37983238021E+04 0.  0.
        1    1    3    3  502    0  0.63981100658E+03  0.12853836390E+04  0.10693042458E+04  0.17902460149E+04  0.50400001928E-02 0.  1.
       -1    1    3    3    0  502 -0.63981100658E+03 -0.12853836390E+04 -0.14279104982E+04  0.20249685466E+04  0.50400001928E-02 0. -1.
</event>
<event>
 5   0  0.1293993E-08  0.3796765E+04  0.7818609E-02  0.8046849E-01
       -2   -1    0    0    0  501  0.00000000000E+00  0.00000000000E+00  0.19283419060E+04  0.19283419060E+04  0.25500000920E-02 0. -1.
        2   -1    0    0  501    0  0.00000000000E+00  0.00000000000E+00 -0.18688888130E+04  0.18688888130E+04  0.25500000920E-02 0.  1.
    10030    2    1    2    0    0  0.00000000000E+00  0.00000000000E+00  0.59453092998E+02  0.37972307189E+04  0.37967652630E+04 0.  0.
        5    1    3    3  502    0  0.13429783004E+04  0.11129052491E+04  0.77927537254E+03  0.19103510162E+04  0.46999998093E+01 0. -1.
       -5    1    3    3    0  502 -0.13429783004E+04 -0.11129052491E+04 -0.71982227955E+03  0.18868797028E+04  0.46999998093E+01 0.  1.
</event>
<event>
 5   0  0.4071750E-09  0.3799823E+04  0.7818609E-02  0.8046193E-01
        1   -1    0    0  501    0  0.00000000000E+00  0.00000000000E+00  0.10737842579E+04  0.10737842579E+04  0.50400001928E-02 0. -1.
       -1   -1    0    0    0  501  0.00000000000E+00  0.00000000000E+00 -0.33616280473E+04  0.33616280473E+04  0.50400001928E-02 0.  1.
    10030    2    1    2    0    0  0.00000000000E+00  0.00000000000E+00 -0.22878437894E+04  0.44354123052E+04  0.37998227739E+04 0.  0.
        4    1    3    3  502    0  0.16113031583E+04  0.70551372696E+03 -0.30575002472E+03  0.17853661186E+04  0.12699999809E+01 0. -1.
       -4    1    3    3    0  502 -0.16113031583E+04 -0.70551372696E+03 -0.19820937647E+04  0.26500461867E+04  0.12699999809E+01 0.  1.
</event>
<event>
 5   0  0.4071750E-09  0.3800376E+04  0.7818609E-02  0.8046074E-01
        1   -1    0    0  501    0  0.00000000000E+00  0.00000000000E+00  0.26718653816E+04  0.26718653816E+04  0.50400001928E-02 0.  1.
       -1   -1    0    0    0  501  0.00000000000E+00  0.00000000000E+00 -0.13513830573E+04  0.13513830573E+04  0.50400001928E-02 0. -1.
    10030    2    1    2    0    0  0.00000000000E+00  0.00000000000E+00  0.13204823244E+04  0.40232484389E+04  0.38003755647E+04 0.  0.
        5    1    3    3  502    0 -0.46576696078E+03 -0.10295417402E+04 -0.95702620265E+03  0.14808160923E+04  0.46999998093E+01 0. -1.
       -5    1    3    3    0  502  0.46576696078E+03  0.10295417402E+04  0.22775085270E+04  0.25424323466E+04  0.46999998093E+01 0.  1.
</event>
<event>
 5   0  0.4071750E-09  0.3801011E+04  0.7818609E-02  0.8045938E-01
       -1   -1    0    0    0  501  0.00000000000E+00  0.00000000000E+00  0.19422206274E+04  0.19422206274E+04  0.50400001928E-02 0. -1.
        1   -1    0    0  501    0  0.00000000000E+00  0.00000000000E+00 -0.18596863981E+04  0.18596863981E+04  0.50400001928E-02 0.  1.
    10030    2    1    2    0    0  0.00000000000E+00  0.00000000000E+00  0.82534229328E+02  0.38019070255E+04  0.38010110670E+04 0.  0.
        2    1    3    3  502    0  0.19992957036E+03  0.12605787427E+04 -0.13672163218E+04  0.18703772535E+04  0.25500000920E-02 0.  1.
       -2    1    3    3    0  502 -0.19992957036E+03 -0.12605787427E+04  0.14497505511E+04  0.19315297720E+04  0.25500000920E-02 0. -1.
</event>
<event>
 5   0  0.1264013E-08  0.3789963E+04  0.7818609E-02  0.8048312E-01
        2   -1    0    0  501    0  0.00000000000E+00  0.00000000000E+00  0.18290602951E+04  0.18290602951E+04  0.25500000920E-02 0. -1.
       -2   -1    0    0    0  501  0.00000000000E+00  0.00000000000E+00 -0.19632783537E+04  0.19632783537E+04  0.25500000920E-02 0.  1.
    10030    2    1    2    0    0  0.00000000000E+00  0.00000000000E+00 -0.13421805860E+03  0.37923386487E+04  0.37899627886E+04 0.  0.
        4    1    3    3  502    0 -0.11680005656E+03  0.33055311411E+02  0.18251655557E+04  0.18291981373E+04  0.12699999809E+01 0. -1.
       -4    1    3    3    0  502  0.11680005656E+03 -0.33055311411E+02 -0.19593836143E+04  0.19631405114E+04  0.12699999809E+01 0.  1.
</event>
<event>
 5   0  0.4071750E-09  0.3799040E+04  0.7818609E-02  0.8046361E-01
        1   -1    0    0  501    0  0.00000000000E+00  0.00000000000E+00  0.20779783600E+04  0.20779783600E+04  0.50400001928E-02 0. -1.
       -1   -1    0    0    0  501  0.00000000000E+00  0.00000000000E+00 -0.17363878098E+04  0.17363878098E+04  0.50400001928E-02 0.  1.
    10030    2    1    2    0    0  0.00000000000E+00  0.00000000000E+00  0.34159055018E+03  0.38143661697E+04  0.37990400331E+04 0.  0.
        1    1    3    3  502    0 -0.76676903457E+03 -0.10312198932E+04  0.15753049526E+04  0.20329621035E+04  0.50400001928E-02 0. -1.
       -1    1    3    3    0  502  0.76676903457E+03  0.10312198932E+04 -0.12337144024E+04  0.17814040663E+04  0.50400001928E-02 0.  1.
</event>
<event>
 5   0  0.4071750E-09  0.3799884E+04  0.7818609E-02  0.8046180E-01
        1   -1    0    0  501    0  0.00000000000E+00  0.00000000000E+00  0.24149776175E+04  0.24149776175E+04  0.50400001928E-02 0. -1.
       -1   -1    0    0    0  501  0.00000000000E+00  0.00000000000E+00 -0.14947465820E+04  0.14947465820E+04  0.50400001928E-02 0.  1.
    10030    2    1    2    0    0  0.00000000000E+00  0.00000000000E+00  0.92023103545E+03  0.39097241995E+04  0.37998839664E+04 0.  0.
        3    1    3    3  502    0 -0.64351939726E+03 -0.16273162434E+04 -0.30120844297E+03  0.17756694251E+04  0.10100000352E+00 0.  1.
       -3    1    3    3    0  502  0.64351939726E+03  0.16273162434E+04  0.12214394784E+04  0.21340547745E+04  0.10100000352E+00 0. -1.
</event>
<event>
 5   0  0.1261152E-08  0.3800364E+04  0.7818609E-02  0.8046077E-01
       -2   -1    0    0    0  501  0.00000000000E+00  0.00000000000E+00  0.11081959429E+04  0.11081959429E+04  0.25500000920E-02 0. -1.
        2   -1    0    0  501    0  0.00000000000E+00  0.00000000000E+00 -0.32581710720E+04  0.32581710720E+04  0.25500000920E-02 0.  1.
    10030    2    1    2    0    0  0.00000000000E+00  0.00000000000E+00 -0.21499751291E+04  0.43663670148E+04  0.38003641737E+04 0.  0.
        2    1    3    3  502    0  0.10057595065E+03  0.11187130008E+04  0.68594149757E+03  0.13161117118E+04  0.25500000920E-02 0. -1.
       -2    1    3    3    0  502 -0.10057595065E+03 -0.11187130008E+04 -0.28359166267E+04  0.30502553030E+04  0.25500000920E-02 0.  1.
</event>
<event>
 5   0  0.1264013E-08  0.3804625E+04  0.7818609E-02  0.8045163E-01
        2   -1    0    0  501    0  0.00000000000E+00  0.00000000000E+00  0.28041795457E+04  0.28041795457E+04  0.25500000920E-02 0. -1.
       -2   -1    0    0    0  501  0.00000000000E+00  0.00000000000E+00 -0.12904997745E+04  0.12904997745E+04  0.25500000920E-02 0.  1.
    10030    2    1    2    0    0  0.00000000000E+00  0.00000000000E+00  0.15136797713E+04  0.40946793202E+04  0.38046251176E+04 0.  0.
        4    1    3    3  502    0 -0.34945064511E+03  0.18416866829E+04  0.40832197599E+03  0.19185030728E+04  0.12699999809E+01 0.  1.
       -4    1    3    3    0  502  0.34945064511E+03 -0.18416866829E+04  0.11053577953E+04  0.21761762474E+04  0.12699999809E+01 0. -1.
</event>
<event>
 5   0  0.4071750E-09  0.3800516E+04  0.7818609E-02  0.8046044E-01
        1   -1    0    0  501    0  0.00000000000E+00  0.00000000000E+00  0.25393926853E+04  0.25393926853E+04  0.50400001928E-02 0. -1.
       -1   -1    0    0    0  501  0.00000000000E+00  0.00000000000E+00 -0.14219854877E+04  0.14219854877E+04  0.50400001928E-02 0.  1.
    10030    2    1    2    0    0  0.00000000000E+00  0.00000000000E+00  0.11174071976E+04  0.39613781731E+04  0.38005155157E+04 0.  0.
        5    1    3    3  502    0 -0.90230505047E+03  0.24501674831E+03  0.22830437165E+04  0.24670829561E+04  0.46999998093E+01 0. -1.
       -5    1    3    3    0  502  0.90230505047E+03 -0.24501674831E+03 -0.11656365189E+04  0.14942952169E+04  0.46999998093E+01 0.  1.
</event>
<event>
 5   0  0.1264013E-08  0.3799710E+04  0.7818609E-02  0.8046217E-01
       -2   -1    0    0    0  501  0.00000000000E+00  0.00000000000E+00  0.15300231522E+04  0.15300231522E+04  0.25500000920E-02 0. -1.
        2   -1    0    0  501    0  0.00000000000E+00  0.00000000000E+00 -0.23590807676E+04  0.23590807676E+04  0.25500000920E-02 0.  1.
    10030    2    1    2    0    0  0.00000000000E+00  0.00000000000E+00 -0.82905761541E+03  0.38891039199E+04  0.37997095639E+04 0.  0.
        4    1    3    3  502    0 -0.20459052687E+03 -0.72871370704E+02 -0.23463330478E+04  0.23563632794E+04  0.12699999809E+01 0.  1.
       -4    1    3    3    0  502  0.20459052687E+03  0.72871370704E+02  0.15172754324E+04  0.15327406405E+04  0.12699999809E+01 0. -1.
</event>
<event>
 5   0  0.4071750E-09  0.3799857E+04  0.7818609E-02  0.8046185E-01
        1   -1    0    0  501    0  0.00000000000E+00  0.00000000000E+00  0.27953402717E+04  0.27953402717E+04  0.50400001928E-02 0.  1.
       -1   -1    0    0    0  501  0.00000000000E+00  0.00000000000E+00 -0.12913379433E+04  0.12913379433E+04  0.50400001928E-02 0. -1.
    10030    2    1    2    0    0  0.00000000000E+00  0.00000000000E+00  0.15040023285E+04  0.40866782150E+04  0.37998573433E+04 0.  0.
        2    1    3    3  502    0  0.46080072298E+03  0.15421580385E+04 -0.33372455126E+03  0.16437642161E+04  0.25500000920E-02 0. -1.
       -2    1    3    3    0  502 -0.46080072298E+03 -0.15421580385E+04  0.18377268797E+04  0.24429139990E+04  0.25500000920E-02 0.  1.
</event>
<event>
 5   0  0.1293993E-08  0.3799719E+04  0.7818609E-02  0.8046215E-01
       -2   -1    0    0    0  501  0.00000000000E+00  0.00000000000E+00  0.21098462832E+04  0.21098462832E+04  0.25500000920E-02 0.  1.
        2   -1    0    0  501    0  0.00000000000E+00  0.00000000000E+00 -0.17107721219E+04  0.17107721219E+04  0.25500000920E-02 0. -1.
    10030    2    1    2    0    0  0.00000000000E+00  0.00000000000E+00  0.39907416129E+03  0.38206184051E+04  0.37997190437E+04 0.  0.
        5    1    3    3  502    0  0.26046651047E+03  0.17223794678E+04  0.96200220231E+03  0.19899507937E+04  0.46999998093E+01 0.  1.
       -5    1    3    3    0  502 -0.26046651047E+03 -0.17223794678E+04 -0.56292804102E+03  0.18306676114E+04  0.46999998093E+01 0. -1.
</event>
<event>
 5   0  0.4071750E-09  0.3801251E+04  0.7818609E-02  0.8045886E-01
       -1   -1    0    0    0  501  0.00000000000E+00  0.00000000000E+00  0.14656717215E+04  0.14656717215E+04  0.50400001928E-02 0.  1.
        1   -1    0    0  501    0  0.00000000000E+00  0.00000000000E+00 -0.24646563203E+04  0.24646563203E+04  0.50400001928E-02 0. -1.
    10030    2    1    2    0    0  0.00000000000E+00  0.00000000000E+00 -0.99898459884E+03  0.39303280419E+04  0.38012508846E+04 0.  0.
        4    1    3    3  502    0 -0.52784658468E+03 -0.41099490760E+03  0.13399150350E+04  0.14976357183E+04  0.12699999809E+01 0.  1.
       -4    1    3    3    0  502  0.52784658468E+03  0.41099490760E+03 -0.23388996338E+04  0.24326923235E+04  0.12699999809E+01 0. -1.
</event>
<event>
 5   0  0.1305088E-08  0.3800209E+04  0.7818609E-02  0.8046110E-01
       -2   -1    0    0    0  501  0.00000000000E+00  0.00000000000E+00  0.26046948351E+04  0.26046948351E+04  0.25500000920E-02 0.  1.
        2   -1    0    0  501    0  0.00000000000E+00  0.00000000000E+00 -0.13861115434E+04  0.13861115435E+04  0.25500000920E-02 0. -1.
    10030    2    1    2    0    0  0.00000000000E+00  0.00000000000E+00  0.12185832917E+04  0.39908063786E+04  0.38002092459E+04 0.  0.
        3    1    3    3  502    0 -0.13463721361E+03  0.49764556702E+03 -0.13112622175E+04  0.14089666082E+04  0.10100000352E+00 0. -1.
       -3    1    3    3    0  502  0.13463721361E+03 -0.49764556702E+03  0.25298455092E+04  0.25818397704E+04  0.10100000352E+00 0.  1.
</event>
<event>
 5   0  0.4071750E-09  0.3800700E+04  0.7818609E-02  0.8046005E-01
       -1   -1    0    0    0  501  0.00000000000E+00  0.00000000000E+00  0.16141880716E+04  0.16141880716E+04  0.50400001928E-02 0. -1.
        1   -1    0    0  501    0  0.00000000000E+00  0.00000000000E+00 -0.22372419414E+04  0.22372419414E+04  0.50400001928E-02 0.  1.
    10030    2    1    2    0    0  0.00000000000E+00  0.00000000000E+00 -0.62305386979E+03  0.38514300129E+04  0.38006995435E+04 0.  0.
        2    1    3    3  502    0  0.12675390845E+04  0.10019963205E+04  0.70216384244E+03  0.17617281342E+04  0.25500000920E-02 0. -1.
       -2    1    3    3    0  502 -0.12675390845E+04 -0.10019963205E+04 -0.13252177122E+04  0.20897018787E+04  0.25500000920E-02 0.  1.
</event>
<event>
 5   0  0.1261152E-08  0.3801722E+04  0.7818609E-02  0.8045785E-01
        2   -1    0    0  501    0  0.00000000000E+00  0.00000000000E+00  0.19110189097E+04  0.19110189097E+04  0.25500000920E-02 0. -1.
       -2   -1    0    0    0  501  0.00000000000E+00  0.00000000000E+00 -0.18907571421E+04  0.18907571421E+04  0.25500000920E-02 0.  1.
    10030    2    1    2    0    0  0.00000000000E+00  0.00000000000E+00  0.20261767569E+02  0.38017760518E+04  0.38017220584E+04 0.  0.
        2    1    3    3  502    0  0.35433224380E+03 -0.18600353413E+04 -0.15717314290E+03  0.18999963702E+04  0.25500000920E-02 0.  1.
       -2    1    3    3    0  502 -0.35433224380E+03  0.18600353413E+04  0.17743491047E+03  0.19017796816E+04  0.25500000920E-02 0. -1.
</event>
<event>
 5   0  0.1264013E-08  0.3805172E+04  0.7818609E-02  0.8045046E-01
        2   -1    0    0  501    0  0.00000000000E+00  0.00000000000E+00  0.19379859880E+04  0.19379859880E+04  0.25500000920E-02 0.  1.
       -2   -1    0    0    0  501  0.00000000000E+00  0.00000000000E+00 -0.18678325036E+04  0.18678325036E+04  0.25500000920E-02 0. -1.
    10030    2    1    2    0    0  0.00000000000E+00  0.00000000000E+00  0.70153484352E+02  0.38058184916E+04  0.38051718594E+04 0.  0.
        4    1    3    3  502    0 -0.11575807962E+04 -0.88441655004E+03  0.12590680500E+04  0.19254713452E+04  0.12699999809E+01 0.  1.
       -4    1    3    3    0  502  0.11575807962E+04  0.88441655004E+03 -0.11889145657E+04  0.18803471464E+04  0.12699999809E+01 0. -1.
</event>
<event>
 5   0  0.1293993E-08  0.3799191E+04  0.7818609E-02  0.8046329E-01
       -2   -1    0    0    0  501  0.00000000000E+00  0.00000000000E+00  0.33993185267E+04  0.33993185267E+04  0.25500000920E-02 0.  1.
        2   -1    0    0  501    0  0.00000000000E+00  0.00000000000E+00 -0.10615253126E+04  0.10615253126E+04  0.25500000920E-02 0. -1.
    10030    2    1    2    0    0  0.00000000000E+00  0.00000000000E+00  0.23377932141E+04  0.44608438393E+04  0.37991907885E+04 0.  0.
        5    1    3    3  502    0  0.11623980132E+04  0.77664929309E+03 -0.34120138813E+03  0.14390252753E+04  0.46999998093E+01 0. -1.
       -5    1    3    3    0  502 -0.11623980132E+04 -0.77664929309E+03  0.26789946022E+04  0.30218185641E+04  0.46999998093E+01 0.  1.
</event>
<event>
 5   0  0.4071750E-09  0.3799048E+04  0.7818609E-02  0.8046359E-01
        1   -1    0    0  501    0  0.00000000000E+00  0.00000000000E+00  0.25784987739E+04  0.25784987739E+04  0.50400001928E-02 0. -1.
       -1   -1    0    0    0  501  0.00000000000E+00  0.00000000000E+00 -0.13993379920E+04  0.13993379920E+04  0.50400001928E-02 0.  1.
    10030    2    1    2    0    0  0.00000000000E+00  0.00000000000E+00  0.11791607819E+04  0.39778367659E+04  0.37990479316E+04 0.  0.
        1    1    3    3  502    0 -0.39196288748E+03 -0.17755981220E+04  0.11648048481E+04  0.21594337059E+04  0.50400001928E-02 0. -1.
       -1    1    3    3    0  502  0.39196288748E+03  0.17755981220E+04  0.14355933887E+02  0.18184030601E+04  0.50400001928E-02 0.  1.
</event>
<event>
 5   0  0.4071750E-09  0.3796740E+04  0.7818609E-02  0.8046855E-01
        1   -1    0    0  501    0  0.00000000000E+00  0.00000000000E+00  0.22446379136E+04  0.22446379136E+04  0.50400001928E-02 0.  1.
       -1   -1    0    0    0  501  0.00000000000E+00  0.00000000000E+00 -0.16055193112E+04  0.16055193112E+04  0.50400001928E-02 0. -1.
    10030    2    1    2    0    0  0.00000000000E+00  0.00000000000E+00  0.63911860237E+03  0.38501572248E+04  0.37967404531E+04 0.  0.
        2    1    3    3  502    0 -0.11835157573E+04  0.60080436876E+03  0.16959070400E+04  0.21535496571E+04  0.25500000920E-02 0.  1.
       -2    1    3    3    0  502  0.11835157573E+04 -0.60080436876E+03 -0.10567884376E+04  0.16966075678E+04  0.25500000920E-02 0. -1.
</event>
<event>
 5   0  0.1293993E-08  0.3799670E+04  0.7818609E-02  0.8046226E-01
       -2   -1    0    0    0  501  0.00000000000E+00  0.00000000000E+00  0.22142542701E+04  0.22142542701E+04  0.25500000920E-02 0.  1.
        2   -1    0    0  501    0  0.00000000000E+00  0.00000000000E+00 -0.16300626508E+04  0.16300626508E+04  0.25500000920E-02 0. -1.
    10030    2    1    2    0    0  0.00000000000E+00  0.00000000000E+00  0.58419161935E+03  0.38443169209E+04  0.37996700831E+04 0.  0.
        5    1    3    3  502    0  0.17440636174E+04 -0.38554799485E+03  0.94696157222E+03  0.20216734324E+04  0.46999998093E+01 0.  1.
       -5    1    3    3    0  502 -0.17440636174E+04  0.38554799485E+03 -0.36276995287E+03  0.18226434886E+04  0.46999998093E+01 0. -1.
</event>
<event>
 5   0  0.4071750E-09  0.3801409E+04  0.7818609E-02  0.8045853E-01
        1   -1    0    0  501    0  0.00000000000E+00  0.00000000000E+00  0.22275146563E+04  0.22275146563E+04  0.50400001928E-02 0. -1.
       -1   -1    0    0    0  501  0.00000000000E+00  0.00000000000E+00 -0.16218421736E+04  0.16218421736E+04  0.50400001928E-02 0.  1.
    10030    2    1    2    0    0  0.00000000000E+00  0.00000000000E+00  0.60567248269E+03  0.38493568300E+04  0.38014087978E+04 0.  0.
        3    1    3    3  502    0 -0.10261971574E+04 -0.12769425174E+04  0.12788474823E+04  0.20782477455E+04  0.10100000352E+00 0. -1.
       -3    1    3    3    0  502  0.10261971574E+04  0.12769425174E+04 -0.67317499961E+03  0.17711090844E+04  0.10100000352E+00 0.  1.
</event>
<event>
 5   0  0.1327249E-08  0.3816886E+04  0.7818609E-02  0.8042541E-01
        2   -1    0    0  501    0  0.00000000000E+00  0.00000000000E+00  0.25536142842E+04  0.25536142842E+04  0.25500000920E-02 0.  1.
       -2   -1    0    0    0  501  0.00000000000E+00  0.00000000000E+00 -0.14262746506E+04  0.14262746506E+04  0.25500000920E-02 0. -1.
    10030    2    1    2    0    0  0.00000000000E+00  0.00000000000E+00  0.11273396336E+04  0.39798889348E+04  0.38168863336E+04 0.  0.
        1    1    3    3  502    0  0.12609873429E+03 -0.18267090692E+04  0.27480541763E+01  0.18310582913E+04  0.50400001928E-02 0. -1.
       -1    1    3    3    0  502 -0.12609873429E+03  0.18267090692E+04  0.11245915794E+04  0.21488306435E+04  0.50400001928E-02 0.  1.
</event>
<event>
 5   0  0.4071750E-09  0.3800577E+04  0.7818609E-02  0.8046031E-01
        1   -1    0    0  501    0  0.00000000000E+00  0.00000000000E+00  0.13953208538E+04  0.13953208538E+04  0.50400001928E-02 0. -1.
       -1   -1    0    0    0  501  0.00000000000E+00  0.00000000000E+00 -0.25880043475E+04  0.25880043475E+04  0.50400001928E-02 0.  1.
    10030    2    1    2    0    0  0.00000000000E+00  0.00000000000E+00 -0.11926834936E+04  0.39833252013E+04  0.38005770277E+04 0.  0.
        1    1    3    3  502    0 -0.81393879966E+02  0.18977255522E+04 -0.53790034830E+03  0.19741641320E+04  0.50400001928E-02 0. -1.
       -1    1    3    3    0  502  0.81393879966E+02 -0.18977255522E+04 -0.65478314535E+03  0.20091610694E+04  0.50400001928E-02 0.  1.
</event>
<event>
 5   0  0.1327249E-08  0.3813379E+04  0.7818609E-02  0.8043290E-01
        2   -1    0    0  501    0  0.00000000000E+00  0.00000000000E+00  0.21087417852E+04  0.21087417852E+04  0.25500000920E-02 0.  1.
       -2   -1    0    0    0  501  0.00000000000E+00  0.00000000000E+00 -0.17239974010E+04  0.17239974010E+04  0.25500000920E-02 0. -1.
    10030    2    1    2    0    0  0.00000000000E+00  0.00000000000E+00  0.38474438417E+03  0.38327391862E+04  0.38133792663E+04 0.  0.
        1    1    3    3  502    0  0.75788760317E+03  0.17478892854E+04  0.26993120423E+03  0.19241552506E+04  0.50400001928E-02 0. -1.
       -1    1    3    3    0  502 -0.75788760317E+03 -0.17478892854E+04  0.11481317994E+03  0.19085839357E+04  0.50400001928E-02 0.  1.
</event>
<event>
 5   0  0.1327249E-08  0.3802016E+04  0.7818609E-02  0.8045722E-01
        2   -1    0    0  501    0  0.00000000000E+00  0.00000000000E+00  0.21697878164E+04  0.21697878164E+04  0.25500000920E-02 0.  1.
       -2   -1    0    0    0  501  0.00000000000E+00  0.00000000000E+00 -0.16655227112E+04  0.16655227112E+04  0.25500000920E-02 0. -1.
    10030    2    1    2    0    0  0.00000000000E+00  0.00000000000E+00  0.50426510517E+03  0.38353105275E+04  0.38020157215E+04 0.  0.
        1    1    3    3  502    0  0.46206222004E+02 -0.86631726659E+02 -0.16629632835E+04  0.16658592237E+04  0.50400001928E-02 0. -1.
       -1    1    3    3    0  502 -0.46206222004E+02  0.86631726659E+02  0.21672283887E+04  0.21694513038E+04  0.50400001928E-02 0.  1.
</event>
<event>
 5   0  0.1293993E-08  0.3801769E+04  0.7818609E-02  0.8045775E-01
       -2   -1    0    0    0  501  0.00000000000E+00  0.00000000000E+00  0.21030074173E+04  0.21030074173E+04  0.25500000920E-02 0.  1.
        2   -1    0    0  501    0  0.00000000000E+00  0.00000000000E+00 -0.17181874987E+04  0.17181874987E+04  0.25500000920E-02 0. -1.
    10030    2    1    2    0    0  0.00000000000E+00  0.00000000000E+00  0.38481991854E+03  0.38211949160E+04  0.38017685643E+04 0.  0.
        5    1    3    3  502    0 -0.23859433893E+03 -0.86510056807E+03  0.18766851469E+04  0.20802152490E+04  0.46999998093E+01 0.  1.
       -5    1    3    3    0  502  0.23859433893E+03  0.86510056807E+03 -0.14918652283E+04  0.17409796670E+04  0.46999998093E+01 0. -1.
</event>
<event>
 5   0  0.1305088E-08  0.3802636E+04  0.7818609E-02  0.8045589E-01
        2   -1    0    0  501    0  0.00000000000E+00  0.00000000000E+00  0.19768747734E+04  0.19768747734E+04  0.25500000920E-02 0.  1.
       -2   -1    0    0    0  501  0.00000000000E+00  0.00000000000E+00 -0.18286494076E+04  0.18286494076E+04  0.25500000920E-02 0. -1.
    10030    2    1    2    0    0  0.00000000000E+00  0.00000000000E+00  0.14822536578E+03  0.38055241810E+04  0.38026363924E+04 0.  0.
        3    1    3    3  502    0 -0.49396101637E+03  0.81330661736E+03 -0.15732071552E+04  0.18385988967E+04  0.10100000352E+00 0. -1.
       -3    1    3    3    0  502  0.49396101637E+03 -0.81330661736E+03  0.17214325210E+04  0.19669252843E+04  0.10100000352E+00 0.  1.
</event>
<event>
 5   0  0.4071750E-09  0.3789159E+04  0.7818609E-02  0.8048485E-01
        1   -1    0    0  501    0  0.00000000000E+00  0.00000000000E+00  0.19624348507E+04  0.19624348507E+04  0.50400001928E-02 0. -1.
       -1   -1    0    0    0  501  0.00000000000E+00  0.00000000000E+00 -0.18290700005E+04  0.18290700005E+04  0.50400001928E-02 0.  1.
    10030    2    1    2    0    0  0.00000000000E+00  0.00000000000E+00  0.13336485014E+03  0.37915048512E+04  0.37891585944E+04 0.  0.
        2    1    3    3  502    0 -0.57954306868E+03  0.13295993370E+04  0.12863408398E+04  0.19386534815E+04  0.25500000920E-02 0. -1.
       -2    1    3    3    0  502  0.57954306868E+03 -0.13295993370E+04 -0.11529759897E+04  0.18528513697E+04  0.25500000920E-02 0.  1.
</event>
<event>
 5   0  0.4071750E-09  0.3800312E+04  0.7818609E-02  0.8046088E-01
        1   -1    0    0  501    0  0.00000000000E+00  0.00000000000E+00  0.13396251981E+04  0.13396251981E+04  0.50400001928E-02 0. -1.
       -1   -1    0    0    0  501  0.00000000000E+00  0.00000000000E+00 -0.26952265624E+04  0.26952265624E+04  0.50400001928E-02 0.  1.
    10030    2    1    2    0    0  0.00000000000E+00  0.00000000000E+00 -0.13556013643E+04  0.40348517605E+04  0.38003123122E+04 0.  0.
        3    1    3    3  502    0 -0.12078338148E+04  0.79834883670E+03 -0.19843454531E+04  0.24563896834E+04  0.10100000352E+00 0.  1.
       -3    1    3    3    0  502  0.12078338148E+04 -0.79834883670E+03  0.62874408881E+03  0.15784620771E+04  0.10100000352E+00 0. -1.
</event>
<event>
 5   0  0.4071750E-09  0.3801720E+04  0.7818609E-02  0.8045786E-01
       -1   -1    0    0    0  501  0.00000000000E+00  0.00000000000E+00  0.24714900810E+04  0.24714900810E+04  0.50400001928E-02 0. -1.
        1   -1    0    0  501    0  0.00000000000E+00  0.00000000000E+00 -0.14619796203E+04  0.14619796203E+04  0.50400001928E-02 0.  1.
    10030    2    1    2    0    0  0.00000000000E+00  0.00000000000E+00  0.10095104606E+04  0.39334697013E+04  0.38017196795E+04 0.  0.
        2    1    3    3  502    0  0.18787046551E+04  0.25681429099E+03  0.36677948827E+03  0.19313238864E+04  0.25500000920E-02 0. -1.
       -2    1    3    3    0  502 -0.18787046551E+04 -0.25681429099E+03  0.64273097238E+03  0.20021458149E+04  0.25500000920E-02 0.  1.
</event>
<event>
 5   0  0.4071750E-09  0.3797738E+04  0.7818609E-02  0.8046641E-01
        1   -1    0    0  501    0  0.00000000000E+00  0.00000000000E+00  0.17828255249E+04  0.17828255250E+04  0.50400001928E-02 0.  1.
       -1   -1    0    0    0  501  0.00000000000E+00  0.00000000000E+00 -0.20224653675E+04  0.20224653675E+04  0.50400001928E-02 0. -1.
    10030    2    1    2    0    0  0.00000000000E+00  0.00000000000E+00 -0.23963984255E+03  0.38052908925E+04  0.37977376847E+04 0.  0.
        1    1    3    3  502    0  0.94598177857E+02  0.70060216970E+01  0.17804500510E+04  0.17829751215E+04  0.50400001928E-02 0.  1.
       -1    1    3    3    0  502 -0.94598177857E+02 -0.70060216970E+01 -0.20200898936E+04  0.20223157710E+04  0.50400001928E-02 0. -1.
</event>
<event>
 5   0  0.1264013E-08  0.3799197E+04  0.7818609E-02  0.8046327E-01
       -2   -1    0    0    0  501  0.00000000000E+00  0.00000000000E+00  0.15109009858E+04  0.15109009858E+04  0.25500000920E-02 0.  1.
        2   -1    0    0  501    0  0.00000000000E+00  0.00000000000E+00 -0.23882933927E+04  0.23882933927E+04  0.25500000920E-02 0. -1.
    10030    2    1    2    0    0  0.00000000000E+00  0.00000000000E+00 -0.87739240688E+03  0.38991943785E+04  0.37991972001E+04 0.  0.
        4    1    3    3  502    0  0.14425123413E+04 -0.98407451621E+03  0.32880273390E+03  0.17768954271E+04  0.12699999809E+01 0. -1.
       -4    1    3    3    0  502 -0.14425123413E+04  0.98407451621E+03 -0.12061951408E+04  0.21222989513E+04  0.12699999809E+01 0.  1.
</event>
<event>
 5   0  0.4071750E-09  0.3799828E+04  0.7818609E-02  0.8046192E-01
        1   -1    0    0  501    0  0.00000000000E+00  0.00000000000E+00  0.35160098318E+04  0.35160098318E+04  0.50400001928E-02 0. -1.
       -1   -1    0    0    0  501  0.00000000000E+00  0.00000000000E+00 -0.10266393622E+04  0.10266393622E+04  0.50400001928E-02 0.  1.
    10030    2    1    2    0    0  0.00000000000E+00  0.00000000000E+00  0.24893704697E+04  0.45426491940E+04  0.37998284651E+04 0.  0.
        3    1    3    3  502    0 -0.59029951805E+03  0.11842610045E+04 -0.38519345676E+03  0.13781515364E+04  0.10100000352E+00 0.  1.
       -3    1    3    3    0  502  0.59029951805E+03 -0.11842610045E+04  0.28745639264E+04  0.31644976576E+04  0.10100000352E+00 0. -1.
</event>
<event>
 5   0  0.1261152E-08  0.3802860E+04  0.7818609E-02  0.8045541E-01
        2   -1    0    0  501    0  0.00000000000E+00  0.00000000000E+00  0.30630293626E+04  0.30630293626E+04  0.25500000920E-02 0. -1.
       -2   -1    0    0    0  501  0.00000000000E+00  0.00000000000E+00 -0.11803467800E+04  0.11803467800E+04  0.25500000920E-02 0.  1.
    10030    2    1    2    0    0  0.00000000000E+00  0.00000000000E+00  0.18826825826E+04  0.42433761427E+04  0.38028604209E+04 0.  0.
        2    1    3    3  502    0 -0.38941449952E+03  0.10871907227E+04  0.26268881837E+04  0.28695241504E+04  0.25500000920E-02 0. -1.
       -2    1    3    3    0  502  0.38941449952E+03 -0.10871907227E+04 -0.74420560107E+03  0.13738519923E+04  0.25500000920E-02 0.  1.
</event>
<event>
 5   0  0.4071750E-09  0.3800601E+04  0.7818609E-02  0.8046026E-01
        1   -1    0    0  501    0  0.00000000000E+00  0.00000000000E+00  0.12268440908E+04  0.12268440909E+04  0.50400001928E-02 0.  1.
       -1   -1    0    0    0  501  0.00000000000E+00  0.00000000000E+00 -0.29434398379E+04  0.29434398379E+04  0.50400001928E-02 0. -1.
    10030    2    1    2    0    0  0.00000000000E+00  0.00000000000E+00 -0.17165957471E+04  0.41702839288E+04  0.38006008851E+04 0.  0.
        5    1    3    3  502    0  0.35286233764E+03 -0.18535118947E+04 -0.11063427274E+04  0.21872435835E+04  0.46999998093E+01 0.  1.
       -5    1    3    3    0  502 -0.35286233764E+03  0.18535118947E+04 -0.61025301962E+03  0.19830403453E+04  0.46999998093E+01 0. -1.
</event>
<event>
 5   0  0.1264013E-08  0.3797551E+04  0.7818609E-02  0.8046681E-01
       -2   -1    0    0    0  501  0.00000000000E+00  0.00000000000E+00  0.14607376006E+04  0.14607376006E+04  0.25500000920E-02 0. -1.
        2   -1    0    0  501    0  0.00000000000E+00  0.00000000000E+00 -0.24681701788E+04  0.24681701788E+04  0.25500000920E-02 0.  1.
    10030    2    1    2    0    0  0.00000000000E+00  0.00000000000E+00 -0.10074325782E+04  0.39289077795E+04  0.37975513084E+04 0.  0.
        4    1    3    3  502    0 -0.40661503432E+03  0.18509770479E+04 -0.38175946080E+03  0.19331822772E+04  0.12699999809E+01 0. -1.
       -4    1    3    3    0  502  0.40661503432E+03 -0.18509770479E+04 -0.62567311740E+03  0.19957255023E+04  0.12699999809E+01 0.  1.
</event>
<event>
 5   0  0.1327249E-08  0.3800194E+04  0.7818609E-02  0.8046113E-01
       -2   -1    0    0    0  501  0.00000000000E+00  0.00000000000E+00  0.13468502044E+04  0.13468502044E+04  0.25500000920E-02 0. -1.
        2   -1    0    0  501    0  0.00000000000E+00  0.00000000000E+00 -0.26806014350E+04  0.26806014350E+04  0.25500000920E-02 0.  1.
    10030    2    1    2    0    0  0.00000000000E+00  0.00000000000E+00 -0.13337512305E+04  0.40274516394E+04  0.38001939902E+04 0.  0.
        1    1    3    3  502    0  0.29579154456E+03 -0.16076199424E+04  0.35978393532E+03  0.16737320565E+04  0.50400001928E-02 0. -1.
       -1    1    3    3    0  502 -0.29579154456E+03  0.16076199424E+04 -0.16935351659E+04  0.23537195829E+04  0.50400001928E-02 0.  1.
</event>
<event>
 5   0  0.1327249E-08  0.3800446E+04  0.7818609E-02  0.8046059E-01
       -2   -1    0    0    0  501  0.00000000000E+00  0.00000000000E+00  0.27544674211E+04  0.27544674211E+04  0.25500000920E-02 0.  1.
        2   -1    0    0  501    0  0.00000000000E+00  0.00000000000E+00 -0.13109061598E+04  0.13109061598E+04  0.25500000920E-02 0. -1.
    10030    2    1    2    0    0  0.00000000000E+00  0.00000000000E+00  0.14435612613E+04  0.40653735809E+04  0.38004464524E+04 0.  0.
        1    1    3    3  502    0 -0.46191311456E+02  0.17138587500E+04 -0.15473049961E+03  0.17214490930E+04  0.50400001928E-02 0. -1.
       -1    1    3    3    0  502  0.46191311456E+02 -0.17138587500E+04  0.15982917609E+04  0.23439244880E+04  0.50400001928E-02 0.  1.
</event>
<event>
 5   0  0.4071750E-09  0.3800837E+04  0.7818609E-02  0.8045975E-01
       -1   -1    0    0    0  501  0.00000000000E+00  0.00000000000E+00  0.33008062934E+04  0.33008062934E+04  0.50400001928E-02 0.  1.
        1   -1    0    0  501    0  0.00000000000E+00  0.00000000000E+00 -0.10941541259E+04  0.10941541259E+04  0.50400001928E-02 0. -1.
    10030    2    1    2    0    0  0.00000000000E+00  0.00000000000E+00  0.22066521675E+04  0.43949604194E+04  0.38008371840E+04 0.  0.
        4    1    3    3  502    0  0.74525346762E+03 -0.17415302121E+04  0.12796743664E+04  0.22860223769E+04  0.12699999809E+01 0.  1.
       -4    1    3    3    0  502 -0.74525346762E+03  0.17415302121E+04  0.92697780105E+03  0.21089380425E+04  0.12699999809E+01 0. -1.
</event>
<event>
 5   0  0.1264013E-08  0.3775924E+04  0.7818609E-02  0.8051341E-01
        2   -1    0    0  501    0  0.00000000000E+00  0.00000000000E+00  0.24083999258E+04  0.24083999258E+04  0.25500000920E-02 0.  1.
       -2   -1    0    0    0  501  0.00000000000E+00  0.00000000000E+00 -0.14799869938E+04  0.14799869938E+04  0.25500000920E-02 0. -1.
    10030    2    1    2    0    0  0.00000000000E+00  0.00000000000E+00  0.92841293203E+03  0.38883869196E+04  0.37759240279E+04 0.  0.
        4    1    3    3  502    0 -0.10999908224E+04 -0.65077853074E+03  0.18951643186E+04  0.22858569318E+04  0.12699999809E+01 0.  1.
       -4    1    3    3    0  502  0.10999908224E+04  0.65077853074E+03 -0.96675138656E+03  0.16025299878E+04  0.12699999809E+01 0. -1.
</event>
<event>
 5   0  0.1264013E-08  0.3799376E+04  0.7818609E-02  0.8046289E-01
       -2   -1    0    0    0  501  0.00000000000E+00  0.00000000000E+00  0.18795832027E+04  0.18795832027E+04  0.25500000920E-02 0. -1.
        2   -1    0    0  501    0  0.00000000000E+00  0.00000000000E+00 -0.19200080825E+04  0.19200080825E+04  0.25500000920E-02 0.  1.
    10030    2    1    2    0    0  0.00000000000E+00  0.00000000000E+00 -0.40424879846E+02  0.37995912852E+04  0.37993762335E+04 0.  0.
        4    1    3    3  502    0  0.15560041155E+04 -0.23014570103E+03 -0.10854945304E+04  0.19111294670E+04  0.12699999809E+01 0.  1.
       -4    1    3    3    0  502 -0.15560041155E+04  0.23014570103E+03  0.10450696506E+04  0.18884618182E+04  0.12699999809E+01 0. -1.
</event>
<event>
 5   0  0.4071750E-09  0.3803776E+04  0.7818609E-02  0.8045345E-01
       -1   -1    0    0    0  501  0.00000000000E+00  0.00000000000E+00  0.17096096438E+04  0.17096096438E+04  0.50400001928E-02 0. -1.
        1   -1    0    0  501    0  0.00000000000E+00  0.00000000000E+00 -0.21157918031E+04  0.21157918031E+04  0.50400001928E-02 0.  1.
    10030    2    1    2    0    0  0.00000000000E+00  0.00000000000E+00 -0.40618215931E+03  0.38254014469E+04  0.38037760559E+04 0.  0.
        2    1    3    3  502    0 -0.18190406105E+04  0.55376528710E+02  0.35250134003E+03  0.18537077702E+04  0.25500000920E-02 0. -1.
       -2    1    3    3    0  502  0.18190406105E+04 -0.55376528710E+02 -0.75868349934E+03  0.19716936767E+04  0.25500000920E-02 0.  1.
</event>
<event>
 5   0  0.1264013E-08  0.3797644E+04  0.7818609E-02  0.8046661E-01
        2   -1    0    0  501    0  0.00000000000E+00  0.00000000000E+00  0.17995483401E+04  0.17995483401E+04  0.25500000920E-02 0.  1.
       -2   -1    0    0    0  501  0.00000000000E+00  0.00000000000E+00 -0.20035717944E+04  0.20035717944E+04  0.25500000920E-02 0. -1.
    10030    2    1    2    0    0  0.00000000000E+00  0.00000000000E+00 -0.20402345436E+03  0.38031201345E+04  0.37976436362E+04 0.  0.
        4    1    3    3  502    0 -0.16911640603E+04 -0.30557408633E+03  0.70668687523E+03  0.18581763516E+04  0.12699999809E+01 0.  1.
       -4    1    3    3    0  502  0.16911640603E+04  0.30557408633E+03 -0.91071032959E+03  0.19449437829E+04  0.12699999809E+01 0. -1.
</event>
<event>
 5   0  0.4071750E-09  0.3798846E+04  0.7818609E-02  0.8046403E-01
        1   -1    0    0  501    0  0.00000000000E+00  0.00000000000E+00  0.20347167861E+04  0.20347167861E+04  0.50400001928E-02 0.  1.
       -1   -1    0    0    0  501  0.00000000000E+00  0.00000000000E+00 -0.17731251280E+04  0.17731251280E+04  0.50400001928E-02 0. -1.
    10030    2    1    2    0    0  0.00000000000E+00  0.00000000000E+00  0.26159165814E+03  0.38078419141E+04  0.37988458573E+04 0.  0.
        5    1    3    3  502    0  0.89641708031E+02 -0.18665902869E+04 -0.20999522879E+03  0.18805092452E+04  0.46999998093E+01 0. -1.
       -5    1    3    3    0  502 -0.89641708031E+02  0.18665902869E+04  0.47158688692E+03  0.19273326690E+04  0.46999998093E+01 0.  1.
</event>
<event>
 5   0  0.4071750E-09  0.3800590E+04  0.7818609E-02  0.8046028E-01
        1   -1    0    0  501    0  0.00000000000E+00  0.00000000000E+00  0.19466659257E+04  0.19466659258E+04  0.50400001928E-02 0.  1.
       -1   -1    0    0    0  501  0.00000000000E+00  0.00000000000E+00 -0.18550282002E+04  0.18550282002E+04  0.50400001928E-02 0. -1.
    10030    2    1    2    0    0  0.00000000000E+00  0.00000000000E+00  0.91637725519E+02  0.38016941260E+04  0.38005895273E+04 0.  0.
        5    1    3    3  502    0  0.12107580390E+04  0.10896075271E+04 -0.93319870817E+03  0.18772483882E+04  0.46999998093E+01 0. -1.
       -5    1    3    3    0  502 -0.12107580390E+04 -0.10896075271E+04  0.10248364337E+04  0.19244457378E+04  0.46999998093E+01 0.  1.
</event>
<event>
 5   0  0.4071750E-09  0.3798376E+04  0.7818609E-02  0.8046503E-01
        1   -1    0    0  501    0  0.00000000000E+00  0.00000000000E+00  0.24804092855E+04  0.24804092855E+04  0.50400001928E-02 0.  1.
       -1   -1    0    0    0  501  0.00000000000E+00  0.00000000000E+00 -0.14541614622E+04  0.14541614622E+04  0.50400001928E-02 0. -1.
    10030    2    1    2    0    0  0.00000000000E+00  0.00000000000E+00  0.10262478233E+04  0.39345707477E+04  0.37983762812E+04 0.  0.
        5    1    3    3  502    0 -0.12965646316E+04  0.81062878093E+03 -0.65362640063E+03  0.16629637477E+04  0.46999998093E+01 0. -1.
       -5    1    3    3    0  502  0.12965646316E+04 -0.81062878093E+03  0.16798742240E+04  0.22716070001E+04  0.46999998093E+01 0.  1.
</event>
<event>
 5   0  0.4071750E-09  0.3800312E+04  0.7818609E-02  0.8046088E-01
       -1   -1    0    0    0  501  0.00000000000E+00  0.00000000000E+00  0.22950851731E+04  0.22950851731E+04  0.50400001928E-02 0.  1.
        1   -1    0    0  501    0  0.00000000000E+00  0.00000000000E+00 -0.15731847030E+04  0.15731847030E+04  0.50400001928E-02 0. -1.
    10030    2    1    2    0    0  0.00000000000E+00  0.00000000000E+00  0.72190047005E+03  0.38682698761E+04  0.38003120327E+04 0.  0.
        2    1    3    3  502    0  0.12233176114E+04  0.72674605882E+03 -0.92090539621E+03  0.16949137326E+04  0.25500000920E-02 0.  1.
       -2    1    3    3    0  502 -0.12233176114E+04 -0.72674605882E+03  0.16428058663E+04  0.21733561435E+04  0.25500000920E-02 0. -1.
</event>
<event>
 5   0  0.1305088E-08  0.3800013E+04  0.7818609E-02  0.8046152E-01
        2   -1    0    0  501    0  0.00000000000E+00  0.00000000000E+00  0.19569665140E+04  0.19569665140E+04  0.25500000920E-02 0. -1.
       -2   -1    0    0    0  501  0.00000000000E+00  0.00000000000E+00 -0.18447043056E+04  0.18447043056E+04  0.25500000920E-02 0.  1.
    10030    2    1    2    0    0  0.00000000000E+00  0.00000000000E+00  0.11226220839E+03  0.38016708195E+04  0.38000129232E+04 0.  0.
        3    1    3    3  502    0  0.93035216043E+03  0.32907154752E+03  0.16804716114E+04  0.19488017017E+04  0.10100000352E+00 0. -1.
       -3    1    3    3    0  502 -0.93035216043E+03 -0.32907154752E+03 -0.15682094030E+04  0.18528691178E+04  0.10100000352E+00 0.  1.
</event>
<event>
 5   0  0.1293993E-08  0.3800167E+04  0.7818609E-02  0.8046119E-01
        2   -1    0    0  501    0  0.00000000000E+00  0.00000000000E+00  0.25520463496E+04  0.25520463496E+04  0.25500000920E-02 0. -1.
       -2   -1    0    0    0  501  0.00000000000E+00  0.00000000000E+00 -0.14146752588E+04  0.14146752588E+04  0.25500000920E-02 0.  1.
    10030    2    1    2    0    0  0.00000000000E+00  0.00000000000E+00  0.11373710908E+04  0.39667216084E+04  0.38001667490E+04 0.  0.
        5    1    3    3  502    0 -0.25534844005E+03 -0.10421746267E+04 -0.10681503871E+04  0.15140337241E+04  0.46999998093E+01 0.  1.
       -5    1    3    3    0  502  0.25534844005E+03  0.10421746267E+04  0.22055214779E+04  0.24526878843E+04  0.46999998093E+01 0. -1.
</event>
<event>
 5   0  0.1261152E-08  0.3798433E+04  0.7818609E-02  0.8046491E-01
       -2   -1    0    0    0  501  0.00000000000E+00  0.00000000000E+00  0.17068443727E+04  0.17068443727E+04  0.25500000920E-02 0. -1.
        2   -1    0    0  501    0  0.00000000000E+00  0.00000000000E+00 -0.21132696868E+04  0.21132696868E+04  0.25500000920E-02 0.  1.
    10030    2    1    2    0    0  0.00000000000E+00  0.00000000000E+00 -0.40642531410E+03  0.38201140594E+04  0.37984325571E+04 0.  0.
        2    1    3    3  502    0  0.26006755935E+03 -0.14399322283E+04 -0.14209014405E+04  0.20396080166E+04  0.25500000920E-02 0.  1.
       -2    1    3    3    0  502 -0.26006755935E+03  0.14399322283E+04  0.10144761264E+04  0.17805060429E+04  0.25500000920E-02 0. -1.
</event>
<event>
 5   0  0.4071750E-09  0.3798795E+04  0.7818609E-02  0.8046414E-01
        1   -1    0    0  501    0  0.00000000000E+00  0.00000000000E+00  0.18667701675E+04  0.18667701675E+04  0.50400001928E-02 0. -1.
       -1   -1    0    0    0  501  0.00000000000E+00  0.00000000000E+00 -0.19325949252E+04  0.19325949252E+04  0.50400001928E-02 0.  1.
    10030    2    1    2    0    0  0.00000000000E+00  0.00000000000E+00 -0.65824757755E+02  0.37993650927E+04  0.37987948364E+04 0.  0.
        4    1    3    3  502    0 -0.62373398034E+02  0.39901984608E+03 -0.18891547962E+04  0.19318423164E+04  0.12699999809E+01 0.  1.
       -4    1    3    3    0  502  0.62373398034E+02 -0.39901984608E+03  0.18233300384E+04  0.18675227764E+04  0.12699999809E+01 0. -1.
</event>
<event>
 5   0  0.1327249E-08  0.3802910E+04  0.7818609E-02  0.8045531E-01
        2   -1    0    0  501    0  0.00000000000E+00  0.00000000000E+00  0.19512222949E+04  0.19512222949E+04  0.25500000920E-02 0.  1.
       -2   -1    0    0    0  501  0.00000000000E+00  0.00000000000E+00 -0.18529575191E+04  0.18529575191E+04  0.25500000920E-02 0. -1.
    10030    2    1    2    0    0  0.00000000000E+00  0.00000000000E+00  0.98264775720E+02  0.38041798140E+04  0.38029104763E+04 0.  0.
        1    1    3    3  502    0 -0.15022006080E+04 -0.10377066094E+04  0.58043144963E+03  0.19158137544E+04  0.50400001928E-02 0.  1.
       -1    1    3    3    0  502  0.15022006080E+04  0.10377066094E+04 -0.48216667391E+03  0.18883660596E+04  0.50400001928E-02 0. -1.
</event>
<event>
 5   0  0.4071750E-09  0.3799977E+04  0.7818609E-02  0.8046160E-01
        1   -1    0    0  501    0  0.00000000000E+00  0.00000000000E+00  0.16522884070E+04  0.16522884070E+04  0.50400001928E-02 0. -1.
       -1   -1    0    0    0  501  0.00000000000E+00  0.00000000000E+00 -0.21848223160E+04  0.21848223160E+04  0.50400001928E-02 0.  1.
    10030    2    1    2    0    0  0.00000000000E+00  0.00000000000E+00 -0.53253390907E+03  0.38371107230E+04  0.37999771495E+04 0.  0.
        2    1    3    3  502    0  0.75688160356E+03  0.17318076101E+04 -0.46292436841E+03  0.19458484862E+04  0.25500000920E-02 0. -1.
       -2    1    3    3    0  502 -0.75688160356E+03 -0.17318076101E+04 -0.69609540658E+02  0.18912622368E+04  0.25500000920E-02 0.  1.
</event>
<event>
 5   0  0.4071750E-09  0.3802469E+04  0.7818609E-02  0.8045625E-01
        1   -1    0    0  501    0  0.00000000000E+00  0.00000000000E+00  0.22548778838E+04  0.22548778838E+04  0.50400001928E-02 0. -1.
       -1   -1    0    0    0  501  0.00000000000E+00  0.00000000000E+00 -0.16030546346E+04  0.16030546346E+04  0.50400001928E-02 0.  1.
    10030    2    1    2    0    0  0.00000000000E+00  0.00000000000E+00  0.65182324929E+03  0.38579325184E+04  0.38024689043E+04 0.  0.
        1    1    3    3  502    0  0.93228781701E+03 -0.81791387111E+03  0.17879542118E+04  0.21759880371E+04  0.50400001928E-02 0. -1.
       -1    1    3    3    0  502 -0.93228781701E+03  0.81791387111E+03 -0.11361309625E+04  0.16819444813E+04  0.50400001928E-02 0.  1.
</event>
<event>
 5   0  0.4071750E-09  0.3800676E+04  0.7818609E-02  0.8046010E-01
       -1   -1    0    0    0  501  0.00000000000E+00  0.00000000000E+00  0.15629448925E+04  0.15629448925E+04  0.50400001928E-02 0.  1.
        1   -1    0    0  501    0  0.00000000000E+00  0.00000000000E+00 -0.23105646735E+04  0.23105646735E+04  0.50400001928E-02 0. -1.
    10030    2    1    2    0    0  0.00000000000E+00  0.00000000000E+00 -0.74761978097E+03  0.38735095660E+04  0.38006763899E+04 0.  0.
        3    1    3    3  502    0  0.91018298605E+03 -0.93371833311E+02  0.13236809824E+04  0.16091248307E+04  0.10100000352E+00 0.  1.
       -3    1    3    3    0  502 -0.91018298605E+03  0.93371833311E+02 -0.20713007633E+04  0.22643847354E+04  0.10100000352E+00 0. -1.
</event>
<event>
 5   0  0.4071750E-09  0.3799686E+04  0.7818609E-02  0.8046222E-01
        1   -1    0    0  501    0  0.00000000000E+00  0.00000000000E+00  0.13096935894E+04  0.13096935894E+04  0.50400001928E-02 0. -1.
       -1   -1    0    0    0  501  0.00000000000E+00  0.00000000000E+00 -0.27559145613E+04  0.27559145613E+04  0.50400001928E-02 0.  1.
    10030    2    1    2    0    0  0.00000000000E+00  0.00000000000E+00 -0.14462209719E+04  0.40656081508E+04  0.37996861102E+04 0.  0.
        2    1    3    3  502    0 -0.92023637133E+03  0.71251953574E+03  0.88360860543E+03  0.14612608376E+04  0.25500000920E-02 0. -1.
       -2    1    3    3    0  502  0.92023637133E+03 -0.71251953574E+03 -0.23298295774E+04  0.26043473131E+04  0.25500000920E-02 0.  1.
</event>
<event>
 5   0  0.4071750E-09  0.3799520E+04  0.7818609E-02  0.8046258E-01
        1   -1    0    0  501    0  0.00000000000E+00  0.00000000000E+00  0.30609655075E+04  0.30609655075E+04  0.50400001928E-02 0.  1.
       -1   -1    0    0    0  501  0.00000000000E+00  0.00000000000E+00 -0.11790685571E+04  0.11790685571E+04  0.50400001928E-02 0. -1.
    10030    2    1    2    0    0  0.00000000000E+00  0.00000000000E+00  0.18818969504E+04  0.42400340647E+04  0.37995200667E+04 0.  0.
        3    1    3    3  502    0 -0.15025193334E+04  0.11225469596E+04  0.60355042667E+03  0.19702662641E+04  0.10100000352E+00 0. -1.
       -3    1    3    3    0  502  0.15025193334E+04 -0.11225469596E+04  0.12783465237E+04  0.22697678006E+04  0.10100000352E+00 0.  1.
</event>
<event>
 5   0  0.4071750E-09  0.3799762E+04  0.7818609E-02  0.8046206E-01
        1   -1    0    0  501    0  0.00000000000E+00  0.00000000000E+00  0.22304065710E+04  0.22304065711E+04  0.50400001928E-02 0. -1.
       -1   -1    0    0    0  501  0.00000000000E+00  0.00000000000E+00 -0.16183363994E+04  0.16183363994E+04  0.50400001928E-02 0.  1.
    10030    2    1    2    0    0  0.00000000000E+00  0.00000000000E+00  0.61207017162E+03  0.38487429705E+04  0.37997621712E+04 0.  0.
        1    1    3    3  502    0  0.23258367696E+03 -0.47115213738E+03 -0.15432790126E+04  0.16302728649E+04  0.50400001928E-02 0.  1.
       -1    1    3    3    0  502 -0.23258367696E+03  0.47115213738E+03  0.21553491842E+04  0.22184701056E+04  0.50400001928E-02 0. -1.
</event>
<event>
 5   0  0.4071750E-09  0.3797919E+04  0.7818609E-02  0.8046602E-01
        1   -1    0    0  501    0  0.00000000000E+00  0.00000000000E+00  0.19802487869E+04  0.19802487869E+04  0.50400001928E-02 0.  1.
       -1   -1    0    0    0  501  0.00000000000E+00  0.00000000000E+00 -0.18210067845E+04  0.18210067845E+04  0.50400001928E-02 0. -1.
    10030    2    1    2    0    0  0.00000000000E+00  0.00000000000E+00  0.15924200239E+03  0.38012555713E+04  0.37979186278E+04 0.  0.
        2    1    3    3  502    0 -0.94032602120E+03 -0.14213477542E+04 -0.75873300841E+03  0.18655075027E+04  0.25500000920E-02 0.  1.
       -2    1    3    3    0  502  0.94032602120E+03  0.14213477542E+04  0.91797501080E+03  0.19357480686E+04  0.25500000920E-02 0. -1.
</event>
<event>
 5   0  0.1261152E-08  0.3805482E+04  0.7818609E-02  0.8044979E-01
       -2   -1    0    0    0  501  0.00000000000E+00  0.00000000000E+00  0.17719531221E+04  0.17719531221E+04  0.25500000920E-02 0. -1.
        2   -1    0    0  501    0  0.00000000000E+00  0.00000000000E+00 -0.20431825789E+04  0.20431825790E+04  0.25500000920E-02 0.  1.
    10030    2    1    2    0    0  0.00000000000E+00  0.00000000000E+00 -0.27122945687E+03  0.38151357010E+04  0.38054822295E+04 0.  0.
        2    1    3    3  502    0  0.25796050347E+03  0.65913193978E+03 -0.19062845315E+04  0.20334500855E+04  0.25500000920E-02 0.  1.
       -2    1    3    3    0  502 -0.25796050347E+03 -0.65913193978E+03  0.16350550746E+04  0.17816856155E+04  0.25500000920E-02 0. -1.
</event>
<event>
 5   0  0.4071750E-09  0.3800354E+04  0.7818609E-02  0.8046079E-01
       -1   -1    0    0    0  501  0.00000000000E+00  0.00000000000E+00  0.17895257349E+04  0.17895257349E+04  0.50400001928E-02 0.  1.
        1   -1    0    0  501    0  0.00000000000E+00  0.00000000000E+00 -0.20176704360E+04  0.20176704360E+04  0.50400001928E-02 0. -1.
    10030    2    1    2    0    0  0.00000000000E+00  0.00000000000E+00 -0.22814470117E+03  0.38071961709E+04  0.38003542834E+04 0.  0.
        2    1    3    3  502    0  0.76114423419E+03 -0.36477808506E+03  0.15914230742E+04  0.18013969572E+04  0.25500000920E-02 0.  1.
       -2    1    3    3    0  502 -0.76114423419E+03  0.36477808506E+03 -0.18195677753E+04  0.20057992137E+04  0.25500000920E-02 0. -1.
</event>
<event>
 5   0  0.4071750E-09  0.3800402E+04  0.7818609E-02  0.8046069E-01
        1   -1    0    0  501    0  0.00000000000E+00  0.00000000000E+00  0.25992997095E+04  0.25992997095E+04  0.50400001928E-02 0. -1.
       -1   -1    0    0    0  501  0.00000000000E+00  0.00000000000E+00 -0.13891297064E+04  0.13891297064E+04  0.50400001928E-02 0.  1.
    10030    2    1    2    0    0  0.00000000000E+00  0.00000000000E+00  0.12101700031E+04  0.39884294159E+04  0.38004023168E+04 0.  0.
        5    1    3    3  502    0  0.65693863141E+03  0.17204143253E+04  0.10966033183E+04  0.21433512880E+04  0.46999998093E+01 0.  1.
       -5    1    3    3    0  502 -0.65693863141E+03 -0.17204143253E+04  0.11356668476E+03  0.18450781279E+04  0.46999998093E+01 0. -1.
</event>
<event>
 5   0  0.1305088E-08  0.3813886E+04  0.7818609E-02  0.8043182E-01
        2   -1    0    0  501    0  0.00000000000E+00  0.00000000000E+00  0.13697640101E+04  0.13697640101E+04  0.25500000920E-02 0.  1.
       -2   -1    0    0    0  501  0.00000000000E+00  0.00000000000E+00 -0.26547866314E+04  0.26547866314E+04  0.25500000920E-02 0. -1.
    10030    2    1    2    0    0  0.00000000000E+00  0.00000000000E+00 -0.12850226213E+04  0.40245506416E+04  0.38138857782E+04 0.  0.
        3    1    3    3  502    0  0.10488220715E+04  0.15818371462E+04 -0.83764352358E+03  0.20745802413E+04  0.10100000352E+00 0. -1.
       -3    1    3    3    0  502 -0.10488220715E+04 -0.15818371462E+04 -0.44737909772E+03  0.19499704003E+04  0.10100000352E+00 0.  1.
</event>
<event>
 5   0  0.1305088E-08  0.3794581E+04  0.7818609E-02  0.8047319E-01
       -2   -1    0    0    0  501  0.00000000000E+00  0.00000000000E+00  0.11279550802E+04  0.11279550802E+04  0.25500000920E-02 0.  1.
        2   -1    0    0  501    0  0.00000000000E+00  0.00000000000E+00 -0.31913610465E+04  0.31913610465E+04  0.25500000920E-02 0. -1.
    10030    2    1    2    0    0  0.00000000000E+00  0.00000000000E+00 -0.20634059664E+04  0.43193161267E+04  0.37945813498E+04 0.  0.
        3    1    3    3  502    0  0.18844702515E+04  0.42564034597E+02 -0.78579102339E+03  0.20421820115E+04  0.10100000352E+00 0. -1.
       -3    1    3    3    0  502 -0.18844702515E+04 -0.42564034597E+02 -0.12776149430E+04  0.22771341152E+04  0.10100000352E+00 0.  1.
</event>
<event>
 5   0  0.1264013E-08  0.3799872E+04  0.7818609E-02  0.8046182E-01
       -2   -1    0    0    0  501  0.00000000000E+00  0.00000000000E+00  0.12993429623E+04  0.12993429623E+04  0.25500000920E-02 0. -1.
        2   -1    0    0  501    0  0.00000000000E+00  0.00000000000E+00 -0.27781402214E+04  0.27781402214E+04  0.25500000920E-02 0.  1.
    10030    2    1    2    0    0  0.00000000000E+00  0.00000000000E+00 -0.14787972591E+04  0.40774831837E+04  0.37998720742E+04 0.  0.
        4    1    3    3  502    0 -0.50810607035E+03 -0.87397390091E+03 -0.24655728549E+04  0.26647801549E+04  0.12699999809E+01 0.  1.
       -4    1    3    3    0  502  0.50810607035E+03  0.87397390091E+03  0.98677559583E+03  0.14127030288E+04  0.12699999809E+01 0. -1.
</event>
<event>
 5   0  0.1305088E-08  0.3799838E+04  0.7818609E-02  0.8046190E-01
        2   -1    0    0  501    0  0.00000000000E+00  0.00000000000E+00  0.10864492008E+04  0.10864492008E+04  0.25500000920E-02 0.  1.
       -2   -1    0    0    0  501  0.00000000000E+00  0.00000000000E+00 -0.33224681394E+04  0.33224681394E+04  0.25500000920E-02 0. -1.
    10030    2    1    2    0    0  0.00000000000E+00  0.00000000000E+00 -0.22360189386E+04  0.44089173402E+04  0.37998383411E+04 0.  0.
        3    1    3    3  502    0 -0.10478653250E+04 -0.89170948916E+03  0.40215976711E+03  0.14334922535E+04  0.10100000352E+00 0.  1.
       -3    1    3    3    0  502  0.10478653250E+04  0.89170948916E+03 -0.26381787057E+04  0.29754250866E+04  0.10100000352E+00 0. -1.
</event>
<event>
 5   0  0.1327249E-08  0.3800386E+04  0.7818609E-02  0.8046072E-01
        2   -1    0    0  501    0  0.00000000000E+00  0.00000000000E+00  0.23066308175E+04  0.23066308175E+04  0.25500000920E-02 0.  1.
       -2   -1    0    0    0  501  0.00000000000E+00  0.00000000000E+00 -0.15653715416E+04  0.15653715416E+04  0.25500000920E-02 0. -1.
    10030    2    1    2    0    0  0.00000000000E+00  0.00000000000E+00  0.74125927592E+03  0.38720023591E+04  0.38003864218E+04 0.  0.
        1    1    3    3  502    0 -0.17317298526E+04  0.43359753429E+03  0.10339271719E+04  0.20629833981E+04  0.50400001928E-02 0.  1.
       -1    1    3    3    0  502  0.17317298526E+04 -0.43359753429E+03 -0.29266789593E+03  0.18090189610E+04  0.50400001928E-02 0. -1.
</event>
<event>
 5   0  0.1305088E-08  0.3802186E+04  0.7818609E-02  0.8045686E-01
       -2   -1    0    0    0  501  0.00000000000E+00  0.00000000000E+00  0.16900275805E+04  0.16900275805E+04  0.25500000920E-02 0.  1.
        2   -1    0    0  501    0  0.00000000000E+00  0.00000000000E+00 -0.21385182664E+04  0.21385182664E+04  0.25500000920E-02 0. -1.
    10030    2    1    2    0    0  0.00000000000E+00  0.00000000000E+00 -0.44849068589E+03  0.38285458470E+04  0.38021861353E+04 0.  0.
        3    1    3    3  502    0  0.12006025455E+04 -0.30172515952E+03 -0.16770474165E+04  0.20844597841E+04  0.10100000352E+00 0. -1.
       -3    1    3    3    0  502 -0.12006025455E+04  0.30172515952E+03  0.12285567306E+04  0.17440860629E+04  0.10100000352E+00 0.  1.
</event>
<event>
 5   0  0.1293993E-08  0.3800494E+04  0.7818609E-02  0.8046049E-01
        2   -1    0    0  501    0  0.00000000000E+00  0.00000000000E+00  0.26553483048E+04  0.26553483048E+04  0.25500000920E-02 0. -1.
       -2   -1    0    0    0  501  0.00000000000E+00  0.00000000000E+00 -0.13598737107E+04  0.13598737107E+04  0.25500000920E-02 0.  1.
    10030    2    1    2    0    0  0.00000000000E+00  0.00000000000E+00  0.12954745941E+04  0.40152220155E+04  0.38004938376E+04 0.  0.
        5    1    3    3  502    0 -0.44681986457E+03 -0.18095793921E+04  0.10383433839E+04  0.21336364828E+04  0.46999998093E+01 0. -1.
       -5    1    3    3    0  502  0.44681986457E+03  0.18095793921E+04  0.25713121022E+03  0.18815855327E+04  0.46999998093E+01 0.  1.
</event>
<event>
 5   0  0.4071750E-09  0.3799048E+04  0.7818609E-02  0.8046359E-01
       -1   -1    0    0    0  501  0.00000000000E+00  0.00000000000E+00  0.13867090399E+04  0.13867090399E+04  0.50400001928E-02 0.  1.
        1   -1    0    0  501    0  0.00000000000E+00  0.00000000000E+00 -0.26019818617E+04  0.26019818617E+04  0.50400001928E-02 0. -1.
    10030    2    1    2    0    0  0.00000000000E+00  0.00000000000E+00 -0.12152728218E+04  0.39886909016E+04  0.37990481805E+04 0.  0.
        5    1    3    3  502    0  0.10001965887E+04  0.12626442150E+04  0.44934841787E+03  0.16723037166E+04  0.46999998093E+01 0.  1.
       -5    1    3    3    0  502 -0.10001965887E+04 -0.12626442150E+04 -0.16646212396E+04  0.23163871851E+04  0.46999998093E+01 0. -1.
</event>
<event>
 5   0  0.4071750E-09  0.3782761E+04  0.7818609E-02  0.8049864E-01
        1   -1    0    0  501    0  0.00000000000E+00  0.00000000000E+00  0.22946398799E+04  0.22946398799E+04  0.50400001928E-02 0.  1.
       -1   -1    0    0    0  501  0.00000000000E+00  0.00000000000E+00 -0.15589898668E+04  0.15589898668E+04  0.50400001928E-02 0. -1.
    10030    2    1    2    0    0  0.00000000000E+00  0.00000000000E+00  0.73565001318E+03  0.38536297467E+04  0.37827610660E+04 0.  0.
        1    1    3    3  502    0 -0.75351387706E+03  0.11471115504E+04 -0.95796811362E+03  0.16737236865E+04  0.50400001928E-02 0. -1.
       -1    1    3    3    0  502  0.75351387706E+03 -0.11471115504E+04  0.16936181268E+04  0.21799060602E+04  0.50400001928E-02 0.  1.
</event>
<event>
 5   0  0.4071750E-09  0.3799296E+04  0.7818609E-02  0.8046306E-01
        1   -1    0    0  501    0  0.00000000000E+00  0.00000000000E+00  0.26716352611E+04  0.26716352611E+04  0.50400001928E-02 0. -1.
       -1   -1    0    0    0  501  0.00000000000E+00  0.00000000000E+00 -0.13507317252E+04  0.13507317252E+04  0.50400001928E-02 0.  1.
    10030    2    1    2    0    0  0.00000000000E+00  0.00000000000E+00  0.13209035360E+04  0.40223669863E+04  0.37992959902E+04 0.  0.
        3    1    3    3  502    0 -0.70304236123E+03 -0.12324790442E+04 -0.67679607197E+03  0.15720451932E+04  0.10100000352E+00 0.  1.
       -3    1    3    3    0  502  0.70304236123E+03  0.12324790442E+04  0.19976996079E+04  0.24503217931E+04  0.10100000352E+00 0. -1.
</event>
<event>
 5   0  0.4071750E-09  0.3799607E+04  0.7818609E-02  0.8046239E-01
       -1   -1    0    0    0  501  0.00000000000E+00  0.00000000000E+00  0.19810754196E+04  0.19810754196E+04  0.50400001928E-02 0. -1.
        1   -1    0    0  501    0  0.00000000000E+00  0.00000000000E+00 -0.18218654884E+04  0.18218654884E+04  0.50400001928E-02 0.  1.
    10030    2    1    2    0    0  0.00000000000E+00  0.00000000000E+00  0.15920993115E+03  0.38029409080E+04  0.37996067886E+04 0.  0.
        1    1    3    3  502    0 -0.15755508320E+04 -0.64377877850E+03  0.92440805914E+03  0.19368380933E+04  0.50400001928E-02 0.  1.
       -1    1    3    3    0  502  0.15755508320E+04  0.64377877850E+03 -0.76519812799E+03  0.18661028147E+04  0.50400001928E-02 0. -1.
</event>
<event>
 5   0  0.4071750E-09  0.3799750E+04  0.7818609E-02  0.8046209E-01
        1   -1    0    0  501    0  0.00000000000E+00  0.00000000000E+00  0.27102181842E+04  0.27102181842E+04  0.50400001928E-02 0. -1.
       -1   -1    0    0    0  501  0.00000000000E+00  0.00000000000E+00 -0.13318208414E+04  0.13318208414E+04  0.50400001928E-02 0.  1.
    10030    2    1    2    0    0  0.00000000000E+00  0.00000000000E+00  0.13783973428E+04  0.40420390257E+04  0.37997500247E+04 0.  0.
        4    1    3    3  502    0  0.83975154099E+03 -0.57729978546E+03  0.23948963872E+04  0.26026886120E+04  0.12699999809E+01 0. -1.
       -4    1    3    3    0  502 -0.83975154099E+03  0.57729978546E+03 -0.10164990444E+04  0.14393504136E+04  0.12699999809E+01 0.  1.
</event>
<event>
 5   0  0.1264013E-08  0.3813762E+04  0.7818609E-02  0.8043208E-01
        2   -1    0    0  501    0  0.00000000000E+00  0.00000000000E+00  0.21173914309E+04  0.21173914309E+04  0.25500000920E-02 0. -1.
       -2   -1    0    0    0  501  0.00000000000E+00  0.00000000000E+00 -0.17172995068E+04  0.17172995068E+04  0.25500000920E-02 0.  1.
    10030    2    1    2    0    0  0.00000000000E+00  0.00000000000E+00  0.40009192411E+03  0.38346909378E+04  0.38137620587E+04 0.  0.
        4    1    3    3  502    0  0.14570823424E+04  0.68170482356E+03 -0.82947882105E+03  0.18099301496E+04  0.12699999809E+01 0.  1.
       -4    1    3    3    0  502 -0.14570823424E+04 -0.68170482356E+03  0.12295707452E+04  0.20247607882E+04  0.12699999809E+01 0. -1.
</event>
<event>
 5   0  0.1293993E-08  0.3801183E+04  0.7818609E-02  0.8045901E-01
        2   -1    0    0  501    0  0.00000000000E+00  0.00000000000E+00  0.13370337214E+04  0.13370337214E+04  0.25500000920E-02 0. -1.
       -2   -1    0    0    0  501  0.00000000000E+00  0.00000000000E+00 -0.27016886315E+04  0.27016886315E+04  0.25500000920E-02 0.  1.
    10030    2    1    2    0    0  0.00000000000E+00  0.00000000000E+00 -0.13646549100E+04  0.40387223529E+04  0.38011833973E+04 0.  0.
        5    1    3    3  502    0  0.39962064616E+03 -0.56633097145E+03 -0.25626057582E+04  0.26546935401E+04  0.46999998093E+01 0.  1.
       -5    1    3    3    0  502 -0.39962064616E+03  0.56633097145E+03  0.11979508481E+04  0.13840288128E+04  0.46999998093E+01 0. -1.
</event>
<event>
 5   0  0.4071750E-09  0.3800315E+04  0.7818609E-02  0.8046087E-01
       -1   -1    0    0    0  501  0.00000000000E+00  0.00000000000E+00  0.16025864712E+04  0.16025864712E+04  0.50400001928E-02 0. -1.
        1   -1    0    0  501    0  0.00000000000E+00  0.00000000000E+00 -0.22529818946E+04  0.22529818946E+04  0.50400001928E-02 0.  1.
    10030    2    1    2    0    0  0.00000000000E+00  0.00000000000E+00 -0.65039542343E+03  0.38555683659E+04  0.38003148839E+04 0.  0.
        1    1    3    3  502    0  0.68098010364E+03 -0.13376422537E+04  0.85689396137E+03  0.17283772625E+04  0.50400001928E-02 0. -1.
       -1    1    3    3    0  502 -0.68098010364E+03  0.13376422537E+04 -0.15072893848E+04  0.21271911033E+04  0.50400001928E-02 0.  1.
</event>
<event>
 5   0  0.1305088E-08  0.3800271E+04  0.7818609E-02  0.8046097E-01
        2   -1    0    0  501    0  0.00000000000E+00  0.00000000000E+00  0.20489711655E+04  0.20489711655E+04  0.25500000920E-02 0. -1.
       -2   -1    0    0    0  501  0.00000000000E+00  0.00000000000E+00 -0.17621115601E+04  0.17621115601E+04  0.25500000920E-02 0.  1.
    10030    2    1    2    0    0  0.00000000000E+00  0.00000000000E+00  0.28685960549E+03  0.38110827256E+04  0.38002714519E+04 0.  0.
        3    1    3    3  502    0 -0.10617261712E+04 -0.31982998904E+03  0.16908561828E+04  0.20220159063E+04  0.10100000352E+00 0. -1.
       -3    1    3    3    0  502  0.10617261712E+04  0.31982998904E+03 -0.14039965773E+04  0.17890668192E+04  0.10100000352E+00 0.  1.
</event>
<event>
 5   0  0.1327249E-08  0.3799629E+04  0.7818609E-02  0.8046235E-01
       -2   -1    0    0    0  501  0.00000000000E+00  0.00000000000E+00  0.12995242265E+04  0.12995242265E+04  0.25500000920E-02 0.  1.
        2   -1    0    0  501    0  0.00000000000E+00  0.00000000000E+00 -0.27773972469E+04  0.27773972469E+04  0.25500000920E-02 0. -1.
    10030    2    1    2    0    0  0.00000000000E+00  0.00000000000E+00 -0.14778730205E+04  0.40769214734E+04  0.37996289339E+04 0.  0.
        1    1    3    3  502    0  0.12614156994E+03 -0.14876306340E+04  0.52168277527E+03  0.15814896512E+04  0.50400001928E-02 0.  1.
       -1    1    3    3    0  502 -0.12614156994E+03  0.14876306340E+04 -0.19995557957E+04  0.24954318222E+04  0.50400001928E-02 0. -1.
</event>
<event>
 5   0  0.1261152E-08  0.3811973E+04  0.7818609E-02  0.8043590E-01
       -2   -1    0    0    0  501  0.00000000000E+00  0.00000000000E+00  0.19699654895E+04  0.19699654895E+04  0.25500000920E-02 0.  1.
        2   -1    0    0  501    0  0.00000000000E+00  0.00000000000E+00 -0.18440851062E+04  0.18440851062E+04  0.25500000920E-02 0. -1.
    10030    2    1    2    0    0  0.00000000000E+00  0.00000000000E+00  0.12588038327E+03  0.38140505957E+04  0.38119727276E+04 0.  0.
        2    1    3    3  502    0 -0.29369611490E+03  0.78652990599E+03  0.17749828672E+04  0.19635302085E+04  0.25500000920E-02 0.  1.
       -2    1    3    3    0  502  0.29369611490E+03 -0.78652990599E+03 -0.16491024839E+04  0.18505203872E+04  0.25500000920E-02 0. -1.
</event>
<event>
 5   0  0.4071750E-09  0.3800089E+04  0.7818609E-02  0.8046136E-01
        1   -1    0    0  501    0  0.00000000000E+00  0.00000000000E+00  0.14137539117E+04  0.14137539117E+04  0.50400001928E-02 0.  1.
       -1   -1    0    0    0  501  0.00000000000E+00  0.00000000000E+00 -0.25536056484E+04  0.25536056484E+04  0.50400001928E-02 0. -1.
    10030    2    1    2    0    0  0.00000000000E+00  0.00000000000E+00 -0.11398517367E+04  0.39673595601E+04  0.38000894591E+04 0.  0.
        2    1    3    3  502    0  0.13684234136E+04 -0.90600695924E+03 -0.15695357261E+04  0.22708750834E+04  0.25500000920E-02 0. -1.
       -2    1    3    3    0  502 -0.13684234136E+04  0.90600695924E+03  0.42968398936E+03  0.16964844767E+04  0.25500000920E-02 0.  1.
</event>
<event>
 5   0  0.4071750E-09  0.3798886E+04  0.7818609E-02  0.8046394E-01
       -1   -1    0    0    0  501  0.00000000000E+00  0.00000000000E+00  0.14323738482E+04  0.14323738482E+04  0.50400001928E-02 0. -1.
        1   -1    0    0  501    0  0.00000000000E+00  0.00000000000E+00 -0.25188144369E+04  0.25188144369E+04  0.50400001928E-02 0.  1.
    10030    2    1    2    0    0  0.00000000000E+00  0.00000000000E+00 -0.10864405887E+04  0.39511882852E+04  0.37988861146E+04 0.  0.
        4    1    3    3  502    0 -0.98401842758E+03 -0.10909941799E+04 -0.17953630810E+04  0.23198902500E+04  0.12699999809E+01 0.  1.
       -4    1    3    3    0  502  0.98401842758E+03  0.10909941799E+04  0.70892249235E+03  0.16312980352E+04  0.12699999809E+01 0. -1.
</event>
<event>
 5   0  0.1293993E-08  0.3802565E+04  0.7818609E-02  0.8045605E-01
       -2   -1    0    0    0  501  0.00000000000E+00  0.00000000000E+00  0.29015773445E+04  0.29015773445E+04  0.25500000920E-02 0. -1.
        2   -1    0    0  501    0  0.00000000000E+00  0.00000000000E+00 -0.12458308668E+04  0.12458308668E+04  0.25500000920E-02 0.  1.
    10030    2    1    2    0    0  0.00000000000E+00  0.00000000000E+00  0.16557464777E+04  0.41474082113E+04  0.38025647231E+04 0.  0.
        5    1    3    3  502    0  0.15693892915E+04  0.19257477549E+03 -0.32371090142E+03  0.16139636396E+04  0.46999998093E+01 0. -1.
       -5    1    3    3    0  502 -0.15693892915E+04 -0.19257477549E+03  0.19794573791E+04  0.25334445717E+04  0.46999998093E+01 0.  1.
</event>
<event>
 5   0  0.4071750E-09  0.3804623E+04  0.7818609E-02  0.8045164E-01
       -1   -1    0    0    0  501  0.00000000000E+00  0.00000000000E+00  0.22061526845E+04  0.22061526845E+04  0.50400001928E-02 0.  1.
        1   -1    0    0  501    0  0.00000000000E+00  0.00000000000E+00 -0.16403164167E+04  0.16403164167E+04  0.50400001928E-02 0. -1.
    10030    2    1    2    0    0  0.00000000000E+00  0.00000000000E+00  0.56583626776E+03  0.38464691012E+04  0.38046226968E+04 0.  0.
        2    1    3    3  502    0 -0.18954461587E+04  0.25798084362E+02  0.12176991611E+03  0.18995287821E+04  0.25500000920E-02 0.  1.
       -2    1    3    3    0  502  0.18954461587E+04 -0.25798084362E+02  0.44406635165E+03  0.19469403191E+04  0.25500000920E-02 0. -1.
</event>
<event>
 5   0  0.4071750E-09  0.3800870E+04  0.7818609E-02  0.8045968E-01
        1   -1    0    0  501    0  0.00000000000E+00  0.00000000000E+00  0.20500375886E+04  0.20500375886E+04  0.50400001928E-02 0.  1.
       -1   -1    0    0    0  501  0.00000000000E+00  0.00000000000E+00 -0.17617501383E+04  0.17617501383E+04  0.50400001928E-02 0. -1.
    10030    2    1    2    0    0  0.00000000000E+00  0.00000000000E+00  0.28828745028E+03  0.38117877269E+04  0.38008704294E+04 0.  0.
        5    1    3    3  502    0  0.10007656907E+03  0.11675540300E+04 -0.13562934200E+04  0.17924150368E+04  0.46999998093E+01 0. -1.
       -5    1    3    3    0  502 -0.10007656907E+03 -0.11675540300E+04  0.16445808703E+04  0.20193726902E+04  0.46999998093E+01 0.  1.
</event>
<event>
 5   0  0.4071750E-09  0.3800480E+04  0.7818609E-02  0.8046052E-01
       -1   -1    0    0    0  501  0.00000000000E+00  0.00000000000E+00  0.19028963820E+04  0.19028963820E+04  0.50400001928E-02 0.  1.
        1   -1    0    0  501    0  0.00000000000E+00  0.00000000000E+00 -0.18975868932E+04  0.18975868932E+04  0.50400001928E-02 0. -1.
    10030    2    1    2    0    0  0.00000000000E+00  0.00000000000E+00  0.53094888534E+01  0.38004832752E+04  0.38004795664E+04 0.  0.
        4    1    3    3  502    0 -0.50973751274E+03 -0.61218444182E+03 -0.17225447533E+04  0.18978314369E+04  0.12699999809E+01 0. -1.
       -4    1    3    3    0  502  0.50973751274E+03  0.61218444182E+03  0.17278542422E+04  0.19026518383E+04  0.12699999809E+01 0.  1.
</event>
<event>
 5   0  0.4071750E-09  0.3798268E+04  0.7818609E-02  0.8046527E-01
        1   -1    0    0  501    0  0.00000000000E+00  0.00000000000E+00  0.17277792458E+04  0.17277792458E+04  0.50400001928E-02 0. -1.
       -1   -1    0    0    0  501  0.00000000000E+00  0.00000000000E+00 -0.20874833056E+04  0.20874833056E+04  0.50400001928E-02 0.  1.
    10030    2    1    2    0    0  0.00000000000E+00  0.00000000000E+00 -0.35970405982E+03  0.38152625513E+04  0.37982682008E+04 0.  0.
        3    1    3    3  502    0  0.77290060238E+03  0.11413571654E+03  0.15588775012E+04  0.17437033512E+04  0.10100000352E+00 0. -1.
       -3    1    3    3    0  502 -0.77290060238E+03 -0.11413571654E+03 -0.19185815611E+04  0.20715592001E+04  0.10100000352E+00 0.  1.
</event>
<event>
 5   0  0.4071750E-09  0.3800844E+04  0.7818609E-02  0.8045974E-01
        1   -1    0    0  501    0  0.00000000000E+00  0.00000000000E+00  0.11336467408E+04  0.11336467409E+04  0.50400001928E-02 0. -1.
       -1   -1    0    0    0  501  0.00000000000E+00  0.00000000000E+00 -0.31858276616E+04  0.31858276616E+04  0.50400001928E-02 0.  1.
    10030    2    1    2    0    0  0.00000000000E+00  0.00000000000E+00 -0.20521809207E+04  0.43194744024E+04  0.38008436671E+04 0.  0.
        5    1    3    3  502    0 -0.10913069817E+04 -0.85988070418E+03 -0.24996413806E+04  0.28598207768E+04  0.46999998093E+01 0.  1.
       -5    1    3    3    0  502  0.10913069817E+04  0.85988070418E+03  0.44746045987E+03  0.14596536257E+04  0.46999998093E+01 0. -1.
</event>
<event>
 5   0  0.4071750E-09  0.3780051E+04  0.7818609E-02  0.8050449E-01
       -1   -1    0    0    0  501  0.00000000000E+00  0.00000000000E+00  0.16622243377E+04  0.16622243377E+04  0.50400001928E-02 0.  1.
        1   -1    0    0  501    0  0.00000000000E+00  0.00000000000E+00 -0.21490460997E+04  0.21490460997E+04  0.50400001928E-02 0. -1.
    10030    2    1    2    0    0  0.00000000000E+00  0.00000000000E+00 -0.48682176193E+03  0.38112704374E+04  0.37800511794E+04 0.  0.
        1    1    3    3  502    0  0.31027416888E+02  0.15886443986E+04 -0.12753101064E+04  0.20374419239E+04  0.50400001928E-02 0. -1.
       -1    1    3    3    0  502 -0.31027416888E+02 -0.15886443986E+04  0.78848834444E+03  0.17738285135E+04  0.50400001928E-02 0.  1.
</event>
<event>
 5   0  0.1327249E-08  0.3802025E+04  0.7818609E-02  0.8045720E-01
        2   -1    0    0  501    0  0.00000000000E+00  0.00000000000E+00  0.10206571948E+04  0.10206571948E+04  0.25500000920E-02 0. -1.
       -2   -1    0    0    0  501  0.00000000000E+00  0.00000000000E+00 -0.35407081590E+04  0.35407081590E+04  0.25500000920E-02 0.  1.
    10030    2    1    2    0    0  0.00000000000E+00  0.00000000000E+00 -0.25200509642E+04  0.45613653538E+04  0.38020253851E+04 0.  0.
        1    1    3    3  502    0 -0.16036859333E+03 -0.14369076313E+04  0.22075527271E+03  0.14625848752E+04  0.50400001928E-02 0. -1.
       -1    1    3    3    0  502  0.16036859333E+03  0.14369076313E+04 -0.27408062369E+04  0.30987804787E+04  0.50400001928E-02 0.  1.
</event>
<event>
 5   0  0.4071750E-09  0.3799913E+04  0.7818609E-02  0.8046174E-01
       -1   -1    0    0    0  501  0.00000000000E+00  0.00000000000E+00  0.15491199569E+04  0.15491199569E+04  0.50400001928E-02 0. -1.
        1   -1    0    0  501    0  0.00000000000E+00  0.00000000000E+00 -0.23302486093E+04  0.23302486093E+04  0.50400001928E-02 0.  1.
    10030    2    1    2    0    0  0.00000000000E+00  0.00000000000E+00 -0.78112865244E+03  0.38793685662E+04  0.37999129596E+04 0.  0.
        1    1    3    3  502    0 -0.85091061802E+03  0.16723257951E+04 -0.85805755509E+02  0.18783197472E+04  0.50400001928E-02 0. -1.
       -1    1    3    3    0  502  0.85091061802E+03 -0.16723257951E+04 -0.69532289694E+03  0.20010488190E+04  0.50400001928E-02 0.  1.
</event>
<event>
 5   0  0.1264013E-08  0.3800060E+04  0.7818609E-02  0.8046142E-01
        2   -1    0    0  501    0  0.00000000000E+00  0.00000000000E+00  0.16338647410E+04  0.16338647410E+04  0.25500000920E-02 0.  1.
       -2   -1    0    0    0  501  0.00000000000E+00  0.00000000000E+00 -0.22095544435E+04  0.22095544435E+04  0.25500000920E-02 0. -1.
    10030    2    1    2    0    0  0.00000000000E+00  0.00000000000E+00 -0.57568970251E+03  0.38434191845E+04  0.38000595251E+04 0.  0.
        4    1    3    3  502    0 -0.16367326929E+04 -0.42953715307E+03 -0.11618317280E+04  0.20526204352E+04  0.12699999809E+01 0. -1.
       -4    1    3    3    0  502  0.16367326929E+04  0.42953715307E+03  0.58614202548E+03  0.17907987494E+04  0.12699999809E+01 0.  1.
</event>
<event>
 5   0  0.1293993E-08  0.3801401E+04  0.7818609E-02  0.8045854E-01
        2   -1    0    0  501    0  0.00000000000E+00  0.00000000000E+00  0.12526697700E+04  0.12526697700E+04  0.25500000920E-02 0. -1.
       -2   -1    0    0    0  501  0.00000000000E+00  0.00000000000E+00 -0.28839707393E+04  0.28839707393E+04  0.25500000920E-02 0.  1.
    10030    2    1    2    0    0  0.00000000000E+00  0.00000000000E+00 -0.16313009693E+04  0.41366405092E+04  0.38014013008E+04 0.  0.
        5    1    3    3  502    0  0.93655801585E+03  0.16360538847E+04 -0.10795841455E+04  0.21724035647E+04  0.46999998093E+01 0.  1.
       -5    1    3    3    0  502 -0.93655801585E+03 -0.16360538847E+04 -0.55171682382E+03  0.19642369445E+04  0.46999998093E+01 0. -1.
</event>
<event>
 5   0  0.4071750E-09  0.3803721E+04  0.7818609E-02  0.8045357E-01
        1   -1    0    0  501    0  0.00000000000E+00  0.00000000000E+00  0.21629003676E+04  0.21629003676E+04  0.50400001928E-02 0. -1.
       -1   -1    0    0    0  501  0.00000000000E+00  0.00000000000E+00 -0.16723255818E+04  0.16723255818E+04  0.50400001928E-02 0.  1.
    10030    2    1    2    0    0  0.00000000000E+00  0.00000000000E+00  0.49057478580E+03  0.38352259494E+04  0.38037211336E+04 0.  0.
        2    1    3    3  502    0  0.11845664490E+04 -0.60206042889E+03 -0.11266437653E+04  0.17421253130E+04  0.25500000920E-02 0.  1.
       -2    1    3    3    0  502 -0.11845664490E+04  0.60206042889E+03  0.16172185511E+04  0.20931006364E+04  0.25500000920E-02 0. -1.
</event>
<event>
 5   0  0.4071750E-09  0.3797996E+04  0.7818609E-02  0.8046585E-01
        1   -1    0    0  501    0  0.00000000000E+00  0.00000000000E+00  0.24864662346E+04  0.24864662346E+04  0.50400001928E-02 0.  1.
       -1   -1    0    0    0  501  0.00000000000E+00  0.00000000000E+00 -0.14503285907E+04  0.14503285907E+04  0.50400001928E-02 0. -1.
    10030    2    1    2    0    0  0.00000000000E+00  0.00000000000E+00  0.10361376438E+04  0.39367948253E+04  0.37979958240E+04 0.  0.
        1    1    3    3  502    0  0.89078784635E+02 -0.98456990591E+03 -0.11625672902E+04  0.15260654094E+04  0.50400001928E-02 0. -1.
       -1    1    3    3    0  502 -0.89078784635E+02  0.98456990591E+03  0.21987049341E+04  0.24107294159E+04  0.50400001928E-02 0.  1.
</event>
<event>
 5   0  0.1261152E-08  0.3803894E+04  0.7818609E-02  0.8045320E-01
        2   -1    0    0  501    0  0.00000000000E+00  0.00000000000E+00  0.26074670460E+04  0.26074670460E+04  0.25500000920E-02 0. -1.
       -2   -1    0    0    0  501  0.00000000000E+00  0.00000000000E+00 -0.13873241652E+04  0.13873241652E+04  0.25500000920E-02 0.  1.
    10030    2    1    2    0    0  0.00000000000E+00  0.00000000000E+00  0.12201428809E+04  0.39947912112E+04  0.38038938170E+04 0.  0.
        2    1    3    3  502    0  0.11058076861E+04  0.13655777233E+03  0.22288362091E+04  0.24918205214E+04  0.25500000920E-02 0. -1.
       -2    1    3    3    0  502 -0.11058076861E+04 -0.13655777233E+03 -0.10086933283E+04  0.15029706898E+04  0.25500000920E-02 0.  1.
</event>
<event>
 5   0  0.4071750E-09  0.3796162E+04  0.7818609E-02  0.8046979E-01
        1   -1    0    0  501    0  0.00000000000E+00  0.00000000000E+00  0.25403360806E+04  0.25403360806E+04  0.50400001928E-02 0.  1.
       -1   -1    0    0    0  501  0.00000000000E+00  0.00000000000E+00 -0.14182025194E+04  0.14182025194E+04  0.50400001928E-02 0. -1.
    10030    2    1    2    0    0  0.00000000000E+00  0.00000000000E+00  0.11221335612E+04  0.39585386000E+04  0.37961617614E+04 0.  0.
        3    1    3    3  502    0  0.13129230439E+04  0.80284517677E+03  0.17196180756E+04  0.23076857743E+04  0.10100000352E+00 0.  1.
       -3    1    3    3    0  502 -0.13129230439E+04 -0.80284517677E+03 -0.59748451434E+03  0.16508528257E+04  0.10100000352E+00 0. -1.
</event>
<event>
 5   0  0.4071750E-09  0.3800268E+04  0.7818609E-02  0.8046097E-01
       -1   -1    0    0    0  501  0.00000000000E+00  0.00000000000E+00  0.14587456714E+04  0.14587456714E+04  0.50400001928E-02 0. -1.
        1   -1    0    0  501    0  0.00000000000E+00  0.00000000000E+00 -0.24750782586E+04  0.24750782586E+04  0.50400001928E-02 0.  1.
    10030    2    1    2    0    0  0.00000000000E+00  0.00000000000E+00 -0.10163325871E+04  0.39338239300E+04  0.38002682517E+04 0.  0.
        3    1    3    3  502    0 -0.11419156882E+04  0.54186336699E+03 -0.19768023087E+04  0.23463449715E+04  0.10100000352E+00 0.  1.
       -3    1    3    3    0  502  0.11419156882E+04 -0.54186336699E+03  0.96046972154E+03  0.15874789585E+04  0.10100000352E+00 0. -1.
</event>
<event>
 5   0  0.1261152E-08  0.3798912E+04  0.7818609E-02  0.8046388E-01
       -2   -1    0    0    0  501  0.00000000000E+00  0.00000000000E+00  0.18536688561E+04  0.18536688561E+04  0.25500000920E-02 0.  1.
        2   -1    0    0  501    0  0.00000000000E+00  0.00000000000E+00 -0.19463738667E+04  0.19463738667E+04  0.25500000920E-02 0. -1.
    10030    2    1    2    0    0  0.00000000000E+00  0.00000000000E+00 -0.92705010616E+02  0.38000427227E+04  0.37989117488E+04 0.  0.
        2    1    3    3  502    0  0.52310981629E+03 -0.17455464933E+04 -0.58256822859E+03  0.19131027628E+04  0.25500000920E-02 0. -1.
       -2    1    3    3    0  502 -0.52310981629E+03  0.17455464933E+04  0.48986321797E+03  0.18869399599E+04  0.25500000920E-02 0.  1.
</event>
<event>
 5   0  0.4071750E-09  0.3802967E+04  0.7818609E-02  0.8045518E-01
       -1   -1    0    0    0  501  0.00000000000E+00  0.00000000000E+00  0.17094811780E+04  0.17094811780E+04  0.50400001928E-02 0. -1.
        1   -1    0    0  501    0  0.00000000000E+00  0.00000000000E+00 -0.21150511347E+04  0.21150511347E+04  0.50400001928E-02 0.  1.
    10030    2    1    2    0    0  0.00000000000E+00  0.00000000000E+00 -0.40556995676E+03  0.38245323127E+04  0.38029673179E+04 0.  0.
        5    1    3    3  502    0  0.16941721591E+04 -0.86311083277E+03 -0.18172822290E+03  0.19100332069E+04  0.46999998093E+01 0. -1.
       -5    1    3    3    0  502 -0.16941721591E+04  0.86311083277E+03 -0.22384173386E+03  0.19144991058E+04  0.46999998093E+01 0.  1.
</event>
<event>
 5   0  0.1305088E-08  0.3799374E+04  0.7818609E-02  0.8046289E-01
        2   -1    0    0  501    0  0.00000000000E+00  0.00000000000E+00  0.19353204269E+04  0.19353204269E+04  0.25500000920E-02 0.  1.
       -2   -1    0    0    0  501  0.00000000000E+00  0.00000000000E+00 -0.18647096011E+04  0.18647096011E+04  0.25500000920E-02 0. -1.
    10030    2    1    2    0    0  0.00000000000E+00  0.00000000000E+00  0.70610825845E+02  0.38000300280E+04  0.37993739386E+04 0.  0.
        3    1    3    3  502    0  0.46122838113E+03 -0.12640111621E+04  0.13765644781E+04  0.19249378198E+04  0.10100000352E+00 0.  1.
       -3    1    3    3    0  502 -0.46122838113E+03  0.12640111621E+04 -0.13059536523E+04  0.18750922083E+04  0.10100000352E+00 0. -1.
</event>
<event>
 5   0  0.1305088E-08  0.3796307E+04  0.7818609E-02  0.8046948E-01
       -2   -1    0    0    0  501  0.00000000000E+00  0.00000000000E+00  0.21087779280E+04  0.21087779280E+04  0.25500000920E-02 0.  1.
        2   -1    0    0  501    0  0.00000000000E+00  0.00000000000E+00 -0.17085665879E+04  0.17085665879E+04  0.25500000920E-02 0. -1.
    10030    2    1    2    0    0  0.00000000000E+00  0.00000000000E+00  0.40021134005E+03  0.38173445159E+04  0.37963074213E+04 0.  0.
        3    1    3    3  502    0  0.42236381872E+03  0.13005481819E+04 -0.11236890848E+04  0.17698852896E+04  0.10100000352E+00 0. -1.
       -3    1    3    3    0  502 -0.42236381872E+03 -0.13005481819E+04  0.15239004248E+04  0.20474592264E+04  0.10100000352E+00 0.  1.
</event>
<event>
 5   0  0.1261152E-08  0.3790768E+04  0.7818609E-02  0.8048139E-01
        2   -1    0    0  501    0  0.00000000000E+00  0.00000000000E+00  0.20139903373E+04  0.20139903373E+04  0.25500000920E-02 0.  1.
       -2   -1    0    0    0  501  0.00000000000E+00  0.00000000000E+00 -0.17837627256E+04  0.17837627256E+04  0.25500000920E-02 0. -1.
    10030    2    1    2    0    0  0.00000000000E+00  0.00000000000E+00  0.23022761178E+03  0.37977530629E+04  0.37907682036E+04 0.  0.
        2    1    3    3  502    0 -0.12154623007E+04 -0.14160072513E+04  0.44747160058E+03  0.19190247454E+04  0.25500000920E-02 0.  1.
       -2    1    3    3    0  502  0.12154623007E+04  0.14160072513E+04 -0.21724398881E+03  0.18787283175E+04  0.25500000920E-02 0. -1.
</event>
<event>
 5   0  0.4071750E-09  0.3824541E+04  0.7818609E-02  0.8040909E-01
        1   -1    0    0  501    0  0.00000000000E+00  0.00000000000E+00  0.14690153370E+04  0.14690153370E+04  0.50400001928E-02 0.  1.
       -1   -1    0    0    0  501  0.00000000000E+00  0.00000000000E+00 -0.24892719122E+04  0.24892719122E+04  0.50400001928E-02 0. -1.
    10030    2    1    2    0    0  0.00000000000E+00  0.00000000000E+00 -0.10202565753E+04  0.39582872492E+04  0.38245410794E+04 0.  0.
        4    1    3    3  502    0 -0.85884263681E+03  0.15555200072E+04 -0.12416144010E+04  0.21676856555E+04  0.12699999809E+01 0. -1.
       -4    1    3    3    0  502  0.85884263681E+03 -0.15555200072E+04  0.22135782574E+03  0.17906015937E+04  0.12699999809E+01 0.  1.
</event>
<event>
 5   0  0.1327249E-08  0.3801313E+04  0.7818609E-02  0.8045873E-01
       -2   -1    0    0    0  501  0.00000000000E+00  0.00000000000E+00  0.14032785763E+04  0.14032785763E+04  0.25500000920E-02 0. -1.
        2   -1    0    0  501    0  0.00000000000E+00  0.00000000000E+00 -0.25743247975E+04  0.25743247975E+04  0.25500000920E-02 0.  1.
    10030    2    1    2    0    0  0.00000000000E+00  0.00000000000E+00 -0.11710462212E+04  0.39776033738E+04  0.38013128452E+04 0.  0.
        1    1    3    3  502    0 -0.12945186246E+04  0.13900359804E+04 -0.51520273178E+03  0.19680986640E+04  0.50400001928E-02 0. -1.
       -1    1    3    3    0  502  0.12945186246E+04 -0.13900359804E+04 -0.65584348944E+03  0.20095047098E+04  0.50400001928E-02 0.  1.
</event>
<event>
 5   0  0.1261152E-08  0.3800249E+04  0.7818609E-02  0.8046101E-01
       -2   -1    0    0    0  501  0.00000000000E+00  0.00000000000E+00  0.17467124458E+04  0.17467124458E+04  0.25500000920E-02 0. -1.
        2   -1    0    0  501    0  0.00000000000E+00  0.00000000000E+00 -0.20670103751E+04  0.20670103752E+04  0.25500000920E-02 0.  1.
    10030    2    1    2    0    0  0.00000000000E+00  0.00000000000E+00 -0.32029792933E+03  0.38137228210E+04  0.38002488066E+04 0.  0.
        2    1    3    3  502    0  0.77325321505E+03 -0.20935285303E+03 -0.18892563928E+04  0.20520815942E+04  0.25500000920E-02 0.  1.
       -2    1    3    3    0  502 -0.77325321505E+03  0.20935285303E+03  0.15689584635E+04  0.17616412267E+04  0.25500000920E-02 0. -1.
</event>
<event>
 5   0  0.1264013E-08  0.3800238E+04  0.7818609E-02  0.8046104E-01
        2   -1    0    0  501    0  0.00000000000E+00  0.00000000000E+00  0.13195328625E+04  0.13195328625E+04  0.25500000920E-02 0. -1.
       -2   -1    0    0    0  501  0.00000000000E+00  0.00000000000E+00 -0.27361588868E+04  0.27361588868E+04  0.25500000920E-02 0.  1.
    10030    2    1    2    0    0  0.00000000000E+00  0.00000000000E+00 -0.14166260243E+04  0.40556917494E+04  0.38002376601E+04 0.  0.
        4    1    3    3  502    0 -0.16754919931E+04  0.89142822673E+03 -0.80689238323E+03  0.20622789902E+04  0.12699999809E+01 0.  1.
       -4    1    3    3    0  502  0.16754919931E+04 -0.89142822673E+03 -0.60973364109E+03  0.19934127592E+04  0.12699999809E+01 0. -1.
</event>
<event>
 5   0  0.1305088E-08  0.3800677E+04  0.7818609E-02  0.8046010E-01
       -2   -1    0    0    0  501  0.00000000000E+00  0.00000000000E+00  0.19449534052E+04  0.19449534052E+04  0.25500000920E-02 0. -1.
        2   -1    0    0  501    0  0.00000000000E+00  0.00000000000E+00 -0.18567474340E+04  0.18567474340E+04  0.25500000920E-02 0.  1.
    10030    2    1    2    0    0  0.00000000000E+00  0.00000000000E+00  0.88205971254E+02  0.38017008392E+04  0.38006774366E+04 0.  0.
        3    1    3    3  502    0  0.77655826904E+03 -0.91937212740E+03  0.15152129040E+04  0.19349826895E+04  0.10100000352E+00 0. -1.
       -3    1    3    3    0  502 -0.77655826904E+03  0.91937212740E+03 -0.14270069328E+04  0.18667181497E+04  0.10100000352E+00 0.  1.
</event>
<event>
 5   0  0.4071750E-09  0.3803211E+04  0.7818609E-02  0.8045466E-01
       -1   -1    0    0    0  501  0.00000000000E+00  0.00000000000E+00  0.23267034421E+04  0.23267034421E+04  0.50400001928E-02 0.  1.
        1   -1    0    0  501    0  0.00000000000E+00  0.00000000000E+00 -0.15541745661E+04  0.15541745661E+04  0.50400001928E-02 0. -1.
    10030    2    1    2    0    0  0.00000000000E+00  0.00000000000E+00  0.77252887600E+03  0.38808780082E+04  0.38032109132E+04 0.  0.
        2    1    3    3  502    0  0.61733861130E+03  0.68322186361E+03  0.20840336170E+04  0.22783975055E+04  0.25500000920E-02 0.  1.
       -2    1    3    3    0  502 -0.61733861130E+03 -0.68322186361E+03 -0.13115047410E+04  0.16024805027E+04  0.25500000920E-02 0. -1.
</event>
<event>
 5   0  0.1327249E-08  0.3796220E+04  0.7818609E-02  0.8046967E-01
       -2   -1    0    0    0  501  0.00000000000E+00  0.00000000000E+00  0.14096381652E+04  0.14096381652E+04  0.25500000920E-02 0.  1.
        2   -1    0    0  501    0  0.00000000000E+00  0.00000000000E+00 -0.25558482937E+04  0.25558482937E+04  0.25500000920E-02 0. -1.
    10030    2    1    2    0    0  0.00000000000E+00  0.00000000000E+00 -0.11462101285E+04  0.39654864590E+04  0.37962198563E+04 0.  0.
        1    1    3    3  502    0  0.78826070855E+03 -0.11385909262E+04 -0.19290904147E+04  0.23746860993E+04  0.50400001928E-02 0. -1.
       -1    1    3    3    0  502 -0.78826070855E+03  0.11385909262E+04  0.78288028618E+03  0.15908003597E+04  0.50400001928E-02 0.  1.
</event>
<event>
 5   0  0.1264013E-08  0.3799362E+04  0.7818609E-02  0.8046292E-01
       -2   -1    0    0    0  501  0.00000000000E+00  0.00000000000E+00  0.27975178652E+04  0.27975178652E+04  0.25500000920E-02 0. -1.
        2   -1    0    0  501    0  0.00000000000E+00  0.00000000000E+00 -0.12899960723E+04  0.12899960723E+04  0.25500000920E-02 0.  1.
    10030    2    1    2    0    0  0.00000000000E+00  0.00000000000E+00  0.15075217929E+04  0.40875139375E+04  0.37993615560E+04 0.  0.
        4    1    3    3  502    0  0.63114158095E+03 -0.69982451631E+03 -0.10207891998E+04  0.13892826394E+04  0.12699999809E+01 0.  1.
       -4    1    3    3    0  502 -0.63114158095E+03  0.69982451631E+03  0.25283109928E+04  0.26982312981E+04  0.12699999809E+01 0. -1.
</event>
<event>
 5   0  0.4071750E-09  0.3802963E+04  0.7818609E-02  0.8045519E-01
       -1   -1    0    0    0  501  0.00000000000E+00  0.00000000000E+00  0.30569025495E+04  0.30569025495E+04  0.50400001928E-02 0.  1.
        1   -1    0    0  501    0  0.00000000000E+00  0.00000000000E+00 -0.11827762490E+04  0.11827762491E+04  0.50400001928E-02 0. -1.
    10030    2    1    2    0    0  0.00000000000E+00  0.00000000000E+00  0.18741263005E+04  0.42396787986E+04  0.38029629140E+04 0.  0.
        1    1    3    3  502    0 -0.26691968964E+03  0.56127040640E+03  0.29404700847E+04  0.30054342297E+04  0.50400001928E-02 0.  1.
       -1    1    3    3    0  502  0.26691968964E+03 -0.56127040640E+03 -0.10663437842E+04  0.12342445689E+04  0.50400001928E-02 0. -1.
</event>
<event>
 5   0  0.4071750E-09  0.3801871E+04  0.7818609E-02  0.8045754E-01
        1   -1    0    0  501    0  0.00000000000E+00  0.00000000000E+00  0.15405116129E+04  0.15405116129E+04  0.50400001928E-02 0. -1.
       -1   -1    0    0    0  501  0.00000000000E+00  0.00000000000E+00 -0.23456849538E+04  0.23456849538E+04  0.50400001928E-02 0.  1.
    10030    2    1    2    0    0  0.00000000000E+00  0.00000000000E+00 -0.80517334091E+03  0.38861965667E+04  0.38018705457E+04 0.  0.
        2    1    3    3  502    0 -0.49509304191E+03  0.13053743084E+03  0.14687004436E+04  0.15553900263E+04  0.25500000920E-02 0. -1.
       -2    1    3    3    0  502  0.49509304191E+03 -0.13053743084E+03 -0.22738737845E+04  0.23308065404E+04  0.25500000920E-02 0.  1.
</event>
<event>
 5   0  0.4071750E-09  0.3803352E+04  0.7818609E-02  0.8045436E-01
        1   -1    0    0  501    0  0.00000000000E+00  0.00000000000E+00  0.24866396680E+04  0.24866396680E+04  0.50400001928E-02 0.  1.
       -1   -1    0    0    0  501  0.00000000000E+00  0.00000000000E+00 -0.14543206839E+04  0.14543206839E+04  0.50400001928E-02 0. -1.
    10030    2    1    2    0    0  0.00000000000E+00  0.00000000000E+00  0.10323189841E+04  0.39409603520E+04  0.38033519441E+04 0.  0.
        5    1    3    3  502    0  0.38213070894E+03 -0.95940448761E+03  0.21707649332E+04  0.24038975300E+04  0.46999998093E+01 0.  1.
       -5    1    3    3    0  502 -0.38213070894E+03  0.95940448761E+03 -0.11384459491E+04  0.15370628219E+04  0.46999998093E+01 0. -1.
</event>
<event>
 5   0  0.4071750E-09  0.3805744E+04  0.7818609E-02  0.8044923E-01
        1   -1    0    0  501    0  0.00000000000E+00  0.00000000000E+00  0.27060948352E+04  0.27060948352E+04  0.50400001928E-02 0. -1.
       -1   -1    0    0    0  501  0.00000000000E+00  0.00000000000E+00 -0.13380614462E+04  0.13380614462E+04  0.50400001928E-02 0.  1.
    10030    2    1    2    0    0  0.00000000000E+00  0.00000000000E+00  0.13680333891E+04  0.40441562814E+04  0.38057436428E+04 0.  0.
        3    1    3    3  502    0  0.50825857850E+03 -0.12301966282E+04 -0.76102903296E+03  0.15332565754E+04  0.10100000352E+00 0.  1.
       -3    1    3    3    0  502 -0.50825857850E+03  0.12301966282E+04  0.21290624220E+04  0.25108997060E+04  0.10100000352E+00 0. -1.
</event>
<event>
 5   0  0.1264013E-08  0.3799865E+04  0.7818609E-02  0.8046184E-01
        2   -1    0    0  501    0  0.00000000000E+00  0.00000000000E+00  0.23031188413E+04  0.23031188413E+04  0.25500000920E-02 0. -1.
       -2   -1    0    0    0  501  0.00000000000E+00  0.00000000000E+00 -0.15673286020E+04  0.15673286020E+04  0.25500000920E-02 0.  1.
    10030    2    1    2    0    0  0.00000000000E+00  0.00000000000E+00  0.73579023928E+03  0.38704474432E+04  0.37998652785E+04 0.  0.
        4    1    3    3  502    0 -0.62498216544E+03 -0.10700662318E+04 -0.10990288627E+04  0.16563545821E+04  0.12699999809E+01 0.  1.
       -4    1    3    3    0  502  0.62498216544E+03  0.10700662318E+04  0.18348191020E+04  0.22140928611E+04  0.12699999809E+01 0. -1.
</event>
<event>
 5   0  0.4071750E-09  0.3794870E+04  0.7818609E-02  0.8047257E-01
       -1   -1    0    0    0  501  0.00000000000E+00  0.00000000000E+00  0.13632360338E+04  0.13632360338E+04  0.50400001928E-02 0.  1.
        1   -1    0    0  501    0  0.00000000000E+00  0.00000000000E+00 -0.26409653461E+04  0.26409653461E+04  0.50400001928E-02 0. -1.
    10030    2    1    2    0    0  0.00000000000E+00  0.00000000000E+00 -0.12777293123E+04  0.40042013799E+04  0.37948697600E+04 0.  0.
        1    1    3    3  502    0 -0.56896981959E+03 -0.80540948542E+03 -0.23493492167E+04  0.25479114657E+04  0.50400001928E-02 0. -1.
       -1    1    3    3    0  502  0.56896981959E+03  0.80540948542E+03  0.10716199044E+04  0.14562899142E+04  0.50400001928E-02 0.  1.
</event>
<event>
 5   0  0.1293993E-08  0.3799424E+04  0.7818609E-02  0.8046279E-01
        2   -1    0    0  501    0  0.00000000000E+00  0.00000000000E+00  0.21138279487E+04  0.21138279487E+04  0.25500000920E-02 0.  1.
       -2   -1    0    0    0  501  0.00000000000E+00  0.00000000000E+00 -0.17072842545E+04  0.17072842545E+04  0.25500000920E-02 0. -1.
    10030    2    1    2    0    0  0.00000000000E+00  0.00000000000E+00  0.40654369421E+03  0.38211122031E+04  0.37994237318E+04 0.  0.
        5    1    3    3  502    0  0.14061368763E+04 -0.15829513724E+03 -0.10714827650E+04  0.17749297651E+04  0.46999998093E+01 0. -1.
       -5    1    3    3    0  502 -0.14061368763E+04  0.15829513724E+03  0.14780264593E+04  0.20461824380E+04  0.46999998093E+01 0.  1.
</event>
<event>
 5   0  0.1293993E-08  0.3800594E+04  0.7818609E-02  0.8046028E-01
        2   -1    0    0  501    0  0.00000000000E+00  0.00000000000E+00  0.25992131786E+04  0.25992131786E+04  0.25500000920E-02 0. -1.
       -2   -1    0    0    0  501  0.00000000000E+00  0.00000000000E+00 -0.13893158063E+04  0.13893158063E+04  0.25500000920E-02 0.  1.
    10030    2    1    2    0    0  0.00000000000E+00  0.00000000000E+00  0.12098973723E+04  0.39885289849E+04  0.38005936131E+04 0.  0.
        5    1    3    3  502    0  0.67178014054E+03  0.80150526866E+03 -0.10601424249E+04  0.14891686620E+04  0.46999998093E+01 0.  1.
       -5    1    3    3    0  502 -0.67178014054E+03 -0.80150526866E+03  0.22700397972E+04  0.24993603229E+04  0.46999998093E+01 0. -1.
</event>
<event>
 5   0  0.1293993E-08  0.3798414E+04  0.7818609E-02  0.8046495E-01
        2   -1    0    0  501    0  0.00000000000E+00  0.00000000000E+00  0.23115306009E+04  0.23115306009E+04  0.25500000920E-02 0.  1.
       -2   -1    0    0    0  501  0.00000000000E+00  0.00000000000E+00 -0.15604320586E+04  0.15604320586E+04  0.25500000920E-02 0. -1.
    10030    2    1    2    0    0  0.00000000000E+00  0.00000000000E+00  0.75109854239E+03  0.38719626595E+04  0.37984135920E+04 0.  0.
        5    1    3    3  502    0  0.87436211320E+03  0.41912911417E+03  0.20401995045E+04  0.22588967279E+04  0.46999998093E+01 0.  1.
       -5    1    3    3    0  502 -0.87436211320E+03 -0.41912911417E+03 -0.12891009621E+04  0.16130659316E+04  0.46999998093E+01 0. -1.
</event>
<event>
 5   0  0.1261152E-08  0.3799412E+04  0.7818609E-02  0.8046281E-01
        2   -1    0    0  501    0  0.00000000000E+00  0.00000000000E+00  0.27143545362E+04  0.27143545362E+04  0.25500000920E-02 0.  1.
       -2   -1    0    0    0  501  0.00000000000E+00  0.00000000000E+00 -0.13295550309E+04  0.13295550309E+04  0.25500000920E-02 0. -1.
    10030    2    1    2    0    0  0.00000000000E+00  0.00000000000E+00  0.13847995053E+04  0.40439095671E+04  0.37994124437E+04 0.  0.
        2    1    3    3  502    0 -0.15634832584E+04  0.74696693329E+03 -0.13645881052E+03  0.17381198191E+04  0.25500000920E-02 0. -1.
       -2    1    3    3    0  502  0.15634832584E+04 -0.74696693329E+03  0.15212583158E+04  0.23057897480E+04  0.25500000920E-02 0.  1.
</event>
<event>
 5   0  0.4071750E-09  0.3800869E+04  0.7818609E-02  0.8045968E-01
        1   -1    0    0  501    0  0.00000000000E+00  0.00000000000E+00  0.20764454166E+04  0.20764454166E+04  0.50400001928E-02 0.  1.
       -1   -1    0    0    0  501  0.00000000000E+00  0.00000000000E+00 -0.17393436289E+04  0.17393436289E+04  0.50400001928E-02 0. -1.
    10030    2    1    2    0    0  0.00000000000E+00  0.00000000000E+00  0.33710178773E+03  0.38157890455E+04  0.38008694301E+04 0.  0.
        4    1    3    3  502    0  0.12676822038E+04 -0.74936630044E+02 -0.12508648921E+04  0.17824977586E+04  0.12699999809E+01 0. -1.
       -4    1    3    3    0  502 -0.12676822038E+04  0.74936630044E+02  0.15879666798E+04  0.20332912869E+04  0.12699999809E+01 0.  1.
</event>
<event>
 5   0  0.1327249E-08  0.3800086E+04  0.7818609E-02  0.8046136E-01
        2   -1    0    0  501    0  0.00000000000E+00  0.00000000000E+00  0.17165592472E+04  0.17165592472E+04  0.25500000920E-02 0. -1.
       -2   -1    0    0    0  501  0.00000000000E+00  0.00000000000E+00 -0.21031398626E+04  0.21031398626E+04  0.25500000920E-02 0.  1.
    10030    2    1    2    0    0  0.00000000000E+00  0.00000000000E+00 -0.38658061544E+03  0.38196991098E+04  0.38000864092E+04 0.  0.
        1    1    3    3  502    0  0.56867190640E+03  0.44085537394E+03  0.15743143101E+04  0.17309554427E+04  0.50400001928E-02 0. -1.
       -1    1    3    3    0  502 -0.56867190640E+03 -0.44085537394E+03 -0.19608949255E+04  0.20887436671E+04  0.50400001928E-02 0.  1.
</event>
<event>
 5   0  0.1293993E-08  0.3799923E+04  0.7818609E-02  0.8046171E-01
       -2   -1    0    0    0  501  0.00000000000E+00  0.00000000000E+00  0.15945877852E+04  0.15945877852E+04  0.25500000920E-02 0. -1.
        2   -1    0    0  501    0  0.00000000000E+00  0.00000000000E+00 -0.22638164245E+04  0.22638164245E+04  0.25500000920E-02 0.  1.
    10030    2    1    2    0    0  0.00000000000E+00  0.00000000000E+00 -0.66922863930E+03  0.38584042097E+04  0.37999231668E+04 0.  0.
        5    1    3    3  502    0  0.15203244499E+04  0.42872243733E+03 -0.14066289675E+04  0.21151398307E+04  0.46999998093E+01 0.  1.
       -5    1    3    3    0  502 -0.15203244499E+04 -0.42872243733E+03  0.73740032819E+03  0.17432643790E+04  0.46999998093E+01 0. -1.
</event>
<event>
 5   0  0.1264013E-08  0.3798943E+04  0.7818609E-02  0.8046382E-01
       -2   -1    0    0    0  501  0.00000000000E+00  0.00000000000E+00  0.17755759351E+04  0.17755759351E+04  0.25500000920E-02 0. -1.
        2   -1    0    0  501    0  0.00000000000E+00  0.00000000000E+00 -0.20320118749E+04  0.20320118750E+04  0.25500000920E-02 0.  1.
    10030    2    1    2    0    0  0.00000000000E+00  0.00000000000E+00 -0.25643593989E+03  0.38075878100E+04  0.37989426871E+04 0.  0.
        4    1    3    3  502    0 -0.22294567817E+03  0.18612409924E+04 -0.43561930668E+03  0.19244969734E+04  0.12699999809E+01 0. -1.
       -4    1    3    3    0  502  0.22294567817E+03 -0.18612409924E+04  0.17918336678E+03  0.18830908366E+04  0.12699999809E+01 0.  1.
</event>
<event>
 5   0  0.1305088E-08  0.3800288E+04  0.7818609E-02  0.8046093E-01
       -2   -1    0    0    0  501  0.00000000000E+00  0.00000000000E+00  0.21383642350E+04  0.21383642350E+04  0.25500000920E-02 0. -1.
        2   -1    0    0  501    0  0.00000000000E+00  0.00000000000E+00 -0.16884624875E+04  0.16884624875E+04  0.25500000920E-02 0.  1.
    10030    2    1    2    0    0  0.00000000000E+00  0.00000000000E+00  0.44990174749E+03  0.38268267225E+04  0.38002883024E+04 0.  0.
        3    1    3    3  502    0 -0.44257814273E+03  0.79357955695E+03  0.19054076899E+04  0.21109766462E+04  0.10100000352E+00 0. -1.
       -3    1    3    3    0  502  0.44257814273E+03 -0.79357955695E+03 -0.14555059424E+04  0.17158500763E+04  0.10100000352E+00 0.  1.
</event>
<event>
 5   0  0.1293993E-08  0.3800037E+04  0.7818609E-02  0.8046147E-01
        2   -1    0    0  501    0  0.00000000000E+00  0.00000000000E+00  0.25704253594E+04  0.25704253594E+04  0.25500000920E-02 0. -1.
       -2   -1    0    0    0  501  0.00000000000E+00  0.00000000000E+00 -0.14044641615E+04  0.14044641615E+04  0.25500000920E-02 0.  1.
    10030    2    1    2    0    0  0.00000000000E+00  0.00000000000E+00  0.11659611979E+04  0.39748895209E+04  0.38000369983E+04 0.  0.
        5    1    3    3  502    0 -0.11376105209E+04 -0.12977152474E+04 -0.24846887408E+03  0.17435542527E+04  0.46999998093E+01 0.  1.
       -5    1    3    3    0  502  0.11376105209E+04  0.12977152474E+04  0.14144300720E+04  0.22313352682E+04  0.46999998093E+01 0. -1.
</event>
<event>
 5   0  0.4071750E-09  0.3802200E+04  0.7818609E-02  0.8045683E-01
       -1   -1    0    0    0  501  0.00000000000E+00  0.00000000000E+00  0.22273827277E+04  0.22273827277E+04  0.50400001928E-02 0.  1.
        1   -1    0    0  501    0  0.00000000000E+00  0.00000000000E+00 -0.16226138467E+04  0.16226138467E+04  0.50400001928E-02 0. -1.
    10030    2    1    2    0    0  0.00000000000E+00  0.00000000000E+00  0.60476888099E+03  0.38499965744E+04  0.38022004449E+04 0.  0.
        4    1    3    3  502    0  0.13540764601E+04 -0.10544488533E+03 -0.10445776552E+04  0.17134134861E+04  0.12699999809E+01 0. -1.
       -4    1    3    3    0  502 -0.13540764601E+04  0.10544488533E+03  0.16493465362E+04  0.21365830883E+04  0.12699999809E+01 0.  1.
</event>
<event>
 5   0  0.4071750E-09  0.3800787E+04  0.7818609E-02  0.8045986E-01
       -1   -1    0    0    0  501  0.00000000000E+00  0.00000000000E+00  0.24280957296E+04  0.24280957296E+04  0.50400001928E-02 0.  1.
        1   -1    0    0  501    0  0.00000000000E+00  0.00000000000E+00 -0.14873774431E+04  0.14873774431E+04  0.50400001928E-02 0. -1.
    10030    2    1    2    0    0  0.00000000000E+00  0.00000000000E+00  0.94071828650E+03  0.39154731727E+04  0.38007866648E+04 0.  0.
        3    1    3    3  502    0 -0.29456074546E+03  0.62474254164E+03  0.22942117454E+04  0.23959292183E+04  0.10100000352E+00 0.  1.
       -3    1    3    3    0  502  0.29456074546E+03 -0.62474254164E+03 -0.13534934589E+04  0.15195439544E+04  0.10100000352E+00 0. -1.
</event>
<event>
 5   0  0.4071750E-09  0.3797840E+04  0.7818609E-02  0.8046619E-01
        1   -1    0    0  501    0  0.00000000000E+00  0.00000000000E+00  0.21383002484E+04  0.21383002484E+04  0.50400001928E-02 0.  1.
       -1   -1    0    0    0  501  0.00000000000E+00  0.00000000000E+00 -0.16863381499E+04  0.16863381499E+04  0.50400001928E-02 0. -1.
    10030    2    1    2    0    0  0.00000000000E+00  0.00000000000E+00  0.45196209855E+03  0.38246383983E+04  0.37978400624E+04 0.  0.
        5    1    3    3  502    0  0.13593286752E+04 -0.10652541890E+00 -0.11093089225E+04  0.17545263845E+04  0.46999998093E+01 0. -1.
       -5    1    3    3    0  502 -0.13593286752E+04  0.10652541890E+00  0.15612710211E+04  0.20701120138E+04  0.46999998093E+01 0.  1.
</event>
<event>
 5   0  0.1327249E-08  0.3800523E+04  0.7818609E-02  0.8046043E-01
       -2   -1    0    0    0  501  0.00000000000E+00  0.00000000000E+00  0.20370436598E+04  0.20370436598E+04  0.25500000920E-02 0. -1.
        2   -1    0    0  501    0  0.00000000000E+00  0.00000000000E+00 -0.17726634702E+04  0.17726634702E+04  0.25500000920E-02 0.  1.
    10030    2    1    2    0    0  0.00000000000E+00  0.00000000000E+00  0.26438018967E+03  0.38097071300E+04  0.38005225340E+04 0.  0.
        1    1    3    3  502    0  0.14477770925E+04 -0.53507669246E+03  0.12433034316E+04  0.19819608976E+04  0.50400001928E-02 0. -1.
       -1    1    3    3    0  502 -0.14477770925E+04  0.53507669246E+03 -0.97892324197E+03  0.18277462324E+04  0.50400001928E-02 0.  1.
</event>
<event>
 5   0  0.1293993E-08  0.3801138E+04  0.7818609E-02  0.8045911E-01
        2   -1    0    0  501    0  0.00000000000E+00  0.00000000000E+00  0.28340333976E+04  0.28340333976E+04  0.25500000920E-02 0.  1.
       -2   -1    0    0    0  501  0.00000000000E+00  0.00000000000E+00 -0.12745662692E+04  0.12745662692E+04  0.25500000920E-02 0. -1.
    10030    2    1    2    0    0  0.00000000000E+00  0.00000000000E+00  0.15594671285E+04  0.41085996668E+04  0.38011384475E+04 0.  0.
        5    1    3    3  502    0  0.83093467045E+03 -0.72984223747E+03 -0.89093367145E+03  0.14201785152E+04  0.46999998093E+01 0. -1.
       -5    1    3    3    0  502 -0.83093467045E+03  0.72984223747E+03  0.24504007999E+04  0.26884211516E+04  0.46999998093E+01 0.  1.
</event>
<event>
 5   0  0.4071750E-09  0.3784575E+04  0.7818609E-02  0.8049473E-01
        1   -1    0    0  501    0  0.00000000000E+00  0.00000000000E+00  0.25974619295E+04  0.25974619295E+04  0.50400001928E-02 0. -1.
       -1   -1    0    0    0  501  0.00000000000E+00  0.00000000000E+00 -0.13785579038E+04  0.13785579038E+04  0.50400001928E-02 0.  1.
    10030    2    1    2    0    0  0.00000000000E+00  0.00000000000E+00  0.12189040257E+04  0.39760198333E+04  0.37845748362E+04 0.  0.
        5    1    3    3  502    0  0.86268939130E+03 -0.10102748601E+04 -0.80624524201E+03  0.15540082880E+04  0.46999998093E+01 0.  1.
       -5    1    3    3    0  502 -0.86268939130E+03  0.10102748601E+04  0.20251492677E+04  0.24220115453E+04  0.46999998093E+01 0. -1.
</event>
<event>
 5   0  0.4071750E-09  0.3800651E+04  0.7818609E-02  0.8046015E-01
       -1   -1    0    0    0  501  0.00000000000E+00  0.00000000000E+00  0.16053541394E+04  0.16053541394E+04  0.50400001928E-02 0.  1.
        1   -1    0    0  501    0  0.00000000000E+00  0.00000000000E+00 -0.22494955489E+04  0.22494955489E+04  0.50400001928E-02 0. -1.
    10030    2    1    2    0    0  0.00000000000E+00  0.00000000000E+00 -0.64414140952E+03  0.38548496883E+04  0.38006509921E+04 0.  0.
        1    1    3    3  502    0 -0.18167394249E+04  0.38780082439E+03 -0.72816182938E+03  0.19952822525E+04  0.50400001928E-02 0. -1.
       -1    1    3    3    0  502  0.18167394249E+04 -0.38780082439E+03  0.84020419862E+02  0.18595674358E+04  0.50400001928E-02 0.  1.
</event>
<event>
 5   0  0.1261152E-08  0.3799879E+04  0.7818609E-02  0.8046181E-01
        2   -1    0    0  501    0  0.00000000000E+00  0.00000000000E+00  0.16112172811E+04  0.16112172811E+04  0.25500000920E-02 0.  1.
       -2   -1    0    0    0  501  0.00000000000E+00  0.00000000000E+00 -0.22403996196E+04  0.22403996196E+04  0.25500000920E-02 0. -1.
    10030    2    1    2    0    0  0.00000000000E+00  0.00000000000E+00 -0.62918233845E+03  0.38516169007E+04  0.37998792527E+04 0.  0.
        2    1    3    3  502    0  0.93036195830E+02  0.10486481402E+04  0.12885411436E+04  0.16639281639E+04  0.25500000920E-02 0.  1.
       -2    1    3    3    0  502 -0.93036195830E+02 -0.10486481402E+04 -0.19177234821E+04  0.21876887369E+04  0.25500000920E-02 0. -1.
</event>
<event>
 5   0  0.4071750E-09  0.3800711E+04  0.7818609E-02  0.8046002E-01
        1   -1    0    0  501    0  0.00000000000E+00  0.00000000000E+00  0.21158480744E+04  0.21158480744E+04  0.50400001928E-02 0.  1.
       -1   -1    0    0    0  501  0.00000000000E+00  0.00000000000E+00 -0.17068098476E+04  0.17068098476E+04  0.50400001928E-02 0. -1.
    10030    2    1    2    0    0  0.00000000000E+00  0.00000000000E+00  0.40903822675E+03  0.38226579220E+04  0.38007106332E+04 0.  0.
        1    1    3    3  502    0  0.29393344088E+03  0.15267194741E+04  0.13035693498E+04  0.20289313123E+04  0.50400001928E-02 0.  1.
       -1    1    3    3    0  502 -0.29393344088E+03 -0.15267194741E+04 -0.89453112304E+03  0.17937266097E+04  0.50400001928E-02 0. -1.
</event>
<event>
 5   0  0.1264013E-08  0.3800884E+04  0.7818609E-02  0.8045965E-01
        2   -1    0    0  501    0  0.00000000000E+00  0.00000000000E+00  0.16174150950E+04  0.16174150950E+04  0.25500000920E-02 0. -1.
       -2   -1    0    0    0  501  0.00000000000E+00  0.00000000000E+00 -0.22329950425E+04  0.22329950425E+04  0.25500000920E-02 0.  1.
    10030    2    1    2    0    0  0.00000000000E+00  0.00000000000E+00 -0.61557994754E+03  0.38504101375E+04  0.38008840492E+04 0.  0.
        4    1    3    3  502    0  0.84171035034E+03  0.11629758347E+04 -0.15692826918E+04  0.21268847843E+04  0.12699999809E+01 0.  1.
       -4    1    3    3    0  502 -0.84171035034E+03 -0.11629758347E+04  0.95370274423E+03  0.17235253533E+04  0.12699999809E+01 0. -1.
</event>
<event>
 5   0  0.1327249E-08  0.3800944E+04  0.7818609E-02  0.8045952E-01
        2   -1    0    0  501    0  0.00000000000E+00  0.00000000000E+00  0.23632877967E+04  0.23632877967E+04  0.25500000920E-02 0.  1.
       -2   -1    0    0    0  501  0.00000000000E+00  0.00000000000E+00 -0.15282920620E+04  0.15282920620E+04  0.25500000920E-02 0. -1.
    10030    2    1    2    0    0  0.00000000000E+00  0.00000000000E+00  0.83499573471E+03  0.38915798586E+04  0.38009440826E+04 0.  0.
        1    1    3    3  502    0  0.73172526692E+02  0.78758810153E+03 -0.13517549419E+04  0.15661706993E+04  0.50400001928E-02 0. -1.
       -1    1    3    3    0  502 -0.73172526692E+02 -0.78758810153E+03  0.21867506766E+04  0.23254091593E+04  0.50400001928E-02 0.  1.
</event>
<event>
 5   0  0.4071750E-09  0.3800513E+04  0.7818609E-02  0.8046045E-01
        1   -1    0    0  501    0  0.00000000000E+00  0.00000000000E+00  0.13215849593E+04  0.13215849593E+04  0.50400001928E-02 0. -1.
       -1   -1    0    0    0  501  0.00000000000E+00  0.00000000000E+00 -0.27323056679E+04  0.27323056679E+04  0.50400001928E-02 0.  1.
    10030    2    1    2    0    0  0.00000000000E+00  0.00000000000E+00 -0.14107207086E+04  0.40538906271E+04  0.38005126364E+04 0.  0.
        2    1    3    3  502    0 -0.98635628177E+03  0.13834966409E+04  0.20225712293E+03  0.17111018712E+04  0.25500000920E-02 0. -1.
       -2    1    3    3    0  502  0.98635628177E+03 -0.13834966409E+04 -0.16129778315E+04  0.23427887559E+04  0.25500000920E-02 0.  1.
</event>
<event>
 5   0  0.4071750E-09  0.3799069E+04  0.7818609E-02  0.8046355E-01
        1   -1    0    0  501    0  0.00000000000E+00  0.00000000000E+00  0.26330992329E+04  0.26330992329E+04  0.50400001928E-02 0. -1.
       -1   -1    0    0    0  501  0.00000000000E+00  0.00000000000E+00 -0.13703363407E+04  0.13703363407E+04  0.50400001928E-02 0.  1.
    10030    2    1    2    0    0  0.00000000000E+00  0.00000000000E+00  0.12627628922E+04  0.40034355735E+04  0.37990691320E+04 0.  0.
        1    1    3    3  502    0  0.13256387045E+04 -0.55938444000E+03 -0.67549396852E+03  0.15895033904E+04  0.50400001928E-02 0.  1.
       -1    1    3    3    0  502 -0.13256387045E+04  0.55938444000E+03  0.19382568607E+04  0.24139321831E+04  0.50400001928E-02 0. -1.
</event>
<event>
 5   0  0.1264013E-08  0.3798353E+04  0.7818609E-02  0.8046508E-01
        2   -1    0    0  501    0  0.00000000000E+00  0.00000000000E+00  0.28706156809E+04  0.28706156809E+04  0.25500000920E-02 0.  1.
       -2   -1    0    0    0  501  0.00000000000E+00  0.00000000000E+00 -0.12564799015E+04  0.12564799015E+04  0.25500000920E-02 0. -1.
    10030    2    1    2    0    0  0.00000000000E+00  0.00000000000E+00  0.16141357794E+04  0.41270955824E+04  0.37983527525E+04 0.  0.
        4    1    3    3  502    0 -0.12518742913E+04  0.55100987829E+03 -0.62456813793E+03  0.15036249861E+04  0.12699999809E+01 0. -1.
       -4    1    3    3    0  502  0.12518742913E+04 -0.55100987829E+03  0.22387039173E+04  0.26234705963E+04  0.12699999809E+01 0.  1.
</event>
<event>
 5   0  0.4071750E-09  0.3813511E+04  0.7818609E-02  0.8043262E-01
        1   -1    0    0  501    0  0.00000000000E+00  0.00000000000E+00  0.26361090335E+04  0.26361090335E+04  0.50400001928E-02 0.  1.
       -1   -1    0    0    0  501  0.00000000000E+00  0.00000000000E+00 -0.13791979862E+04  0.13791979862E+04  0.50400001928E-02 0. -1.
    10030    2    1    2    0    0  0.00000000000E+00  0.00000000000E+00  0.12569110473E+04  0.40153070196E+04  0.38135108603E+04 0.  0.
        4    1    3    3  502    0  0.28595651780E+03  0.46445298468E+03 -0.12953080633E+04  0.14054580381E+04  0.12699999809E+01 0. -1.
       -4    1    3    3    0  502 -0.28595651780E+03 -0.46445298468E+03  0.25522191106E+04  0.26098489815E+04  0.12699999809E+01 0.  1.
</event>
<event>
 5   0  0.1264013E-08  0.3800065E+04  0.7818609E-02  0.8046141E-01
        2   -1    0    0  501    0  0.00000000000E+00  0.00000000000E+00  0.24225673483E+04  0.24225673483E+04  0.25500000920E-02 0. -1.
       -2   -1    0    0    0  501  0.00000000000E+00  0.00000000000E+00 -0.14902054051E+04  0.14902054051E+04  0.25500000920E-02 0.  1.
    10030    2    1    2    0    0  0.00000000000E+00  0.00000000000E+00  0.93236194312E+03  0.39127727534E+04  0.38000647135E+04 0.  0.
        4    1    3    3  502    0 -0.15738054638E+04  0.10635885783E+04  0.51265321092E+03  0.19674600961E+04  0.12699999809E+01 0.  1.
       -4    1    3    3    0  502  0.15738054638E+04 -0.10635885783E+04  0.41970873220E+03  0.19453126573E+04  0.12699999809E+01 0. -1.
</event>
<event>
 5   0  0.4071750E-09  0.3799363E+04  0.7818609E-02  0.8046292E-01
       -1   -1    0    0    0  501  0.00000000000E+00  0.00000000000E+00  0.20216671336E+04  0.20216671336E+04  0.50400001928E-02 0.  1.
        1   -1    0    0  501    0  0.00000000000E+00  0.00000000000E+00 -0.17850566334E+04  0.17850566334E+04  0.50400001928E-02 0. -1.
    10030    2    1    2    0    0  0.00000000000E+00  0.00000000000E+00  0.23661050012E+03  0.38067237670E+04  0.37993632769E+04 0.  0.
        2    1    3    3  502    0  0.70685494652E+03 -0.27898988090E+03  0.18627442794E+04  0.20117891339E+04  0.25500000920E-02 0.  1.
       -2    1    3    3    0  502 -0.70685494652E+03  0.27898988090E+03 -0.16261337792E+04  0.17949346331E+04  0.25500000920E-02 0. -1.
</event>
<event>
 5   0  0.1327249E-08  0.3799935E+04  0.7818609E-02  0.8046169E-01
        2   -1    0    0  501    0  0.00000000000E+00  0.00000000000E+00  0.17060721416E+04  0.17060721417E+04  0.25500000920E-02 0. -1.
       -2   -1    0    0    0  501  0.00000000000E+00  0.00000000000E+00 -0.21158994890E+04  0.21158994890E+04  0.25500000920E-02 0.  1.
    10030    2    1    2    0    0  0.00000000000E+00  0.00000000000E+00 -0.40982734737E+03  0.38219716307E+04  0.37999353535E+04 0.  0.
        1    1    3    3  502    0  0.12033019895E+03 -0.36660754525E+03  0.16662502902E+04  0.17103422110E+04  0.50400001928E-02 0. -1.
       -1    1    3    3    0  502 -0.12033019895E+03  0.36660754525E+03 -0.20760776376E+04  0.21116294197E+04  0.50400001928E-02 0.  1.
</event>
<event>
 5   0  0.4071750E-09  0.3801014E+04  0.7818609E-02  0.8045937E-01
       -1   -1    0    0    0  501  0.00000000000E+00  0.00000000000E+00  0.15245492470E+04  0.15245492471E+04  0.50400001928E-02 0. -1.
        1   -1    0    0  501    0  0.00000000000E+00  0.00000000000E+00 -0.23691768506E+04  0.23691768506E+04  0.50400001928E-02 0.  1.
    10030    2    1    2    0    0  0.00000000000E+00  0.00000000000E+00 -0.84462760354E+03  0.38937260977E+04  0.38010139614E+04 0.  0.
        3    1    3    3  502    0 -0.29753073006E+03 -0.70926881578E+03 -0.22026164968E+04  0.23330465556E+04  0.10100000352E+00 0.  1.
       -3    1    3    3    0  502  0.29753073006E+03  0.70926881578E+03  0.13579888933E+04  0.15606795420E+04  0.10100000352E+00 0. -1.
</event>
<event>
 5   0  0.4071750E-09  0.3798523E+04  0.7818609E-02  0.8046472E-01
        1   -1    0    0  501    0  0.00000000000E+00  0.00000000000E+00  0.15828289242E+04  0.15828289242E+04  0.50400001928E-02 0. -1.
       -1   -1    0    0    0  501  0.00000000000E+00  0.00000000000E+00 -0.22789536180E+04  0.22789536180E+04  0.50400001928E-02 0.  1.
    10030    2    1    2    0    0  0.00000000000E+00  0.00000000000E+00 -0.69612469386E+03  0.38617825422E+04  0.37985227147E+04 0.  0.
        1    1    3    3  502    0  0.28974704030E+03  0.92810021415E+03 -0.20067573503E+04  0.22298875348E+04  0.50400001928E-02 0.  1.
       -1    1    3    3    0  502 -0.28974704030E+03 -0.92810021415E+03  0.13106326565E+04  0.16318950074E+04  0.50400001928E-02 0. -1.
</event>
<event>
 5   0  0.4071750E-09  0.3799848E+04  0.7818609E-02  0.8046188E-01
        1   -1    0    0  501    0  0.00000000000E+00  0.00000000000E+00  0.18989570716E+04  0.18989570716E+04  0.50400001928E-02 0.  1.
       -1   -1    0    0    0  501  0.00000000000E+00  0.00000000000E+00 -0.19008914022E+04  0.19008914022E+04  0.50400001928E-02 0. -1.
    10030    2    1    2    0    0  0.00000000000E+00  0.00000000000E+00 -0.19343305992E+01  0.37998484739E+04  0.37998479815E+04 0.  0.
        3    1    3    3  502    0 -0.42501811349E+03  0.10194111395E+04  0.15449540201E+04  0.18991372785E+04  0.10100000352E+00 0.  1.
       -3    1    3    3    0  502  0.42501811349E+03 -0.10194111395E+04 -0.15468883507E+04  0.19007111953E+04  0.10100000352E+00 0. -1.
</event>
<event>
 5   0  0.1305088E-08  0.3806460E+04  0.7818609E-02  0.8044770E-01
        2   -1    0    0  501    0  0.00000000000E+00  0.00000000000E+00  0.25239595946E+04  0.25239595946E+04  0.25500000920E-02 0.  1.
       -2   -1    0    0    0  501  0.00000000000E+00  0.00000000000E+00 -0.14351597496E+04  0.14351597496E+04  0.25500000920E-02 0. -1.
    10030    2    1    2    0    0  0.00000000000E+00  0.00000000000E+00  0.10887998450E+04  0.39591193442E+04  0.38064604134E+04 0.  0.
        3    1    3    3  502    0  0.15256889167E+04  0.10417431778E+04  0.68525139672E+02  0.18486890555E+04  0.10100000352E+00 0. -1.
       -3    1    3    3    0  502 -0.15256889167E+04 -0.10417431778E+04  0.10202747054E+04  0.21104302887E+04  0.10100000352E+00 0.  1.
</event>
<event>
 5   0  0.1261152E-08  0.3800257E+04  0.7818609E-02  0.8046100E-01
        2   -1    0    0  501    0  0.00000000000E+00  0.00000000000E+00  0.24483083015E+04  0.24483083015E+04  0.25500000920E-02 0. -1.
       -2   -1    0    0    0  501  0.00000000000E+00  0.00000000000E+00 -0.14746868509E+04  0.14746868509E+04  0.25500000920E-02 0.  1.
    10030    2    1    2    0    0  0.00000000000E+00  0.00000000000E+00  0.97362145055E+03  0.39229951524E+04  0.38002568646E+04 0.  0.
        2    1    3    3  502    0 -0.15104578261E+04  0.86338043488E+03  0.12754071623E+04  0.21572139554E+04  0.25500000920E-02 0. -1.
       -2    1    3    3    0  502  0.15104578261E+04 -0.86338043488E+03 -0.30178571176E+03  0.17657811970E+04  0.25500000920E-02 0.  1.
</event>
<event>
 5   0  0.4071750E-09  0.3800530E+04  0.7818609E-02  0.8046041E-01
       -1   -1    0    0    0  501  0.00000000000E+00  0.00000000000E+00  0.18955758954E+04  0.18955758954E+04  0.50400001928E-02 0.  1.
        1   -1    0    0  501    0  0.00000000000E+00  0.00000000000E+00 -0.19049660306E+04  0.19049660306E+04  0.50400001928E-02 0. -1.
    10030    2    1    2    0    0  0.00000000000E+00  0.00000000000E+00 -0.93901351497E+01  0.38005419260E+04  0.38005303257E+04 0.  0.
        4    1    3    3  502    0 -0.13184463714E+04 -0.37125114475E+03  0.13124565639E+04  0.18970166292E+04  0.12699999809E+01 0.  1.
       -4    1    3    3    0  502  0.13184463714E+04  0.37125114475E+03 -0.13218466990E+04  0.19035252967E+04  0.12699999809E+01 0. -1.
</event>
<event>
 5   0  0.1264013E-08  0.3802909E+04  0.7818609E-02  0.8045531E-01
       -2   -1    0    0    0  501  0.00000000000E+00  0.00000000000E+00  0.25357272752E+04  0.25357272752E+04  0.25500000920E-02 0.  1.
        2   -1    0    0  501    0  0.00000000000E+00  0.00000000000E+00 -0.14258349899E+04  0.14258349899E+04  0.25500000920E-02 0. -1.
    10030    2    1    2    0    0  0.00000000000E+00  0.00000000000E+00  0.11098922853E+04  0.39615622651E+04  0.38029087150E+04 0.  0.
        4    1    3    3  502    0 -0.17771749020E+03  0.15453057779E+04  0.16941760651E+04  0.22999538269E+04  0.12699999809E+01 0.  1.
       -4    1    3    3    0  502  0.17771749020E+03 -0.15453057779E+04 -0.58428377979E+03  0.16616084381E+04  0.12699999809E+01 0. -1.
</event>
<event>
 5   0  0.1293993E-08  0.3800099E+04  0.7818609E-02  0.8046134E-01
        2   -1    0    0  501    0  0.00000000000E+00  0.00000000000E+00  0.20235574126E+04  0.20235574126E+04  0.25500000920E-02 0.  1.
       -2   -1    0    0    0  501  0.00000000000E+00  0.00000000000E+00 -0.17840795621E+04  0.17840795621E+04  0.25500000920E-02 0. -1.
    10030    2    1    2    0    0  0.00000000000E+00  0.00000000000E+00  0.23947785050E+03  0.38076369746E+04  0.38000986421E+04 0.  0.
        5    1    3    3  502    0  0.97978821034E+03 -0.25577903404E+03 -0.14911684352E+04  0.18025019399E+04  0.46999998093E+01 0. -1.
       -5    1    3    3    0  502 -0.97978821034E+03  0.25577903404E+03  0.17306462857E+04  0.20051350347E+04  0.46999998093E+01 0.  1.
</event>
<event>
 5   0  0.4071750E-09  0.3802475E+04  0.7818609E-02  0.8045624E-01
       -1   -1    0    0    0  501  0.00000000000E+00  0.00000000000E+00  0.15444903190E+04  0.15444903190E+04  0.50400001928E-02 0.  1.
        1   -1    0    0  501    0  0.00000000000E+00  0.00000000000E+00 -0.23403868922E+04  0.23403868922E+04  0.50400001928E-02 0. -1.
    10030    2    1    2    0    0  0.00000000000E+00  0.00000000000E+00 -0.79589657324E+03  0.38848772112E+04  0.38024754557E+04 0.  0.
        4    1    3    3  502    0 -0.18618844038E+04 -0.90442636773E+02 -0.15797224418E+02  0.18641471425E+04  0.12699999809E+01 0. -1.
       -4    1    3    3    0  502  0.18618844038E+04  0.90442636773E+02 -0.78009934883E+03  0.20207300687E+04  0.12699999809E+01 0.  1.
</event>
<event>
 5   0  0.1327249E-08  0.3799262E+04  0.7818609E-02  0.8046313E-01
       -2   -1    0    0    0  501  0.00000000000E+00  0.00000000000E+00  0.16449757325E+04  0.16449757325E+04  0.25500000920E-02 0. -1.
        2   -1    0    0  501    0  0.00000000000E+00  0.00000000000E+00 -0.21937094279E+04  0.21937094279E+04  0.25500000920E-02 0.  1.
    10030    2    1    2    0    0  0.00000000000E+00  0.00000000000E+00 -0.54873369536E+03  0.38386851604E+04  0.37992624406E+04 0.  0.
        1    1    3    3  502    0  0.42486107521E+01  0.17416737510E+04  0.49189110566E+03  0.18098072730E+04  0.50400001928E-02 0. -1.
       -1    1    3    3    0  502 -0.42486107521E+01 -0.17416737510E+04 -0.10406248010E+04  0.20288778874E+04  0.50400001928E-02 0.  1.
</event>
<event>
 5   0  0.4071750E-09  0.3801307E+04  0.7818609E-02  0.8045874E-01
        1   -1    0    0  501    0  0.00000000000E+00  0.00000000000E+00  0.25136654124E+04  0.25136654124E+04  0.50400001928E-02 0. -1.
       -1   -1    0    0    0  501  0.00000000000E+00  0.00000000000E+00 -0.14371380201E+04  0.14371380201E+04  0.50400001928E-02 0.  1.
    10030    2    1    2    0    0  0.00000000000E+00  0.00000000000E+00  0.10765273923E+04  0.39508034325E+04  0.38013072141E+04 0.  0.
        1    1    3    3  502    0 -0.26937694195E+03  0.60492324504E+03  0.23898974850E+04  0.24799407368E+04  0.50400001928E-02 0. -1.
       -1    1    3    3    0  502  0.26937694195E+03 -0.60492324504E+03 -0.13133700927E+04  0.14708626957E+04  0.50400001928E-02 0.  1.
</event>
<event>
 5   0  0.1327249E-08  0.3786121E+04  0.7818609E-02  0.8049140E-01
       -2   -1    0    0    0  501  0.00000000000E+00  0.00000000000E+00  0.12781488238E+04  0.12781488238E+04  0.25500000920E-02 0. -1.
        2   -1    0    0  501    0  0.00000000000E+00  0.00000000000E+00 -0.28038034283E+04  0.28038034283E+04  0.25500000920E-02 0.  1.
    10030    2    1    2    0    0  0.00000000000E+00  0.00000000000E+00 -0.15256546045E+04  0.40819522521E+04  0.37861209987E+04 0.  0.
        1    1    3    3  502    0 -0.46801389580E+03  0.18330983526E+04 -0.83427343878E+03  0.20676795563E+04  0.50400001928E-02 0.  1.
       -1    1    3    3    0  502  0.46801389580E+03 -0.18330983526E+04 -0.69138116569E+03  0.20142726958E+04  0.50400001928E-02 0. -1.
</event>
<event>
 5   0  0.4071750E-09  0.3799267E+04  0.7818609E-02  0.8046312E-01
        1   -1    0    0  501    0  0.00000000000E+00  0.00000000000E+00  0.19765802950E+04  0.19765802950E+04  0.50400001928E-02 0. -1.
       -1   -1    0    0    0  501  0.00000000000E+00  0.00000000000E+00 -0.18256822415E+04  0.18256822416E+04  0.50400001928E-02 0.  1.
    10030    2    1    2    0    0  0.00000000000E+00  0.00000000000E+00  0.15089805340E+03  0.38022625365E+04  0.37992670575E+04 0.  0.
        4    1    3    3  502    0  0.19416007058E+03  0.18110683375E+04 -0.46436411647E+03  0.18797080362E+04  0.12699999809E+01 0.  1.
       -4    1    3    3    0  502 -0.19416007058E+03 -0.18110683375E+04  0.61526216988E+03  0.19225545003E+04  0.12699999809E+01 0. -1.
</event>
<event>
 5   0  0.1261152E-08  0.3791654E+04  0.7818609E-02  0.8047948E-01
       -2   -1    0    0    0  501  0.00000000000E+00  0.00000000000E+00  0.25877409635E+04  0.25877409635E+04  0.25500000920E-02 0. -1.
        2   -1    0    0  501    0  0.00000000000E+00  0.00000000000E+00 -0.13889177465E+04  0.13889177465E+04  0.25500000920E-02 0.  1.
    10030    2    1    2    0    0  0.00000000000E+00  0.00000000000E+00  0.11988232170E+04  0.39766587100E+04  0.37916536485E+04 0.  0.
        2    1    3    3  502    0  0.22983184915E+03  0.12375600329E+04  0.20862512058E+04  0.24365593790E+04  0.25500000920E-02 0. -1.
       -2    1    3    3    0  502 -0.22983184915E+03 -0.12375600329E+04 -0.88742798880E+03  0.15400993310E+04  0.25500000920E-02 0.  1.
</event>
<event>
 5   0  0.1261152E-08  0.3796911E+04  0.7818609E-02  0.8046818E-01
        2   -1    0    0  501    0  0.00000000000E+00  0.00000000000E+00  0.31943087598E+04  0.31943087598E+04  0.25500000920E-02 0. -1.
       -2   -1    0    0    0  501  0.00000000000E+00  0.00000000000E+00 -0.11282982229E+04  0.11282982229E+04  0.25500000920E-02 0.  1.
    10030    2    1    2    0    0  0.00000000000E+00  0.00000000000E+00  0.20660105369E+04  0.43226069827E+04  0.37969107954E+04 0.  0.
        2    1    3    3  502    0 -0.70866277664E+03  0.17609565770E+04  0.10683138554E+04  0.21781793982E+04  0.25500000920E-02 0. -1.
       -2    1    3    3    0  502  0.70866277664E+03 -0.17609565770E+04  0.99769668152E+03  0.21444275845E+04  0.25500000920E-02 0.  1.
</event>
<event>
 5   0  0.4071750E-09  0.3800195E+04  0.7818609E-02  0.8046113E-01
        1   -1    0    0  501    0  0.00000000000E+00  0.00000000000E+00  0.21919630096E+04  0.21919630096E+04  0.50400001928E-02 0. -1.
       -1   -1    0    0    0  501  0.00000000000E+00  0.00000000000E+00 -0.16470949387E+04  0.16470949387E+04  0.50400001928E-02 0.  1.
    10030    2    1    2    0    0  0.00000000000E+00  0.00000000000E+00  0.54486807090E+03  0.38390579484E+04  0.38001953524E+04 0.  0.
        4    1    3    3  502    0  0.71631028229E+03 -0.78956451065E+03  0.18613687139E+04  0.21450425728E+04  0.12699999809E+01 0. -1.
       -4    1    3    3    0  502 -0.71631028229E+03  0.78956451065E+03 -0.13165006430E+04  0.16940153756E+04  0.12699999809E+01 0.  1.
</event>
<event>
 5   0  0.4071750E-09  0.3805591E+04  0.7818609E-02  0.8044956E-01
        1   -1    0    0  501    0  0.00000000000E+00  0.00000000000E+00  0.25857807060E+04  0.25857807060E+04  0.50400001928E-02 0.  1.
       -1   -1    0    0    0  501  0.00000000000E+00  0.00000000000E+00 -0.14002078519E+04  0.14002078520E+04  0.50400001928E-02 0. -1.
    10030    2    1    2    0    0  0.00000000000E+00  0.00000000000E+00  0.11855728541E+04  0.39859885580E+04  0.38055908598E+04 0.  0.
        5    1    3    3  502    0  0.32588290384E+03 -0.24296431951E+03 -0.13541943934E+04  0.14138938690E+04  0.46999998093E+01 0. -1.
       -5    1    3    3    0  502 -0.32588290384E+03  0.24296431951E+03  0.25397672475E+04  0.25720946890E+04  0.46999998093E+01 0.  1.
</event>
<event>
 5   0  0.4071750E-09  0.3784542E+04  0.7818609E-02  0.8049480E-01
        1   -1    0    0  501    0  0.00000000000E+00  0.00000000000E+00  0.21035796902E+04  0.21035796902E+04  0.50400001928E-02 0. -1.
       -1   -1    0    0    0  501  0.00000000000E+00  0.00000000000E+00 -0.17021882604E+04  0.17021882604E+04  0.50400001928E-02 0.  1.
    10030    2    1    2    0    0  0.00000000000E+00  0.00000000000E+00  0.40139142980E+03  0.38057679506E+04  0.37845415328E+04 0.  0.
        2    1    3    3  502    0  0.17122425639E+04  0.45531867601E+03  0.86895199563E+03  0.19733644532E+04  0.25500000920E-02 0. -1.
       -2    1    3    3    0  502 -0.17122425639E+04 -0.45531867601E+03 -0.46756056582E+03  0.18324034974E+04  0.25500000920E-02 0.  1.
</event>
<event>
 5   0  0.1305088E-08  0.3800392E+04  0.7818609E-02  0.8046071E-01
        2   -1    0    0  501    0  0.00000000000E+00  0.00000000000E+00  0.13447938126E+04  0.13447938126E+04  0.25500000920E-02 0.  1.
       -2   -1    0    0    0  501  0.00000000000E+00  0.00000000000E+00 -0.26849795955E+04  0.26849795956E+04  0.25500000920E-02 0. -1.
    10030    2    1    2    0    0  0.00000000000E+00  0.00000000000E+00 -0.13401857830E+04  0.40297734081E+04  0.38003915309E+04 0.  0.
        3    1    3    3  502    0 -0.10156067447E+04 -0.10490536853E+04 -0.19595386468E+04  0.24437189718E+04  0.10100000352E+00 0. -1.
       -3    1    3    3    0  502  0.10156067447E+04  0.10490536853E+04  0.61935286386E+03  0.15860544363E+04  0.10100000352E+00 0.  1.
</event>
<event>
 5   0  0.4071750E-09  0.3798874E+04  0.7818609E-02  0.8046396E-01
       -1   -1    0    0    0  501  0.00000000000E+00  0.00000000000E+00  0.30697805311E+04  0.30697805311E+04  0.50400001928E-02 0. -1.
        1   -1    0    0  501    0  0.00000000000E+00  0.00000000000E+00 -0.11752832742E+04  0.11752832743E+04  0.50400001928E-02 0.  1.
    10030    2    1    2    0    0  0.00000000000E+00  0.00000000000E+00  0.18944972569E+04  0.42450638054E+04  0.37988744195E+04 0.  0.
        2    1    3    3  502    0 -0.18225149386E+04 -0.46932667515E+03  0.66009692811E+03  0.19943811531E+04  0.25500000920E-02 0.  1.
       -2    1    3    3    0  502  0.18225149386E+04  0.46932667515E+03  0.12344003288E+04  0.22506826523E+04  0.25500000920E-02 0. -1.
</event>
<event>
 5   0  0.4071750E-09  0.3802168E+04  0.7818609E-02  0.8045690E-01
       -1   -1    0    0    0  501  0.00000000000E+00  0.00000000000E+00  0.11881404897E+04  0.11881404897E+04  0.50400001928E-02 0. -1.
        1   -1    0    0  501    0  0.00000000000E+00  0.00000000000E+00 -0.30418288327E+04  0.30418288328E+04  0.50400001928E-02 0.  1.
    10030    2    1    2    0    0  0.00000000000E+00  0.00000000000E+00 -0.18536883431E+04  0.42299693224E+04  0.38021678021E+04 0.  0.
        1    1    3    3  502    0 -0.27927607923E+03  0.18067652733E+04 -0.34692157471E+03  0.18608467052E+04  0.50400001928E-02 0. -1.
       -1    1    3    3    0  502  0.27927607923E+03 -0.18067652733E+04 -0.15067667684E+04  0.23691226172E+04  0.50400001928E-02 0.  1.
</event>
<event>
 5   0  0.1327249E-08  0.3799996E+04  0.7818609E-02  0.8046156E-01
        2   -1    0    0  501    0  0.00000000000E+00  0.00000000000E+00  0.22552362567E+04  0.22552362567E+04  0.25500000920E-02 0. -1.
       -2   -1    0    0    0  501  0.00000000000E+00  0.00000000000E+00 -0.16007158998E+04  0.16007158998E+04  0.25500000920E-02 0.  1.
    10030    2    1    2    0    0  0.00000000000E+00  0.00000000000E+00  0.65452035688E+03  0.38559521565E+04  0.37999960705E+04 0.  0.
        1    1    3    3  502    0  0.12424406056E+04  0.14342722271E+04  0.42457362560E+03  0.19444943413E+04  0.50400001928E-02 0. -1.
       -1    1    3    3    0  502 -0.12424406056E+04 -0.14342722271E+04  0.22994673128E+03  0.19114578152E+04  0.50400001928E-02 0.  1.
</event>
<event>
 5   0  0.4071750E-09  0.3800202E+04  0.7818609E-02  0.8046111E-01
        3   -1    0    0  501    0  0.00000000000E+00  0.00000000000E+00  0.18756575261E+04  0.18756575288E+04  0.10100000352E+00 0. -1.
       -3   -1    0    0    0  501  0.00000000000E+00  0.00000000000E+00 -0.19248632712E+04  0.19248632738E+04  0.10100000352E+00 0.  1.
    10030    2    1    2    0    0  0.00000000000E+00  0.00000000000E+00 -0.49205745062E+02  0.38005208026E+04  0.38002022533E+04 0.  0.
        3    1    3    3  502    0 -0.53375367904E+03  0.18038560841E+04 -0.29219682301E+03  0.19037249685E+04  0.10100000352E+00 0.  1.
       -3    1    3    3    0  502  0.53375367904E+03 -0.18038560841E+04  0.24299107795E+03  0.18967958341E+04  0.10100000352E+00 0. -1.
</event>
<event>
 5   0  0.4071750E-09  0.3799111E+04  0.7818609E-02  0.8046346E-01
        1   -1    0    0  501    0  0.00000000000E+00  0.00000000000E+00  0.19288503332E+04  0.19288503332E+04  0.50400001928E-02 0. -1.
       -1   -1    0    0    0  501  0.00000000000E+00  0.00000000000E+00 -0.18707051435E+04  0.18707051435E+04  0.50400001928E-02 0.  1.
    10030    2    1    2    0    0  0.00000000000E+00  0.00000000000E+00  0.58145189738E+02  0.37995554767E+04  0.37991105482E+04 0.  0.
        5    1    3    3  502    0 -0.70903240521E+03  0.10167468997E+04 -0.14104663029E+04  0.18777482502E+04  0.46999998093E+01 0.  1.
       -5    1    3    3    0  502  0.70903240521E+03 -0.10167468997E+04  0.14686114926E+04  0.19218072265E+04  0.46999998093E+01 0. -1.
</event>
<event>
 5   0  0.1261152E-08  0.3799441E+04  0.7818609E-02  0.8046275E-01
        2   -1    0    0  501    0  0.00000000000E+00  0.00000000000E+00  0.20947742087E+04  0.20947742087E+04  0.25500000920E-02 0.  1.
       -2   -1    0    0    0  501  0.00000000000E+00  0.00000000000E+00 -0.17228292930E+04  0.17228292930E+04  0.25500000920E-02 0. -1.
    10030    2    1    2    0    0  0.00000000000E+00  0.00000000000E+00  0.37194491568E+03  0.38176035016E+04  0.37994412057E+04 0.  0.
        2    1    3    3  502    0 -0.83901143448E+02 -0.18072556868E+03 -0.17123011053E+04  0.17238550427E+04  0.25500000920E-02 0. -1.
       -2    1    3    3    0  502  0.83901143448E+02  0.18072556868E+03  0.20842460210E+04  0.20937484589E+04  0.25500000920E-02 0.  1.
</event>
<event>
 5   0  0.1261152E-08  0.3799659E+04  0.7818609E-02  0.8046228E-01
        2   -1    0    0  501    0  0.00000000000E+00  0.00000000000E+00  0.19953648873E+04  0.19953648874E+04  0.25500000920E-02 0.  1.
       -2   -1    0    0    0  501  0.00000000000E+00  0.00000000000E+00 -0.18088681992E+04  0.18088681992E+04  0.25500000920E-02 0. -1.
    10030    2    1    2    0    0  0.00000000000E+00  0.00000000000E+00  0.18649668812E+03  0.38042330866E+04  0.37996589798E+04 0.  0.
        2    1    3    3  502    0 -0.18759141489E+04 -0.30049652464E+03  0.93060850060E+02  0.19021073517E+04  0.25500000920E-02 0.  1.
       -2    1    3    3    0  502  0.18759141489E+04  0.30049652464E+03  0.93435838056E+02  0.19021257349E+04  0.25500000920E-02 0. -1.
</event>
<event>
 5   0  0.4071750E-09  0.3803380E+04  0.7818609E-02  0.8045430E-01
        1   -1    0    0  501    0  0.00000000000E+00  0.00000000000E+00  0.24884241933E+04  0.24884241933E+04  0.50400001928E-02 0. -1.
       -1   -1    0    0    0  501  0.00000000000E+00  0.00000000000E+00 -0.14532990249E+04  0.14532990249E+04  0.50400001928E-02 0.  1.
    10030    2    1    2    0    0  0.00000000000E+00  0.00000000000E+00  0.10351251685E+04  0.39417232182E+04  0.38033797883E+04 0.  0.
        3    1    3    3  502    0 -0.10337148507E+04  0.10903328741E+04  0.17257416781E+04  0.22881382211E+04  0.10100000352E+00 0. -1.
       -3    1    3    3    0  502  0.10337148507E+04 -0.10903328741E+04 -0.69061650966E+03  0.16535849971E+04  0.10100000352E+00 0.  1.
</event>
<event>
 5   0  0.1293993E-08  0.3800749E+04  0.7818609E-02  0.8045994E-01
       -2   -1    0    0    0  501  0.00000000000E+00  0.00000000000E+00  0.17146300694E+04  0.17146300694E+04  0.25500000920E-02 0.  1.
        2   -1    0    0  501    0  0.00000000000E+00  0.00000000000E+00 -0.21062400690E+04  0.21062400690E+04  0.25500000920E-02 0. -1.
    10030    2    1    2    0    0  0.00000000000E+00  0.00000000000E+00 -0.39160999968E+03  0.38208701384E+04  0.38007486397E+04 0.  0.
        5    1    3    3  502    0 -0.91847136596E+03  0.14020204921E+04  0.70456444453E+03  0.18181540795E+04  0.46999998093E+01 0. -1.
       -5    1    3    3    0  502  0.91847136596E+03 -0.14020204921E+04 -0.10961744442E+04  0.20027160589E+04  0.46999998093E+01 0.  1.
</event>
<event>
 5   0  0.4071750E-09  0.3799216E+04  0.7818609E-02  0.8046323E-01
        1   -1    0    0  501    0  0.00000000000E+00  0.00000000000E+00  0.15462883413E+04  0.15462883413E+04  0.50400001928E-02 0.  1.
       -1   -1    0    0    0  501  0.00000000000E+00  0.00000000000E+00 -0.23336597623E+04  0.23336597623E+04  0.50400001928E-02 0. -1.
    10030    2    1    2    0    0  0.00000000000E+00  0.00000000000E+00 -0.78737142100E+03  0.38799481035E+04  0.37992161733E+04 0.  0.
        4    1    3    3  502    0 -0.43129929392E+03  0.87336318229E+03  0.12718365342E+04  0.16019838051E+04  0.12699999809E+01 0.  1.
       -4    1    3    3    0  502  0.43129929392E+03 -0.87336318229E+03 -0.20592079552E+04  0.22779642984E+04  0.12699999809E+01 0. -1.
</event>
<event>
 5   0  0.1261152E-08  0.3798715E+04  0.7818609E-02  0.8046431E-01
       -2   -1    0    0    0  501  0.00000000000E+00  0.00000000000E+00  0.22162192388E+04  0.22162192388E+04  0.25500000920E-02 0. -1.
        2   -1    0    0  501    0  0.00000000000E+00  0.00000000000E+00 -0.16277984653E+04  0.16277984653E+04  0.25500000920E-02 0.  1.
    10030    2    1    2    0    0  0.00000000000E+00  0.00000000000E+00  0.58842077351E+03  0.38440177041E+04  0.37987146646E+04 0.  0.
        2    1    3    3  502    0  0.69591707076E+03  0.15989791675E+04  0.10558641720E+04  0.20385985621E+04  0.25500000920E-02 0. -1.
       -2    1    3    3    0  502 -0.69591707076E+03 -0.15989791675E+04 -0.46744339850E+03  0.18054191420E+04  0.25500000920E-02 0.  1.
</event>
<event>
 5   0  0.4071750E-09  0.3799429E+04  0.7818609E-02  0.8046277E-01
       -1   -1    0    0    0  501  0.00000000000E+00  0.00000000000E+00  0.24115483526E+04  0.24115483526E+04  0.50400001928E-02 0.  1.
        1   -1    0    0  501    0  0.00000000000E+00  0.00000000000E+00 -0.14965136499E+04  0.14965136499E+04  0.50400001928E-02 0. -1.
    10030    2    1    2    0    0  0.00000000000E+00  0.00000000000E+00  0.91503470270E+03  0.39080620025E+04  0.37994289187E+04 0.  0.
        5    1    3    3  502    0  0.18728693852E+04  0.29320936759E+03  0.33036462274E+03  0.19242594267E+04  0.46999998093E+01 0.  1.
       -5    1    3    3    0  502 -0.18728693852E+04 -0.29320936759E+03  0.58467007997E+03  0.19838025758E+04  0.46999998093E+01 0. -1.
</event>
<event>
 5   0  0.4071750E-09  0.3803432E+04  0.7818609E-02  0.8045419E-01
       -3   -1    0    0    0  501  0.00000000000E+00  0.00000000000E+00  0.15365999713E+04  0.15365999746E+04  0.10100000352E+00 0.  1.
        3   -1    0    0  501    0  0.00000000000E+00  0.00000000000E+00 -0.23535882367E+04  0.23535882389E+04  0.10100000352E+00 0. -1.
    10030    2    1    2    0    0  0.00000000000E+00  0.00000000000E+00 -0.81698826535E+03  0.38901882135E+04  0.38034319385E+04 0.  0.
        3    1    3    3  502    0 -0.71996397079E+03 -0.16928073835E+04  0.84770408902E+02  0.18415023729E+04  0.10100000352E+00 0.  1.
       -3    1    3    3    0  502  0.71996397079E+03  0.16928073835E+04 -0.90175867426E+03  0.20486858406E+04  0.10100000352E+00 0. -1.
</event>
<event>
 5   0  0.4071750E-09  0.3795189E+04  0.7818609E-02  0.8047188E-01
        1   -1    0    0  501    0  0.00000000000E+00  0.00000000000E+00  0.24478318358E+04  0.24478318358E+04  0.50400001928E-02 0.  1.
       -1   -1    0    0    0  501  0.00000000000E+00  0.00000000000E+00 -0.14710422818E+04  0.14710422818E+04  0.50400001928E-02 0. -1.
    10030    2    1    2    0    0  0.00000000000E+00  0.00000000000E+00  0.97678955409E+03  0.39188741176E+04  0.37951886009E+04 0.  0.
        2    1    3    3  502    0  0.43794071698E+03  0.89250357314E+03 -0.11806073250E+04  0.15434339492E+04  0.25500000920E-02 0. -1.
       -2    1    3    3    0  502 -0.43794071698E+03 -0.89250357314E+03  0.21573968791E+04  0.23754401684E+04  0.25500000920E-02 0.  1.
</event>
<event>
 5   0  0.4071750E-09  0.3800130E+04  0.7818609E-02  0.8046127E-01
       -1   -1    0    0    0  501  0.00000000000E+00  0.00000000000E+00  0.26858345610E+04  0.26858345610E+04  0.50400001928E-02 0. -1.
        1   -1    0    0  501    0  0.00000000000E+00  0.00000000000E+00 -0.13441808475E+04  0.13441808475E+04  0.50400001928E-02 0.  1.
    10030    2    1    2    0    0  0.00000000000E+00  0.00000000000E+00  0.13416537135E+04  0.40300154085E+04  0.38001301959E+04 0.  0.
        5    1    3    3  502    0  0.15332992863E+04  0.76188889020E+03 -0.20287086144E+03  0.17241403826E+04  0.46999998093E+01 0. -1.
       -5    1    3    3    0  502 -0.15332992863E+04 -0.76188889020E+03  0.15445245750E+04  0.23058750259E+04  0.46999998093E+01 0.  1.
</event>
<event>
 5   0  0.1261152E-08  0.3800309E+04  0.7818609E-02  0.8046089E-01
        2   -1    0    0  501    0  0.00000000000E+00  0.00000000000E+00  0.16434941529E+04  0.16434941529E+04  0.25500000920E-02 0.  1.
       -2   -1    0    0    0  501  0.00000000000E+00  0.00000000000E+00 -0.21968968044E+04  0.21968968044E+04  0.25500000920E-02 0. -1.
    10030    2    1    2    0    0  0.00000000000E+00  0.00000000000E+00 -0.55340265143E+03  0.38403909573E+04  0.38003089625E+04 0.  0.
        2    1    3    3  502    0  0.13440267644E+04 -0.12250370871E+03 -0.16284083573E+04  0.21149772765E+04  0.25500000920E-02 0. -1.
       -2    1    3    3    0  502 -0.13440267644E+04  0.12250370871E+03  0.10750057058E+04  0.17254136808E+04  0.25500000920E-02 0.  1.
</event>
<event>
 5   0  0.1261152E-08  0.3800455E+04  0.7818609E-02  0.8046057E-01
        2   -1    0    0  501    0  0.00000000000E+00  0.00000000000E+00  0.27615708628E+04  0.27615708628E+04  0.25500000920E-02 0. -1.
       -2   -1    0    0    0  501  0.00000000000E+00  0.00000000000E+00 -0.13075399144E+04  0.13075399144E+04  0.25500000920E-02 0.  1.
    10030    2    1    2    0    0  0.00000000000E+00  0.00000000000E+00  0.14540309485E+04  0.40691107772E+04  0.38004547778E+04 0.  0.
        2    1    3    3  502    0 -0.98603639627E+03 -0.13806328219E+04 -0.18931630318E+03  0.17071190428E+04  0.25500000920E-02 0.  1.
       -2    1    3    3    0  502  0.98603639627E+03  0.13806328219E+04  0.16433472516E+04  0.23619917344E+04  0.25500000920E-02 0. -1.
</event>
<event>
 5   0  0.4071750E-09  0.3803992E+04  0.7818609E-02  0.8045299E-01
        1   -1    0    0  501    0  0.00000000000E+00  0.00000000000E+00  0.19638058124E+04  0.19638058124E+04  0.50400001928E-02 0. -1.
       -1   -1    0    0    0  501  0.00000000000E+00  0.00000000000E+00 -0.18421318898E+04  0.18421318898E+04  0.50400001928E-02 0.  1.
    10030    2    1    2    0    0  0.00000000000E+00  0.00000000000E+00  0.12167392252E+03  0.38059377022E+04  0.38039922778E+04 0.  0.
        4    1    3    3  502    0  0.14402460746E+04 -0.85177906444E+03  0.96559549615E+03  0.19318935284E+04  0.12699999809E+01 0.  1.
       -4    1    3    3    0  502 -0.14402460746E+04  0.85177906444E+03 -0.84392157363E+03  0.18740441738E+04  0.12699999809E+01 0. -1.
</event>
<event>
 5   0  0.1264013E-08  0.3801000E+04  0.7818609E-02  0.8045940E-01
       -2   -1    0    0    0  501  0.00000000000E+00  0.00000000000E+00  0.21317366859E+04  0.21317366859E+04  0.25500000920E-02 0.  1.
        2   -1    0    0  501    0  0.00000000000E+00  0.00000000000E+00 -0.16943467496E+04  0.16943467496E+04  0.25500000920E-02 0. -1.
    10030    2    1    2    0    0  0.00000000000E+00  0.00000000000E+00  0.43738993634E+03  0.38260834355E+04  0.38010004603E+04 0.  0.
        4    1    3    3  502    0 -0.18287978264E+04  0.51146020550E+03  0.14199185369E+03  0.19042731765E+04  0.12699999809E+01 0.  1.
       -4    1    3    3    0  502  0.18287978264E+04 -0.51146020550E+03  0.29539808265E+03  0.19218102590E+04  0.12699999809E+01 0. -1.
</event>
<event>
 5   0  0.4071750E-09  0.3800710E+04  0.7818609E-02  0.8046003E-01
        3   -1    0    0  501    0  0.00000000000E+00  0.00000000000E+00  0.16250253624E+04  0.16250253655E+04  0.10100000352E+00 0. -1.
       -3   -1    0    0    0  501  0.00000000000E+00  0.00000000000E+00 -0.22223339009E+04  0.22223339032E+04  0.10100000352E+00 0.  1.
    10030    2    1    2    0    0  0.00000000000E+00  0.00000000000E+00 -0.59730853855E+03  0.38473592687E+04  0.38007099142E+04 0.  0.
        3    1    3    3  502    0  0.95465864330E+03 -0.77543693983E+03 -0.17651150279E+04  0.21513499587E+04  0.10100000352E+00 0.  1.
       -3    1    3    3    0  502 -0.95465864330E+03  0.77543693983E+03  0.11678064893E+04  0.16960093100E+04  0.10100000352E+00 0. -1.
</event>
<event>
 5   0  0.4071750E-09  0.3796589E+04  0.7818609E-02  0.8046887E-01
        1   -1    0    0  501    0  0.00000000000E+00  0.00000000000E+00  0.23783435882E+04  0.23783435882E+04  0.50400001928E-02 0.  1.
       -1   -1    0    0    0  501  0.00000000000E+00  0.00000000000E+00 -0.15151397359E+04  0.15151397359E+04  0.50400001928E-02 0. -1.
    10030    2    1    2    0    0  0.00000000000E+00  0.00000000000E+00  0.86320385230E+03  0.38934833241E+04  0.37965894570E+04 0.  0.
        5    1    3    3  502    0  0.51487845842E+03  0.18035148340E+04  0.73188044906E+03  0.20133148450E+04  0.46999998093E+01 0. -1.
       -5    1    3    3    0  502 -0.51487845842E+03 -0.18035148340E+04  0.13132340324E+03  0.18801684791E+04  0.46999998093E+01 0.  1.
</event>
<event>
 5   0  0.1261152E-08  0.3799768E+04  0.7818609E-02  0.8046205E-01
        2   -1    0    0  501    0  0.00000000000E+00  0.00000000000E+00  0.17509333022E+04  0.17509333022E+04  0.25500000920E-02 0. -1.
       -2   -1    0    0    0  501  0.00000000000E+00  0.00000000000E+00 -0.20615054935E+04  0.20615054935E+04  0.25500000920E-02 0.  1.
    10030    2    1    2    0    0  0.00000000000E+00  0.00000000000E+00 -0.31057219129E+03  0.38124387957E+04  0.37997676883E+04 0.  0.
        2    1    3    3  502    0  0.31816577984E+03  0.17997880766E+04  0.36518457117E+03  0.18638203656E+04  0.25500000920E-02 0. -1.
       -2    1    3    3    0  502 -0.31816577984E+03 -0.17997880766E+04 -0.67575676246E+03  0.19486184301E+04  0.25500000920E-02 0.  1.
</event>
<event>
 5   0  0.4071750E-09  0.3798617E+04  0.7818609E-02  0.8046452E-01
        1   -1    0    0  501    0  0.00000000000E+00  0.00000000000E+00  0.19992779719E+04  0.19992779719E+04  0.50400001928E-02 0. -1.
       -1   -1    0    0    0  501  0.00000000000E+00  0.00000000000E+00 -0.18043375657E+04  0.18043375657E+04  0.50400001928E-02 0.  1.
    10030    2    1    2    0    0  0.00000000000E+00  0.00000000000E+00  0.19494040620E+03  0.38036155377E+04  0.37986167741E+04 0.  0.
        1    1    3    3  502    0  0.11310782083E+03 -0.18307205881E+04 -0.39617053248E+03  0.18765080180E+04  0.50400001928E-02 0.  1.
       -1    1    3    3    0  502 -0.11310782083E+03  0.18307205881E+04  0.59111093869E+03  0.19271075197E+04  0.50400001928E-02 0. -1.
</event>
<event>
 5   0  0.1261152E-08  0.3802054E+04  0.7818609E-02  0.8045714E-01
        2   -1    0    0  501    0  0.00000000000E+00  0.00000000000E+00  0.16894699012E+04  0.16894699012E+04  0.25500000920E-02 0. -1.
       -2   -1    0    0    0  501  0.00000000000E+00  0.00000000000E+00 -0.21390758894E+04  0.21390758894E+04  0.25500000920E-02 0.  1.
    10030    2    1    2    0    0  0.00000000000E+00  0.00000000000E+00 -0.44960598823E+03  0.38285457906E+04  0.38020543560E+04 0.  0.
        2    1    3    3  502    0  0.18117710009E+04  0.28256288667E+03 -0.72984359447E+03  0.19735824323E+04  0.25500000920E-02 0.  1.
       -2    1    3    3    0  502 -0.18117710009E+04 -0.28256288667E+03  0.28023760624E+03  0.18549633583E+04  0.25500000920E-02 0. -1.
</event>
<event>
 5   0  0.1261152E-08  0.3801062E+04  0.7818609E-02  0.8045927E-01
       -2   -1    0    0    0  501  0.00000000000E+00  0.00000000000E+00  0.17229846310E+04  0.17229846310E+04  0.25500000920E-02 0.  1.
        2   -1    0    0  501    0  0.00000000000E+00  0.00000000000E+00 -0.20963731890E+04  0.20963731890E+04  0.25500000920E-02 0. -1.
    10030    2    1    2    0    0  0.00000000000E+00  0.00000000000E+00 -0.37338855802E+03  0.38193578200E+04  0.38010623702E+04 0.  0.
        2    1    3    3  502    0 -0.11095425385E+04  0.58941851476E+03 -0.16195734546E+04  0.20497602311E+04  0.25500000920E-02 0. -1.
       -2    1    3    3    0  502  0.11095425385E+04 -0.58941851476E+03  0.12461848966E+04  0.17695975889E+04  0.25500000920E-02 0.  1.
</event>
<event>
 5   0  0.4071750E-09  0.3804545E+04  0.7818609E-02  0.8045180E-01
       -1   -1    0    0    0  501  0.00000000000E+00  0.00000000000E+00  0.25995688723E+04  0.25995688723E+04  0.50400001928E-02 0.  1.
        1   -1    0    0  501    0  0.00000000000E+00  0.00000000000E+00 -0.13920157551E+04  0.13920157551E+04  0.50400001928E-02 0. -1.
    10030    2    1    2    0    0  0.00000000000E+00  0.00000000000E+00  0.12075531172E+04  0.39915846273E+04  0.38045450853E+04 0.  0.
        3    1    3    3  502    0  0.24594054504E+03  0.12359561081E+04  0.20988110824E+04  0.24480772501E+04  0.10100000352E+00 0.  1.
       -3    1    3    3    0  502 -0.24594054504E+03 -0.12359561081E+04 -0.89125796517E+03  0.15435073772E+04  0.10100000352E+00 0. -1.
</event>
<event>
 5   0  0.4071750E-09  0.3799498E+04  0.7818609E-02  0.8046263E-01
       -1   -1    0    0    0  501  0.00000000000E+00  0.00000000000E+00  0.15160168094E+04  0.15160168094E+04  0.50400001928E-02 0. -1.
        1   -1    0    0  501    0  0.00000000000E+00  0.00000000000E+00 -0.23806115254E+04  0.23806115254E+04  0.50400001928E-02 0.  1.
    10030    2    1    2    0    0  0.00000000000E+00  0.00000000000E+00 -0.86459471593E+03  0.38966283348E+04  0.37994984349E+04 0.  0.
        1    1    3    3  502    0  0.13817150980E+04  0.69519413661E+03 -0.15634973746E+04  0.21993079685E+04  0.50400001928E-02 0.  1.
       -1    1    3    3    0  502 -0.13817150980E+04 -0.69519413661E+03  0.69890265871E+03  0.16973203663E+04  0.50400001928E-02 0. -1.
</event>
<event>
 5   0  0.4071750E-09  0.3800253E+04  0.7818609E-02  0.8046101E-01
       -1   -1    0    0    0  501  0.00000000000E+00  0.00000000000E+00  0.18558572918E+04  0.18558572918E+04  0.50400001928E-02 0. -1.
        1   -1    0    0  501    0  0.00000000000E+00  0.00000000000E+00 -0.19454515394E+04  0.19454515394E+04  0.50400001928E-02 0.  1.
    10030    2    1    2    0    0  0.00000000000E+00  0.00000000000E+00 -0.89594247522E+02  0.38013088312E+04  0.38002528470E+04 0.  0.
        3    1    3    3  502    0  0.15700613967E+04 -0.16883518617E+03  0.10123230645E+04  0.18757388163E+04  0.10100000352E+00 0.  1.
       -3    1    3    3    0  502 -0.15700613967E+04  0.16883518617E+03 -0.11019173121E+04  0.19255700150E+04  0.10100000352E+00 0. -1.
</event>
<event>
 5   0  0.4071750E-09  0.3798357E+04  0.7818609E-02  0.8046508E-01
       -1   -1    0    0    0  501  0.00000000000E+00  0.00000000000E+00  0.22116361133E+04  0.22116361133E+04  0.50400001928E-02 0.  1.
        1   -1    0    0  501    0  0.00000000000E+00  0.00000000000E+00 -0.16308647601E+04  0.16308647601E+04  0.50400001928E-02 0. -1.
    10030    2    1    2    0    0  0.00000000000E+00  0.00000000000E+00  0.58077135317E+03  0.38425008735E+04  0.37983572236E+04 0.  0.
        4    1    3    3  502    0 -0.54894961059E+03 -0.13534819806E+04  0.15184206114E+04  0.21068606771E+04  0.12699999809E+01 0.  1.
       -4    1    3    3    0  502  0.54894961059E+03  0.13534819806E+04 -0.93764925819E+03  0.17356401963E+04  0.12699999809E+01 0. -1.
</event>
<event>
 5   0  0.4071750E-09  0.3799442E+04  0.7818609E-02  0.8046275E-01
       -1   -1    0    0    0  501  0.00000000000E+00  0.00000000000E+00  0.14226420722E+04  0.14226420722E+04  0.50400001928E-02 0. -1.
        1   -1    0    0  501    0  0.00000000000E+00  0.00000000000E+00 -0.25367867219E+04  0.25367867219E+04  0.50400001928E-02 0.  1.
    10030    2    1    2    0    0  0.00000000000E+00  0.00000000000E+00 -0.11141446497E+04  0.39594287941E+04  0.37994418110E+04 0.  0.
        4    1    3    3  502    0  0.11701696080E+04  0.13740836126E+04 -0.11749423989E+04  0.21535770103E+04  0.12699999809E+01 0.  1.
       -4    1    3    3    0  502 -0.11701696080E+04 -0.13740836126E+04  0.60797749217E+02  0.18058517838E+04  0.12699999809E+01 0. -1.
</event>
<event>
 5   0  0.1327249E-08  0.3801611E+04  0.7818609E-02  0.8045809E-01
        2   -1    0    0  501    0  0.00000000000E+00  0.00000000000E+00  0.22849702443E+04  0.22849702443E+04  0.25500000920E-02 0.  1.
       -2   -1    0    0    0  501  0.00000000000E+00  0.00000000000E+00 -0.15812295092E+04  0.15812295092E+04  0.25500000920E-02 0. -1.
    10030    2    1    2    0    0  0.00000000000E+00  0.00000000000E+00  0.70374073507E+03  0.38661997536E+04  0.38016114363E+04 0.  0.
        1    1    3    3  502    0  0.44848502975E+03 -0.21451305192E+03 -0.15139407009E+04  0.15934776802E+04  0.50400001928E-02 0. -1.
       -1    1    3    3    0  502 -0.44848502975E+03  0.21451305192E+03  0.22176814360E+04  0.22727220734E+04  0.50400001928E-02 0.  1.
</event>
<event>
 5   0  0.1305088E-08  0.3795339E+04  0.7818609E-02  0.8047156E-01
       -2   -1    0    0    0  501  0.00000000000E+00  0.00000000000E+00  0.14294737128E+04  0.14294737128E+04  0.25500000920E-02 0.  1.
        2   -1    0    0  501    0  0.00000000000E+00  0.00000000000E+00 -0.25192140478E+04  0.25192140478E+04  0.25500000920E-02 0. -1.
    10030    2    1    2    0    0  0.00000000000E+00  0.00000000000E+00 -0.10897403350E+04  0.39486877606E+04  0.37953393831E+04 0.  0.
        3    1    3    3  502    0 -0.45346320404E+03 -0.34962722508E+03  0.13374517506E+04  0.14548695025E+04  0.10100000352E+00 0.  1.
       -3    1    3    3    0  502  0.45346320404E+03  0.34962722508E+03 -0.24271920856E+04  0.24938182581E+04  0.10100000352E+00 0. -1.
</event>
<event>
 5   0  0.4071750E-09  0.3799494E+04  0.7818609E-02  0.8046263E-01
       -3   -1    0    0    0  501  0.00000000000E+00  0.00000000000E+00  0.32337639522E+04  0.32337639537E+04  0.10100000352E+00 0. -1.
        3   -1    0    0  501    0  0.00000000000E+00  0.00000000000E+00 -0.11160489837E+04  0.11160489882E+04  0.10100000352E+00 0.  1.
    10030    2    1    2    0    0  0.00000000000E+00  0.00000000000E+00  0.21177149685E+04  0.43498129420E+04  0.37994941693E+04 0.  0.
        3    1    3    3  502    0  0.17818173927E+04  0.64991670416E+03  0.93463294190E+03  0.21144275087E+04  0.10100000352E+00 0. -1.
       -3    1    3    3    0  502 -0.17818173927E+04 -0.64991670416E+03  0.11830820266E+04  0.22353854333E+04  0.10100000352E+00 0.  1.
</event>
<event>
 5   0  0.1261152E-08  0.3796635E+04  0.7818609E-02  0.8046877E-01
       -2   -1    0    0    0  501  0.00000000000E+00  0.00000000000E+00  0.16399385802E+04  0.16399385802E+04  0.25500000920E-02 0.  1.
        2   -1    0    0  501    0  0.00000000000E+00  0.00000000000E+00 -0.21974052806E+04  0.21974052806E+04  0.25500000920E-02 0. -1.
    10030    2    1    2    0    0  0.00000000000E+00  0.00000000000E+00 -0.55746670042E+03  0.38373438608E+04  0.37966351923E+04 0.  0.
        2    1    3    3  502    0  0.84979683595E+02  0.34815702859E+02 -0.21951587910E+04  0.21970789238E+04  0.25500000920E-02 0. -1.
       -2    1    3    3    0  502 -0.84979683595E+02 -0.34815702859E+02  0.16376920906E+04  0.16402649369E+04  0.25500000920E-02 0.  1.
</event>
<event>
 5   0  0.1264013E-08  0.3802180E+04  0.7818609E-02  0.8045687E-01
       -2   -1    0    0    0  501  0.00000000000E+00  0.00000000000E+00  0.18388480624E+04  0.18388480624E+04  0.25500000920E-02 0. -1.
        2   -1    0    0  501    0  0.00000000000E+00  0.00000000000E+00 -0.19654384052E+04  0.19654384052E+04  0.25500000920E-02 0.  1.
    10030    2    1    2    0    0  0.00000000000E+00  0.00000000000E+00 -0.12659034285E+03  0.38042864676E+04  0.38021796923E+04 0.  0.
        4    1    3    3  502    0 -0.12108139663E+04 -0.14210787725E+04 -0.42211018063E+03  0.19140830589E+04  0.12699999809E+01 0. -1.
       -4    1    3    3    0  502  0.12108139663E+04  0.14210787725E+04  0.29551983778E+03  0.18902034087E+04  0.12699999809E+01 0.  1.
</event>
<event>
 5   0  0.4071750E-09  0.3801017E+04  0.7818609E-02  0.8045937E-01
        1   -1    0    0  501    0  0.00000000000E+00  0.00000000000E+00  0.20444119387E+04  0.20444119387E+04  0.50400001928E-02 0.  1.
       -1   -1    0    0    0  501  0.00000000000E+00  0.00000000000E+00 -0.17667345994E+04  0.17667345994E+04  0.50400001928E-02 0. -1.
    10030    2    1    2    0    0  0.00000000000E+00  0.00000000000E+00  0.27767733928E+03  0.38111465381E+04  0.38010173941E+04 0.  0.
        4    1    3    3  502    0  0.61785970075E+03  0.16526312439E+04 -0.56943675248E+03  0.18539688417E+04  0.12699999809E+01 0. -1.
       -4    1    3    3    0  502 -0.61785970075E+03 -0.16526312439E+04  0.84711409176E+03  0.19571776964E+04  0.12699999809E+01 0.  1.
</event>
<event>
 5   0  0.1293993E-08  0.3803636E+04  0.7818609E-02  0.8045375E-01
        2   -1    0    0  501    0  0.00000000000E+00  0.00000000000E+00  0.14851259663E+04  0.14851259663E+04  0.25500000920E-02 0. -1.
       -2   -1    0    0    0  501  0.00000000000E+00  0.00000000000E+00 -0.24354241068E+04  0.24354241068E+04  0.25500000920E-02 0.  1.
    10030    2    1    2    0    0  0.00000000000E+00  0.00000000000E+00 -0.95029814052E+03  0.39205500731E+04  0.38036359342E+04 0.  0.
        5    1    3    3  502    0 -0.16903877743E+04  0.84271660416E+03 -0.70402707562E+03  0.20157525432E+04  0.46999998093E+01 0.  1.
       -5    1    3    3    0  502  0.16903877743E+04 -0.84271660416E+03 -0.24627106490E+03  0.19047975299E+04  0.46999998093E+01 0. -1.
</event>
<event>
 5   0  0.1327249E-08  0.3800190E+04  0.7818609E-02  0.8046114E-01
        2   -1    0    0  501    0  0.00000000000E+00  0.00000000000E+00  0.20524331963E+04  0.20524331963E+04  0.25500000920E-02 0. -1.
       -2   -1    0    0    0  501  0.00000000000E+00  0.00000000000E+00 -0.17590642338E+04  0.17590642338E+04  0.25500000920E-02 0.  1.
    10030    2    1    2    0    0  0.00000000000E+00  0.00000000000E+00  0.29336896255E+03  0.38114974301E+04  0.38001904310E+04 0.  0.
        1    1    3    3  502    0  0.17803470056E+04 -0.58870987776E+03 -0.16106237368E+03  0.18820616007E+04  0.50400001928E-02 0.  1.
       -1    1    3    3    0  502 -0.17803470056E+04  0.58870987776E+03  0.45443133623E+03  0.19294358294E+04  0.50400001928E-02 0. -1.
</event>
<event>
 5   0  0.4071750E-09  0.3794249E+04  0.7818609E-02  0.8047390E-01
       -1   -1    0    0    0  501  0.00000000000E+00  0.00000000000E+00  0.21192717183E+04  0.21192717183E+04  0.50400001928E-02 0.  1.
        1   -1    0    0  501    0  0.00000000000E+00  0.00000000000E+00 -0.16982634605E+04  0.16982634605E+04  0.50400001928E-02 0. -1.
    10030    2    1    2    0    0  0.00000000000E+00  0.00000000000E+00  0.42100825783E+03  0.38175351788E+04  0.37942491864E+04 0.  0.
        4    1    3    3  502    0  0.94231128293E+03 -0.12546733259E+04 -0.86230631259E+03  0.17904551093E+04  0.12699999809E+01 0. -1.
       -4    1    3    3    0  502 -0.94231128293E+03  0.12546733259E+04  0.12833145704E+04  0.20270800695E+04  0.12699999809E+01 0.  1.
</event>
<event>
 5   0  0.4071750E-09  0.3799788E+04  0.7818609E-02  0.8046200E-01
       -1   -1    0    0    0  501  0.00000000000E+00  0.00000000000E+00  0.18692071696E+04  0.18692071697E+04  0.50400001928E-02 0.  1.
        1   -1    0    0  501    0  0.00000000000E+00  0.00000000000E+00 -0.19310843019E+04  0.19310843019E+04  0.50400001928E-02 0. -1.
    10030    2    1    2    0    0  0.00000000000E+00  0.00000000000E+00 -0.61877132226E+02  0.38002914715E+04  0.37997876900E+04 0.  0.
        3    1    3    3  502    0 -0.18744905742E+02  0.17769169159E+04 -0.70319694374E+03  0.19110915858E+04  0.10100000352E+00 0.  1.
       -3    1    3    3    0  502  0.18744905742E+02 -0.17769169159E+04  0.64131981151E+03  0.18891998857E+04  0.10100000352E+00 0. -1.
</event>
<event>
 5   0  0.1264013E-08  0.3799119E+04  0.7818609E-02  0.8046344E-01
        2   -1    0    0  501    0  0.00000000000E+00  0.00000000000E+00  0.23391129598E+04  0.23391129598E+04  0.25500000920E-02 0. -1.
       -2   -1    0    0    0  501  0.00000000000E+00  0.00000000000E+00 -0.15426046982E+04  0.15426046982E+04  0.25500000920E-02 0.  1.
    10030    2    1    2    0    0  0.00000000000E+00  0.00000000000E+00  0.79650826154E+03  0.38817176580E+04  0.37991191829E+04 0.  0.
        4    1    3    3  502    0  0.15725769200E+04 -0.57738832094E+03  0.13132403621E+04  0.21286092418E+04  0.12699999809E+01 0. -1.
       -4    1    3    3    0  502 -0.15725769200E+04  0.57738832094E+03 -0.51673210054E+03  0.17531084163E+04  0.12699999809E+01 0.  1.
</event>
<event>
 5   0  0.1305088E-08  0.3797501E+04  0.7818609E-02  0.8046691E-01
       -2   -1    0    0    0  501  0.00000000000E+00  0.00000000000E+00  0.18150360786E+04  0.18150360786E+04  0.25500000920E-02 0.  1.
        2   -1    0    0  501    0  0.00000000000E+00  0.00000000000E+00 -0.19863259452E+04  0.19863259452E+04  0.25500000920E-02 0. -1.
    10030    2    1    2    0    0  0.00000000000E+00  0.00000000000E+00 -0.17128986661E+03  0.38013620237E+04  0.37975008910E+04 0.  0.
        3    1    3    3  502    0  0.12187859694E+04  0.11148351538E+03  0.13675147289E+04  0.18352014487E+04  0.10100000352E+00 0.  1.
       -3    1    3    3    0  502 -0.12187859694E+04 -0.11148351538E+03 -0.15388045955E+04  0.19661605750E+04  0.10100000352E+00 0. -1.
</event>
<event>
 5   0  0.1261152E-08  0.3801242E+04  0.7818609E-02  0.8045888E-01
       -2   -1    0    0    0  501  0.00000000000E+00  0.00000000000E+00  0.15791884573E+04  0.15791884573E+04  0.25500000920E-02 0. -1.
        2   -1    0    0  501    0  0.00000000000E+00  0.00000000000E+00 -0.22874790699E+04  0.22874790699E+04  0.25500000920E-02 0.  1.
    10030    2    1    2    0    0  0.00000000000E+00  0.00000000000E+00 -0.70829061268E+03  0.38666675272E+04  0.38012421883E+04 0.  0.
        2    1    3    3  502    0 -0.17602996406E+04  0.71543564856E+03 -0.31030417622E+03  0.19253030083E+04  0.25500000920E-02 0.  1.
       -2    1    3    3    0  502  0.17602996406E+04 -0.71543564856E+03 -0.39798643646E+03  0.19413645190E+04  0.25500000920E-02 0. -1.
</event>
<event>
 5   0  0.1261152E-08  0.3799494E+04  0.7818609E-02  0.8046264E-01
        2   -1    0    0  501    0  0.00000000000E+00  0.00000000000E+00  0.22932705462E+04  0.22932705462E+04  0.25500000920E-02 0. -1.
       -2   -1    0    0    0  501  0.00000000000E+00  0.00000000000E+00 -0.15737516185E+04  0.15737516185E+04  0.25500000920E-02 0.  1.
    10030    2    1    2    0    0  0.00000000000E+00  0.00000000000E+00  0.71951892775E+03  0.38670221647E+04  0.37994937735E+04 0.  0.
        2    1    3    3  502    0  0.12434528313E+04  0.10986779330E+04  0.13012793034E+04  0.21086953240E+04  0.25500000920E-02 0. -1.
       -2    1    3    3    0  502 -0.12434528313E+04 -0.10986779330E+04 -0.58176037560E+03  0.17583268407E+04  0.25500000920E-02 0.  1.
</event>
<event>
 5   0  0.1264013E-08  0.3796918E+04  0.7818609E-02  0.8046817E-01
        2   -1    0    0  501    0  0.00000000000E+00  0.00000000000E+00  0.15834205899E+04  0.15834205899E+04  0.25500000920E-02 0.  1.
       -2   -1    0    0    0  501  0.00000000000E+00  0.00000000000E+00 -0.22761770624E+04  0.22761770624E+04  0.25500000920E-02 0. -1.
    10030    2    1    2    0    0  0.00000000000E+00  0.00000000000E+00 -0.69275647243E+03  0.38595976523E+04  0.37969175008E+04 0.  0.
        4    1    3    3  502    0  0.77318713515E+02 -0.86220867702E+03 -0.20638746083E+04  0.22380710440E+04  0.12699999809E+01 0. -1.
       -4    1    3    3    0  502 -0.77318713515E+02  0.86220867702E+03  0.13711181359E+04  0.16215266083E+04  0.12699999809E+01 0.  1.
</event>
<event>
 5   0  0.1293993E-08  0.3799589E+04  0.7818609E-02  0.8046243E-01
       -2   -1    0    0    0  501  0.00000000000E+00  0.00000000000E+00  0.12951667953E+04  0.12951667953E+04  0.25500000920E-02 0. -1.
        2   -1    0    0  501    0  0.00000000000E+00  0.00000000000E+00 -0.27866825123E+04  0.27866825123E+04  0.25500000920E-02 0.  1.
    10030    2    1    2    0    0  0.00000000000E+00  0.00000000000E+00 -0.14915157170E+04  0.40818493076E+04  0.37995887456E+04 0.  0.
        5    1    3    3  502    0 -0.25089637283E+03 -0.42615071564E+03 -0.27163188428E+04  0.27609714899E+04  0.46999998093E+01 0.  1.
       -5    1    3    3    0  502  0.25089637283E+03  0.42615071564E+03  0.12248031258E+04  0.13208778177E+04  0.46999998093E+01 0. -1.
</event>
<event>
 5   0  0.1293993E-08  0.3801423E+04  0.7818609E-02  0.8045850E-01
        2   -1    0    0  501    0  0.00000000000E+00  0.00000000000E+00  0.22943524930E+04  0.22943524930E+04  0.25500000920E-02 0. -1.
       -2   -1    0    0    0  501  0.00000000000E+00  0.00000000000E+00 -0.15746075797E+04  0.15746075797E+04  0.25500000920E-02 0.  1.
    10030    2    1    2    0    0  0.00000000000E+00  0.00000000000E+00  0.71974491329E+03  0.38689600726E+04  0.38014233260E+04 0.  0.
        5    1    3    3  502    0  0.10297181528E+04 -0.58408905577E+03 -0.11535575599E+04  0.16529357620E+04  0.46999998093E+01 0.  1.
       -5    1    3    3    0  502 -0.10297181528E+04  0.58408905577E+03  0.18733024732E+04  0.22160243106E+04  0.46999998093E+01 0. -1.
</event>
<event>
 5   0  0.1305088E-08  0.3800320E+04  0.7818609E-02  0.8046086E-01
       -2   -1    0    0    0  501  0.00000000000E+00  0.00000000000E+00  0.27747558447E+04  0.27747558447E+04  0.25500000920E-02 0. -1.
        2   -1    0    0  501    0  0.00000000000E+00  0.00000000000E+00 -0.13012343562E+04  0.13012343562E+04  0.25500000920E-02 0.  1.
    10030    2    1    2    0    0  0.00000000000E+00  0.00000000000E+00  0.14735214885E+04  0.40759902009E+04  0.38003197946E+04 0.  0.
        3    1    3    3  502    0 -0.17556859493E+04  0.39583583711E+03  0.83049955573E+02  0.18016704660E+04  0.10100000352E+00 0.  1.
       -3    1    3    3    0  502  0.17556859493E+04 -0.39583583711E+03  0.13904715329E+04  0.22743197349E+04  0.10100000352E+00 0. -1.
</event>
<event>
 5   0  0.4071750E-09  0.3798238E+04  0.7818609E-02  0.8046533E-01
       -1   -1    0    0    0  501  0.00000000000E+00  0.00000000000E+00  0.22575423803E+04  0.22575423803E+04  0.50400001928E-02 0. -1.
        1   -1    0    0  501    0  0.00000000000E+00  0.00000000000E+00 -0.15976017228E+04  0.15976017228E+04  0.50400001928E-02 0.  1.
    10030    2    1    2    0    0  0.00000000000E+00  0.00000000000E+00  0.65994065751E+03  0.38551441031E+04  0.37982383264E+04 0.  0.
        1    1    3    3  502    0 -0.18446744274E+03  0.64988012994E+03  0.21314653394E+04  0.22359599536E+04  0.50400001928E-02 0. -1.
       -1    1    3    3    0  502  0.18446744274E+03 -0.64988012994E+03 -0.14715246819E+04  0.16191841496E+04  0.50400001928E-02 0.  1.
</event>
<event>
 5   0  0.4071750E-09  0.3799913E+04  0.7818609E-02  0.8046174E-01
       -1   -1    0    0    0  501  0.00000000000E+00  0.00000000000E+00  0.12208263225E+04  0.12208263225E+04  0.50400001928E-02 0.  1.
        1   -1    0    0  501    0  0.00000000000E+00  0.00000000000E+00 -0.29568774054E+04  0.29568774054E+04  0.50400001928E-02 0. -1.
    10030    2    1    2    0    0  0.00000000000E+00  0.00000000000E+00 -0.17360510829E+04  0.41777037279E+04  0.37999125089E+04 0.  0.
        1    1    3    3  502    0  0.18675269494E+04  0.31052749994E+03 -0.10444459107E+04  0.21621636144E+04  0.50400001928E-02 0. -1.
       -1    1    3    3    0  502 -0.18675269494E+04 -0.31052749994E+03 -0.69160517224E+03  0.20155401135E+04  0.50400001928E-02 0.  1.
</event>
<event>
 5   0  0.1261152E-08  0.3800286E+04  0.7818609E-02  0.8046094E-01
        2   -1    0    0  501    0  0.00000000000E+00  0.00000000000E+00  0.20795610175E+04  0.20795610175E+04  0.25500000920E-02 0. -1.
       -2   -1    0    0    0  501  0.00000000000E+00  0.00000000000E+00 -0.17362044391E+04  0.17362044391E+04  0.25500000920E-02 0.  1.
    10030    2    1    2    0    0  0.00000000000E+00  0.00000000000E+00  0.34335657833E+03  0.38157654566E+04  0.38002858155E+04 0.  0.
        2    1    3    3  502    0  0.63459125735E+03 -0.11398933867E+04  0.15587829349E+04  0.20326994945E+04  0.25500000920E-02 0. -1.
       -2    1    3    3    0  502 -0.63459125735E+03  0.11398933867E+04 -0.12154263565E+04  0.17830659621E+04  0.25500000920E-02 0.  1.
</event>
<event>
 5   0  0.1264013E-08  0.3799441E+04  0.7818609E-02  0.8046275E-01
       -2   -1    0    0    0  501  0.00000000000E+00  0.00000000000E+00  0.15904128180E+04  0.15904128180E+04  0.25500000920E-02 0.  1.
        2   -1    0    0  501    0  0.00000000000E+00  0.00000000000E+00 -0.22691834551E+04  0.22691834551E+04  0.25500000920E-02 0. -1.
    10030    2    1    2    0    0  0.00000000000E+00  0.00000000000E+00 -0.67877063707E+03  0.38595962731E+04  0.37994412502E+04 0.  0.
        4    1    3    3  502    0 -0.60766834143E+03  0.58000104937E+03  0.13914917246E+04  0.16253962173E+04  0.12699999809E+01 0.  1.
       -4    1    3    3    0  502  0.60766834143E+03 -0.58000104937E+03 -0.20702623617E+04  0.22342000559E+04  0.12699999809E+01 0. -1.
</event>
<event>
 5   0  0.4071750E-09  0.3800361E+04  0.7818609E-02  0.8046077E-01
       -1   -1    0    0    0  501  0.00000000000E+00  0.00000000000E+00  0.24772133731E+04  0.24772133731E+04  0.50400001928E-02 0.  1.
        1   -1    0    0  501    0  0.00000000000E+00  0.00000000000E+00 -0.14575594378E+04  0.14575594379E+04  0.50400001928E-02 0. -1.
    10030    2    1    2    0    0  0.00000000000E+00  0.00000000000E+00  0.10196539352E+04  0.39347728110E+04  0.38003608942E+04 0.  0.
        5    1    3    3  502    0 -0.82025487063E+03  0.16125401381E+04  0.11113749032E+04  0.21232710649E+04  0.46999998093E+01 0. -1.
       -5    1    3    3    0  502  0.82025487063E+03 -0.16125401381E+04 -0.91720967915E+02  0.18115017460E+04  0.46999998093E+01 0.  1.
</event>
<event>
 5   0  0.1264013E-08  0.3796949E+04  0.7818609E-02  0.8046810E-01
        2   -1    0    0  501    0  0.00000000000E+00  0.00000000000E+00  0.10501808466E+04  0.10501808466E+04  0.25500000920E-02 0. -1.
       -2   -1    0    0    0  501  0.00000000000E+00  0.00000000000E+00 -0.34319858794E+04  0.34319858794E+04  0.25500000920E-02 0.  1.
    10030    2    1    2    0    0  0.00000000000E+00  0.00000000000E+00 -0.23818050327E+04  0.44821667260E+04  0.37969492156E+04 0.  0.
        4    1    3    3  502    0 -0.76700601445E+03 -0.14984440109E+04 -0.15466406812E+03  0.16904304975E+04  0.12699999809E+01 0. -1.
       -4    1    3    3    0  502  0.76700601445E+03  0.14984440109E+04 -0.22271409646E+04  0.27917362285E+04  0.12699999809E+01 0.  1.
</event>
<event>
 5   0  0.4071750E-09  0.3797828E+04  0.7818609E-02  0.8046621E-01
        1   -1    0    0  501    0  0.00000000000E+00  0.00000000000E+00  0.10710094146E+04  0.10710094146E+04  0.50400001928E-02 0.  1.
       -1   -1    0    0    0  501  0.00000000000E+00  0.00000000000E+00 -0.33667990642E+04  0.33667990642E+04  0.50400001928E-02 0. -1.
    10030    2    1    2    0    0  0.00000000000E+00  0.00000000000E+00 -0.22957896496E+04  0.44378084789E+04  0.37978275343E+04 0.  0.
        5    1    3    3  502    0 -0.15040359402E+04 -0.59410929316E+03 -0.23109969931E+04  0.28206061678E+04  0.46999998093E+01 0. -1.
       -5    1    3    3    0  502  0.15040359402E+04  0.59410929316E+03  0.15207343511E+02  0.16172023111E+04  0.46999998093E+01 0.  1.
</event>
<event>
 5   0  0.4071750E-09  0.3799527E+04  0.7818609E-02  0.8046256E-01
        1   -1    0    0  501    0  0.00000000000E+00  0.00000000000E+00  0.27417998867E+04  0.27417998867E+04  0.50400001928E-02 0. -1.
       -1   -1    0    0    0  501  0.00000000000E+00  0.00000000000E+00 -0.13163253146E+04  0.13163253146E+04  0.50400001928E-02 0.  1.
    10030    2    1    2    0    0  0.00000000000E+00  0.00000000000E+00  0.14254745720E+04  0.40581252013E+04  0.37995266013E+04 0.  0.
        4    1    3    3  502    0  0.75404894867E+03  0.17316532027E+04  0.49414630853E+03  0.19522793905E+04  0.12699999809E+01 0.  1.
       -4    1    3    3    0  502 -0.75404894867E+03 -0.17316532027E+04  0.93132826350E+03  0.21058458108E+04  0.12699999809E+01 0. -1.
</event>
<event>
 5   0  0.4071750E-09  0.3799719E+04  0.7818609E-02  0.8046215E-01
       -1   -1    0    0    0  501  0.00000000000E+00  0.00000000000E+00  0.15291671493E+04  0.15291671493E+04  0.50400001928E-02 0.  1.
        1   -1    0    0  501    0  0.00000000000E+00  0.00000000000E+00 -0.23604133595E+04  0.23604133595E+04  0.50400001928E-02 0. -1.
    10030    2    1    2    0    0  0.00000000000E+00  0.00000000000E+00 -0.83124621017E+03  0.38895805088E+04  0.37997192360E+04 0.  0.
        1    1    3    3  502    0  0.15359881441E+04 -0.10975437043E+04 -0.63422633086E+03  0.19915081723E+04  0.50400001928E-02 0. -1.
       -1    1    3    3    0  502 -0.15359881441E+04  0.10975437043E+04 -0.19701987931E+03  0.18980723365E+04  0.50400001928E-02 0.  1.
</event>
<event>
 5   0  0.4071750E-09  0.3800727E+04  0.7818609E-02  0.8045999E-01
       -1   -1    0    0    0  501  0.00000000000E+00  0.00000000000E+00  0.23036211264E+04  0.23036211264E+04  0.50400001928E-02 0.  1.
        1   -1    0    0  501    0  0.00000000000E+00  0.00000000000E+00 -0.15676977313E+04  0.15676977313E+04  0.50400001928E-02 0. -1.
    10030    2    1    2    0    0  0.00000000000E+00  0.00000000000E+00  0.73592339512E+03  0.38713188577E+04  0.38007270955E+04 0.  0.
        1    1    3    3  502    0 -0.83429176410E+03  0.15528476604E+04 -0.35515571763E+03  0.17981974830E+04  0.50400001928E-02 0. -1.
       -1    1    3    3    0  502  0.83429176410E+03 -0.15528476604E+04  0.10910791127E+04  0.20731213747E+04  0.50400001928E-02 0.  1.
</event>
<event>
 5   0  0.4071750E-09  0.3800634E+04  0.7818609E-02  0.8046019E-01
       -1   -1    0    0    0  501  0.00000000000E+00  0.00000000000E+00  0.16419271864E+04  0.16419271864E+04  0.50400001928E-02 0. -1.
        1   -1    0    0  501    0  0.00000000000E+00  0.00000000000E+00 -0.21993700697E+04  0.21993700697E+04  0.50400001928E-02 0.  1.
    10030    2    1    2    0    0  0.00000000000E+00  0.00000000000E+00 -0.55744288335E+03  0.38412972561E+04  0.38006344262E+04 0.  0.
        1    1    3    3  502    0  0.87992424392E+03 -0.12593991152E+04 -0.14091025847E+04  0.20846877226E+04  0.50400001928E-02 0.  1.
       -1    1    3    3    0  502 -0.87992424392E+03  0.12593991152E+04  0.85165970132E+03  0.17566095336E+04  0.50400001928E-02 0. -1.
</event>
<event>
 5   0  0.4071750E-09  0.3799074E+04  0.7818609E-02  0.8046354E-01
        1   -1    0    0  501    0  0.00000000000E+00  0.00000000000E+00  0.22840539661E+04  0.22840539661E+04  0.50400001928E-02 0. -1.
       -1   -1    0    0    0  501  0.00000000000E+00  0.00000000000E+00 -0.15797528003E+04  0.15797528003E+04  0.50400001928E-02 0.  1.
    10030    2    1    2    0    0  0.00000000000E+00  0.00000000000E+00  0.70430116577E+03  0.38638067664E+04  0.37990739130E+04 0.  0.
        2    1    3    3  502    0  0.13647029087E+04  0.11373973797E+04 -0.33173076363E+03  0.18072443465E+04  0.25500000920E-02 0. -1.
       -2    1    3    3    0  502 -0.13647029087E+04 -0.11373973797E+04  0.10360319294E+04  0.20565624199E+04  0.25500000920E-02 0.  1.
</event>
<event>
 5   0  0.4071750E-09  0.3800502E+04  0.7818609E-02  0.8046047E-01
        1   -1    0    0  501    0  0.00000000000E+00  0.00000000000E+00  0.14081769876E+04  0.14081769876E+04  0.50400001928E-02 0. -1.
       -1   -1    0    0    0  501  0.00000000000E+00  0.00000000000E+00 -0.25642761124E+04  0.25642761124E+04  0.50400001928E-02 0.  1.
    10030    2    1    2    0    0  0.00000000000E+00  0.00000000000E+00 -0.11560991248E+04  0.39724531000E+04  0.38005023938E+04 0.  0.
        5    1    3    3  502    0  0.97565882135E+02  0.33863064694E+03  0.13737163041E+04  0.14182060465E+04  0.46999998093E+01 0. -1.
       -5    1    3    3    0  502 -0.97565882135E+02 -0.33863064694E+03 -0.25298154288E+04  0.25542470535E+04  0.46999998093E+01 0.  1.
</event>
<event>
 5   0  0.1305088E-08  0.3802888E+04  0.7818609E-02  0.8045535E-01
       -2   -1    0    0    0  501  0.00000000000E+00  0.00000000000E+00  0.13230973409E+04  0.13230973409E+04  0.25500000920E-02 0. -1.
        2   -1    0    0  501    0  0.00000000000E+00  0.00000000000E+00 -0.27325949495E+04  0.27325949495E+04  0.25500000920E-02 0.  1.
    10030    2    1    2    0    0  0.00000000000E+00  0.00000000000E+00 -0.14094976086E+04  0.40556922904E+04  0.38028879087E+04 0.  0.
        3    1    3    3  502    0  0.84952975027E+03  0.13446919665E+04  0.40643205975E+03  0.16416711944E+04  0.10100000352E+00 0.  1.
       -3    1    3    3    0  502 -0.84952975027E+03 -0.13446919665E+04 -0.18159296684E+04  0.24140210960E+04  0.10100000352E+00 0. -1.
</event>
<event>
 5   0  0.4071750E-09  0.3800694E+04  0.7818609E-02  0.8046006E-01
       -1   -1    0    0    0  501  0.00000000000E+00  0.00000000000E+00  0.21737790028E+04  0.21737790028E+04  0.50400001928E-02 0. -1.
        1   -1    0    0  501    0  0.00000000000E+00  0.00000000000E+00 -0.16613094345E+04  0.16613094346E+04  0.50400001928E-02 0.  1.
    10030    2    1    2    0    0  0.00000000000E+00  0.00000000000E+00  0.51246956828E+03  0.38350884374E+04  0.38006944450E+04 0.  0.
        3    1    3    3  502    0  0.18853759687E+04  0.77316057963E+02  0.29032260901E+02  0.18871839334E+04  0.10100000352E+00 0. -1.
       -3    1    3    3    0  502 -0.18853759687E+04 -0.77316057963E+02  0.48343730738E+03  0.19479045040E+04  0.10100000352E+00 0.  1.
</event>
<event>
 5   0  0.4071750E-09  0.3803330E+04  0.7818609E-02  0.8045441E-01
        1   -1    0    0  501    0  0.00000000000E+00  0.00000000000E+00  0.17831916170E+04  0.17831916171E+04  0.50400001928E-02 0.  1.
       -1   -1    0    0    0  501  0.00000000000E+00  0.00000000000E+00 -0.20280095908E+04  0.20280095908E+04  0.50400001928E-02 0. -1.
    10030    2    1    2    0    0  0.00000000000E+00  0.00000000000E+00 -0.24481797374E+03  0.38112012078E+04  0.38033299629E+04 0.  0.
        2    1    3    3  502    0  0.87341405993E+03 -0.85394391736E+03 -0.15829085762E+04  0.19994178890E+04  0.25500000920E-02 0. -1.
       -2    1    3    3    0  502 -0.87341405993E+03  0.85394391736E+03  0.13380906025E+04  0.18117833189E+04  0.25500000920E-02 0.  1.
</event>
<event>
 5   0  0.1293993E-08  0.3802718E+04  0.7818609E-02  0.8045572E-01
        2   -1    0    0  501    0  0.00000000000E+00  0.00000000000E+00  0.20199199260E+04  0.20199199260E+04  0.25500000920E-02 0. -1.
       -2   -1    0    0    0  501  0.00000000000E+00  0.00000000000E+00 -0.17897571889E+04  0.17897571889E+04  0.25500000920E-02 0.  1.
    10030    2    1    2    0    0  0.00000000000E+00  0.00000000000E+00  0.23016273710E+03  0.38096771150E+04  0.38027180851E+04 0.  0.
        5    1    3    3  502    0 -0.64534137011E+02 -0.16966020680E+04 -0.74235923447E+03  0.18530360372E+04  0.46999998093E+01 0.  1.
       -5    1    3    3    0  502  0.64534137011E+02  0.16966020680E+04  0.97252197158E+03  0.19566410778E+04  0.46999998093E+01 0. -1.
</event>
<event>
 5   0  0.1305088E-08  0.3800236E+04  0.7818609E-02  0.8046104E-01
        2   -1    0    0  501    0  0.00000000000E+00  0.00000000000E+00  0.13397658793E+04  0.13397658793E+04  0.25500000920E-02 0. -1.
       -2   -1    0    0    0  501  0.00000000000E+00  0.00000000000E+00 -0.26948346513E+04  0.26948346513E+04  0.25500000920E-02 0.  1.
    10030    2    1    2    0    0  0.00000000000E+00  0.00000000000E+00 -0.13550687720E+04  0.40346005306E+04  0.38002355275E+04 0.  0.
        3    1    3    3  502    0 -0.99137624244E+03  0.10471079740E+04  0.63618901964E+03  0.15760705702E+04  0.10100000352E+00 0. -1.
       -3    1    3    3    0  502  0.99137624244E+03 -0.10471079740E+04 -0.19912577916E+04  0.24585299604E+04  0.10100000352E+00 0.  1.
</event>
<event>
 5   0  0.4071750E-09  0.3801106E+04  0.7818609E-02  0.8045918E-01
        1   -1    0    0  501    0  0.00000000000E+00  0.00000000000E+00  0.28839216419E+04  0.28839216419E+04  0.50400001928E-02 0.  1.
       -1   -1    0    0    0  501  0.00000000000E+00  0.00000000000E+00 -0.12524966896E+04  0.12524966896E+04  0.50400001928E-02 0. -1.
    10030    2    1    2    0    0  0.00000000000E+00  0.00000000000E+00  0.16314249523E+04  0.41364183315E+04  0.38011063177E+04 0.  0.
        1    1    3    3  502    0  0.14145356506E+04  0.83666808375E+03 -0.22304935460E+03  0.16585160848E+04  0.50400001928E-02 0. -1.
       -1    1    3    3    0  502 -0.14145356506E+04 -0.83666808375E+03  0.18544743069E+04  0.24779022467E+04  0.50400001928E-02 0.  1.
</event>
<event>
 5   0  0.1264013E-08  0.3799441E+04  0.7818609E-02  0.8046275E-01
       -2   -1    0    0    0  501  0.00000000000E+00  0.00000000000E+00  0.19749519036E+04  0.19749519036E+04  0.25500000920E-02 0. -1.
        2   -1    0    0  501    0  0.00000000000E+00  0.00000000000E+00 -0.18273551358E+04  0.18273551358E+04  0.25500000920E-02 0.  1.
    10030    2    1    2    0    0  0.00000000000E+00  0.00000000000E+00  0.14759676780E+03  0.38023070394E+04  0.37994412768E+04 0.  0.
        4    1    3    3  502    0  0.17946997007E+04  0.55128234698E+03 -0.21638178410E+03  0.18898893965E+04  0.12699999809E+01 0.  1.
       -4    1    3    3    0  502 -0.17946997007E+04 -0.55128234698E+03  0.36397855190E+03  0.19124176429E+04  0.12699999809E+01 0. -1.
</event>
<event>
 5   0  0.1327249E-08  0.3799905E+04  0.7818609E-02  0.8046175E-01
        2   -1    0    0  501    0  0.00000000000E+00  0.00000000000E+00  0.30235206580E+04  0.30235206580E+04  0.25500000920E-02 0.  1.
       -2   -1    0    0    0  501  0.00000000000E+00  0.00000000000E+00 -0.11939127600E+04  0.11939127600E+04  0.25500000920E-02 0. -1.
    10030    2    1    2    0    0  0.00000000000E+00  0.00000000000E+00  0.18296078980E+04  0.42174334180E+04  0.37999052060E+04 0.  0.
        1    1    3    3  502    0  0.32367486875E+03  0.62166697207E+02 -0.11619416463E+04  0.12077824756E+04  0.50400001928E-02 0. -1.
       -1    1    3    3    0  502 -0.32367486875E+03 -0.62166697207E+02  0.29915495443E+04  0.30096509424E+04  0.50400001928E-02 0.  1.
</event>
<event>
 5   0  0.1305088E-08  0.3798171E+04  0.7818609E-02  0.8046548E-01
        2   -1    0    0  501    0  0.00000000000E+00  0.00000000000E+00  0.24019848923E+04  0.24019848923E+04  0.25500000920E-02 0.  1.
       -2   -1    0    0    0  501  0.00000000000E+00  0.00000000000E+00 -0.15014771893E+04  0.15014771893E+04  0.25500000920E-02 0. -1.
    10030    2    1    2    0    0  0.00000000000E+00  0.00000000000E+00  0.90050770300E+03  0.39034620816E+04  0.37981708886E+04 0.  0.
        3    1    3    3  502    0 -0.16481496806E+04 -0.53904619429E+03  0.12460298353E+04  0.21353122793E+04  0.10100000352E+00 0.  1.
       -3    1    3    3    0  502  0.16481496806E+04  0.53904619429E+03 -0.34552213227E+03  0.17681498023E+04  0.10100000352E+00 0. -1.
</event>
<event>
 5   0  0.4071750E-09  0.3796251E+04  0.7818609E-02  0.8046960E-01
        1   -1    0    0  501    0  0.00000000000E+00  0.00000000000E+00  0.27434173646E+04  0.27434173646E+04  0.50400001928E-02 0.  1.
       -1   -1    0    0    0  501  0.00000000000E+00  0.00000000000E+00 -0.13132816558E+04  0.13132816558E+04  0.50400001928E-02 0. -1.
    10030    2    1    2    0    0  0.00000000000E+00  0.00000000000E+00  0.14301357087E+04  0.40566990204E+04  0.37962506236E+04 0.  0.
        5    1    3    3  502    0  0.13957799664E+04  0.33484344690E+03 -0.61212957390E+03  0.15604635701E+04  0.46999998093E+01 0. -1.
       -5    1    3    3    0  502 -0.13957799664E+04 -0.33484344690E+03  0.20422652826E+04  0.24962354503E+04  0.46999998093E+01 0.  1.
</event>
<event>
 5   0  0.4071750E-09  0.3800841E+04  0.7818609E-02  0.8045974E-01
       -1   -1    0    0    0  501  0.00000000000E+00  0.00000000000E+00  0.16921081136E+04  0.16921081136E+04  0.50400001928E-02 0.  1.
        1   -1    0    0  501    0  0.00000000000E+00  0.00000000000E+00 -0.21343780714E+04  0.21343780714E+04  0.50400001928E-02 0. -1.
    10030    2    1    2    0    0  0.00000000000E+00  0.00000000000E+00 -0.44226995779E+03  0.38264861850E+04  0.38008411975E+04 0.  0.
        2    1    3    3  502    0  0.32261526363E+03 -0.13596310803E+04 -0.15178164334E+04  0.20631151225E+04  0.25500000920E-02 0. -1.
       -2    1    3    3    0  502 -0.32261526363E+03  0.13596310803E+04  0.10755464756E+04  0.17633710625E+04  0.25500000920E-02 0.  1.
</event>
<event>
 5   0  0.4071750E-09  0.3799044E+04  0.7818609E-02  0.8046360E-01
       -1   -1    0    0    0  501  0.00000000000E+00  0.00000000000E+00  0.28552041073E+04  0.28552041073E+04  0.50400001928E-02 0. -1.
        1   -1    0    0  501    0  0.00000000000E+00  0.00000000000E+00 -0.12637219463E+04  0.12637219463E+04  0.50400001928E-02 0.  1.
    10030    2    1    2    0    0  0.00000000000E+00  0.00000000000E+00  0.15914821610E+04  0.41189260536E+04  0.37990441385E+04 0.  0.
        3    1    3    3  502    0  0.10765782688E+04  0.98495371534E+03 -0.52281338139E+03  0.15499962684E+04  0.10100000352E+00 0.  1.
       -3    1    3    3    0  502 -0.10765782688E+04 -0.98495371534E+03  0.21142955424E+04  0.25689297851E+04  0.10100000352E+00 0. -1.
</event>
<event>
 5   0  0.1261152E-08  0.3801548E+04  0.7818609E-02  0.8045823E-01
        2   -1    0    0  501    0  0.00000000000E+00  0.00000000000E+00  0.20462904335E+04  0.20462904335E+04  0.25500000920E-02 0. -1.
       -2   -1    0    0    0  501  0.00000000000E+00  0.00000000000E+00 -0.17656055556E+04  0.17656055556E+04  0.25500000920E-02 0.  1.
    10030    2    1    2    0    0  0.00000000000E+00  0.00000000000E+00  0.28068487783E+03  0.38118959891E+04  0.38015479783E+04 0.  0.
        2    1    3    3  502    0  0.13175779326E+04 -0.13365393242E+04 -0.16146321348E+03  0.18837248586E+04  0.25500000920E-02 0.  1.
       -2    1    3    3    0  502 -0.13175779326E+04  0.13365393242E+04  0.44214809132E+03  0.19281711305E+04  0.25500000920E-02 0. -1.
</event>
<event>
 5   0  0.1264013E-08  0.3799038E+04  0.7818609E-02  0.8046361E-01
       -2   -1    0    0    0  501  0.00000000000E+00  0.00000000000E+00  0.18730019780E+04  0.18730019780E+04  0.25500000920E-02 0.  1.
        2   -1    0    0  501    0  0.00000000000E+00  0.00000000000E+00 -0.19264114362E+04  0.19264114362E+04  0.25500000920E-02 0. -1.
    10030    2    1    2    0    0  0.00000000000E+00  0.00000000000E+00 -0.53409458216E+02  0.37994134143E+04  0.37990379996E+04 0.  0.
        4    1    3    3  502    0 -0.82163950335E+02  0.10602924794E+04  0.15473630492E+04  0.18775795791E+04  0.12699999809E+01 0.  1.
       -4    1    3    3    0  502  0.82163950335E+02 -0.10602924794E+04 -0.16007725074E+04  0.19218338352E+04  0.12699999809E+01 0. -1.
</event>
<event>
 5   0  0.4071750E-09  0.3798678E+04  0.7818609E-02  0.8046439E-01
       -1   -1    0    0    0  501  0.00000000000E+00  0.00000000000E+00  0.12688412052E+04  0.12688412052E+04  0.50400001928E-02 0.  1.
        1   -1    0    0  501    0  0.00000000000E+00  0.00000000000E+00 -0.28431357940E+04  0.28431357940E+04  0.50400001928E-02 0. -1.
    10030    2    1    2    0    0  0.00000000000E+00  0.00000000000E+00 -0.15742945889E+04  0.41119769992E+04  0.37986775844E+04 0.  0.
        2    1    3    3  502    0 -0.17591367833E+04 -0.68997417267E+03 -0.57931962549E+03  0.19764204537E+04  0.25500000920E-02 0. -1.
       -2    1    3    3    0  502  0.17591367833E+04  0.68997417267E+03 -0.99497496336E+03  0.21355565455E+04  0.25500000920E-02 0.  1.
</event>
<event>
 5   0  0.4071750E-09  0.3798173E+04  0.7818609E-02  0.8046547E-01
       -1   -1    0    0    0  501  0.00000000000E+00  0.00000000000E+00  0.35110952010E+04  0.35110952010E+04  0.50400001928E-02 0. -1.
        1   -1    0    0  501    0  0.00000000000E+00  0.00000000000E+00 -0.10271806130E+04  0.10271806130E+04  0.50400001928E-02 0.  1.
    10030    2    1    2    0    0  0.00000000000E+00  0.00000000000E+00  0.24839145880E+04  0.45382758140E+04  0.37981726768E+04 0.  0.
        5    1    3    3  502    0  0.13507747716E+04 -0.16024500282E+03 -0.34150455772E+03  0.14024686797E+04  0.46999998093E+01 0.  1.
       -5    1    3    3    0  502 -0.13507747716E+04  0.16024500282E+03  0.28254191457E+04  0.31358071343E+04  0.46999998093E+01 0. -1.
</event>
<event>
 5   0  0.4071750E-09  0.3800741E+04  0.7818609E-02  0.8045996E-01
        1   -1    0    0  501    0  0.00000000000E+00  0.00000000000E+00  0.16112279096E+04  0.16112279096E+04  0.50400001928E-02 0. -1.
       -1   -1    0    0    0  501  0.00000000000E+00  0.00000000000E+00 -0.22414011321E+04  0.22414011321E+04  0.50400001928E-02 0.  1.
    10030    2    1    2    0    0  0.00000000000E+00  0.00000000000E+00 -0.63017322254E+03  0.38526290417E+04  0.38007410123E+04 0.  0.
        2    1    3    3  502    0 -0.12174288315E+04 -0.13006051101E+04  0.35553556209E+03  0.18166210799E+04  0.25500000920E-02 0. -1.
       -2    1    3    3    0  502  0.12174288315E+04  0.13006051101E+04 -0.98570878463E+03  0.20360079617E+04  0.25500000920E-02 0.  1.
</event>
<event>
 5   0  0.1261152E-08  0.3797069E+04  0.7818609E-02  0.8046784E-01
        2   -1    0    0  501    0  0.00000000000E+00  0.00000000000E+00  0.17152564132E+04  0.17152564132E+04  0.25500000920E-02 0. -1.
       -2   -1    0    0    0  501  0.00000000000E+00  0.00000000000E+00 -0.21013965126E+04  0.21013965126E+04  0.25500000920E-02 0.  1.
    10030    2    1    2    0    0  0.00000000000E+00  0.00000000000E+00 -0.38614009941E+03  0.38166529258E+04  0.37970693146E+04 0.  0.
        2    1    3    3  502    0 -0.17500193145E+04  0.48831149544E+03 -0.74674503777E+03  0.19643431139E+04  0.25500000920E-02 0. -1.
       -2    1    3    3    0  502  0.17500193145E+04 -0.48831149544E+03  0.36060493837E+03  0.18523098119E+04  0.25500000920E-02 0.  1.
</event>
<event>
 5   0  0.1305088E-08  0.3800809E+04  0.7818609E-02  0.8045981E-01
        2   -1    0    0  501    0  0.00000000000E+00  0.00000000000E+00  0.24723515166E+04  0.24723515166E+04  0.25500000920E-02 0.  1.
       -2   -1    0    0    0  501  0.00000000000E+00  0.00000000000E+00 -0.14607702749E+04  0.14607702749E+04  0.25500000920E-02 0. -1.
    10030    2    1    2    0    0  0.00000000000E+00  0.00000000000E+00  0.10115812417E+04  0.39331217914E+04  0.38008091793E+04 0.  0.
        3    1    3    3  502    0 -0.12709497538E+03  0.12679375420E+04  0.19647352406E+04  0.23417948926E+04  0.10100000352E+00 0.  1.
       -3    1    3    3    0  502  0.12709497538E+03 -0.12679375420E+04 -0.95315399885E+03  0.15913268988E+04  0.10100000352E+00 0. -1.
</event>
<event>
 5   0  0.1261152E-08  0.3800538E+04  0.7818609E-02  0.8046040E-01
       -2   -1    0    0    0  501  0.00000000000E+00  0.00000000000E+00  0.11659939058E+04  0.11659939058E+04  0.25500000920E-02 0. -1.
        2   -1    0    0  501    0  0.00000000000E+00  0.00000000000E+00 -0.30969471840E+04  0.30969471840E+04  0.25500000920E-02 0.  1.
    10030    2    1    2    0    0  0.00000000000E+00  0.00000000000E+00 -0.19309532782E+04  0.42629410899E+04  0.38005376163E+04 0.  0.
        2    1    3    3  502    0 -0.10478822387E+03  0.61076815743E+03  0.10494720708E+04  0.12187739501E+04  0.25500000920E-02 0. -1.
       -2    1    3    3    0  502  0.10478822387E+03 -0.61076815743E+03 -0.29804253490E+04  0.30441671398E+04  0.25500000920E-02 0.  1.
</event>
<event>
 5   0  0.4071750E-09  0.3799612E+04  0.7818609E-02  0.8046238E-01
       -1   -1    0    0    0  501  0.00000000000E+00  0.00000000000E+00  0.18997294557E+04  0.18997294557E+04  0.50400001928E-02 0. -1.
        1   -1    0    0  501    0  0.00000000000E+00  0.00000000000E+00 -0.18998826570E+04  0.18998826570E+04  0.50400001928E-02 0.  1.
    10030    2    1    2    0    0  0.00000000000E+00  0.00000000000E+00 -0.15320123805E+00  0.37996121127E+04  0.37996121096E+04 0.  0.
        3    1    3    3  502    0  0.10804057055E+04 -0.10751152134E+04  0.11339929859E+04  0.18997603304E+04  0.10100000352E+00 0. -1.
       -3    1    3    3    0  502 -0.10804057055E+04  0.10751152134E+04 -0.11341461871E+04  0.18998517823E+04  0.10100000352E+00 0.  1.
</event>
<event>
 5   0  0.4071750E-09  0.3805550E+04  0.7818609E-02  0.8044965E-01
       -1   -1    0    0    0  501  0.00000000000E+00  0.00000000000E+00  0.19896639657E+04  0.19896639657E+04  0.50400001928E-02 0. -1.
        1   -1    0    0  501    0  0.00000000000E+00  0.00000000000E+00 -0.18196806150E+04  0.18196806150E+04  0.50400001928E-02 0.  1.
    10030    2    1    2    0    0  0.00000000000E+00  0.00000000000E+00  0.16998335072E+03  0.38093445807E+04  0.38055501304E+04 0.  0.
        5    1    3    3  502    0 -0.10713955098E+04 -0.33035023275E+03  0.16238961002E+04  0.19733424054E+04  0.46999998093E+01 0. -1.
       -5    1    3    3    0  502  0.10713955098E+04  0.33035023275E+03 -0.14539127495E+04  0.18360021753E+04  0.46999998093E+01 0.  1.
</event>
<event>
 5   0  0.1293993E-08  0.3797472E+04  0.7818609E-02  0.8046698E-01
       -2   -1    0    0    0  501  0.00000000000E+00  0.00000000000E+00  0.26345562731E+04  0.26345562731E+04  0.25500000920E-02 0.  1.
        2   -1    0    0  501    0  0.00000000000E+00  0.00000000000E+00 -0.13684268562E+04  0.13684268562E+04  0.25500000920E-02 0. -1.
    10030    2    1    2    0    0  0.00000000000E+00  0.00000000000E+00  0.12661294169E+04  0.40029831293E+04  0.37974715579E+04 0.  0.
        5    1    3    3  502    0  0.12896870150E+03  0.91229590885E+03  0.23831097247E+04  0.25550246185E+04  0.46999998093E+01 0.  1.
       -5    1    3    3    0  502 -0.12896870150E+03 -0.91229590885E+03 -0.11169803077E+04  0.14479585108E+04  0.46999998093E+01 0. -1.
</event>
<event>
 5   0  0.4071750E-09  0.3800266E+04  0.7818609E-02  0.8046098E-01
        1   -1    0    0  501    0  0.00000000000E+00  0.00000000000E+00  0.27823381498E+04  0.27823381498E+04  0.50400001928E-02 0. -1.
       -1   -1    0    0    0  501  0.00000000000E+00  0.00000000000E+00 -0.12976515327E+04  0.12976515327E+04  0.50400001928E-02 0.  1.
    10030    2    1    2    0    0  0.00000000000E+00  0.00000000000E+00  0.14846866171E+04  0.40799896826E+04  0.38002659721E+04 0.  0.
        5    1    3    3  502    0  0.82408664664E+02  0.11950817028E+04 -0.84117030702E+03  0.14637626309E+04  0.46999998093E+01 0.  1.
       -5    1    3    3    0  502 -0.82408664664E+02 -0.11950817028E+04  0.23258569241E+04  0.26162270516E+04  0.46999998093E+01 0. -1.
</event>
<event>
 5   0  0.4071750E-09  0.3798860E+04  0.7818609E-02  0.8046400E-01
        1   -1    0    0  501    0  0.00000000000E+00  0.00000000000E+00  0.19768284248E+04  0.19768284248E+04  0.50400001928E-02 0.  1.
       -1   -1    0    0    0  501  0.00000000000E+00  0.00000000000E+00 -0.18250616913E+04  0.18250616913E+04  0.50400001928E-02 0. -1.
    10030    2    1    2    0    0  0.00000000000E+00  0.00000000000E+00  0.15176673357E+03  0.38018901161E+04  0.37988597386E+04 0.  0.
        2    1    3    3  502    0  0.75751179713E+03 -0.14968529385E+04 -0.81558023773E+03  0.18653589377E+04  0.25500000920E-02 0. -1.
       -2    1    3    3    0  502 -0.75751179713E+03  0.14968529385E+04  0.96734697130E+03  0.19365311784E+04  0.25500000920E-02 0.  1.
</event>
<event>
 5   0  0.1293993E-08  0.3799786E+04  0.7818609E-02  0.8046201E-01
        2   -1    0    0  501    0  0.00000000000E+00  0.00000000000E+00  0.14591848646E+04  0.14591848646E+04  0.25500000920E-02 0. -1.
       -2   -1    0    0    0  501  0.00000000000E+00  0.00000000000E+00 -0.24737052095E+04  0.24737052095E+04  0.25500000920E-02 0.  1.
    10030    2    1    2    0    0  0.00000000000E+00  0.00000000000E+00 -0.10145203449E+04  0.39328900741E+04  0.37997858893E+04 0.  0.
        5    1    3    3  502    0 -0.13007850039E+04  0.10176632361E+03 -0.19366402955E+04  0.23351650338E+04  0.46999998093E+01 0.  1.
       -5    1    3    3    0  502  0.13007850039E+04 -0.10176632361E+03  0.92211995063E+03  0.15977250403E+04  0.46999998093E+01 0. -1.
</event>
<event>
 5   0  0.4071750E-09  0.3806301E+04  0.7818609E-02  0.8044804E-01
        1   -1    0    0  501    0  0.00000000000E+00  0.00000000000E+00  0.16004675269E+04  0.16004675270E+04  0.50400001928E-02 0. -1.
       -1   -1    0    0    0  501  0.00000000000E+00  0.00000000000E+00 -0.22630768248E+04  0.22630768248E+04  0.50400001928E-02 0.  1.
    10030    2    1    2    0    0  0.00000000000E+00  0.00000000000E+00 -0.66260929789E+03  0.38635443518E+04  0.38063005500E+04 0.  0.
        1    1    3    3  502    0 -0.12448298675E+04 -0.10726008088E+04 -0.13059046296E+04  0.20989189588E+04  0.50400001928E-02 0. -1.
       -1    1    3    3    0  502  0.12448298675E+04  0.10726008088E+04  0.64329533171E+03  0.17646253930E+04  0.50400001928E-02 0.  1.
</event>
<event>
 5   0  0.1305088E-08  0.3798419E+04  0.7818609E-02  0.8046494E-01
       -2   -1    0    0    0  501  0.00000000000E+00  0.00000000000E+00  0.17117039550E+04  0.17117039550E+04  0.25500000920E-02 0.  1.
        2   -1    0    0  501    0  0.00000000000E+00  0.00000000000E+00 -0.21072550039E+04  0.21072550039E+04  0.25500000920E-02 0. -1.
    10030    2    1    2    0    0  0.00000000000E+00  0.00000000000E+00 -0.39555104888E+03  0.38189589589E+04  0.37984189997E+04 0.  0.
        3    1    3    3  502    0 -0.10638718906E+04  0.12424359853E+04 -0.11681506248E+04  0.20099866839E+04  0.10100000352E+00 0. -1.
       -3    1    3    3    0  502  0.10638718906E+04 -0.12424359853E+04  0.77259957589E+03  0.18089722750E+04  0.10100000352E+00 0.  1.
</event>
<event>
 5   0  0.1264013E-08  0.3798404E+04  0.7818609E-02  0.8046497E-01
        2   -1    0    0  501    0  0.00000000000E+00  0.00000000000E+00  0.20379921187E+04  0.20379921187E+04  0.25500000920E-02 0.  1.
       -2   -1    0    0    0  501  0.00000000000E+00  0.00000000000E+00 -0.17698636432E+04  0.17698636432E+04  0.25500000920E-02 0. -1.
    10030    2    1    2    0    0  0.00000000000E+00  0.00000000000E+00  0.26812847547E+03  0.38078557619E+04  0.37984039574E+04 0.  0.
        4    1    3    3  502    0  0.13901230884E+04 -0.74007759717E+03  0.11982184980E+04  0.19788598314E+04  0.12699999809E+01 0.  1.
       -4    1    3    3    0  502 -0.13901230884E+04  0.74007759717E+03 -0.93009002248E+03  0.18289959304E+04  0.12699999809E+01 0. -1.
</event>
<event>
 5   0  0.1305088E-08  0.3800233E+04  0.7818609E-02  0.8046105E-01
        2   -1    0    0  501    0  0.00000000000E+00  0.00000000000E+00  0.25338717592E+04  0.25338717592E+04  0.25500000920E-02 0.  1.
       -2   -1    0    0    0  501  0.00000000000E+00  0.00000000000E+00 -0.14248722449E+04  0.14248722449E+04  0.25500000920E-02 0. -1.
    10030    2    1    2    0    0  0.00000000000E+00  0.00000000000E+00  0.11089995143E+04  0.39587440042E+04  0.38002334360E+04 0.  0.
        3    1    3    3  502    0 -0.11397097023E+04 -0.11329768551E+04 -0.50162683981E+03  0.16835095058E+04  0.10100000352E+00 0. -1.
       -3    1    3    3    0  502  0.11397097023E+04  0.11329768551E+04  0.16106263541E+04  0.22752344983E+04  0.10100000352E+00 0.  1.
</event>
<event>
 5   0  0.4071750E-09  0.3789457E+04  0.7818609E-02  0.8048421E-01
       -1   -1    0    0    0  501  0.00000000000E+00  0.00000000000E+00  0.25004362723E+04  0.25004362723E+04  0.50400001928E-02 0. -1.
        1   -1    0    0  501    0  0.00000000000E+00  0.00000000000E+00 -0.14357476434E+04  0.14357476434E+04  0.50400001928E-02 0.  1.
    10030    2    1    2    0    0  0.00000000000E+00  0.00000000000E+00  0.10646886290E+04  0.39361839158E+04  0.37894566816E+04 0.  0.
        2    1    3    3  502    0  0.89494111728E+02 -0.15474145436E+03  0.24916578210E+04  0.24980618108E+04  0.25500000920E-02 0. -1.
       -2    1    3    3    0  502 -0.89494111728E+02  0.15474145436E+03 -0.14269691920E+04  0.14381221049E+04  0.25500000920E-02 0.  1.
</event>
<event>
 5   0  0.1264013E-08  0.3799445E+04  0.7818609E-02  0.8046274E-01
        2   -1    0    0  501    0  0.00000000000E+00  0.00000000000E+00  0.22036095586E+04  0.22036095586E+04  0.25500000920E-02 0. -1.
       -2   -1    0    0    0  501  0.00000000000E+00  0.00000000000E+00 -0.16377428763E+04  0.16377428763E+04  0.25500000920E-02 0.  1.
    10030    2    1    2    0    0  0.00000000000E+00  0.00000000000E+00  0.56586668233E+03  0.38413524349E+04  0.37994451473E+04 0.  0.
        4    1    3    3  502    0 -0.43749996277E+03 -0.21073208357E+03 -0.15739324532E+04  0.16471427408E+04  0.12699999809E+01 0.  1.
       -4    1    3    3    0  502  0.43749996277E+03  0.21073208357E+03  0.21397991355E+04  0.21942096941E+04  0.12699999809E+01 0. -1.
</event>
<event>
 5   0  0.4071750E-09  0.3799648E+04  0.7818609E-02  0.8046230E-01
        1   -1    0    0  501    0  0.00000000000E+00  0.00000000000E+00  0.15179606135E+04  0.15179606135E+04  0.50400001928E-02 0. -1.
       -1   -1    0    0    0  501  0.00000000000E+00  0.00000000000E+00 -0.23777500859E+04  0.23777500859E+04  0.50400001928E-02 0.  1.
    10030    2    1    2    0    0  0.00000000000E+00  0.00000000000E+00 -0.85978947239E+03  0.38957106994E+04  0.37996478674E+04 0.  0.
        5    1    3    3  502    0  0.15422317602E+04 -0.68982486735E+03  0.46096369680E+03  0.17512414938E+04  0.46999998093E+01 0. -1.
       -5    1    3    3    0  502 -0.15422317602E+04  0.68982486735E+03 -0.13207531692E+04  0.21444692056E+04  0.46999998093E+01 0.  1.
</event>
<event>
 5   0  0.4071750E-09  0.3798713E+04  0.7818609E-02  0.8046431E-01
        1   -1    0    0  501    0  0.00000000000E+00  0.00000000000E+00  0.21925149727E+04  0.21925149727E+04  0.50400001928E-02 0. -1.
       -1   -1    0    0    0  501  0.00000000000E+00  0.00000000000E+00 -0.16453958109E+04  0.16453958109E+04  0.50400001928E-02 0.  1.
    10030    2    1    2    0    0  0.00000000000E+00  0.00000000000E+00  0.54711916182E+03  0.38379107836E+04  0.37987129144E+04 0.  0.
        2    1    3    3  502    0 -0.11904421832E+04 -0.10368214013E+04  0.13405842253E+04  0.20710666998E+04  0.25500000920E-02 0. -1.
       -2    1    3    3    0  502  0.11904421832E+04  0.10368214013E+04 -0.79346506345E+03  0.17668440839E+04  0.25500000920E-02 0.  1.
</event>
<event>
 5   0  0.4071750E-09  0.3803819E+04  0.7818609E-02  0.8045336E-01
        1   -1    0    0  501    0  0.00000000000E+00  0.00000000000E+00  0.26855390635E+04  0.26855390635E+04  0.50400001928E-02 0.  1.
       -1   -1    0    0    0  501  0.00000000000E+00  0.00000000000E+00 -0.13469396874E+04  0.13469396874E+04  0.50400001928E-02 0. -1.
    10030    2    1    2    0    0  0.00000000000E+00  0.00000000000E+00  0.13385993761E+04  0.40324787509E+04  0.38038186847E+04 0.  0.
        2    1    3    3  502    0 -0.25796181083E+03 -0.17231536857E+04  0.14776708143E+04  0.22845817901E+04  0.25500000920E-02 0.  1.
       -2    1    3    3    0  502  0.25796181083E+03  0.17231536857E+04 -0.13907143816E+03  0.17478969607E+04  0.25500000920E-02 0. -1.
</event>
<event>
 5   0  0.4071750E-09  0.3797940E+04  0.7818609E-02  0.8046597E-01
       -1   -1    0    0    0  501  0.00000000000E+00  0.00000000000E+00  0.23665970652E+04  0.23665970652E+04  0.50400001928E-02 0. -1.
        1   -1    0    0  501    0  0.00000000000E+00  0.00000000000E+00 -0.15237436528E+04  0.15237436528E+04  0.50400001928E-02 0.  1.
    10030    2    1    2    0    0  0.00000000000E+00  0.00000000000E+00  0.84285341237E+03  0.38903407180E+04  0.37979401031E+04 0.  0.
        3    1    3    3  502    0  0.60246003405E+03 -0.71080815216E+03 -0.12734839316E+04  0.15779631352E+04  0.10100000352E+00 0.  1.
       -3    1    3    3    0  502 -0.60246003405E+03  0.71080815216E+03  0.21163373439E+04  0.23123775828E+04  0.10100000352E+00 0. -1.
</event>
<event>
 5   0  0.4071750E-09  0.3799608E+04  0.7818609E-02  0.8046239E-01
       -1   -1    0    0    0  501  0.00000000000E+00  0.00000000000E+00  0.29312268703E+04  0.29312268703E+04  0.50400001928E-02 0. -1.
        1   -1    0    0  501    0  0.00000000000E+00  0.00000000000E+00 -0.12313121032E+04  0.12313121032E+04  0.50400001928E-02 0.  1.
    10030    2    1    2    0    0  0.00000000000E+00  0.00000000000E+00  0.16999147671E+04  0.41625389736E+04  0.37996079391E+04 0.  0.
        5    1    3    3  502    0 -0.11936098881E+04  0.30959794482E+03  0.24332282808E+04  0.27278521604E+04  0.46999998093E+01 0. -1.
       -5    1    3    3    0  502  0.11936098881E+04 -0.30959794482E+03 -0.73331351374E+03  0.14346868132E+04  0.46999998093E+01 0.  1.
</event>
<event>
 5   0  0.1293993E-08  0.3798857E+04  0.7818609E-02  0.8046400E-01
       -2   -1    0    0    0  501  0.00000000000E+00  0.00000000000E+00  0.23619742459E+04  0.23619742459E+04  0.25500000920E-02 0.  1.
        2   -1    0    0  501    0  0.00000000000E+00  0.00000000000E+00 -0.15274631762E+04  0.15274631762E+04  0.25500000920E-02 0. -1.
    10030    2    1    2    0    0  0.00000000000E+00  0.00000000000E+00  0.83451106966E+03  0.38894374221E+04  0.37988570301E+04 0.  0.
        5    1    3    3  502    0  0.89994336741E+03  0.74031436166E+03 -0.11184571185E+04  0.16152188194E+04  0.46999998093E+01 0. -1.
       -5    1    3    3    0  502 -0.89994336741E+03 -0.74031436166E+03  0.19529681882E+04  0.22742186027E+04  0.46999998093E+01 0.  1.
</event>
<event>
 5   0  0.4071750E-09  0.3799108E+04  0.7818609E-02  0.8046346E-01
        1   -1    0    0  501    0  0.00000000000E+00  0.00000000000E+00  0.28841284084E+04  0.28841284084E+04  0.50400001928E-02 0. -1.
       -1   -1    0    0    0  501  0.00000000000E+00  0.00000000000E+00 -0.12510903958E+04  0.12510903958E+04  0.50400001928E-02 0.  1.
    10030    2    1    2    0    0  0.00000000000E+00  0.00000000000E+00  0.16330380126E+04  0.41352188042E+04  0.37991079753E+04 0.  0.
        3    1    3    3  502    0  0.49548349472E+02  0.38416425657E+03  0.28406852972E+04  0.28669723025E+04  0.10100000352E+00 0. -1.
       -3    1    3    3    0  502 -0.49548349472E+02 -0.38416425657E+03 -0.12076472846E+04  0.12682465017E+04  0.10100000352E+00 0.  1.
</event>
<event>
 5   0  0.4071750E-09  0.3799520E+04  0.7818609E-02  0.8046258E-01
        1   -1    0    0  501    0  0.00000000000E+00  0.00000000000E+00  0.27452234430E+04  0.27452234430E+04  0.50400001928E-02 0. -1.
       -1   -1    0    0    0  501  0.00000000000E+00  0.00000000000E+00 -0.13146788186E+04  0.13146788186E+04  0.50400001928E-02 0.  1.
    10030    2    1    2    0    0  0.00000000000E+00  0.00000000000E+00  0.14305446244E+04  0.40599022616E+04  0.37995195027E+04 0.  0.
        5    1    3    3  502    0 -0.17264710312E+03  0.90959446442E+03 -0.10572956760E+04  0.14053701819E+04  0.46999998093E+01 0.  1.
       -5    1    3    3    0  502  0.17264710312E+03 -0.90959446442E+03  0.24878403003E+04  0.26545320796E+04  0.46999998093E+01 0. -1.
</event>
<event>
 5   0  0.4071750E-09  0.3800675E+04  0.7818609E-02  0.8046010E-01
        1   -1    0    0  501    0  0.00000000000E+00  0.00000000000E+00  0.14981029807E+04  0.14981029807E+04  0.50400001928E-02 0.  1.
       -1   -1    0    0    0  501  0.00000000000E+00  0.00000000000E+00 -0.24105701603E+04  0.24105701604E+04  0.50400001928E-02 0. -1.
    10030    2    1    2    0    0  0.00000000000E+00  0.00000000000E+00 -0.91246717967E+03  0.39086731410E+04  0.38006748571E+04 0.  0.
        4    1    3    3  502    0  0.71708446925E+03 -0.11690539385E+04 -0.18090529726E+04  0.22701479065E+04  0.12699999809E+01 0. -1.
       -4    1    3    3    0  502 -0.71708446925E+03  0.11690539385E+04  0.89658579291E+03  0.16385252345E+04  0.12699999809E+01 0.  1.
</event>
<event>
 5   0  0.4071750E-09  0.3801034E+04  0.7818609E-02  0.8045933E-01
        1   -1    0    0  501    0  0.00000000000E+00  0.00000000000E+00  0.12477779345E+04  0.12477779346E+04  0.50400001928E-02 0. -1.
       -1   -1    0    0    0  501  0.00000000000E+00  0.00000000000E+00 -0.28947178801E+04  0.28947178801E+04  0.50400001928E-02 0.  1.
    10030    2    1    2    0    0  0.00000000000E+00  0.00000000000E+00 -0.16469399456E+04  0.41424958147E+04  0.38010341212E+04 0.  0.
        2    1    3    3  502    0 -0.13493008225E+04 -0.13373839662E+04 -0.76625094364E+03  0.20484992290E+04  0.25500000920E-02 0.  1.
       -2    1    3    3    0  502  0.13493008225E+04  0.13373839662E+04 -0.88068900195E+03  0.20939965857E+04  0.25500000920E-02 0. -1.
</event>
<event>
 5   0  0.1261152E-08  0.3805016E+04  0.7818609E-02  0.8045079E-01
       -2   -1    0    0    0  501  0.00000000000E+00  0.00000000000E+00  0.12463134670E+04  0.12463134670E+04  0.25500000920E-02 0. -1.
        2   -1    0    0  501    0  0.00000000000E+00  0.00000000000E+00 -0.29041941092E+04  0.29041941092E+04  0.25500000920E-02 0.  1.
    10030    2    1    2    0    0  0.00000000000E+00  0.00000000000E+00 -0.16578806422E+04  0.41505075763E+04  0.38050157578E+04 0.  0.
        2    1    3    3  502    0  0.71555050271E+03 -0.80062776546E+02 -0.27498351758E+04  0.28425369063E+04  0.25500000920E-02 0.  1.
       -2    1    3    3    0  502 -0.71555050271E+03  0.80062776546E+02  0.10919545335E+04  0.13079706699E+04  0.25500000920E-02 0. -1.
</event>
<event>
 5   0  0.1305088E-08  0.3808262E+04  0.7818609E-02  0.8044384E-01
        2   -1    0    0  501    0  0.00000000000E+00  0.00000000000E+00  0.20485722730E+04  0.20485722730E+04  0.25500000920E-02 0. -1.
       -2   -1    0    0    0  501  0.00000000000E+00  0.00000000000E+00 -0.17698743163E+04  0.17698743163E+04  0.25500000920E-02 0.  1.
    10030    2    1    2    0    0  0.00000000000E+00  0.00000000000E+00  0.27869795668E+03  0.38184465893E+04  0.38082623077E+04 0.  0.
        3    1    3    3  502    0 -0.17100214664E+04  0.55111036656E+03 -0.49306700723E+03  0.18630649843E+04  0.10100000352E+00 0.  1.
       -3    1    3    3    0  502  0.17100214664E+04 -0.55111036656E+03  0.77176496391E+03  0.19553816051E+04  0.10100000352E+00 0. -1.
</event>
<event>
 5   0  0.1264013E-08  0.3803558E+04  0.7818609E-02  0.8045392E-01
       -2   -1    0    0    0  501  0.00000000000E+00  0.00000000000E+00  0.17332461897E+04  0.17332461897E+04  0.25500000920E-02 0. -1.
        2   -1    0    0  501    0  0.00000000000E+00  0.00000000000E+00 -0.20866989267E+04  0.20866989267E+04  0.25500000920E-02 0.  1.
    10030    2    1    2    0    0  0.00000000000E+00  0.00000000000E+00 -0.35345273691E+03  0.38199451164E+04  0.38035577891E+04 0.  0.
        4    1    3    3  502    0 -0.15451123438E+04 -0.10521615183E+04  0.17455960736E+03  0.18774686908E+04  0.12699999809E+01 0. -1.
       -4    1    3    3    0  502  0.15451123438E+04  0.10521615183E+04 -0.52801234427E+03  0.19424764256E+04  0.12699999809E+01 0.  1.
</event>
<event>
 5   0  0.4071750E-09  0.3799856E+04  0.7818609E-02  0.8046186E-01
       -1   -1    0    0    0  501  0.00000000000E+00  0.00000000000E+00  0.16218844547E+04  0.16218844547E+04  0.50400001928E-02 0.  1.
        1   -1    0    0  501    0  0.00000000000E+00  0.00000000000E+00 -0.22256376668E+04  0.22256376668E+04  0.50400001928E-02 0. -1.
    10030    2    1    2    0    0  0.00000000000E+00  0.00000000000E+00 -0.60375321216E+03  0.38475221215E+04  0.37998563834E+04 0.  0.
        5    1    3    3  502    0 -0.56986400422E+03 -0.72529403600E+03 -0.19837085656E+04  0.21876741497E+04  0.46999998093E+01 0. -1.
       -5    1    3    3    0  502  0.56986400422E+03  0.72529403600E+03  0.13799553535E+04  0.16598479718E+04  0.46999998093E+01 0.  1.
</event>
<event>
 5   0  0.1327249E-08  0.3799736E+04  0.7818609E-02  0.8046212E-01
        2   -1    0    0  501    0  0.00000000000E+00  0.00000000000E+00  0.26747849525E+04  0.26747849525E+04  0.25500000920E-02 0. -1.
       -2   -1    0    0    0  501  0.00000000000E+00  0.00000000000E+00 -0.13494535967E+04  0.13494535967E+04  0.25500000920E-02 0.  1.
    10030    2    1    2    0    0  0.00000000000E+00  0.00000000000E+00  0.13253313559E+04  0.40242385492E+04  0.37997358721E+04 0.  0.
        1    1    3    3  502    0  0.17496255376E+04  0.69633566149E+03  0.92938935520E+03  0.20999612970E+04  0.50400001928E-02 0. -1.
       -1    1    3    3    0  502 -0.17496255376E+04 -0.69633566149E+03  0.39594200069E+03  0.19242772522E+04  0.50400001928E-02 0.  1.
</event>
<event>
 5   0  0.1293993E-08  0.3800697E+04  0.7818609E-02  0.8046005E-01
       -2   -1    0    0    0  501  0.00000000000E+00  0.00000000000E+00  0.24191876323E+04  0.24191876323E+04  0.25500000920E-02 0. -1.
        2   -1    0    0  501    0  0.00000000000E+00  0.00000000000E+00 -0.14927838316E+04  0.14927838316E+04  0.25500000920E-02 0.  1.
    10030    2    1    2    0    0  0.00000000000E+00  0.00000000000E+00  0.92640380073E+03  0.39119714640E+04  0.38006968746E+04 0.  0.
        5    1    3    3  502    0 -0.13125342446E+04 -0.25564082185E+03  0.18529946560E+04  0.22851060497E+04  0.46999998093E+01 0. -1.
       -5    1    3    3    0  502  0.13125342446E+04  0.25564082185E+03 -0.92659085526E+03  0.16268654143E+04  0.46999998093E+01 0.  1.
</event>
<event>
 5   0  0.4071750E-09  0.3798647E+04  0.7818609E-02  0.8046445E-01
        1   -1    0    0  501    0  0.00000000000E+00  0.00000000000E+00  0.20758177072E+04  0.20758177072E+04  0.50400001928E-02 0.  1.
       -1   -1    0    0    0  501  0.00000000000E+00  0.00000000000E+00 -0.17378354794E+04  0.17378354794E+04  0.50400001928E-02 0. -1.
    10030    2    1    2    0    0  0.00000000000E+00  0.00000000000E+00  0.33798222779E+03  0.38136531866E+04  0.37986469488E+04 0.  0.
        4    1    3    3  502    0  0.46357708904E+03  0.13470510455E+04 -0.10921471719E+04  0.17950591340E+04  0.12699999809E+01 0. -1.
       -4    1    3    3    0  502 -0.46357708904E+03 -0.13470510455E+04  0.14301293996E+04  0.20185940526E+04  0.12699999809E+01 0.  1.
</event>
<event>
 5   0  0.4071750E-09  0.3801234E+04  0.7818609E-02  0.8045890E-01
       -1   -1    0    0    0  501  0.00000000000E+00  0.00000000000E+00  0.34227691257E+04  0.34227691257E+04  0.50400001928E-02 0.  1.
        1   -1    0    0  501    0  0.00000000000E+00  0.00000000000E+00 -0.10553865854E+04  0.10553865855E+04  0.50400001928E-02 0. -1.
    10030    2    1    2    0    0  0.00000000000E+00  0.00000000000E+00  0.23673825403E+04  0.44781557112E+04  0.38012338104E+04 0.  0.
        2    1    3    3  502    0  0.22424142656E+03  0.97552660440E+03 -0.71970328846E+03  0.12328459744E+04  0.25500000920E-02 0. -1.
       -2    1    3    3    0  502 -0.22424142656E+03 -0.97552660440E+03  0.30870858287E+04  0.32453097367E+04  0.25500000920E-02 0.  1.
</event>
<event>
 5   0  0.4071750E-09  0.3799819E+04  0.7818609E-02  0.8046194E-01
        1   -1    0    0  501    0  0.00000000000E+00  0.00000000000E+00  0.25329704698E+04  0.25329704698E+04  0.50400001928E-02 0. -1.
       -1   -1    0    0    0  501  0.00000000000E+00  0.00000000000E+00 -0.14250685420E+04  0.14250685420E+04  0.50400001928E-02 0.  1.
    10030    2    1    2    0    0  0.00000000000E+00  0.00000000000E+00  0.11079019279E+04  0.39580390118E+04  0.37998192243E+04 0.  0.
        2    1    3    3  502    0  0.17147866249E+04 -0.80456562771E+03  0.40002256485E+03  0.19359331266E+04  0.25500000920E-02 0.  1.
       -2    1    3    3    0  502 -0.17147866249E+04  0.80456562771E+03  0.70787936301E+03  0.20221058852E+04  0.25500000920E-02 0. -1.
</event>
<event>
 5   0  0.4071750E-09  0.3799929E+04  0.7818609E-02  0.8046170E-01
       -1   -1    0    0    0  501  0.00000000000E+00  0.00000000000E+00  0.26626720718E+04  0.26626720718E+04  0.50400001928E-02 0. -1.
        1   -1    0    0  501    0  0.00000000000E+00  0.00000000000E+00 -0.13557301634E+04  0.13557301634E+04  0.50400001928E-02 0.  1.
    10030    2    1    2    0    0  0.00000000000E+00  0.00000000000E+00  0.13069419084E+04  0.40184022352E+04  0.37999288641E+04 0.  0.
        5    1    3    3  502    0 -0.11464890715E+03 -0.85020316574E+03  0.24461816595E+04  0.25922609044E+04  0.46999998093E+01 0. -1.
       -5    1    3    3    0  502  0.11464890715E+03  0.85020316574E+03 -0.11392397511E+04  0.14261413308E+04  0.46999998093E+01 0.  1.
</event>
<event>
 5   0  0.4071750E-09  0.3798234E+04  0.7818609E-02  0.8046534E-01
       -1   -1    0    0    0  501  0.00000000000E+00  0.00000000000E+00  0.21387710537E+04  0.21387710537E+04  0.50400001928E-02 0.  1.
        1   -1    0    0  501    0  0.00000000000E+00  0.00000000000E+00 -0.16863169509E+04  0.16863169509E+04  0.50400001928E-02 0. -1.
    10030    2    1    2    0    0  0.00000000000E+00  0.00000000000E+00  0.45245410277E+03  0.38250880046E+04  0.37982342644E+04 0.  0.
        2    1    3    3  502    0 -0.17210741804E+03  0.77900685386E+03  0.19618307810E+04  0.21178415085E+04  0.25500000920E-02 0.  1.
       -2    1    3    3    0  502  0.17210741804E+03 -0.77900685386E+03 -0.15093766782E+04  0.17072464961E+04  0.25500000920E-02 0. -1.
</event>
<event>
 5   0  0.1261152E-08  0.3800738E+04  0.7818609E-02  0.8045997E-01
       -2   -1    0    0    0  501  0.00000000000E+00  0.00000000000E+00  0.16215094236E+04  0.16215094236E+04  0.25500000920E-02 0.  1.
        2   -1    0    0  501    0  0.00000000000E+00  0.00000000000E+00 -0.22271850566E+04  0.22271850566E+04  0.25500000920E-02 0. -1.
    10030    2    1    2    0    0  0.00000000000E+00  0.00000000000E+00 -0.60567563299E+03  0.38486944802E+04  0.38007375902E+04 0.  0.
        2    1    3    3  502    0 -0.14934857641E+04  0.10816057588E+04  0.16233945404E+03  0.18511414974E+04  0.25500000920E-02 0. -1.
       -2    1    3    3    0  502  0.14934857641E+04 -0.10816057588E+04 -0.76801508703E+03  0.19975529828E+04  0.25500000920E-02 0.  1.
</event>
<event>
 5   0  0.1261152E-08  0.3800262E+04  0.7818609E-02  0.8046099E-01
       -2   -1    0    0    0  501  0.00000000000E+00  0.00000000000E+00  0.17222593475E+04  0.17222593475E+04  0.25500000920E-02 0.  1.
        2   -1    0    0  501    0  0.00000000000E+00  0.00000000000E+00 -0.20963730530E+04  0.20963730530E+04  0.25500000920E-02 0. -1.
    10030    2    1    2    0    0  0.00000000000E+00  0.00000000000E+00 -0.37411370549E+03  0.38186324006E+04  0.38002621418E+04 0.  0.
        2    1    3    3  502    0  0.13322757670E+04  0.42796767123E+03 -0.14787211702E+04  0.20358613278E+04  0.25500000920E-02 0. -1.
       -2    1    3    3    0  502 -0.13322757670E+04 -0.42796767123E+03  0.11046074647E+04  0.17827710728E+04  0.25500000920E-02 0.  1.
</event>
<event>
 5   0  0.1305088E-08  0.3799722E+04  0.7818609E-02  0.8046215E-01
        2   -1    0    0  501    0  0.00000000000E+00  0.00000000000E+00  0.23295358655E+04  0.23295358655E+04  0.25500000920E-02 0. -1.
       -2   -1    0    0    0  501  0.00000000000E+00  0.00000000000E+00 -0.15494381966E+04  0.15494381966E+04  0.25500000920E-02 0.  1.
    10030    2    1    2    0    0  0.00000000000E+00  0.00000000000E+00  0.78009766894E+03  0.38789740621E+04  0.37997220163E+04 0.  0.
        3    1    3    3  502    0 -0.15266697535E+04 -0.66731498642E+03 -0.54192290819E+03  0.17520588678E+04  0.10100000352E+00 0.  1.
       -3    1    3    3    0  502  0.15266697535E+04  0.66731498642E+03  0.13220205771E+04  0.21269151944E+04  0.10100000352E+00 0. -1.
</event>
<event>
 5   0  0.4071750E-09  0.3799934E+04  0.7818609E-02  0.8046169E-01
        1   -1    0    0  501    0  0.00000000000E+00  0.00000000000E+00  0.26857588650E+04  0.26857588650E+04  0.50400001928E-02 0.  1.
       -1   -1    0    0    0  501  0.00000000000E+00  0.00000000000E+00 -0.13440798611E+04  0.13440798611E+04  0.50400001928E-02 0. -1.
    10030    2    1    2    0    0  0.00000000000E+00  0.00000000000E+00  0.13416790039E+04  0.40298387261E+04  0.37999338953E+04 0.  0.
        1    1    3    3  502    0  0.59325529804E+03  0.95973364547E+03  0.22919982532E+04  0.25546617216E+04  0.50400001928E-02 0.  1.
       -1    1    3    3    0  502 -0.59325529804E+03 -0.95973364547E+03 -0.95031924935E+03  0.14751770045E+04  0.50400001928E-02 0. -1.
</event>
<event>
 5   0  0.4071750E-09  0.3801958E+04  0.7818609E-02  0.8045735E-01
       -1   -1    0    0    0  501  0.00000000000E+00  0.00000000000E+00  0.13510188322E+04  0.13510188322E+04  0.50400001928E-02 0.  1.
        1   -1    0    0  501    0  0.00000000000E+00  0.00000000000E+00 -0.26748121921E+04  0.26748121921E+04  0.50400001928E-02 0. -1.
    10030    2    1    2    0    0  0.00000000000E+00  0.00000000000E+00 -0.13237933599E+04  0.40258310243E+04  0.38019582554E+04 0.  0.
        2    1    3    3  502    0  0.18357662666E+04 -0.48723726157E+03 -0.74583422046E+03  0.20405162629E+04  0.25500000920E-02 0. -1.
       -2    1    3    3    0  502 -0.18357662666E+04  0.48723726157E+03 -0.57795913947E+03  0.19853147614E+04  0.25500000920E-02 0.  1.
</event>
<event>
 5   0  0.4071750E-09  0.3797952E+04  0.7818609E-02  0.8046595E-01
       -1   -1    0    0    0  501  0.00000000000E+00  0.00000000000E+00  0.22724583067E+04  0.22724583067E+04  0.50400001928E-02 0.  1.
        1   -1    0    0  501    0  0.00000000000E+00  0.00000000000E+00 -0.15868760811E+04  0.15868760811E+04  0.50400001928E-02 0. -1.
    10030    2    1    2    0    0  0.00000000000E+00  0.00000000000E+00  0.68558222564E+03  0.38593343878E+04  0.37979519387E+04 0.  0.
        2    1    3    3  502    0  0.17048680730E+03 -0.16075528440E+04  0.13552974020E+04  0.21095314517E+04  0.25500000920E-02 0.  1.
       -2    1    3    3    0  502 -0.17048680730E+03  0.16075528440E+04 -0.66971517634E+03  0.17498029361E+04  0.25500000920E-02 0. -1.
</event>
<event>
 5   0  0.1305088E-08  0.3799510E+04  0.7818609E-02  0.8046260E-01
       -2   -1    0    0    0  501  0.00000000000E+00  0.00000000000E+00  0.14801792503E+04  0.14801792503E+04  0.25500000920E-02 0.  1.
        2   -1    0    0  501    0  0.00000000000E+00  0.00000000000E+00 -0.24382643074E+04  0.24382643074E+04  0.25500000920E-02 0. -1.
    10030    2    1    2    0    0  0.00000000000E+00  0.00000000000E+00 -0.95808505706E+03  0.39184435577E+04  0.37995095655E+04 0.  0.
        3    1    3    3  502    0  0.10886542682E+04 -0.89409667303E+03  0.83540950064E+03  0.16378296677E+04  0.10100000352E+00 0.  1.
       -3    1    3    3    0  502 -0.10886542682E+04  0.89409667303E+03 -0.17934945577E+04  0.22806138900E+04  0.10100000352E+00 0. -1.
</event>
<event>
 5   0  0.1261152E-08  0.3798258E+04  0.7818609E-02  0.8046529E-01
       -2   -1    0    0    0  501  0.00000000000E+00  0.00000000000E+00  0.12102626925E+04  0.12102626925E+04  0.25500000920E-02 0. -1.
        2   -1    0    0  501    0  0.00000000000E+00  0.00000000000E+00 -0.29800888444E+04  0.29800888444E+04  0.25500000920E-02 0.  1.
    10030    2    1    2    0    0  0.00000000000E+00  0.00000000000E+00 -0.17698261519E+04  0.41903515369E+04  0.37982576789E+04 0.  0.
        2    1    3    3  502    0  0.13547233017E+04  0.74903017371E+02 -0.23509245298E+04  0.27143566145E+04  0.25500000920E-02 0.  1.
       -2    1    3    3    0  502 -0.13547233017E+04 -0.74903017371E+02  0.58109837784E+03  0.14759949224E+04  0.25500000920E-02 0. -1.
</event>
<event>
 5   0  0.1261152E-08  0.3804075E+04  0.7818609E-02  0.8045281E-01
       -2   -1    0    0    0  501  0.00000000000E+00  0.00000000000E+00  0.21212950684E+04  0.21212950684E+04  0.25500000920E-02 0. -1.
        2   -1    0    0  501    0  0.00000000000E+00  0.00000000000E+00 -0.17054423183E+04  0.17054423183E+04  0.25500000920E-02 0.  1.
    10030    2    1    2    0    0  0.00000000000E+00  0.00000000000E+00  0.41585275014E+03  0.38267373867E+04  0.38040748570E+04 0.  0.
        2    1    3    3  502    0 -0.37770278481E+03 -0.64322008860E+03 -0.15521699863E+04  0.17220984706E+04  0.25500000920E-02 0.  1.
       -2    1    3    3    0  502  0.37770278481E+03  0.64322008860E+03  0.19680227365E+04  0.21046389161E+04  0.25500000920E-02 0. -1.
</event>
<event>
 5   0  0.4071750E-09  0.3801021E+04  0.7818609E-02  0.8045936E-01
        1   -1    0    0  501    0  0.00000000000E+00  0.00000000000E+00  0.21214148298E+04  0.21214148298E+04  0.50400001928E-02 0.  1.
       -1   -1    0    0    0  501  0.00000000000E+00  0.00000000000E+00 -0.17026092521E+04  0.17026092521E+04  0.50400001928E-02 0. -1.
    10030    2    1    2    0    0  0.00000000000E+00  0.00000000000E+00  0.41880557769E+03  0.38240240819E+04  0.38010211874E+04 0.  0.
        4    1    3    3  502    0 -0.15916307045E+04  0.10353694633E+04  0.29150967393E+03  0.19210043540E+04  0.12699999809E+01 0.  1.
       -4    1    3    3    0  502  0.15916307045E+04 -0.10353694633E+04  0.12729590376E+03  0.19030197280E+04  0.12699999809E+01 0. -1.
</event>
<event>
 5   0  0.1327249E-08  0.3800456E+04  0.7818609E-02  0.8046057E-01
       -2   -1    0    0    0  501  0.00000000000E+00  0.00000000000E+00  0.33552341416E+04  0.33552341416E+04  0.25500000920E-02 0.  1.
        2   -1    0    0  501    0  0.00000000000E+00  0.00000000000E+00 -0.10761892645E+04  0.10761892645E+04  0.25500000920E-02 0. -1.
    10030    2    1    2    0    0  0.00000000000E+00  0.00000000000E+00  0.22790448771E+04  0.44314234061E+04  0.38004562690E+04 0.  0.
        1    1    3    3  502    0 -0.70446258385E+03  0.15709599978E+04  0.20772001755E+04  0.26979517074E+04  0.50400001928E-02 0.  1.
       -1    1    3    3    0  502  0.70446258385E+03 -0.15709599978E+04  0.20184470165E+03  0.17334716987E+04  0.50400001928E-02 0. -1.
</event>
<event>
 5   0  0.1305088E-08  0.3802119E+04  0.7818609E-02  0.8045700E-01
        2   -1    0    0  501    0  0.00000000000E+00  0.00000000000E+00  0.11929124207E+04  0.11929124207E+04  0.25500000920E-02 0. -1.
       -2   -1    0    0    0  501  0.00000000000E+00  0.00000000000E+00 -0.30295826196E+04  0.30295826196E+04  0.25500000920E-02 0.  1.
    10030    2    1    2    0    0  0.00000000000E+00  0.00000000000E+00 -0.18366701989E+04  0.42224950404E+04  0.38021187444E+04 0.  0.
        3    1    3    3  502    0  0.18877052738E+03 -0.71887684486E+03 -0.28615386670E+04  0.29564880826E+04  0.10100000352E+00 0.  1.
       -3    1    3    3    0  502 -0.18877052738E+03  0.71887684486E+03  0.10248684680E+04  0.12660069577E+04  0.10100000352E+00 0. -1.
</event>
<event>
 5   0  0.4071750E-09  0.3800355E+04  0.7818609E-02  0.8046079E-01
       -1   -1    0    0    0  501  0.00000000000E+00  0.00000000000E+00  0.17267560530E+04  0.17267560530E+04  0.50400001928E-02 0. -1.
        1   -1    0    0  501    0  0.00000000000E+00  0.00000000000E+00 -0.20910157521E+04  0.20910157521E+04  0.50400001928E-02 0.  1.
    10030    2    1    2    0    0  0.00000000000E+00  0.00000000000E+00 -0.36425969916E+03  0.38177718051E+04  0.38003547765E+04 0.  0.
        2    1    3    3  502    0  0.83708511788E+03  0.67354715084E+03  0.13923106415E+04  0.17586660233E+04  0.25500000920E-02 0. -1.
       -2    1    3    3    0  502 -0.83708511788E+03 -0.67354715084E+03 -0.17565703407E+04  0.20591057818E+04  0.25500000920E-02 0.  1.
</event>
<event>
 5   0  0.1305088E-08  0.3802458E+04  0.7818609E-02  0.8045628E-01
        2   -1    0    0  501    0  0.00000000000E+00  0.00000000000E+00  0.24457688942E+04  0.24457688942E+04  0.25500000920E-02 0.  1.
       -2   -1    0    0    0  501  0.00000000000E+00  0.00000000000E+00 -0.14779288837E+04  0.14779288837E+04  0.25500000920E-02 0. -1.
    10030    2    1    2    0    0  0.00000000000E+00  0.00000000000E+00  0.96784001043E+03  0.39236977779E+04  0.38024584109E+04 0.  0.
        3    1    3    3  502    0 -0.12246500817E+03  0.13676900485E+04  0.18407985405E+04  0.22965437126E+04  0.10100000352E+00 0.  1.
       -3    1    3    3    0  502  0.12246500817E+03 -0.13676900485E+04 -0.87295853006E+03  0.16271540653E+04  0.10100000352E+00 0. -1.
</event>
<event>
 5   0  0.1261152E-08  0.3799778E+04  0.7818609E-02  0.8046202E-01
       -2   -1    0    0    0  501  0.00000000000E+00  0.00000000000E+00  0.15948529248E+04  0.15948529248E+04  0.25500000920E-02 0. -1.
        2   -1    0    0  501    0  0.00000000000E+00  0.00000000000E+00 -0.22632675145E+04  0.22632675145E+04  0.25500000920E-02 0.  1.
    10030    2    1    2    0    0  0.00000000000E+00  0.00000000000E+00 -0.66841458975E+03  0.38581204393E+04  0.37997783173E+04 0.  0.
        2    1    3    3  502    0 -0.14353176223E+04  0.77810054387E+03  0.65230818599E+03  0.17581476339E+04  0.25500000920E-02 0. -1.
       -2    1    3    3    0  502  0.14353176223E+04 -0.77810054387E+03 -0.13207227757E+04  0.20999728054E+04  0.25500000920E-02 0.  1.
</event>
<event>
 5   0  0.1305088E-08  0.3799081E+04  0.7818609E-02  0.8046352E-01
       -2   -1    0    0    0  501  0.00000000000E+00  0.00000000000E+00  0.18060677267E+04  0.18060677267E+04  0.25500000920E-02 0.  1.
        2   -1    0    0  501    0  0.00000000000E+00  0.00000000000E+00 -0.19978506489E+04  0.19978506489E+04  0.25500000920E-02 0. -1.
    10030    2    1    2    0    0  0.00000000000E+00  0.00000000000E+00 -0.19178292212E+03  0.38039183756E+04  0.37990807202E+04 0.  0.
        3    1    3    3  502    0 -0.10304304709E+04 -0.44610797551E+03 -0.16299828778E+04  0.19793037850E+04  0.10100000352E+00 0. -1.
       -3    1    3    3    0  502  0.10304304709E+04  0.44610797551E+03  0.14381999557E+04  0.18246145906E+04  0.10100000352E+00 0.  1.
</event>
<event>
 5   0  0.4071750E-09  0.3800442E+04  0.7818609E-02  0.8046060E-01
       -1   -1    0    0    0  501  0.00000000000E+00  0.00000000000E+00  0.12105504267E+04  0.12105504267E+04  0.50400001928E-02 0. -1.
        1   -1    0    0  501    0  0.00000000000E+00  0.00000000000E+00 -0.29828076510E+04  0.29828076510E+04  0.50400001928E-02 0.  1.
    10030    2    1    2    0    0  0.00000000000E+00  0.00000000000E+00 -0.17722572243E+04  0.41933580777E+04  0.38004415926E+04 0.  0.
        5    1    3    3  502    0 -0.71202722689E+03 -0.14692114088E+04 -0.19588864601E+04  0.25500633697E+04  0.46999998093E+01 0.  1.
       -5    1    3    3    0  502  0.71202722689E+03  0.14692114088E+04  0.18662923584E+03  0.16432947080E+04  0.46999998093E+01 0. -1.
</event>
<event>
 5   0  0.4071750E-09  0.3800895E+04  0.7818609E-02  0.8045963E-01
        1   -1    0    0  501    0  0.00000000000E+00  0.00000000000E+00  0.12037025559E+04  0.12037025559E+04  0.50400001928E-02 0. -1.
       -1   -1    0    0    0  501  0.00000000000E+00  0.00000000000E+00 -0.30004926324E+04  0.30004926324E+04  0.50400001928E-02 0.  1.
    10030    2    1    2    0    0  0.00000000000E+00  0.00000000000E+00 -0.17967900765E+04  0.42041951883E+04  0.38008949739E+04 0.  0.
        5    1    3    3  502    0  0.11037704214E+03 -0.18649231627E+04 -0.12840395071E+04  0.22669144315E+04  0.46999998093E+01 0. -1.
       -5    1    3    3    0  502 -0.11037704214E+03  0.18649231627E+04 -0.51275056938E+03  0.19372807568E+04  0.46999998093E+01 0.  1.
</event>
<event>
 5   0  0.1327249E-08  0.3800339E+04  0.7818609E-02  0.8046082E-01
        2   -1    0    0  501    0  0.00000000000E+00  0.00000000000E+00  0.25903155755E+04  0.25903155755E+04  0.25500000920E-02 0. -1.
       -2   -1    0    0    0  501  0.00000000000E+00  0.00000000000E+00 -0.13939012074E+04  0.13939012074E+04  0.25500000920E-02 0.  1.
    10030    2    1    2    0    0  0.00000000000E+00  0.00000000000E+00  0.11964143681E+04  0.39842167829E+04  0.38003389366E+04 0.  0.
        1    1    3    3  502    0 -0.11151663413E+04 -0.53521656845E+03 -0.91400946294E+03  0.15380071659E+04  0.50400001928E-02 0.  1.
       -1    1    3    3    0  502  0.11151663413E+04  0.53521656845E+03  0.21104238311E+04  0.24462096171E+04  0.50400001928E-02 0. -1.
</event>
<event>
 5   0  0.4071750E-09  0.3798978E+04  0.7818609E-02  0.8046374E-01
       -1   -1    0    0    0  501  0.00000000000E+00  0.00000000000E+00  0.19464186863E+04  0.19464186863E+04  0.50400001928E-02 0.  1.
        1   -1    0    0  501    0  0.00000000000E+00  0.00000000000E+00 -0.18536905666E+04  0.18536905666E+04  0.50400001928E-02 0. -1.
    10030    2    1    2    0    0  0.00000000000E+00  0.00000000000E+00  0.92728119671E+02  0.38001092528E+04  0.37989777348E+04 0.  0.
        4    1    3    3  502    0 -0.14587301448E+04  0.11808542952E+04  0.33927518779E+03  0.19072020783E+04  0.12699999809E+01 0.  1.
       -4    1    3    3    0  502  0.14587301448E+04 -0.11808542952E+04 -0.24654706812E+03  0.18929071745E+04  0.12699999809E+01 0. -1.
</event>
<event>
 5   0  0.1261152E-08  0.3800101E+04  0.7818609E-02  0.8046133E-01
       -2   -1    0    0    0  501  0.00000000000E+00  0.00000000000E+00  0.22118676121E+04  0.22118676121E+04  0.25500000920E-02 0.  1.
        2   -1    0    0  501    0  0.00000000000E+00  0.00000000000E+00 -0.16321914334E+04  0.16321914334E+04  0.25500000920E-02 0. -1.
    10030    2    1    2    0    0  0.00000000000E+00  0.00000000000E+00  0.57967617878E+03  0.38440590455E+04  0.38001007188E+04 0.  0.
        2    1    3    3  502    0  0.76387260394E+03 -0.20284861408E+03  0.20376977851E+04  0.21856031613E+04  0.25500000920E-02 0.  1.
       -2    1    3    3    0  502 -0.76387260394E+03  0.20284861408E+03 -0.14580216063E+04  0.16584558842E+04  0.25500000920E-02 0. -1.
</event>
<event>
 5   0  0.4071750E-09  0.3800702E+04  0.7818609E-02  0.8046004E-01
       -1   -1    0    0    0  501  0.00000000000E+00  0.00000000000E+00  0.12601120156E+04  0.12601120156E+04  0.50400001928E-02 0.  1.
        1   -1    0    0  501    0  0.00000000000E+00  0.00000000000E+00 -0.28658830663E+04  0.28658830663E+04  0.50400001928E-02 0. -1.
    10030    2    1    2    0    0  0.00000000000E+00  0.00000000000E+00 -0.16057710506E+04  0.41259950819E+04  0.38007018758E+04 0.  0.
        1    1    3    3  502    0  0.17403693917E+04 -0.73480163153E+03 -0.57904737828E+03  0.19758833274E+04  0.50400001928E-02 0. -1.
       -1    1    3    3    0  502 -0.17403693917E+04  0.73480163153E+03 -0.10267236724E+04  0.21501117545E+04  0.50400001928E-02 0.  1.
</event>
<event>
 5   0  0.1264013E-08  0.3800026E+04  0.7818609E-02  0.8046149E-01
        2   -1    0    0  501    0  0.00000000000E+00  0.00000000000E+00  0.30448596960E+04  0.30448596960E+04  0.25500000920E-02 0.  1.
       -2   -1    0    0    0  501  0.00000000000E+00  0.00000000000E+00 -0.11856207481E+04  0.11856207481E+04  0.25500000920E-02 0. -1.
    10030    2    1    2    0    0  0.00000000000E+00  0.00000000000E+00  0.18592389479E+04  0.42304804441E+04  0.38000257002E+04 0.  0.
        4    1    3    3  502    0  0.66073612126E+03 -0.15397441308E+04  0.19270204342E+04  0.25535844566E+04  0.12699999809E+01 0.  1.
       -4    1    3    3    0  502 -0.66073612126E+03  0.15397441308E+04 -0.67781486286E+02  0.16768959875E+04  0.12699999809E+01 0. -1.
</event>
<event>
 5   0  0.4071750E-09  0.3801090E+04  0.7818609E-02  0.8045921E-01
        1   -1    0    0  501    0  0.00000000000E+00  0.00000000000E+00  0.31636999912E+04  0.31636999912E+04  0.50400001928E-02 0. -1.
       -1   -1    0    0    0  501  0.00000000000E+00  0.00000000000E+00 -0.11417237436E+04  0.11417237436E+04  0.50400001928E-02 0.  1.
    10030    2    1    2    0    0  0.00000000000E+00  0.00000000000E+00  0.20219762476E+04  0.43054237348E+04  0.38010900529E+04 0.  0.
        4    1    3    3  502    0 -0.24511028852E+03  0.18812448547E+04  0.88229773889E+03  0.20922744012E+04  0.12699999809E+01 0.  1.
       -4    1    3    3    0  502  0.24511028852E+03 -0.18812448547E+04  0.11396785087E+04  0.22131493337E+04  0.12699999809E+01 0. -1.
</event>
<event>
 5   0  0.1293993E-08  0.3798408E+04  0.7818609E-02  0.8046497E-01
       -2   -1    0    0    0  501  0.00000000000E+00  0.00000000000E+00  0.20714923186E+04  0.20714923186E+04  0.25500000920E-02 0.  1.
        2   -1    0    0  501    0  0.00000000000E+00  0.00000000000E+00 -0.17412450126E+04  0.17412450126E+04  0.25500000920E-02 0. -1.
    10030    2    1    2    0    0  0.00000000000E+00  0.00000000000E+00  0.33024730598E+03  0.38127373312E+04  0.37984079131E+04 0.  0.
        5    1    3    3  502    0  0.50598507052E+03 -0.18288128129E+04  0.84970158627E+02  0.18994260222E+04  0.46999998093E+01 0. -1.
       -5    1    3    3    0  502 -0.50598507052E+03  0.18288128129E+04  0.24527714735E+03  0.19133113090E+04  0.46999998093E+01 0.  1.
</event>
<event>
 5   0  0.4071750E-09  0.3798320E+04  0.7818609E-02  0.8046516E-01
       -1   -1    0    0    0  501  0.00000000000E+00  0.00000000000E+00  0.19042567431E+04  0.19042567431E+04  0.50400001928E-02 0.  1.
        1   -1    0    0  501    0  0.00000000000E+00  0.00000000000E+00 -0.18940768224E+04  0.18940768224E+04  0.50400001928E-02 0. -1.
    10030    2    1    2    0    0  0.00000000000E+00  0.00000000000E+00  0.10179920687E+02  0.37983335655E+04  0.37983199238E+04 0.  0.
        4    1    3    3  502    0  0.13549034537E+04  0.10123060374E+04 -0.85878817136E+03  0.18968515014E+04  0.12699999809E+01 0. -1.
       -4    1    3    3    0  502 -0.13549034537E+04 -0.10123060374E+04  0.86896809205E+03  0.19014820641E+04  0.12699999809E+01 0.  1.
</event>
<event>
 5   0  0.4071750E-09  0.3798137E+04  0.7818609E-02  0.8046555E-01
       -1   -1    0    0    0  501  0.00000000000E+00  0.00000000000E+00  0.16967493681E+04  0.16967493681E+04  0.50400001928E-02 0.  1.
        1   -1    0    0  501    0  0.00000000000E+00  0.00000000000E+00 -0.21255119252E+04  0.21255119252E+04  0.50400001928E-02 0. -1.
    10030    2    1    2    0    0  0.00000000000E+00  0.00000000000E+00 -0.42876255706E+03  0.38222612933E+04  0.37981369202E+04 0.  0.
        5    1    3    3  502    0 -0.18902918936E+04 -0.14667719891E+03 -0.10542874902E+03  0.18989088854E+04  0.46999998093E+01 0. -1.
       -5    1    3    3    0  502  0.18902918936E+04  0.14667719891E+03 -0.32333380805E+03  0.19233524080E+04  0.46999998093E+01 0.  1.
</event>
<event>
 5   0  0.1327249E-08  0.3799376E+04  0.7818609E-02  0.8046289E-01
        2   -1    0    0  501    0  0.00000000000E+00  0.00000000000E+00  0.26368261438E+04  0.26368261438E+04  0.25500000920E-02 0.  1.
       -2   -1    0    0    0  501  0.00000000000E+00  0.00000000000E+00 -0.13686204494E+04  0.13686204494E+04  0.25500000920E-02 0. -1.
    10030    2    1    2    0    0  0.00000000000E+00  0.00000000000E+00  0.12682056944E+04  0.40054465932E+04  0.37993758340E+04 0.  0.
        1    1    3    3  502    0 -0.10152712380E+04  0.76217146897E+03  0.21239516603E+04  0.24744396719E+04  0.50400001928E-02 0.  1.
       -1    1    3    3    0  502  0.10152712380E+04 -0.76217146897E+03 -0.85574596591E+03  0.15310069213E+04  0.50400001928E-02 0. -1.
</event>
<event>
 5   0  0.4071750E-09  0.3801575E+04  0.7818609E-02  0.8045817E-01
        1   -1    0    0  501    0  0.00000000000E+00  0.00000000000E+00  0.17604422650E+04  0.17604422650E+04  0.50400001928E-02 0. -1.
       -1   -1    0    0    0  501  0.00000000000E+00  0.00000000000E+00 -0.20523215982E+04  0.20523215982E+04  0.50400001928E-02 0.  1.
    10030    2    1    2    0    0  0.00000000000E+00  0.00000000000E+00 -0.29187933325E+03  0.38127638632E+04  0.38015752960E+04 0.  0.
        5    1    3    3  502    0 -0.10484726716E+04 -0.11438886161E+04  0.95510530997E+03  0.18220933983E+04  0.46999998093E+01 0. -1.
       -5    1    3    3    0  502  0.10484726716E+04  0.11438886161E+04 -0.12469846432E+04  0.19906704648E+04  0.46999998093E+01 0.  1.
</event>
<event>
 5   0  0.1327249E-08  0.3800443E+04  0.7818609E-02  0.8046060E-01
        2   -1    0    0  501    0  0.00000000000E+00  0.00000000000E+00  0.17863153321E+04  0.17863153321E+04  0.25500000920E-02 0. -1.
       -2   -1    0    0    0  501  0.00000000000E+00  0.00000000000E+00 -0.20213915030E+04  0.20213915030E+04  0.25500000920E-02 0.  1.
    10030    2    1    2    0    0  0.00000000000E+00  0.00000000000E+00 -0.23507617088E+03  0.38077068351E+04  0.38004434657E+04 0.  0.
        1    1    3    3  502    0 -0.35457074808E+03 -0.92497742439E+03  0.15071464023E+04  0.18035503678E+04  0.50400001928E-02 0. -1.
       -1    1    3    3    0  502  0.35457074808E+03  0.92497742439E+03 -0.17422225732E+04  0.20041564673E+04  0.50400001928E-02 0.  1.
</event>
<event>
 5   0  0.4071750E-09  0.3799522E+04  0.7818609E-02  0.8046257E-01
       -1   -1    0    0    0  501  0.00000000000E+00  0.00000000000E+00  0.11892061717E+04  0.11892061717E+04  0.50400001928E-02 0. -1.
        1   -1    0    0  501    0  0.00000000000E+00  0.00000000000E+00 -0.30348748615E+04  0.30348748615E+04  0.50400001928E-02 0.  1.
    10030    2    1    2    0    0  0.00000000000E+00  0.00000000000E+00 -0.18456686899E+04  0.42240810332E+04  0.37995220308E+04 0.  0.
        3    1    3    3  502    0 -0.88560842218E+03  0.12575044474E+04  0.31687910453E+03  0.15703604967E+04  0.10100000352E+00 0.  1.
       -3    1    3    3    0  502  0.88560842218E+03 -0.12575044474E+04 -0.21625477944E+04  0.26537205365E+04  0.10100000352E+00 0. -1.
</event>
<event>
 5   0  0.4071750E-09  0.3799423E+04  0.7818609E-02  0.8046279E-01
        1   -1    0    0  501    0  0.00000000000E+00  0.00000000000E+00  0.16424119761E+04  0.16424119761E+04  0.50400001928E-02 0.  1.
       -1   -1    0    0    0  501  0.00000000000E+00  0.00000000000E+00 -0.21973189957E+04  0.21973189957E+04  0.50400001928E-02 0. -1.
    10030    2    1    2    0    0  0.00000000000E+00  0.00000000000E+00 -0.55490701957E+03  0.38397309718E+04  0.37994226055E+04 0.  0.
        5    1    3    3  502    0 -0.19698702551E+03  0.96590079474E+03 -0.19186007264E+04  0.21570394227E+04  0.46999998093E+01 0. -1.
       -5    1    3    3    0  502  0.19698702551E+03 -0.96590079474E+03  0.13636937068E+04  0.16826915491E+04  0.46999998093E+01 0.  1.
</event>
<event>
 5   0  0.1264013E-08  0.3798645E+04  0.7818609E-02  0.8046446E-01
        2   -1    0    0  501    0  0.00000000000E+00  0.00000000000E+00  0.18344062119E+04  0.18344062119E+04  0.25500000920E-02 0. -1.
       -2   -1    0    0    0  501  0.00000000000E+00  0.00000000000E+00 -0.19665355899E+04  0.19665355899E+04  0.25500000920E-02 0.  1.
    10030    2    1    2    0    0  0.00000000000E+00  0.00000000000E+00 -0.13212937801E+03  0.38009418017E+04  0.37986445487E+04 0.  0.
        4    1    3    3  502    0 -0.12016415376E+04  0.14706120394E+04 -0.38095439567E+02  0.18994986262E+04  0.12699999809E+01 0. -1.
       -4    1    3    3    0  502  0.12016415376E+04 -0.14706120394E+04 -0.94033938443E+02  0.19014431756E+04  0.12699999809E+01 0.  1.
</event>
<event>
 5   0  0.1261152E-08  0.3800667E+04  0.7818609E-02  0.8046012E-01
       -2   -1    0    0    0  501  0.00000000000E+00  0.00000000000E+00  0.17796418105E+04  0.17796418105E+04  0.25500000920E-02 0. -1.
        2   -1    0    0  501    0  0.00000000000E+00  0.00000000000E+00 -0.20292099316E+04  0.20292099316E+04  0.25500000920E-02 0.  1.
    10030    2    1    2    0    0  0.00000000000E+00  0.00000000000E+00 -0.24956812111E+03  0.38088517421E+04  0.38006666976E+04 0.  0.
        2    1    3    3  502    0  0.15457526488E+03  0.13378169238E+04 -0.14684247035E+04  0.19924654938E+04  0.25500000920E-02 0.  1.
       -2    1    3    3    0  502 -0.15457526488E+03 -0.13378169238E+04  0.12188565824E+04  0.18163862482E+04  0.25500000920E-02 0. -1.
</event>
<event>
 5   0  0.4071750E-09  0.3799039E+04  0.7818609E-02  0.8046361E-01
       -1   -1    0    0    0  501  0.00000000000E+00  0.00000000000E+00  0.16219785521E+04  0.16219785521E+04  0.50400001928E-02 0. -1.
        1   -1    0    0  501    0  0.00000000000E+00  0.00000000000E+00 -0.22245512610E+04  0.22245512610E+04  0.50400001928E-02 0.  1.
    10030    2    1    2    0    0  0.00000000000E+00  0.00000000000E+00 -0.60257270891E+03  0.38465298131E+04  0.37990390540E+04 0.  0.
        4    1    3    3  502    0 -0.93696846429E+03 -0.80830410860E+03 -0.17604496950E+04  0.21518480840E+04  0.12699999809E+01 0.  1.
       -4    1    3    3    0  502  0.93696846429E+03  0.80830410860E+03  0.11578769861E+04  0.16946817291E+04  0.12699999809E+01 0. -1.
</event>
<event>
 5   0  0.1293993E-08  0.3800761E+04  0.7818609E-02  0.8045992E-01
        2   -1    0    0  501    0  0.00000000000E+00  0.00000000000E+00  0.22386381640E+04  0.22386381640E+04  0.25500000920E-02 0. -1.
       -2   -1    0    0    0  501  0.00000000000E+00  0.00000000000E+00 -0.16132331200E+04  0.16132331200E+04  0.25500000920E-02 0.  1.
    10030    2    1    2    0    0  0.00000000000E+00  0.00000000000E+00  0.62540504397E+03  0.38518712840E+04  0.38007605712E+04 0.  0.
        5    1    3    3  502    0  0.13794652222E+04 -0.59948047647E+03 -0.86443408574E+03  0.17348110904E+04  0.46999998093E+01 0.  1.
       -5    1    3    3    0  502 -0.13794652222E+04  0.59948047647E+03  0.14898391297E+04  0.21170601936E+04  0.46999998093E+01 0. -1.
</event>
<event>
 5   0  0.4071750E-09  0.3800576E+04  0.7818609E-02  0.8046031E-01
       -1   -1    0    0    0  501  0.00000000000E+00  0.00000000000E+00  0.23843030884E+04  0.23843030884E+04  0.50400001928E-02 0.  1.
        1   -1    0    0  501    0  0.00000000000E+00  0.00000000000E+00 -0.15145286043E+04  0.15145286043E+04  0.50400001928E-02 0. -1.
    10030    2    1    2    0    0  0.00000000000E+00  0.00000000000E+00  0.86977448413E+03  0.38988316927E+04  0.38005763924E+04 0.  0.
        1    1    3    3  502    0  0.12363498151E+04 -0.30574038352E+03  0.18816877598E+04  0.22721766817E+04  0.50400001928E-02 0.  1.
       -1    1    3    3    0  502 -0.12363498151E+04  0.30574038352E+03 -0.10119132757E+04  0.16266550110E+04  0.50400001928E-02 0. -1.
</event>
<event>
 5   0  0.1264013E-08  0.3793130E+04  0.7818609E-02  0.8047631E-01
        2   -1    0    0  501    0  0.00000000000E+00  0.00000000000E+00  0.16988001350E+04  0.16988001350E+04  0.25500000920E-02 0.  1.
       -2   -1    0    0    0  501  0.00000000000E+00  0.00000000000E+00 -0.21173522519E+04  0.21173522519E+04  0.25500000920E-02 0. -1.
    10030    2    1    2    0    0  0.00000000000E+00  0.00000000000E+00 -0.41855211690E+03  0.38161523868E+04  0.37931297321E+04 0.  0.
        4    1    3    3  502    0 -0.31378582873E+03  0.14751064515E+04 -0.13662805945E+04  0.20349753968E+04  0.12699999809E+01 0. -1.
       -4    1    3    3    0  502  0.31378582873E+03 -0.14751064515E+04  0.94772847762E+03  0.17811769900E+04  0.12699999809E+01 0.  1.
</event>
<event>
 5   0  0.4071750E-09  0.3801038E+04  0.7818609E-02  0.8045932E-01
       -1   -1    0    0    0  501  0.00000000000E+00  0.00000000000E+00  0.11929166151E+04  0.11929166152E+04  0.50400001928E-02 0.  1.
        1   -1    0    0  501    0  0.00000000000E+00  0.00000000000E+00 -0.30278505769E+04  0.30278505769E+04  0.50400001928E-02 0. -1.
    10030    2    1    2    0    0  0.00000000000E+00  0.00000000000E+00 -0.18349339617E+04  0.42207671920E+04  0.38010384167E+04 0.  0.
        2    1    3    3  502    0 -0.91078099676E+03 -0.16517831515E+04 -0.11756584279E+04  0.22226296009E+04  0.25500000920E-02 0. -1.
       -2    1    3    3    0  502  0.91078099676E+03  0.16517831515E+04 -0.65927553382E+03  0.19981375911E+04  0.25500000920E-02 0.  1.
</event>
<event>
 5   0  0.4071750E-09  0.3798187E+04  0.7818609E-02  0.8046544E-01
        1   -1    0    0  501    0  0.00000000000E+00  0.00000000000E+00  0.19087424381E+04  0.19087424381E+04  0.50400001928E-02 0.  1.
       -1   -1    0    0    0  501  0.00000000000E+00  0.00000000000E+00 -0.18894931667E+04  0.18894931667E+04  0.50400001928E-02 0. -1.
    10030    2    1    2    0    0  0.00000000000E+00  0.00000000000E+00  0.19249271411E+02  0.37982356048E+04  0.37981868273E+04 0.  0.
        2    1    3    3  502    0  0.65010736668E+03 -0.16874235863E+04 -0.57048439657E+03  0.18961778383E+04  0.25500000920E-02 0. -1.
       -2    1    3    3    0  502 -0.65010736668E+03  0.16874235863E+04  0.58973366798E+03  0.19020577665E+04  0.25500000920E-02 0.  1.
</event>
<event>
 5   0  0.1261152E-08  0.3799915E+04  0.7818609E-02  0.8046173E-01
        2   -1    0    0  501    0  0.00000000000E+00  0.00000000000E+00  0.12882902259E+04  0.12882902259E+04  0.25500000920E-02 0.  1.
       -2   -1    0    0    0  501  0.00000000000E+00  0.00000000000E+00 -0.28020386749E+04  0.28020386749E+04  0.25500000920E-02 0. -1.
    10030    2    1    2    0    0  0.00000000000E+00  0.00000000000E+00 -0.15137484490E+04  0.40903289008E+04  0.37999152820E+04 0.  0.
        2    1    3    3  502    0  0.16754460135E+04 -0.77861592241E+03 -0.27974050689E+03  0.18685868591E+04  0.25500000920E-02 0.  1.
       -2    1    3    3    0  502 -0.16754460135E+04  0.77861592241E+03 -0.12340079421E+04  0.22217420417E+04  0.25500000920E-02 0. -1.
</event>
<event>
 5   0  0.4071750E-09  0.3800770E+04  0.7818609E-02  0.8045990E-01
       -3   -1    0    0    0  501  0.00000000000E+00  0.00000000000E+00  0.23426687317E+04  0.23426687339E+04  0.10100000352E+00 0. -1.
        3   -1    0    0  501    0  0.00000000000E+00  0.00000000000E+00 -0.15416023182E+04  0.15416023215E+04  0.10100000352E+00 0.  1.
    10030    2    1    2    0    0  0.00000000000E+00  0.00000000000E+00  0.80106641355E+03  0.38842710554E+04  0.38007702157E+04 0.  0.
        2    1    3    3  502    0 -0.10987223336E+04 -0.92737091980E+03 -0.86944877342E+03  0.16802228301E+04  0.25500000920E-02 0.  1.
       -2    1    3    3    0  502  0.10987223336E+04  0.92737091980E+03  0.16705151870E+04  0.22040482252E+04  0.25500000920E-02 0. -1.
</event>
<event>
 5   0  0.4071750E-09  0.3797327E+04  0.7818609E-02  0.8046729E-01
       -1   -1    0    0    0  501  0.00000000000E+00  0.00000000000E+00  0.22694923559E+04  0.22694923559E+04  0.50400001928E-02 0. -1.
        1   -1    0    0  501    0  0.00000000000E+00  0.00000000000E+00 -0.15884272836E+04  0.15884272836E+04  0.50400001928E-02 0.  1.
    10030    2    1    2    0    0  0.00000000000E+00  0.00000000000E+00  0.68106507223E+03  0.38579196395E+04  0.37973272590E+04 0.  0.
        1    1    3    3  502    0 -0.13693702637E+04 -0.63422753289E+02  0.16751631981E+04  0.21645713444E+04  0.50400001928E-02 0. -1.
       -1    1    3    3    0  502  0.13693702637E+04  0.63422753289E+02 -0.99409812588E+03  0.16933482951E+04  0.50400001928E-02 0.  1.
</event>
<event>
 5   0  0.4071750E-09  0.3800045E+04  0.7818609E-02  0.8046145E-01
       -1   -1    0    0    0  501  0.00000000000E+00  0.00000000000E+00  0.20940801854E+04  0.20940801854E+04  0.50400001928E-02 0.  1.
        1   -1    0    0  501    0  0.00000000000E+00  0.00000000000E+00 -0.17239482843E+04  0.17239482843E+04  0.50400001928E-02 0. -1.
    10030    2    1    2    0    0  0.00000000000E+00  0.00000000000E+00  0.37013190115E+03  0.38180284697E+04  0.38000452328E+04 0.  0.
        5    1    3    3  502    0  0.97339981722E+03 -0.14467020978E+04  0.94336250080E+03  0.19825259297E+04  0.46999998093E+01 0.  1.
       -5    1    3    3    0  502 -0.97339981722E+03  0.14467020978E+04 -0.57323059965E+03  0.18355025400E+04  0.46999998093E+01 0. -1.
</event>
<event>
 5   0  0.1261152E-08  0.3798871E+04  0.7818609E-02  0.8046397E-01
       -2   -1    0    0    0  501  0.00000000000E+00  0.00000000000E+00  0.14158398145E+04  0.14158398145E+04  0.25500000920E-02 0. -1.
        2   -1    0    0  501    0  0.00000000000E+00  0.00000000000E+00 -0.25482086161E+04  0.25482086161E+04  0.25500000920E-02 0.  1.
    10030    2    1    2    0    0  0.00000000000E+00  0.00000000000E+00 -0.11323688017E+04  0.39640484306E+04  0.37988709977E+04 0.  0.
        2    1    3    3  502    0  0.93614674851E+02  0.25904589849E+03 -0.25272582001E+04  0.25422239270E+04  0.25500000920E-02 0.  1.
       -2    1    3    3    0  502 -0.93614674851E+02 -0.25904589849E+03  0.13948893985E+04  0.14218245036E+04  0.25500000920E-02 0. -1.
</event>
<event>
 5   0  0.1261152E-08  0.3803231E+04  0.7818609E-02  0.8045462E-01
       -2   -1    0    0    0  501  0.00000000000E+00  0.00000000000E+00  0.16023379181E+04  0.16023379181E+04  0.25500000920E-02 0.  1.
        2   -1    0    0  501    0  0.00000000000E+00  0.00000000000E+00 -0.22567909957E+04  0.22567909957E+04  0.25500000920E-02 0. -1.
    10030    2    1    2    0    0  0.00000000000E+00  0.00000000000E+00 -0.65445307760E+03  0.38591289137E+04  0.38032311450E+04 0.  0.
        2    1    3    3  502    0  0.54913255215E+03  0.16573820239E+04  0.43729263626E+03  0.17999129375E+04  0.25500000920E-02 0.  1.
       -2    1    3    3    0  502 -0.54913255215E+03 -0.16573820239E+04 -0.10917457139E+04  0.20592159762E+04  0.25500000920E-02 0. -1.
</event>
<event>
 5   0  0.4071750E-09  0.3799677E+04  0.7818609E-02  0.8046224E-01
       -1   -1    0    0    0  501  0.00000000000E+00  0.00000000000E+00  0.20507771003E+04  0.20507771003E+04  0.50400001928E-02 0. -1.
        1   -1    0    0  501    0  0.00000000000E+00  0.00000000000E+00 -0.17600092237E+04  0.17600092237E+04  0.50400001928E-02 0.  1.
    10030    2    1    2    0    0  0.00000000000E+00  0.00000000000E+00  0.29076787667E+03  0.38107863240E+04  0.37996771507E+04 0.  0.
        1    1    3    3  502    0  0.14273236613E+04 -0.12537347058E+04  0.16225768956E+03  0.19066806508E+04  0.50400001928E-02 0.  1.
       -1    1    3    3    0  502 -0.14273236613E+04  0.12537347058E+04  0.12851018711E+03  0.19041056732E+04  0.50400001928E-02 0. -1.
</event>
<event>
 5   0  0.1305088E-08  0.3801994E+04  0.7818609E-02  0.8045727E-01
        2   -1    0    0  501    0  0.00000000000E+00  0.00000000000E+00  0.19442746716E+04  0.19442746716E+04  0.25500000920E-02 0. -1.
       -2   -1    0    0    0  501  0.00000000000E+00  0.00000000000E+00 -0.18586829230E+04  0.18586829230E+04  0.25500000920E-02 0.  1.
    10030    2    1    2    0    0  0.00000000000E+00  0.00000000000E+00  0.85591748618E+02  0.38029575946E+04  0.38019942818E+04 0.  0.
        3    1    3    3  502    0 -0.14993240280E+04 -0.58432333948E+03 -0.96957904460E+03  0.18786936525E+04  0.10100000352E+00 0.  1.
       -3    1    3    3    0  502  0.14993240280E+04  0.58432333948E+03  0.10551707932E+04  0.19242639421E+04  0.10100000352E+00 0. -1.
</event>
<event>
 5   0  0.1305088E-08  0.3802859E+04  0.7818609E-02  0.8045542E-01
        2   -1    0    0  501    0  0.00000000000E+00  0.00000000000E+00  0.21153099367E+04  0.21153099367E+04  0.25500000920E-02 0.  1.
       -2   -1    0    0    0  501  0.00000000000E+00  0.00000000000E+00 -0.17091744731E+04  0.17091744731E+04  0.25500000920E-02 0. -1.
    10030    2    1    2    0    0  0.00000000000E+00  0.00000000000E+00  0.40613546364E+03  0.38244844097E+04  0.38028587912E+04 0.  0.
        3    1    3    3  502    0 -0.39168661616E+03  0.17494877102E+04  0.84015899443E+03  0.19798971689E+04  0.10100000352E+00 0.  1.
       -3    1    3    3    0  502  0.39168661616E+03 -0.17494877102E+04 -0.43402353080E+03  0.18445872408E+04  0.10100000352E+00 0. -1.
</event>
<event>
 5   0  0.1264013E-08  0.3800362E+04  0.7818609E-02  0.8046077E-01
        2   -1    0    0  501    0  0.00000000000E+00  0.00000000000E+00  0.14130173990E+04  0.14130173990E+04  0.25500000920E-02 0.  1.
       -2   -1    0    0    0  501  0.00000000000E+00  0.00000000000E+00 -0.25553025531E+04  0.25553025531E+04  0.25500000920E-02 0. -1.
    10030    2    1    2    0    0  0.00000000000E+00  0.00000000000E+00 -0.11422851541E+04  0.39683199521E+04  0.38003615445E+04 0.  0.
        4    1    3    3  502    0  0.32988863180E+03 -0.10153811141E+04 -0.22125101093E+04  0.24566293805E+04  0.12699999809E+01 0. -1.
       -4    1    3    3    0  502 -0.32988863180E+03  0.10153811141E+04  0.10702249553E+04  0.15116905716E+04  0.12699999809E+01 0.  1.
</event>
<event>
 5   0  0.4071750E-09  0.3781159E+04  0.7818609E-02  0.8050210E-01
       -1   -1    0    0    0  501  0.00000000000E+00  0.00000000000E+00  0.13576596056E+04  0.13576596056E+04  0.50400001928E-02 0.  1.
        1   -1    0    0  501    0  0.00000000000E+00  0.00000000000E+00 -0.26326849791E+04  0.26326849792E+04  0.50400001928E-02 0. -1.
    10030    2    1    2    0    0  0.00000000000E+00  0.00000000000E+00 -0.12750253736E+04  0.39903445847E+04  0.37811585793E+04 0.  0.
        4    1    3    3  502    0  0.87823544653E+03  0.25419040590E+03  0.11088410641E+04  0.14371640060E+04  0.12699999809E+01 0.  1.
       -4    1    3    3    0  502 -0.87823544653E+03 -0.25419040590E+03 -0.23838664376E+04  0.25531805787E+04  0.12699999809E+01 0. -1.
</event>
<event>
 5   0  0.4071750E-09  0.3798977E+04  0.7818609E-02  0.8046375E-01
        1   -1    0    0  501    0  0.00000000000E+00  0.00000000000E+00  0.95223318104E+03  0.95223318105E+03  0.50400001928E-02 0. -1.
       -1   -1    0    0    0  501  0.00000000000E+00  0.00000000000E+00 -0.37890465005E+04  0.37890465005E+04  0.50400001928E-02 0.  1.
    10030    2    1    2    0    0  0.00000000000E+00  0.00000000000E+00 -0.28368133195E+04  0.47412796816E+04  0.37989766003E+04 0.  0.
        4    1    3    3  502    0  0.15869248772E+04  0.40402131661E+03 -0.21711235629E+03  0.16518786815E+04  0.12699999809E+01 0. -1.
       -4    1    3    3    0  502 -0.15869248772E+04 -0.40402131661E+03 -0.26197009632E+04  0.30894010001E+04  0.12699999809E+01 0.  1.
</event>
<event>
 5   0  0.1293993E-08  0.3806260E+04  0.7818609E-02  0.8044813E-01
       -2   -1    0    0    0  501  0.00000000000E+00  0.00000000000E+00  0.17540056224E+04  0.17540056224E+04  0.25500000920E-02 0.  1.
        2   -1    0    0  501    0  0.00000000000E+00  0.00000000000E+00 -0.20649332704E+04  0.20649332704E+04  0.25500000920E-02 0. -1.
    10030    2    1    2    0    0  0.00000000000E+00  0.00000000000E+00 -0.31092764801E+03  0.38189388928E+04  0.38062604042E+04 0.  0.
        5    1    3    3  502    0  0.85990488074E+03 -0.51430540401E+03 -0.17788570399E+04  0.20416417195E+04  0.46999998093E+01 0. -1.
       -5    1    3    3    0  502 -0.85990488074E+03  0.51430540401E+03  0.14679293919E+04  0.17772971732E+04  0.46999998093E+01 0.  1.
</event>
<event>
 5   0  0.4071750E-09  0.3800419E+04  0.7818609E-02  0.8046065E-01
        1   -1    0    0  501    0  0.00000000000E+00  0.00000000000E+00  0.12524448096E+04  0.12524448096E+04  0.50400001928E-02 0.  1.
       -1   -1    0    0    0  501  0.00000000000E+00  0.00000000000E+00 -0.28829975928E+04  0.28829975928E+04  0.50400001928E-02 0. -1.
    10030    2    1    2    0    0  0.00000000000E+00  0.00000000000E+00 -0.16305527833E+04  0.41354424024E+04  0.38004185934E+04 0.  0.
        4    1    3    3  502    0 -0.15631388962E+04  0.92695113656E+03 -0.14193267360E+04  0.23058906337E+04  0.12699999809E+01 0. -1.
       -4    1    3    3    0  502  0.15631388962E+04 -0.92695113656E+03 -0.21122604730E+03  0.18295517687E+04  0.12699999809E+01 0.  1.
</event>
<event>
 5   0  0.1305088E-08  0.3782579E+04  0.7818609E-02  0.8049904E-01
        2   -1    0    0  501    0  0.00000000000E+00  0.00000000000E+00  0.20417845393E+04  0.20417845393E+04  0.25500000920E-02 0.  1.
       -2   -1    0    0    0  501  0.00000000000E+00  0.00000000000E+00 -0.17518870375E+04  0.17518870375E+04  0.25500000920E-02 0. -1.
    10030    2    1    2    0    0  0.00000000000E+00  0.00000000000E+00  0.28989750177E+03  0.37936715768E+04  0.37825789445E+04 0.  0.
        3    1    3    3  502    0 -0.40660755965E+03  0.18457586712E+04  0.75311149798E+02  0.18915143561E+04  0.10100000352E+00 0. -1.
       -3    1    3    3    0  502  0.40660755965E+03 -0.18457586712E+04  0.21458635197E+03  0.19021572207E+04  0.10100000352E+00 0.  1.
</event>
<event>
 5   0  0.1305088E-08  0.3801725E+04  0.7818609E-02  0.8045785E-01
        2   -1    0    0  501    0  0.00000000000E+00  0.00000000000E+00  0.21944482894E+04  0.21944482894E+04  0.25500000920E-02 0.  1.
       -2   -1    0    0    0  501  0.00000000000E+00  0.00000000000E+00 -0.16465541112E+04  0.16465541112E+04  0.25500000920E-02 0. -1.
    10030    2    1    2    0    0  0.00000000000E+00  0.00000000000E+00  0.54789417827E+03  0.38410024006E+04  0.38017247942E+04 0.  0.
        3    1    3    3  502    0  0.10037672010E+04  0.15728685060E+04  0.64075992761E+03  0.19728246820E+04  0.10100000352E+00 0.  1.
       -3    1    3    3    0  502 -0.10037672010E+04 -0.15728685060E+04 -0.92865749339E+02  0.18681777186E+04  0.10100000352E+00 0. -1.
</event>
<event>
 5   0  0.4071750E-09  0.3798276E+04  0.7818609E-02  0.8046525E-01
       -1   -1    0    0    0  501  0.00000000000E+00  0.00000000000E+00  0.21594782832E+04  0.21594782832E+04  0.50400001928E-02 0. -1.
        1   -1    0    0  501    0  0.00000000000E+00  0.00000000000E+00 -0.16701833846E+04  0.16701833846E+04  0.50400001928E-02 0.  1.
    10030    2    1    2    0    0  0.00000000000E+00  0.00000000000E+00  0.48929489866E+03  0.38296616678E+04  0.37982757920E+04 0.  0.
        4    1    3    3  502    0  0.16608553514E+04  0.61605257681E+03 -0.44567189949E+03  0.18266325111E+04  0.12699999809E+01 0. -1.
       -4    1    3    3    0  502 -0.16608553514E+04 -0.61605257681E+03  0.93496679816E+03  0.20030291566E+04  0.12699999809E+01 0.  1.
</event>
<event>
 5   0  0.4071750E-09  0.3799337E+04  0.7818609E-02  0.8046297E-01
        1   -1    0    0  501    0  0.00000000000E+00  0.00000000000E+00  0.19344825089E+04  0.19344825089E+04  0.50400001928E-02 0. -1.
       -1   -1    0    0    0  501  0.00000000000E+00  0.00000000000E+00 -0.18654806721E+04  0.18654806721E+04  0.50400001928E-02 0.  1.
    10030    2    1    2    0    0  0.00000000000E+00  0.00000000000E+00  0.69001836851E+02  0.37999631810E+04  0.37993366425E+04 0.  0.
        3    1    3    3  502    0 -0.45454954974E+03  0.99014979753E+02 -0.18076281190E+04  0.18665311908E+04  0.10100000352E+00 0.  1.
       -3    1    3    3    0  502  0.45454954974E+03 -0.99014979753E+02  0.18766299558E+04  0.19334319902E+04  0.10100000352E+00 0. -1.
</event>
<event>
 5   0  0.4071750E-09  0.3800227E+04  0.7818609E-02  0.8046106E-01
        1   -1    0    0  501    0  0.00000000000E+00  0.00000000000E+00  0.27775018135E+04  0.27775018135E+04  0.50400001928E-02 0.  1.
       -1   -1    0    0    0  501  0.00000000000E+00  0.00000000000E+00 -0.12998843192E+04  0.12998843192E+04  0.50400001928E-02 0. -1.
    10030    2    1    2    0    0  0.00000000000E+00  0.00000000000E+00  0.14776174943E+04  0.40773861327E+04  0.38002268637E+04 0.  0.
        4    1    3    3  502    0 -0.21669658607E+03  0.93481378052E+03  0.24984161504E+04  0.26763630337E+04  0.12699999809E+01 0.  1.
       -4    1    3    3    0  502  0.21669658607E+03 -0.93481378052E+03 -0.10207986561E+04  0.14010230990E+04  0.12699999809E+01 0. -1.
</event>
<event>
 5   0  0.1293993E-08  0.3799730E+04  0.7818609E-02  0.8046213E-01
       -2   -1    0    0    0  501  0.00000000000E+00  0.00000000000E+00  0.14372952751E+04  0.14372952751E+04  0.25500000920E-02 0. -1.
        2   -1    0    0  501    0  0.00000000000E+00  0.00000000000E+00 -0.25113051173E+04  0.25113051173E+04  0.25500000920E-02 0.  1.
    10030    2    1    2    0    0  0.00000000000E+00  0.00000000000E+00 -0.10740098422E+04  0.39486003924E+04  0.37997299796E+04 0.  0.
        5    1    3    3  502    0  0.10979146472E+04  0.14958486627E+04 -0.96101690181E+03  0.20896304386E+04  0.46999998093E+01 0.  1.
       -5    1    3    3    0  502 -0.10979146472E+04 -0.14958486627E+04 -0.11299294034E+03  0.18589699538E+04  0.46999998093E+01 0. -1.
</event>
<event>
 5   0  0.4071750E-09  0.3794403E+04  0.7818609E-02  0.8047357E-01
       -1   -1    0    0    0  501  0.00000000000E+00  0.00000000000E+00  0.13462224235E+04  0.13462224236E+04  0.50400001928E-02 0. -1.
        1   -1    0    0  501    0  0.00000000000E+00  0.00000000000E+00 -0.26736847315E+04  0.26736847315E+04  0.50400001928E-02 0.  1.
    10030    2    1    2    0    0  0.00000000000E+00  0.00000000000E+00 -0.13274623079E+04  0.40199071550E+04  0.37944034256E+04 0.  0.
        4    1    3    3  502    0  0.39027800268E+02 -0.16104385487E+04 -0.17254567845E+04  0.23605588780E+04  0.12699999809E+01 0.  1.
       -4    1    3    3    0  502 -0.39027800268E+02  0.16104385487E+04  0.39799447655E+03  0.16593482771E+04  0.12699999809E+01 0. -1.
</event>
<event>
 5   0  0.4071750E-09  0.3785799E+04  0.7818609E-02  0.8049209E-01
       -1   -1    0    0    0  501  0.00000000000E+00  0.00000000000E+00  0.15767750509E+04  0.15767750509E+04  0.50400001928E-02 0. -1.
        1   -1    0    0  501    0  0.00000000000E+00  0.00000000000E+00 -0.22724032675E+04  0.22724032675E+04  0.50400001928E-02 0.  1.
    10030    2    1    2    0    0  0.00000000000E+00  0.00000000000E+00 -0.69562821657E+03  0.38491783183E+04  0.37857991377E+04 0.  0.
        2    1    3    3  502    0  0.10724069820E+03  0.11898882992E+04  0.11450079827E+04  0.16548045239E+04  0.25500000920E-02 0. -1.
       -2    1    3    3    0  502 -0.10724069820E+03 -0.11898882992E+04 -0.18406361992E+04  0.21943737945E+04  0.25500000920E-02 0.  1.
</event>
<event>
 5   0  0.4071750E-09  0.3794480E+04  0.7818609E-02  0.8047340E-01
       -3   -1    0    0    0  501  0.00000000000E+00  0.00000000000E+00  0.25245047767E+04  0.25245047787E+04  0.10100000352E+00 0.  1.
        3   -1    0    0  501    0  0.00000000000E+00  0.00000000000E+00 -0.14258322369E+04  0.14258322405E+04  0.10100000352E+00 0. -1.
    10030    2    1    2    0    0  0.00000000000E+00  0.00000000000E+00  0.10986725397E+04  0.39503370192E+04  0.37944803617E+04 0.  0.
        2    1    3    3  502    0  0.88740635563E+03 -0.78241123169E+03  0.20934512978E+04  0.24046196605E+04  0.25500000920E-02 0.  1.
       -2    1    3    3    0  502 -0.88740635563E+03  0.78241123169E+03 -0.99477875804E+03  0.15457173587E+04  0.25500000920E-02 0. -1.
</event>
<event>
 5   0  0.1261152E-08  0.3811928E+04  0.7818609E-02  0.8043600E-01
       -2   -1    0    0    0  501  0.00000000000E+00  0.00000000000E+00  0.14232081089E+04  0.14232081089E+04  0.25500000920E-02 0. -1.
        2   -1    0    0  501    0  0.00000000000E+00  0.00000000000E+00 -0.25524720894E+04  0.25524720894E+04  0.25500000920E-02 0.  1.
    10030    2    1    2    0    0  0.00000000000E+00  0.00000000000E+00 -0.11292639806E+04  0.39756801983E+04  0.38119281081E+04 0.  0.
        2    1    3    3  502    0 -0.85116271718E+03 -0.13136127032E+04 -0.16988420988E+04  0.23100044982E+04  0.25500000920E-02 0.  1.
       -2    1    3    3    0  502  0.85116271718E+03  0.13136127032E+04  0.56957811819E+03  0.16656757001E+04  0.25500000920E-02 0. -1.
</event>
<event>
 5   0  0.1264013E-08  0.3799985E+04  0.7818609E-02  0.8046158E-01
       -2   -1    0    0    0  501  0.00000000000E+00  0.00000000000E+00  0.17152582693E+04  0.17152582693E+04  0.25500000920E-02 0.  1.
        2   -1    0    0  501    0  0.00000000000E+00  0.00000000000E+00 -0.21046228912E+04  0.21046228912E+04  0.25500000920E-02 0. -1.
    10030    2    1    2    0    0  0.00000000000E+00  0.00000000000E+00 -0.38936462184E+03  0.38198811605E+04  0.37999851673E+04 0.  0.
        4    1    3    3  502    0 -0.10032607640E+04 -0.13565272051E+03 -0.18109053024E+04  0.20746839394E+04  0.12699999809E+01 0. -1.
       -4    1    3    3    0  502  0.10032607640E+04  0.13565272051E+03  0.14215406805E+04  0.17451972211E+04  0.12699999809E+01 0.  1.
</event>
<event>
 5   0  0.1305088E-08  0.3801411E+04  0.7818609E-02  0.8045852E-01
        2   -1    0    0  501    0  0.00000000000E+00  0.00000000000E+00  0.27581188781E+04  0.27581188781E+04  0.25500000920E-02 0.  1.
       -2   -1    0    0    0  501  0.00000000000E+00  0.00000000000E+00 -0.13098355396E+04  0.13098355396E+04  0.25500000920E-02 0. -1.
    10030    2    1    2    0    0  0.00000000000E+00  0.00000000000E+00  0.14482833385E+04  0.40679544177E+04  0.38014113847E+04 0.  0.
        3    1    3    3  502    0  0.10382284780E+03 -0.13557853821E+04 -0.69703997264E+03  0.15280045549E+04  0.10100000352E+00 0. -1.
       -3    1    3    3    0  502 -0.10382284780E+03  0.13557853821E+04  0.21453233112E+04  0.25399498628E+04  0.10100000352E+00 0.  1.
</event>
<event>
 5   0  0.4071750E-09  0.3804419E+04  0.7818609E-02  0.8045207E-01
       -1   -1    0    0    0  501  0.00000000000E+00  0.00000000000E+00  0.21930425029E+04  0.21930425029E+04  0.50400001928E-02 0. -1.
        1   -1    0    0  501    0  0.00000000000E+00  0.00000000000E+00 -0.16499459326E+04  0.16499459326E+04  0.50400001928E-02 0.  1.
    10030    2    1    2    0    0  0.00000000000E+00  0.00000000000E+00  0.54309657033E+03  0.38429884355E+04  0.38044193027E+04 0.  0.
        1    1    3    3  502    0 -0.17227182423E+04 -0.80464886993E+03  0.32854380825E+03  0.19295489058E+04  0.50400001928E-02 0.  1.
       -1    1    3    3    0  502  0.17227182423E+04  0.80464886993E+03  0.21455276208E+03  0.19134395297E+04  0.50400001928E-02 0. -1.
</event>
<event>
 5   0  0.4071750E-09  0.3799616E+04  0.7818609E-02  0.8046237E-01
        1   -1    0    0  501    0  0.00000000000E+00  0.00000000000E+00  0.13050685940E+04  0.13050685940E+04  0.50400001928E-02 0.  1.
       -1   -1    0    0    0  501  0.00000000000E+00  0.00000000000E+00 -0.27655797173E+04  0.27655797173E+04  0.50400001928E-02 0. -1.
    10030    2    1    2    0    0  0.00000000000E+00  0.00000000000E+00 -0.14605111233E+04  0.40706483113E+04  0.37996164192E+04 0.  0.
        3    1    3    3  502    0  0.26172015634E+02 -0.15493027297E+04 -0.19078662630E+04  0.24578400294E+04  0.10100000352E+00 0. -1.
       -3    1    3    3    0  502 -0.26172015634E+02  0.15493027297E+04  0.44735513968E+03  0.16128082818E+04  0.10100000352E+00 0.  1.
</event>
<event>
 5   0  0.4071750E-09  0.3800631E+04  0.7818609E-02  0.8046020E-01
       -1   -1    0    0    0  501  0.00000000000E+00  0.00000000000E+00  0.15714910886E+04  0.15714910887E+04  0.50400001928E-02 0.  1.
        1   -1    0    0  501    0  0.00000000000E+00  0.00000000000E+00 -0.22979439145E+04  0.22979439145E+04  0.50400001928E-02 0. -1.
    10030    2    1    2    0    0  0.00000000000E+00  0.00000000000E+00 -0.72645282584E+03  0.38694350031E+04  0.38006306760E+04 0.  0.
        5    1    3    3  502    0 -0.78338548967E+03 -0.17003029391E+04 -0.31047834586E+02  0.18723538576E+04  0.46999998093E+01 0.  1.
       -5    1    3    3    0  502  0.78338548967E+03  0.17003029391E+04 -0.69540499125E+03  0.19970811455E+04  0.46999998093E+01 0. -1.
</event>
<event>
 5   0  0.4071750E-09  0.3785765E+04  0.7818609E-02  0.8049216E-01
        1   -1    0    0  501    0  0.00000000000E+00  0.00000000000E+00  0.12170501557E+04  0.12170501557E+04  0.50400001928E-02 0. -1.
       -1   -1    0    0    0  501  0.00000000000E+00  0.00000000000E+00 -0.29440077222E+04  0.29440077222E+04  0.50400001928E-02 0.  1.
    10030    2    1    2    0    0  0.00000000000E+00  0.00000000000E+00 -0.17269575664E+04  0.41610578779E+04  0.37857654744E+04 0.  0.
        5    1    3    3  502    0  0.18465177814E+04  0.40092951014E+03 -0.74004968892E+03  0.20293023484E+04  0.46999998093E+01 0. -1.
       -5    1    3    3    0  502 -0.18465177814E+04 -0.40092951014E+03 -0.98690787752E+03  0.21317555295E+04  0.46999998093E+01 0.  1.
</event>
<event>
 5   0  0.1261152E-08  0.3800059E+04  0.7818609E-02  0.8046142E-01
       -2   -1    0    0    0  501  0.00000000000E+00  0.00000000000E+00  0.17574727267E+04  0.17574727267E+04  0.25500000920E-02 0. -1.
        2   -1    0    0  501    0  0.00000000000E+00  0.00000000000E+00 -0.20541500497E+04  0.20541500497E+04  0.25500000920E-02 0.  1.
    10030    2    1    2    0    0  0.00000000000E+00  0.00000000000E+00 -0.29667732295E+03  0.38116227764E+04  0.38000593095E+04 0.  0.
        2    1    3    3  502    0  0.10047014700E+04  0.87610882148E+03 -0.15063866049E+04  0.20115149302E+04  0.25500000920E-02 0.  1.
       -2    1    3    3    0  502 -0.10047014700E+04 -0.87610882148E+03  0.12097092820E+04  0.18001078462E+04  0.25500000920E-02 0. -1.
</event>
<event>
 5   0  0.1261152E-08  0.3799123E+04  0.7818609E-02  0.8046343E-01
       -2   -1    0    0    0  501  0.00000000000E+00  0.00000000000E+00  0.18096018006E+04  0.18096018006E+04  0.25500000920E-02 0.  1.
        2   -1    0    0  501    0  0.00000000000E+00  0.00000000000E+00 -0.19939937888E+04  0.19939937888E+04  0.25500000920E-02 0. -1.
    10030    2    1    2    0    0  0.00000000000E+00  0.00000000000E+00 -0.18439198818E+03  0.38035955894E+04  0.37991234519E+04 0.  0.
        2    1    3    3  502    0 -0.31992804424E+03 -0.39466533028E+01  0.17824304145E+04  0.18109190242E+04  0.25500000920E-02 0.  1.
       -2    1    3    3    0  502  0.31992804424E+03  0.39466533028E+01 -0.19668224027E+04  0.19926765652E+04  0.25500000920E-02 0. -1.
</event>
<event>
 5   0  0.4071750E-09  0.3801244E+04  0.7818609E-02  0.8045888E-01
        1   -1    0    0  501    0  0.00000000000E+00  0.00000000000E+00  0.21425801239E+04  0.21425801239E+04  0.50400001928E-02 0.  1.
       -1   -1    0    0    0  501  0.00000000000E+00  0.00000000000E+00 -0.16859874671E+04  0.16859874671E+04  0.50400001928E-02 0. -1.
    10030    2    1    2    0    0  0.00000000000E+00  0.00000000000E+00  0.45659265677E+03  0.38285675910E+04  0.38012436051E+04 0.  0.
        3    1    3    3  502    0 -0.24188096212E+03  0.15805154281E+04 -0.80662458754E+03  0.17908597526E+04  0.10100000352E+00 0. -1.
       -3    1    3    3    0  502  0.24188096212E+03 -0.15805154281E+04  0.12632172443E+04  0.20377078384E+04  0.10100000352E+00 0.  1.
</event>
<event>
 5   0  0.4071750E-09  0.3794468E+04  0.7818609E-02  0.8047343E-01
        1   -1    0    0  501    0  0.00000000000E+00  0.00000000000E+00  0.16717981449E+04  0.16717981449E+04  0.50400001928E-02 0.  1.
       -1   -1    0    0    0  501  0.00000000000E+00  0.00000000000E+00 -0.21530695737E+04  0.21530695737E+04  0.50400001928E-02 0. -1.
    10030    2    1    2    0    0  0.00000000000E+00  0.00000000000E+00 -0.48127142877E+03  0.38248677186E+04  0.37944684577E+04 0.  0.
        1    1    3    3  502    0 -0.11683645415E+03  0.35027824626E+03 -0.21164993159E+04  0.21484680498E+04  0.50400001928E-02 0. -1.
       -1    1    3    3    0  502  0.11683645415E+03 -0.35027824626E+03  0.16352278871E+04  0.16763996688E+04  0.50400001928E-02 0.  1.
</event>
<event>
 5   0  0.1327249E-08  0.3800701E+04  0.7818609E-02  0.8046005E-01
       -2   -1    0    0    0  501  0.00000000000E+00  0.00000000000E+00  0.20279377177E+04  0.20279377177E+04  0.25500000920E-02 0. -1.
        2   -1    0    0  501    0  0.00000000000E+00  0.00000000000E+00 -0.17807902088E+04  0.17807902088E+04  0.25500000920E-02 0.  1.
    10030    2    1    2    0    0  0.00000000000E+00  0.00000000000E+00  0.24714750893E+03  0.38087279265E+04  0.38007007942E+04 0.  0.
        1    1    3    3  502    0 -0.56699446637E+03  0.48922508377E+03 -0.16266853006E+04  0.17907900421E+04  0.50400001928E-02 0.  1.
       -1    1    3    3    0  502  0.56699446637E+03 -0.48922508377E+03  0.18738328095E+04  0.20179378845E+04  0.50400001928E-02 0. -1.
</event>
<event>
 5   0  0.1293993E-08  0.3804722E+04  0.7818609E-02  0.8045142E-01
       -2   -1    0    0    0  501  0.00000000000E+00  0.00000000000E+00  0.11784729120E+04  0.11784729120E+04  0.25500000920E-02 0. -1.
        2   -1    0    0  501    0  0.00000000000E+00  0.00000000000E+00 -0.30709036989E+04  0.30709036989E+04  0.25500000920E-02 0.  1.
    10030    2    1    2    0    0  0.00000000000E+00  0.00000000000E+00 -0.18924307869E+04  0.42493766109E+04  0.38047217109E+04 0.  0.
        5    1    3    3  502    0 -0.96409150196E+03  0.23409165600E+03  0.86665411601E+03  0.13173392784E+04  0.46999998093E+01 0. -1.
       -5    1    3    3    0  502  0.96409150196E+03 -0.23409165600E+03 -0.27590849029E+04  0.29320373325E+04  0.46999998093E+01 0.  1.
</event>
<event>
 5   0  0.4071750E-09  0.3804311E+04  0.7818609E-02  0.8045230E-01
       -1   -1    0    0    0  501  0.00000000000E+00  0.00000000000E+00  0.17140399240E+04  0.17140399240E+04  0.50400001928E-02 0.  1.
        1   -1    0    0  501    0  0.00000000000E+00  0.00000000000E+00 -0.21109168629E+04  0.21109168629E+04  0.50400001928E-02 0. -1.
    10030    2    1    2    0    0  0.00000000000E+00  0.00000000000E+00 -0.39687693894E+03  0.38249567869E+04  0.38043111226E+04 0.  0.
        2    1    3    3  502    0 -0.33370587072E+03  0.12083581312E+04 -0.16368339904E+04  0.20617260956E+04  0.25500000920E-02 0. -1.
       -2    1    3    3    0  502  0.33370587072E+03 -0.12083581312E+04  0.12399570514E+04  0.17632306913E+04  0.25500000920E-02 0.  1.
</event>
<event>
 5   0  0.4071750E-09  0.3798305E+04  0.7818609E-02  0.8046519E-01
       -1   -1    0    0    0  501  0.00000000000E+00  0.00000000000E+00  0.13988899288E+04  0.13988899288E+04  0.50400001928E-02 0.  1.
        1   -1    0    0  501    0  0.00000000000E+00  0.00000000000E+00 -0.25783153063E+04  0.25783153063E+04  0.50400001928E-02 0. -1.
    10030    2    1    2    0    0  0.00000000000E+00  0.00000000000E+00 -0.11794253775E+04  0.39772052351E+04  0.37983045245E+04 0.  0.
        2    1    3    3  502    0 -0.19519210682E+03  0.23293490161E+03 -0.25526891640E+04  0.25707159694E+04  0.25500000920E-02 0. -1.
       -2    1    3    3    0  502  0.19519210682E+03 -0.23293490161E+03  0.13732637866E+04  0.14064892657E+04  0.25500000920E-02 0.  1.
</event>
<event>
 5   0  0.4071750E-09  0.3799414E+04  0.7818609E-02  0.8046281E-01
        1   -1    0    0  501    0  0.00000000000E+00  0.00000000000E+00  0.22514657874E+04  0.22514657874E+04  0.50400001928E-02 0.  1.
       -1   -1    0    0    0  501  0.00000000000E+00  0.00000000000E+00 -0.16029055758E+04  0.16029055758E+04  0.50400001928E-02 0. -1.
    10030    2    1    2    0    0  0.00000000000E+00  0.00000000000E+00  0.64856021166E+03  0.38543713632E+04  0.37994141993E+04 0.  0.
        3    1    3    3  502    0  0.48771806988E+03  0.23714106890E+03  0.21712695653E+04  0.22379714783E+04  0.10100000352E+00 0.  1.
       -3    1    3    3    0  502 -0.48771806988E+03 -0.23714106890E+03 -0.15227093536E+04  0.16163998850E+04  0.10100000352E+00 0. -1.
</event>
<event>
 5   0  0.1305088E-08  0.3799974E+04  0.7818609E-02  0.8046160E-01
        2   -1    0    0  501    0  0.00000000000E+00  0.00000000000E+00  0.19936048508E+04  0.19936048508E+04  0.25500000920E-02 0. -1.
       -2   -1    0    0    0  501  0.00000000000E+00  0.00000000000E+00 -0.18107656338E+04  0.18107656338E+04  0.25500000920E-02 0.  1.
    10030    2    1    2    0    0  0.00000000000E+00  0.00000000000E+00  0.18283921697E+03  0.38043704846E+04  0.37999742900E+04 0.  0.
        3    1    3    3  502    0 -0.14490853870E+04  0.76556318917E+03 -0.87094981744E+03  0.18559334713E+04  0.10100000352E+00 0.  1.
       -3    1    3    3    0  502  0.14490853870E+04 -0.76556318917E+03  0.10537890344E+04  0.19484370132E+04  0.10100000352E+00 0. -1.
</event>
<event>
 5   0  0.4071750E-09  0.3800428E+04  0.7818609E-02  0.8046063E-01
       -1   -1    0    0    0  501  0.00000000000E+00  0.00000000000E+00  0.21205557990E+04  0.21205557990E+04  0.50400001928E-02 0.  1.
        1   -1    0    0  501    0  0.00000000000E+00  0.00000000000E+00 -0.17027674788E+04  0.17027674788E+04  0.50400001928E-02 0. -1.
    10030    2    1    2    0    0  0.00000000000E+00  0.00000000000E+00  0.41778832019E+03  0.38233232778E+04  0.38004281083E+04 0.  0.
        5    1    3    3  502    0  0.40789753287E+03  0.10439845740E+04 -0.13347902154E+04  0.17429776812E+04  0.46999998093E+01 0. -1.
       -5    1    3    3    0  502 -0.40789753287E+03 -0.10439845740E+04  0.17525785356E+04  0.20803455966E+04  0.46999998093E+01 0.  1.
</event>
<event>
 5   0  0.4071750E-09  0.3801064E+04  0.7818609E-02  0.8045927E-01
       -1   -1    0    0    0  501  0.00000000000E+00  0.00000000000E+00  0.15970646565E+04  0.15970646565E+04  0.50400001928E-02 0. -1.
        1   -1    0    0  501    0  0.00000000000E+00  0.00000000000E+00 -0.22616624009E+04  0.22616624009E+04  0.50400001928E-02 0.  1.
    10030    2    1    2    0    0  0.00000000000E+00  0.00000000000E+00 -0.66459774441E+03  0.38587270573E+04  0.38010635803E+04 0.  0.
        4    1    3    3  502    0 -0.13372510917E+03  0.50794387082E+03 -0.21865152595E+04  0.22487196299E+04  0.12699999809E+01 0.  1.
       -4    1    3    3    0  502  0.13372510917E+03 -0.50794387082E+03  0.15219175151E+04  0.16100074275E+04  0.12699999809E+01 0. -1.
</event>
<event>
 5   0  0.1305088E-08  0.3790943E+04  0.7818609E-02  0.8048101E-01
       -2   -1    0    0    0  501  0.00000000000E+00  0.00000000000E+00  0.12505058563E+04  0.12505058563E+04  0.25500000920E-02 0.  1.
        2   -1    0    0  501    0  0.00000000000E+00  0.00000000000E+00 -0.28730868600E+04  0.28730868600E+04  0.25500000920E-02 0. -1.
    10030    2    1    2    0    0  0.00000000000E+00  0.00000000000E+00 -0.16225810037E+04  0.41235927163E+04  0.37909428611E+04 0.  0.
        3    1    3    3  502    0 -0.24148012485E+03 -0.20755323133E+03  0.12212051789E+04  0.12620352981E+04  0.10100000352E+00 0.  1.
       -3    1    3    3    0  502  0.24148012485E+03  0.20755323133E+03 -0.28437861826E+04  0.28615574181E+04  0.10100000352E+00 0. -1.
</event>
<event>
 5   0  0.1293993E-08  0.3788646E+04  0.7818609E-02  0.8048596E-01
        2   -1    0    0  501    0  0.00000000000E+00  0.00000000000E+00  0.22432275693E+04  0.22432275693E+04  0.25500000920E-02 0. -1.
       -2   -1    0    0    0  501  0.00000000000E+00  0.00000000000E+00 -0.15996855646E+04  0.15996855646E+04  0.25500000920E-02 0.  1.
    10030    2    1    2    0    0  0.00000000000E+00  0.00000000000E+00  0.64354200464E+03  0.38429131339E+04  0.37886455420E+04 0.  0.
        5    1    3    3  502    0 -0.74337664619E+03 -0.13578004724E+04 -0.78575056183E+03  0.17359887662E+04  0.46999998093E+01 0.  1.
       -5    1    3    3    0  502  0.74337664619E+03  0.13578004724E+04  0.14292925665E+04  0.21069243678E+04  0.46999998093E+01 0. -1.
</event>
<event>
 5   0  0.1293993E-08  0.3798928E+04  0.7818609E-02  0.8046385E-01
       -2   -1    0    0    0  501  0.00000000000E+00  0.00000000000E+00  0.19346667940E+04  0.19346667940E+04  0.25500000920E-02 0. -1.
        2   -1    0    0  501    0  0.00000000000E+00  0.00000000000E+00 -0.18649015276E+04  0.18649015276E+04  0.25500000920E-02 0.  1.
    10030    2    1    2    0    0  0.00000000000E+00  0.00000000000E+00  0.69765266343E+02  0.37995683216E+04  0.37989277748E+04 0.  0.
        5    1    3    3  502    0 -0.12516203818E+04 -0.65973520320E+03 -0.12326656012E+04  0.18765102432E+04  0.46999998093E+01 0.  1.
       -5    1    3    3    0  502  0.12516203818E+04  0.65973520320E+03  0.13024308675E+04  0.19230580784E+04  0.46999998093E+01 0. -1.
</event>
<event>
 5   0  0.1293993E-08  0.3795481E+04  0.7818609E-02  0.8047125E-01
        2   -1    0    0  501    0  0.00000000000E+00  0.00000000000E+00  0.22530100237E+04  0.22530100237E+04  0.25500000920E-02 0. -1.
       -2   -1    0    0    0  501  0.00000000000E+00  0.00000000000E+00 -0.15984922099E+04  0.15984922099E+04  0.25500000920E-02 0.  1.
    10030    2    1    2    0    0  0.00000000000E+00  0.00000000000E+00  0.65451781377E+03  0.38515022335E+04  0.37954809822E+04 0.  0.
        5    1    3    3  502    0  0.40537699287E+03 -0.10662794811E+03 -0.15509236331E+04  0.16065759339E+04  0.46999998093E+01 0.  1.
       -5    1    3    3    0  502 -0.40537699287E+03  0.10662794811E+03  0.22054414468E+04  0.22449262997E+04  0.46999998093E+01 0. -1.
</event>
<event>
 5   0  0.1261152E-08  0.3799158E+04  0.7818609E-02  0.8046336E-01
       -2   -1    0    0    0  501  0.00000000000E+00  0.00000000000E+00  0.14987756526E+04  0.14987756526E+04  0.25500000920E-02 0.  1.
        2   -1    0    0  501    0  0.00000000000E+00  0.00000000000E+00 -0.24075651977E+04  0.24075651977E+04  0.25500000920E-02 0. -1.
    10030    2    1    2    0    0  0.00000000000E+00  0.00000000000E+00 -0.90878954517E+03  0.39063408503E+04  0.37991578542E+04 0.  0.
        2    1    3    3  502    0  0.54420784222E+03  0.15784723326E+04  0.47706741272E+03  0.17364706726E+04  0.25500000920E-02 0.  1.
       -2    1    3    3    0  502 -0.54420784222E+03 -0.15784723326E+04 -0.13858569579E+04  0.21698701777E+04  0.25500000920E-02 0. -1.
</event>
<event>
 5   0  0.1264013E-08  0.3800503E+04  0.7818609E-02  0.8046047E-01
       -2   -1    0    0    0  501  0.00000000000E+00  0.00000000000E+00  0.16898438348E+04  0.16898438348E+04  0.25500000920E-02 0.  1.
        2   -1    0    0  501    0  0.00000000000E+00  0.00000000000E+00 -0.21368572707E+04  0.21368572707E+04  0.25500000920E-02 0. -1.
    10030    2    1    2    0    0  0.00000000000E+00  0.00000000000E+00 -0.44701343592E+03  0.38267011055E+04  0.38005026429E+04 0.  0.
        4    1    3    3  502    0  0.27640603964E+03 -0.17759165621E+04  0.39773390551E+03  0.18407807601E+04  0.12699999809E+01 0.  1.
       -4    1    3    3    0  502 -0.27640603964E+03  0.17759165621E+04 -0.84474734143E+03  0.19859203453E+04  0.12699999809E+01 0. -1.
</event>
<event>
 5   0  0.1305088E-08  0.3798081E+04  0.7818609E-02  0.8046567E-01
        2   -1    0    0  501    0  0.00000000000E+00  0.00000000000E+00  0.22249344273E+04  0.22249344273E+04  0.25500000920E-02 0. -1.
       -2   -1    0    0    0  501  0.00000000000E+00  0.00000000000E+00 -0.16208812387E+04  0.16208812387E+04  0.25500000920E-02 0.  1.
    10030    2    1    2    0    0  0.00000000000E+00  0.00000000000E+00  0.60405318866E+03  0.38458156660E+04  0.37980808156E+04 0.  0.
        3    1    3    3  502    0  0.13092603322E+04  0.98491173658E+03 -0.67032394949E+03  0.17701830283E+04  0.10100000352E+00 0.  1.
       -3    1    3    3    0  502 -0.13092603322E+04 -0.98491173658E+03  0.12743771382E+04  0.20756326377E+04  0.10100000352E+00 0. -1.
</event>
<event>
 5   0  0.1293993E-08  0.3799190E+04  0.7818609E-02  0.8046329E-01
        2   -1    0    0  501    0  0.00000000000E+00  0.00000000000E+00  0.20957261663E+04  0.20957261663E+04  0.25500000920E-02 0.  1.
       -2   -1    0    0    0  501  0.00000000000E+00  0.00000000000E+00 -0.17218192230E+04  0.17218192230E+04  0.25500000920E-02 0. -1.
    10030    2    1    2    0    0  0.00000000000E+00  0.00000000000E+00  0.37390694333E+03  0.38175453892E+04  0.37991902291E+04 0.  0.
        5    1    3    3  502    0  0.10661333843E+04  0.15600520348E+04  0.38292589123E+03  0.19279670829E+04  0.46999998093E+01 0. -1.
       -5    1    3    3    0  502 -0.10661333843E+04 -0.15600520348E+04 -0.90189479000E+01  0.18895783064E+04  0.46999998093E+01 0.  1.
</event>
<event>
 5   0  0.1264013E-08  0.3800115E+04  0.7818609E-02  0.8046130E-01
       -2   -1    0    0    0  501  0.00000000000E+00  0.00000000000E+00  0.12651211529E+04  0.12651211529E+04  0.25500000920E-02 0. -1.
        2   -1    0    0  501    0  0.00000000000E+00  0.00000000000E+00 -0.28536540678E+04  0.28536540678E+04  0.25500000920E-02 0.  1.
    10030    2    1    2    0    0  0.00000000000E+00  0.00000000000E+00 -0.15885329149E+04  0.41187752207E+04  0.38001148006E+04 0.  0.
        4    1    3    3  502    0  0.96810066268E+03 -0.89847373806E+03 -0.22747283527E+04  0.26303734797E+04  0.12699999809E+01 0.  1.
       -4    1    3    3    0  502 -0.96810066268E+03  0.89847373806E+03  0.68619543782E+03  0.14884017411E+04  0.12699999809E+01 0. -1.
</event>
<event>
 5   0  0.1327249E-08  0.3803956E+04  0.7818609E-02  0.8045307E-01
       -2   -1    0    0    0  501  0.00000000000E+00  0.00000000000E+00  0.11719832329E+04  0.11719832329E+04  0.25500000920E-02 0.  1.
        2   -1    0    0  501    0  0.00000000000E+00  0.00000000000E+00 -0.30866648611E+04  0.30866648611E+04  0.25500000920E-02 0. -1.
    10030    2    1    2    0    0  0.00000000000E+00  0.00000000000E+00 -0.19146816281E+04  0.42586480940E+04  0.38039555533E+04 0.  0.
        1    1    3    3  502    0 -0.92691826367E+03 -0.54586720203E+03 -0.27133897717E+04  0.29188409555E+04  0.50400001928E-02 0. -1.
       -1    1    3    3    0  502  0.92691826367E+03  0.54586720203E+03  0.79870814363E+03  0.13398071385E+04  0.50400001928E-02 0.  1.
</event>
<event>
 5   0  0.4071750E-09  0.3798658E+04  0.7818609E-02  0.8046443E-01
       -1   -1    0    0    0  501  0.00000000000E+00  0.00000000000E+00  0.20505497986E+04  0.20505497986E+04  0.50400001928E-02 0.  1.
        1   -1    0    0  501    0  0.00000000000E+00  0.00000000000E+00 -0.17592602726E+04  0.17592602726E+04  0.50400001928E-02 0. -1.
    10030    2    1    2    0    0  0.00000000000E+00  0.00000000000E+00  0.29128952601E+03  0.38098100712E+04  0.37986580776E+04 0.  0.
        2    1    3    3  502    0  0.89620873524E+03 -0.13286599625E+03 -0.15285693904E+04  0.17768983796E+04  0.25500000920E-02 0. -1.
       -2    1    3    3    0  502 -0.89620873524E+03  0.13286599625E+03  0.18198589164E+04  0.20329116916E+04  0.25500000920E-02 0.  1.
</event>
<event>
 5   0  0.1305088E-08  0.3799349E+04  0.7818609E-02  0.8046295E-01
        2   -1    0    0  501    0  0.00000000000E+00  0.00000000000E+00  0.15221788180E+04  0.15221788180E+04  0.25500000920E-02 0. -1.
       -2   -1    0    0    0  501  0.00000000000E+00  0.00000000000E+00 -0.23707884875E+04  0.23707884875E+04  0.25500000920E-02 0.  1.
    10030    2    1    2    0    0  0.00000000000E+00  0.00000000000E+00 -0.84860966946E+03  0.38929673055E+04  0.37993494273E+04 0.  0.
        3    1    3    3  502    0  0.67996122783E+03  0.31040877727E+03  0.13651713906E+04  0.15564041301E+04  0.10100000352E+00 0. -1.
       -3    1    3    3    0  502 -0.67996122783E+03 -0.31040877727E+03 -0.22137810601E+04  0.23365631754E+04  0.10100000352E+00 0.  1.
</event>
<event>
 5   0  0.4071750E-09  0.3800535E+04  0.7818609E-02  0.8046040E-01
        1   -1    0    0  501    0  0.00000000000E+00  0.00000000000E+00  0.11645490590E+04  0.11645490590E+04  0.50400001928E-02 0.  1.
       -1   -1    0    0    0  501  0.00000000000E+00  0.00000000000E+00 -0.31007857289E+04  0.31007857289E+04  0.50400001928E-02 0. -1.
    10030    2    1    2    0    0  0.00000000000E+00  0.00000000000E+00 -0.19362366699E+04  0.42653347879E+04  0.38005352795E+04 0.  0.
        4    1    3    3  502    0 -0.14774219793E+04  0.39688856143E+03  0.29700586087E+03  0.15583678415E+04  0.12699999809E+01 0.  1.
       -4    1    3    3    0  502  0.14774219793E+04 -0.39688856143E+03 -0.22332425307E+04  0.27069669464E+04  0.12699999809E+01 0. -1.
</event>
<event>
 5   0  0.4071750E-09  0.3800292E+04  0.7818609E-02  0.8046092E-01
        1   -1    0    0  501    0  0.00000000000E+00  0.00000000000E+00  0.24371347203E+04  0.24371347203E+04  0.50400001928E-02 0.  1.
       -1   -1    0    0    0  501  0.00000000000E+00  0.00000000000E+00 -0.14814754350E+04  0.14814754350E+04  0.50400001928E-02 0. -1.
    10030    2    1    2    0    0  0.00000000000E+00  0.00000000000E+00  0.95565928536E+03  0.39186101553E+04  0.38002922097E+04 0.  0.
        1    1    3    3  502    0  0.16248544793E+04  0.96747564805E+03  0.66905984452E+03  0.20059417449E+04  0.50400001928E-02 0. -1.
       -1    1    3    3    0  502 -0.16248544793E+04 -0.96747564805E+03  0.28659944085E+03  0.19126684104E+04  0.50400001928E-02 0.  1.
</event>
<event>
 5   0  0.4071750E-09  0.3796542E+04  0.7818609E-02  0.8046897E-01
       -1   -1    0    0    0  501  0.00000000000E+00  0.00000000000E+00  0.22917182138E+04  0.22917182139E+04  0.50400001928E-02 0.  1.
        1   -1    0    0  501    0  0.00000000000E+00  0.00000000000E+00 -0.15723716020E+04  0.15723716020E+04  0.50400001928E-02 0. -1.
    10030    2    1    2    0    0  0.00000000000E+00  0.00000000000E+00  0.71934661184E+03  0.38640898159E+04  0.37965419209E+04 0.  0.
        5    1    3    3  502    0 -0.10814192745E+04  0.14794382525E+04 -0.14431909885E+03  0.18382206838E+04  0.46999998093E+01 0.  1.
       -5    1    3    3    0  502  0.10814192745E+04 -0.14794382525E+04  0.86366571069E+03  0.20258691320E+04  0.46999998093E+01 0. -1.
</event>
<event>
 5   0  0.1264013E-08  0.3800829E+04  0.7818609E-02  0.8045977E-01
       -2   -1    0    0    0  501  0.00000000000E+00  0.00000000000E+00  0.17927268871E+04  0.17927268871E+04  0.25500000920E-02 0.  1.
        2   -1    0    0  501    0  0.00000000000E+00  0.00000000000E+00 -0.20145709187E+04  0.20145709187E+04  0.25500000920E-02 0. -1.
    10030    2    1    2    0    0  0.00000000000E+00  0.00000000000E+00 -0.22184403160E+03  0.38072978058E+04  0.38008290948E+04 0.  0.
        4    1    3    3  502    0  0.42660818592E+03  0.26300794150E+03  0.17253388978E+04  0.17966534576E+04  0.12699999809E+01 0.  1.
       -4    1    3    3    0  502 -0.42660818592E+03 -0.26300794150E+03 -0.19471829294E+04  0.20106443482E+04  0.12699999809E+01 0. -1.
</event>
<event>
 5   0  0.4071750E-09  0.3801103E+04  0.7818609E-02  0.8045918E-01
       -1   -1    0    0    0  501  0.00000000000E+00  0.00000000000E+00  0.20935768593E+04  0.20935768594E+04  0.50400001928E-02 0. -1.
        1   -1    0    0  501    0  0.00000000000E+00  0.00000000000E+00 -0.17253231669E+04  0.17253231669E+04  0.50400001928E-02 0.  1.
    10030    2    1    2    0    0  0.00000000000E+00  0.00000000000E+00  0.36825369242E+03  0.38189000263E+04  0.38011033436E+04 0.  0.
        2    1    3    3  502    0 -0.13576143617E+04 -0.50291429147E+03 -0.10529207048E+04  0.17901624368E+04  0.25500000920E-02 0.  1.
       -2    1    3    3    0  502  0.13576143617E+04  0.50291429147E+03  0.14211743972E+04  0.20287375895E+04  0.25500000920E-02 0. -1.
</event>
<event>
 5   0  0.1261152E-08  0.3797162E+04  0.7818609E-02  0.8046764E-01
       -2   -1    0    0    0  501  0.00000000000E+00  0.00000000000E+00  0.19617008545E+04  0.19617008545E+04  0.25500000920E-02 0.  1.
        2   -1    0    0  501    0  0.00000000000E+00  0.00000000000E+00 -0.18374919511E+04  0.18374919511E+04  0.25500000920E-02 0. -1.
    10030    2    1    2    0    0  0.00000000000E+00  0.00000000000E+00  0.12420890341E+03  0.37991928056E+04  0.37971618509E+04 0.  0.
        2    1    3    3  502    0 -0.32154935771E+03 -0.16097524841E+04  0.10165079801E+04  0.19307991929E+04  0.25500000920E-02 0.  1.
       -2    1    3    3    0  502  0.32154935771E+03  0.16097524841E+04 -0.89229907667E+03  0.18683936127E+04  0.25500000920E-02 0. -1.
</event>
<event>
 5   0  0.1327249E-08  0.3799502E+04  0.7818609E-02  0.8046262E-01
       -2   -1    0    0    0  501  0.00000000000E+00  0.00000000000E+00  0.18557856273E+04  0.18557856273E+04  0.25500000920E-02 0.  1.
        2   -1    0    0  501    0  0.00000000000E+00  0.00000000000E+00 -0.19447582344E+04  0.19447582344E+04  0.25500000920E-02 0. -1.
    10030    2    1    2    0    0  0.00000000000E+00  0.00000000000E+00 -0.88972607105E+02  0.38005438618E+04  0.37995022727E+04 0.  0.
        1    1    3    3  502    0  0.17428845226E+04  0.37244256373E+03 -0.70246177917E+03  0.19156754614E+04  0.50400001928E-02 0. -1.
       -1    1    3    3    0  502 -0.17428845226E+04 -0.37244256373E+03  0.61348917206E+03  0.18848684003E+04  0.50400001928E-02 0.  1.
</event>
<event>
 5   0  0.1293993E-08  0.3800637E+04  0.7818609E-02  0.8046018E-01
        2   -1    0    0  501    0  0.00000000000E+00  0.00000000000E+00  0.14380749976E+04  0.14380749977E+04  0.25500000920E-02 0. -1.
       -2   -1    0    0    0  501  0.00000000000E+00  0.00000000000E+00 -0.25111415052E+04  0.25111415052E+04  0.25500000920E-02 0.  1.
    10030    2    1    2    0    0  0.00000000000E+00  0.00000000000E+00 -0.10730665076E+04  0.39492165029E+04  0.38006366910E+04 0.  0.
        5    1    3    3  502    0  0.10948510456E+03 -0.49877974276E+03  0.13654390153E+04  0.14578113782E+04  0.46999998093E+01 0. -1.
       -5    1    3    3    0  502 -0.10948510456E+03  0.49877974276E+03 -0.24385055229E+04  0.24914051246E+04  0.46999998093E+01 0.  1.
</event>
<event>
 5   0  0.4071750E-09  0.3799422E+04  0.7818609E-02  0.8046279E-01
       -1   -1    0    0    0  501  0.00000000000E+00  0.00000000000E+00  0.17926350714E+04  0.17926350714E+04  0.50400001928E-02 0. -1.
        1   -1    0    0  501    0  0.00000000000E+00  0.00000000000E+00 -0.20131824910E+04  0.20131824910E+04  0.50400001928E-02 0.  1.
    10030    2    1    2    0    0  0.00000000000E+00  0.00000000000E+00 -0.22054741965E+03  0.38058175624E+04  0.37994218184E+04 0.  0.
        2    1    3    3  502    0 -0.18187833097E+04  0.54855383591E+03 -0.10608336946E+03  0.19026659507E+04  0.25500000920E-02 0.  1.
       -2    1    3    3    0  502  0.18187833097E+04 -0.54855383591E+03 -0.11446405020E+03  0.19031516118E+04  0.25500000920E-02 0. -1.
</event>
<event>
 5   0  0.4071750E-09  0.3810699E+04  0.7818609E-02  0.8043863E-01
       -1   -1    0    0    0  501  0.00000000000E+00  0.00000000000E+00  0.28174912239E+04  0.28174912239E+04  0.50400001928E-02 0.  1.
        1   -1    0    0  501    0  0.00000000000E+00  0.00000000000E+00 -0.12885070605E+04  0.12885070605E+04  0.50400001928E-02 0. -1.
    10030    2    1    2    0    0  0.00000000000E+00  0.00000000000E+00  0.15289841634E+04  0.41059982845E+04  0.38106993243E+04 0.  0.
        4    1    3    3  502    0 -0.43260858939E+03 -0.12544201983E+04  0.22377967096E+04  0.26016256364E+04  0.12699999809E+01 0.  1.
       -4    1    3    3    0  502  0.43260858939E+03  0.12544201983E+04 -0.70881254622E+03  0.15043726481E+04  0.12699999809E+01 0. -1.
</event>
<event>
 5   0  0.1264013E-08  0.3800553E+04  0.7818609E-02  0.8046036E-01
        2   -1    0    0  501    0  0.00000000000E+00  0.00000000000E+00  0.12685278946E+04  0.12685278946E+04  0.25500000920E-02 0.  1.
       -2   -1    0    0    0  501  0.00000000000E+00  0.00000000000E+00 -0.28466466572E+04  0.28466466572E+04  0.25500000920E-02 0. -1.
    10030    2    1    2    0    0  0.00000000000E+00  0.00000000000E+00 -0.15781187626E+04  0.41151745518E+04  0.38005529549E+04 0.  0.
        4    1    3    3  502    0  0.70271917663E+03 -0.68623180735E+03 -0.25504785312E+04  0.27330698282E+04  0.12699999809E+01 0. -1.
       -4    1    3    3    0  502 -0.70271917663E+03  0.68623180735E+03  0.97235976863E+03  0.13821047237E+04  0.12699999809E+01 0.  1.
</event>
<event>
 5   0  0.1305088E-08  0.3799169E+04  0.7818609E-02  0.8046333E-01
        2   -1    0    0  501    0  0.00000000000E+00  0.00000000000E+00  0.13249209295E+04  0.13249209295E+04  0.25500000920E-02 0.  1.
       -2   -1    0    0    0  501  0.00000000000E+00  0.00000000000E+00 -0.27234995493E+04  0.27234995493E+04  0.25500000920E-02 0. -1.
    10030    2    1    2    0    0  0.00000000000E+00  0.00000000000E+00 -0.13985786198E+04  0.40484204788E+04  0.37991691483E+04 0.  0.
        3    1    3    3  502    0 -0.10217846944E+04 -0.15444269898E+04 -0.24829352214E+03  0.18684079778E+04  0.10100000352E+00 0.  1.
       -3    1    3    3    0  502  0.10217846944E+04  0.15444269898E+04 -0.11502850977E+04  0.21800125010E+04  0.10100000352E+00 0. -1.
</event>
<event>
 5   0  0.4071750E-09  0.3803771E+04  0.7818609E-02  0.8045346E-01
        1   -1    0    0  501    0  0.00000000000E+00  0.00000000000E+00  0.35642260538E+04  0.35642260538E+04  0.50400001928E-02 0.  1.
       -1   -1    0    0    0  501  0.00000000000E+00  0.00000000000E+00 -0.10148539552E+04  0.10148539552E+04  0.50400001928E-02 0. -1.
    10030    2    1    2    0    0  0.00000000000E+00  0.00000000000E+00  0.25493720985E+04  0.45790800090E+04  0.38037712382E+04 0.  0.
        1    1    3    3  502    0 -0.84927422535E+03  0.11533225259E+04 -0.23166072454E+03  0.14508915362E+04  0.50400001928E-02 0. -1.
       -1    1    3    3    0  502  0.84927422535E+03 -0.11533225259E+04  0.27810328231E+04  0.31281884728E+04  0.50400001928E-02 0.  1.
</event>
<event>
 5   0  0.4071750E-09  0.3797124E+04  0.7818609E-02  0.8046772E-01
        1   -1    0    0  501    0  0.00000000000E+00  0.00000000000E+00  0.15000940705E+04  0.15000940706E+04  0.50400001928E-02 0.  1.
       -1   -1    0    0    0  501  0.00000000000E+00  0.00000000000E+00 -0.24028745107E+04  0.24028745107E+04  0.50400001928E-02 0. -1.
    10030    2    1    2    0    0  0.00000000000E+00  0.00000000000E+00 -0.90278044019E+03  0.39029685813E+04  0.37971240727E+04 0.  0.
        3    1    3    3  502    0 -0.54521544233E+03  0.69898601621E+03 -0.21770867373E+04  0.23506484215E+04  0.10100000352E+00 0. -1.
       -3    1    3    3    0  502  0.54521544233E+03 -0.69898601621E+03  0.12743062971E+04  0.15523201598E+04  0.10100000352E+00 0.  1.
</event>
<event>
 5   0  0.4071750E-09  0.3796663E+04  0.7818609E-02  0.8046871E-01
       -1   -1    0    0    0  501  0.00000000000E+00  0.00000000000E+00  0.16409948527E+04  0.16409948527E+04  0.50400001928E-02 0. -1.
        1   -1    0    0  501    0  0.00000000000E+00  0.00000000000E+00 -0.21960225958E+04  0.21960225958E+04  0.50400001928E-02 0.  1.
    10030    2    1    2    0    0  0.00000000000E+00  0.00000000000E+00 -0.55502774313E+03  0.38370174485E+04  0.37966626272E+04 0.  0.
        2    1    3    3  502    0  0.14908278590E+04  0.58955938087E+02 -0.14637092113E+04  0.20900928599E+04  0.25500000920E-02 0.  1.
       -2    1    3    3    0  502 -0.14908278590E+04 -0.58955938087E+02  0.90868146821E+03  0.17469245886E+04  0.25500000920E-02 0. -1.
</event>
<event>
 5   0  0.4071750E-09  0.3797753E+04  0.7818609E-02  0.8046637E-01
       -1   -1    0    0    0  501  0.00000000000E+00  0.00000000000E+00  0.18715204919E+04  0.18715204919E+04  0.50400001928E-02 0.  1.
        1   -1    0    0  501    0  0.00000000000E+00  0.00000000000E+00 -0.19266319644E+04  0.19266319644E+04  0.50400001928E-02 0. -1.
    10030    2    1    2    0    0  0.00000000000E+00  0.00000000000E+00 -0.55111472540E+02  0.37981524563E+04  0.37977525995E+04 0.  0.
        2    1    3    3  502    0 -0.13991509359E+04  0.54401335101E+02 -0.13103241492E+04  0.19176892925E+04  0.25500000920E-02 0. -1.
       -2    1    3    3    0  502  0.13991509359E+04 -0.54401335101E+02  0.12552126767E+04  0.18804631638E+04  0.25500000920E-02 0.  1.
</event>
<event>
 5   0  0.1293993E-08  0.3795967E+04  0.7818609E-02  0.8047021E-01
        2   -1    0    0  501    0  0.00000000000E+00  0.00000000000E+00  0.23368714016E+04  0.23368714016E+04  0.25500000920E-02 0.  1.
       -2   -1    0    0    0  501  0.00000000000E+00  0.00000000000E+00 -0.15415228881E+04  0.15415228881E+04  0.25500000920E-02 0. -1.
    10030    2    1    2    0    0  0.00000000000E+00  0.00000000000E+00  0.79534851350E+03  0.38783942897E+04  0.37959666764E+04 0.  0.
        5    1    3    3  502    0 -0.67204512642E+03 -0.10619122448E+04  0.18508872379E+04  0.22372098527E+04  0.46999998093E+01 0.  1.
       -5    1    3    3    0  502  0.67204512642E+03  0.10619122448E+04 -0.10555387244E+04  0.16411844370E+04  0.46999998093E+01 0. -1.
</event>
<event>
 5   0  0.4071750E-09  0.3810733E+04  0.7818609E-02  0.8043855E-01
        1   -1    0    0  501    0  0.00000000000E+00  0.00000000000E+00  0.11328170232E+04  0.11328170232E+04  0.50400001928E-02 0. -1.
       -1   -1    0    0    0  501  0.00000000000E+00  0.00000000000E+00 -0.32047734532E+04  0.32047734532E+04  0.50400001928E-02 0.  1.
    10030    2    1    2    0    0  0.00000000000E+00  0.00000000000E+00 -0.20719564300E+04  0.43375904764E+04  0.38107332225E+04 0.  0.
        5    1    3    3  502    0  0.99551970879E+03  0.30822703699E+03 -0.28516078766E+04  0.30360752575E+04  0.46999998093E+01 0.  1.
       -5    1    3    3    0  502 -0.99551970879E+03 -0.30822703699E+03  0.77965144666E+03  0.13015152190E+04  0.46999998093E+01 0. -1.
</event>
<event>
 5   0  0.4071750E-09  0.3799965E+04  0.7818609E-02  0.8046162E-01
        1   -1    0    0  501    0  0.00000000000E+00  0.00000000000E+00  0.18591514021E+04  0.18591514021E+04  0.50400001928E-02 0. -1.
       -1   -1    0    0    0  501  0.00000000000E+00  0.00000000000E+00 -0.19417102072E+04  0.19417102072E+04  0.50400001928E-02 0.  1.
    10030    2    1    2    0    0  0.00000000000E+00  0.00000000000E+00 -0.82558805080E+02  0.38008616093E+04  0.37999648705E+04 0.  0.
        3    1    3    3  502    0  0.14169313944E+04 -0.12572463759E+04 -0.18818208972E+03  0.19036216891E+04  0.10100000352E+00 0.  1.
       -3    1    3    3    0  502 -0.14169313944E+04  0.12572463759E+04  0.10562328464E+03  0.18972399202E+04  0.10100000352E+00 0. -1.
</event>
<event>
 5   0  0.4071750E-09  0.3799309E+04  0.7818609E-02  0.8046303E-01
       -1   -1    0    0    0  501  0.00000000000E+00  0.00000000000E+00  0.14817815889E+04  0.14817815889E+04  0.50400001928E-02 0. -1.
        1   -1    0    0  501    0  0.00000000000E+00  0.00000000000E+00 -0.24353706574E+04  0.24353706574E+04  0.50400001928E-02 0.  1.
    10030    2    1    2    0    0  0.00000000000E+00  0.00000000000E+00 -0.95358906854E+03  0.39171522463E+04  0.37993090963E+04 0.  0.
        5    1    3    3  502    0 -0.16359765167E+04 -0.84713590959E+03 -0.95442020909E+03  0.20748490157E+04  0.46999998093E+01 0.  1.
       -5    1    3    3    0  502  0.16359765167E+04  0.84713590959E+03  0.83114055068E+00  0.18423032306E+04  0.46999998093E+01 0. -1.
</event>
<event>
 5   0  0.4071750E-09  0.3799446E+04  0.7818609E-02  0.8046274E-01
       -1   -1    0    0    0  501  0.00000000000E+00  0.00000000000E+00  0.15779168625E+04  0.15779168625E+04  0.50400001928E-02 0.  1.
        1   -1    0    0  501    0  0.00000000000E+00  0.00000000000E+00 -0.22871595099E+04  0.22871595099E+04  0.50400001928E-02 0. -1.
    10030    2    1    2    0    0  0.00000000000E+00  0.00000000000E+00 -0.70924264738E+03  0.38650763725E+04  0.37994460428E+04 0.  0.
        1    1    3    3  502    0 -0.82640220122E+03  0.19726681456E+03 -0.20831164829E+04  0.22497175546E+04  0.50400001928E-02 0. -1.
       -1    1    3    3    0  502  0.82640220122E+03 -0.19726681456E+03  0.13738738355E+04  0.16153588178E+04  0.50400001928E-02 0.  1.
</event>
<event>
 5   0  0.1261152E-08  0.3800740E+04  0.7818609E-02  0.8045996E-01
       -2   -1    0    0    0  501  0.00000000000E+00  0.00000000000E+00  0.19119237170E+04  0.19119237170E+04  0.25500000920E-02 0.  1.
        2   -1    0    0  501    0  0.00000000000E+00  0.00000000000E+00 -0.18888856673E+04  0.18888856673E+04  0.25500000920E-02 0. -1.
    10030    2    1    2    0    0  0.00000000000E+00  0.00000000000E+00  0.23038049684E+02  0.38008093844E+04  0.38007395628E+04 0.  0.
        2    1    3    3  502    0  0.87996015834E+03 -0.71211864918E+03  0.15379685200E+04  0.19096570423E+04  0.25500000920E-02 0.  1.
       -2    1    3    3    0  502 -0.87996015834E+03  0.71211864918E+03 -0.15149304703E+04  0.18911523420E+04  0.25500000920E-02 0. -1.
</event>
<event>
 5   0  0.1327249E-08  0.3803195E+04  0.7818609E-02  0.8045470E-01
       -2   -1    0    0    0  501  0.00000000000E+00  0.00000000000E+00  0.15692829821E+04  0.15692829821E+04  0.25500000920E-02 0.  1.
        2   -1    0    0  501    0  0.00000000000E+00  0.00000000000E+00 -0.23042832438E+04  0.23042832438E+04  0.25500000920E-02 0. -1.
    10030    2    1    2    0    0  0.00000000000E+00  0.00000000000E+00 -0.73500026178E+03  0.38735662259E+04  0.38031946994E+04 0.  0.
        1    1    3    3  502    0  0.17941834476E+04  0.29129527945E+03 -0.93651931764E+03  0.20447531919E+04  0.50400001928E-02 0. -1.
       -1    1    3    3    0  502 -0.17941834476E+04 -0.29129527945E+03  0.20151905586E+03  0.18288130340E+04  0.50400001928E-02 0.  1.
</event>
<event>
 5   0  0.4071750E-09  0.3807756E+04  0.7818609E-02  0.8044493E-01
        3   -1    0    0  501    0  0.00000000000E+00  0.00000000000E+00  0.13961133340E+04  0.13961133377E+04  0.10100000352E+00 0. -1.
       -3   -1    0    0    0  501  0.00000000000E+00  0.00000000000E+00 -0.25963156547E+04  0.25963156567E+04  0.10100000352E+00 0.  1.
    10030    2    1    2    0    0  0.00000000000E+00  0.00000000000E+00 -0.12002023207E+04  0.39924289943E+04  0.38077557254E+04 0.  0.
        3    1    3    3  502    0 -0.17714914110E+04  0.50560742066E+03 -0.11039595663E+04  0.21476841987E+04  0.10100000352E+00 0.  1.
       -3    1    3    3    0  502  0.17714914110E+04 -0.50560742066E+03 -0.96242754425E+02  0.18447447956E+04  0.10100000352E+00 0. -1.
</event>
<event>
 5   0  0.4071750E-09  0.3801246E+04  0.7818609E-02  0.8045888E-01
       -1   -1    0    0    0  501  0.00000000000E+00  0.00000000000E+00  0.14990505888E+04  0.14990505888E+04  0.50400001928E-02 0. -1.
        1   -1    0    0  501    0  0.00000000000E+00  0.00000000000E+00 -0.24097699145E+04  0.24097699146E+04  0.50400001928E-02 0.  1.
    10030    2    1    2    0    0  0.00000000000E+00  0.00000000000E+00 -0.91071932573E+03  0.39088205034E+04  0.38012455902E+04 0.  0.
        2    1    3    3  502    0  0.89534745300E+03  0.87474262171E+03  0.10153412044E+04  0.16117504388E+04  0.25500000920E-02 0. -1.
       -2    1    3    3    0  502 -0.89534745300E+03 -0.87474262171E+03 -0.19260605301E+04  0.22970700645E+04  0.25500000920E-02 0.  1.
</event>
<event>
 5   0  0.4071750E-09  0.3799735E+04  0.7818609E-02  0.8046212E-01
        1   -1    0    0  501    0  0.00000000000E+00  0.00000000000E+00  0.28105891606E+04  0.28105891606E+04  0.50400001928E-02 0. -1.
       -1   -1    0    0    0  501  0.00000000000E+00  0.00000000000E+00 -0.12842488753E+04  0.12842488753E+04  0.50400001928E-02 0.  1.
    10030    2    1    2    0    0  0.00000000000E+00  0.00000000000E+00  0.15263402853E+04  0.40948380359E+04  0.37997347110E+04 0.  0.
        3    1    3    3  502    0 -0.15292476039E+04  0.40587470417E+03  0.18965959693E+04  0.24699005629E+04  0.10100000352E+00 0. -1.
       -3    1    3    3    0  502  0.15292476039E+04 -0.40587470417E+03 -0.37025568395E+03  0.16249374730E+04  0.10100000352E+00 0.  1.
</event>
<event>
 5   0  0.1261152E-08  0.3799596E+04  0.7818609E-02  0.8046242E-01
        2   -1    0    0  501    0  0.00000000000E+00  0.00000000000E+00  0.21133171581E+04  0.21133171581E+04  0.25500000920E-02 0.  1.
       -2   -1    0    0    0  501  0.00000000000E+00  0.00000000000E+00 -0.17078520543E+04  0.17078520543E+04  0.25500000920E-02 0. -1.
    10030    2    1    2    0    0  0.00000000000E+00  0.00000000000E+00  0.40546510388E+03  0.38211692124E+04  0.37995963206E+04 0.  0.
        2    1    3    3  502    0 -0.97973695433E+03 -0.16429255982E+03  0.18312959806E+04  0.20833918291E+04  0.25500000920E-02 0.  1.
       -2    1    3    3    0  502  0.97973695433E+03  0.16429255982E+03 -0.14258308767E+04  0.17377773833E+04  0.25500000920E-02 0. -1.
</event>
<event>
 5   0  0.1327249E-08  0.3800913E+04  0.7818609E-02  0.8045959E-01
        2   -1    0    0  501    0  0.00000000000E+00  0.00000000000E+00  0.26253758636E+04  0.26253758636E+04  0.25500000920E-02 0.  1.
       -2   -1    0    0    0  501  0.00000000000E+00  0.00000000000E+00 -0.13757023723E+04  0.13757023723E+04  0.25500000920E-02 0. -1.
    10030    2    1    2    0    0  0.00000000000E+00  0.00000000000E+00  0.12496734913E+04  0.40010782360E+04  0.38009134712E+04 0.  0.
        1    1    3    3  502    0 -0.10757951358E+04 -0.28893064459E+03  0.22457041340E+04  0.25067914052E+04  0.50400001928E-02 0.  1.
       -1    1    3    3    0  502  0.10757951358E+04  0.28893064459E+03 -0.99603064264E+03  0.14942868308E+04  0.50400001928E-02 0. -1.
</event>
<event>
 5   0  0.4071750E-09  0.3798642E+04  0.7818609E-02  0.8046446E-01
        1   -1    0    0  501    0  0.00000000000E+00  0.00000000000E+00  0.28909698632E+04  0.28909698632E+04  0.50400001928E-02 0. -1.
       -1   -1    0    0    0  501  0.00000000000E+00  0.00000000000E+00 -0.12478232334E+04  0.12478232334E+04  0.50400001928E-02 0.  1.
    10030    2    1    2    0    0  0.00000000000E+00  0.00000000000E+00  0.16431466298E+04  0.41387930966E+04  0.37986415269E+04 0.  0.
        1    1    3    3  502    0 -0.59384084605E+03 -0.13219361759E+04 -0.51606617637E+03  0.15383388775E+04  0.50400001928E-02 0.  1.
       -1    1    3    3    0  502  0.59384084605E+03  0.13219361759E+04  0.21592128062E+04  0.26004542192E+04  0.50400001928E-02 0. -1.
</event>
<event>
 5   0  0.1261152E-08  0.3798795E+04  0.7818609E-02  0.8046413E-01
       -2   -1    0    0    0  501  0.00000000000E+00  0.00000000000E+00  0.12576857774E+04  0.12576857774E+04  0.25500000920E-02 0. -1.
        2   -1    0    0  501    0  0.00000000000E+00  0.00000000000E+00 -0.28685315828E+04  0.28685315828E+04  0.25500000920E-02 0.  1.
    10030    2    1    2    0    0  0.00000000000E+00  0.00000000000E+00 -0.16108458054E+04  0.41262173602E+04  0.37987952688E+04 0.  0.
        2    1    3    3  502    0 -0.14224952235E+04 -0.64247954894E+03  0.37019449638E+03  0.16041560388E+04  0.25500000920E-02 0. -1.
       -2    1    3    3    0  502  0.14224952235E+04  0.64247954894E+03 -0.19810403018E+04  0.25220613214E+04  0.25500000920E-02 0.  1.
</event>
<event>
 5   0  0.4071750E-09  0.3797862E+04  0.7818609E-02  0.8046614E-01
        1   -1    0    0  501    0  0.00000000000E+00  0.00000000000E+00  0.26910894609E+04  0.26910894609E+04  0.50400001928E-02 0.  1.
       -1   -1    0    0    0  501  0.00000000000E+00  0.00000000000E+00 -0.13399548037E+04  0.13399548037E+04  0.50400001928E-02 0. -1.
    10030    2    1    2    0    0  0.00000000000E+00  0.00000000000E+00  0.13511346572E+04  0.40310442646E+04  0.37978616353E+04 0.  0.
        4    1    3    3  502    0 -0.20709296705E+02  0.37869951408E+03 -0.12993452870E+04  0.13535663946E+04  0.12699999809E+01 0. -1.
       -4    1    3    3    0  502  0.20709296705E+02 -0.37869951408E+03  0.26504799442E+04  0.26774778700E+04  0.12699999809E+01 0.  1.
</event>
<event>
 5   0  0.4071750E-09  0.3802483E+04  0.7818609E-02  0.8045622E-01
       -1   -1    0    0    0  501  0.00000000000E+00  0.00000000000E+00  0.16722140447E+04  0.16722140448E+04  0.50400001928E-02 0.  1.
        1   -1    0    0  501    0  0.00000000000E+00  0.00000000000E+00 -0.21616362269E+04  0.21616362269E+04  0.50400001928E-02 0. -1.
    10030    2    1    2    0    0  0.00000000000E+00  0.00000000000E+00 -0.48942218213E+03  0.38338502716E+04  0.38024825881E+04 0.  0.
        3    1    3    3  502    0 -0.10587090465E+04 -0.15626687169E+04 -0.14971625089E+02  0.18875970237E+04  0.10100000352E+00 0. -1.
       -3    1    3    3    0  502  0.10587090465E+04  0.15626687169E+04 -0.47445055704E+03  0.19462532480E+04  0.10100000352E+00 0.  1.
</event>
<event>
 5   0  0.1293993E-08  0.3799551E+04  0.7818609E-02  0.8046251E-01
        2   -1    0    0  501    0  0.00000000000E+00  0.00000000000E+00  0.13924411172E+04  0.13924411172E+04  0.25500000920E-02 0. -1.
       -2   -1    0    0    0  501  0.00000000000E+00  0.00000000000E+00 -0.25919572609E+04  0.25919572609E+04  0.25500000920E-02 0.  1.
    10030    2    1    2    0    0  0.00000000000E+00  0.00000000000E+00 -0.11995161437E+04  0.39843983780E+04  0.37995514809E+04 0.  0.
        5    1    3    3  502    0 -0.15248755833E+04 -0.40383675901E+03 -0.17099389104E+04  0.23264227560E+04  0.46999998093E+01 0.  1.
       -5    1    3    3    0  502  0.15248755833E+04  0.40383675901E+03  0.51042276671E+03  0.16579756220E+04  0.46999998093E+01 0. -1.
</event>
<event>
 5   0  0.1261152E-08  0.3803169E+04  0.7818609E-02  0.8045475E-01
        2   -1    0    0  501    0  0.00000000000E+00  0.00000000000E+00  0.29346636824E+04  0.29346636824E+04  0.25500000920E-02 0.  1.
       -2   -1    0    0    0  501  0.00000000000E+00  0.00000000000E+00 -0.12321764133E+04  0.12321764133E+04  0.25500000920E-02 0. -1.
    10030    2    1    2    0    0  0.00000000000E+00  0.00000000000E+00  0.17024872691E+04  0.41668400958E+04  0.38031688737E+04 0.  0.
        2    1    3    3  502    0  0.16588739783E+03  0.10179221986E+04  0.26016158652E+04  0.27985870258E+04  0.25500000920E-02 0.  1.
       -2    1    3    3    0  502 -0.16588739783E+03 -0.10179221986E+04 -0.89912859605E+03  0.13682530699E+04  0.25500000920E-02 0. -1.
</event>
<event>
 5   0  0.4071750E-09  0.3799760E+04  0.7818609E-02  0.8046206E-01
        3   -1    0    0  501    0  0.00000000000E+00  0.00000000000E+00  0.14820990354E+04  0.14820990389E+04  0.10100000352E+00 0. -1.
       -3   -1    0    0    0  501  0.00000000000E+00  0.00000000000E+00 -0.24354264041E+04  0.24354264062E+04  0.10100000352E+00 0.  1.
    10030    2    1    2    0    0  0.00000000000E+00  0.00000000000E+00 -0.95332736863E+03  0.39175254450E+04  0.37997595372E+04 0.  0.
        4    1    3    3  502    0 -0.61335308554E+03  0.13398321411E+04  0.75974983803E+03  0.16578822646E+04  0.12699999809E+01 0. -1.
       -4    1    3    3    0  502  0.61335308554E+03 -0.13398321411E+04 -0.17130772067E+04  0.22596431804E+04  0.12699999809E+01 0.  1.
</event>
<event>
 5   0  0.4071750E-09  0.3799070E+04  0.7818609E-02  0.8046355E-01
       -1   -1    0    0    0  501  0.00000000000E+00  0.00000000000E+00  0.19474530965E+04  0.19474530965E+04  0.50400001928E-02 0.  1.
        1   -1    0    0  501    0  0.00000000000E+00  0.00000000000E+00 -0.18527954988E+04  0.18527954988E+04  0.50400001928E-02 0. -1.
    10030    2    1    2    0    0  0.00000000000E+00  0.00000000000E+00  0.94657597789E+02  0.38002485953E+04  0.37990695341E+04 0.  0.
        2    1    3    3  502    0  0.96439325379E+03 -0.41299310100E+03 -0.15367076357E+04  0.18606686989E+04  0.25500000920E-02 0. -1.
       -2    1    3    3    0  502 -0.96439325379E+03  0.41299310100E+03  0.16313652335E+04  0.19395798964E+04  0.25500000920E-02 0.  1.
</event>
<event>
 5   0  0.4071750E-09  0.3799809E+04  0.7818609E-02  0.8046196E-01
       -1   -1    0    0    0  501  0.00000000000E+00  0.00000000000E+00  0.17607254429E+04  0.17607254429E+04  0.50400001928E-02 0.  1.
        1   -1    0    0  501    0  0.00000000000E+00  0.00000000000E+00 -0.20500852085E+04  0.20500852085E+04  0.50400001928E-02 0. -1.
    10030    2    1    2    0    0  0.00000000000E+00  0.00000000000E+00 -0.28935976560E+03  0.38108106514E+04  0.37998090409E+04 0.  0.
        1    1    3    3  502    0 -0.12438730143E+04 -0.99235841926E+03  0.89642103392E+03  0.18263531909E+04  0.50400001928E-02 0. -1.
       -1    1    3    3    0  502  0.12438730143E+04  0.99235841926E+03 -0.11857807995E+04  0.19844574605E+04  0.50400001928E-02 0.  1.
</event>
<event>
 5   0  0.1261152E-08  0.3797683E+04  0.7818609E-02  0.8046652E-01
        2   -1    0    0  501    0  0.00000000000E+00  0.00000000000E+00  0.15689632046E+04  0.15689632046E+04  0.25500000920E-02 0. -1.
       -2   -1    0    0    0  501  0.00000000000E+00  0.00000000000E+00 -0.22980772821E+04  0.22980772821E+04  0.25500000920E-02 0.  1.
    10030    2    1    2    0    0  0.00000000000E+00  0.00000000000E+00 -0.72911407752E+03  0.38670404868E+04  0.37976828183E+04 0.  0.
        2    1    3    3  502    0 -0.16505080549E+04  0.57771562577E+03  0.38900345650E+03  0.17914396091E+04  0.25500000920E-02 0. -1.
       -2    1    3    3    0  502  0.16505080549E+04 -0.57771562577E+03 -0.11181175340E+04  0.20756008777E+04  0.25500000920E-02 0.  1.
</event>
<event>
 5   0  0.4071750E-09  0.3799402E+04  0.7818609E-02  0.8046283E-01
        1   -1    0    0  501    0  0.00000000000E+00  0.00000000000E+00  0.17306537789E+04  0.17306537789E+04  0.50400001928E-02 0.  1.
       -1   -1    0    0    0  501  0.00000000000E+00  0.00000000000E+00 -0.20852609524E+04  0.20852609524E+04  0.50400001928E-02 0. -1.
    10030    2    1    2    0    0  0.00000000000E+00  0.00000000000E+00 -0.35460717351E+03  0.38159147313E+04  0.37994024516E+04 0.  0.
        1    1    3    3  502    0 -0.91481830562E+03  0.15362391489E+04 -0.82191966247E+03  0.19678605607E+04  0.50400001928E-02 0.  1.
       -1    1    3    3    0  502  0.91481830562E+03 -0.15362391489E+04  0.46731248896E+03  0.18480541706E+04  0.50400001928E-02 0. -1.
</event>
<event>
 5   0  0.1293993E-08  0.3800178E+04  0.7818609E-02  0.8046117E-01
        2   -1    0    0  501    0  0.00000000000E+00  0.00000000000E+00  0.19382093394E+04  0.19382093394E+04  0.25500000920E-02 0.  1.
       -2   -1    0    0    0  501  0.00000000000E+00  0.00000000000E+00 -0.18627183983E+04  0.18627183983E+04  0.25500000920E-02 0. -1.
    10030    2    1    2    0    0  0.00000000000E+00  0.00000000000E+00  0.75490941084E+02  0.38009277378E+04  0.38001779939E+04 0.  0.
        5    1    3    3  502    0  0.47194100961E+03  0.20816400877E+03 -0.17913459032E+04  0.18641359409E+04  0.46999998093E+01 0. -1.
       -5    1    3    3    0  502 -0.47194100961E+03 -0.20816400877E+03  0.18668368443E+04  0.19367917969E+04  0.46999998093E+01 0.  1.
</event>
<event>
 5   0  0.4071750E-09  0.3802382E+04  0.7818609E-02  0.8045644E-01
        1   -1    0    0  501    0  0.00000000000E+00  0.00000000000E+00  0.25845721506E+04  0.25845721506E+04  0.50400001928E-02 0. -1.
       -1   -1    0    0    0  501  0.00000000000E+00  0.00000000000E+00 -0.13985011429E+04  0.13985011429E+04  0.50400001928E-02 0.  1.
    10030    2    1    2    0    0  0.00000000000E+00  0.00000000000E+00  0.11860710077E+04  0.39830732935E+04  0.38023819412E+04 0.  0.
        3    1    3    3  502    0 -0.16601533509E+04  0.76924500874E+02  0.15602212737E+04  0.22795431473E+04  0.10100000352E+00 0. -1.
       -3    1    3    3    0  502  0.16601533509E+04 -0.76924500874E+02 -0.37415026607E+03  0.17035301462E+04  0.10100000352E+00 0.  1.
</event>
<event>
 5   0  0.4071750E-09  0.3799726E+04  0.7818609E-02  0.8046214E-01
       -1   -1    0    0    0  501  0.00000000000E+00  0.00000000000E+00  0.16128826532E+04  0.16128826532E+04  0.50400001928E-02 0. -1.
        1   -1    0    0  501    0  0.00000000000E+00  0.00000000000E+00 -0.22379054343E+04  0.22379054343E+04  0.50400001928E-02 0.  1.
    10030    2    1    2    0    0  0.00000000000E+00  0.00000000000E+00 -0.62502278112E+03  0.38507880875E+04  0.37997257029E+04 0.  0.
        5    1    3    3  502    0  0.74880553401E+03  0.17412463802E+04 -0.18112317067E+03  0.19040683751E+04  0.46999998093E+01 0.  1.
       -5    1    3    3    0  502 -0.74880553401E+03 -0.17412463802E+04 -0.44389961045E+03  0.19467197123E+04  0.46999998093E+01 0. -1.
</event>
<event>
 5   0  0.1261152E-08  0.3796783E+04  0.7818609E-02  0.8046846E-01
        2   -1    0    0  501    0  0.00000000000E+00  0.00000000000E+00  0.29456990118E+04  0.29456990118E+04  0.25500000920E-02 0. -1.
       -2   -1    0    0    0  501  0.00000000000E+00  0.00000000000E+00 -0.12234413611E+04  0.12234413611E+04  0.25500000920E-02 0.  1.
    10030    2    1    2    0    0  0.00000000000E+00  0.00000000000E+00  0.17222576507E+04  0.41691403730E+04  0.37967828531E+04 0.  0.
        2    1    3    3  502    0 -0.48918319367E+03 -0.17772006525E+04  0.13596917221E+04  0.22905248166E+04  0.25500000920E-02 0.  1.
       -2    1    3    3    0  502  0.48918319367E+03  0.17772006525E+04  0.36256592858E+03  0.18786155564E+04  0.25500000920E-02 0. -1.
</event>
<event>
 5   0  0.4071750E-09  0.3800253E+04  0.7818609E-02  0.8046101E-01
       -1   -1    0    0    0  501  0.00000000000E+00  0.00000000000E+00  0.26581480432E+04  0.26581480433E+04  0.50400001928E-02 0.  1.
        1   -1    0    0  501    0  0.00000000000E+00  0.00000000000E+00 -0.13582692279E+04  0.13582692279E+04  0.50400001928E-02 0. -1.
    10030    2    1    2    0    0  0.00000000000E+00  0.00000000000E+00  0.12998788153E+04  0.40164172712E+04  0.38002529865E+04 0.  0.
        1    1    3    3  502    0  0.59500886003E+03  0.10250699381E+04 -0.91969045056E+03  0.15002114672E+04  0.50400001928E-02 0. -1.
       -1    1    3    3    0  502 -0.59500886003E+03 -0.10250699381E+04  0.22195692659E+04  0.25162058039E+04  0.50400001928E-02 0.  1.
</event>
<event>
 5   0  0.1261152E-08  0.3805470E+04  0.7818609E-02  0.8044982E-01
        2   -1    0    0  501    0  0.00000000000E+00  0.00000000000E+00  0.25644446708E+04  0.25644446708E+04  0.25500000920E-02 0.  1.
       -2   -1    0    0    0  501  0.00000000000E+00  0.00000000000E+00 -0.14117676058E+04  0.14117676058E+04  0.25500000920E-02 0. -1.
    10030    2    1    2    0    0  0.00000000000E+00  0.00000000000E+00  0.11526770650E+04  0.39762122766E+04  0.38054697020E+04 0.  0.
        2    1    3    3  502    0  0.64273282768E+03  0.21157169781E+02  0.24474531852E+04  0.25305296298E+04  0.25500000920E-02 0.  1.
       -2    1    3    3    0  502 -0.64273282768E+03 -0.21157169781E+02 -0.12947761203E+04  0.14456826468E+04  0.25500000920E-02 0. -1.
</event>
<event>
 5   0  0.4071750E-09  0.3791258E+04  0.7818609E-02  0.8048033E-01
       -1   -1    0    0    0  501  0.00000000000E+00  0.00000000000E+00  0.22256158031E+04  0.22256158031E+04  0.50400001928E-02 0.  1.
        1   -1    0    0  501    0  0.00000000000E+00  0.00000000000E+00 -0.16145689250E+04  0.16145689251E+04  0.50400001928E-02 0. -1.
    10030    2    1    2    0    0  0.00000000000E+00  0.00000000000E+00  0.61104687806E+03  0.38401847282E+04  0.37912584269E+04 0.  0.
        2    1    3    3  502    0 -0.12712437361E+04  0.11729881655E+04 -0.48001575242E+03  0.17950980462E+04  0.25500000920E-02 0. -1.
       -2    1    3    3    0  502  0.12712437361E+04 -0.11729881655E+04  0.10910626305E+04  0.20450866819E+04  0.25500000920E-02 0.  1.
</event>
<event>
 5   0  0.4071750E-09  0.3797702E+04  0.7818609E-02  0.8046648E-01
        1   -1    0    0  501    0  0.00000000000E+00  0.00000000000E+00  0.21617627619E+04  0.21617627619E+04  0.50400001928E-02 0. -1.
       -1   -1    0    0    0  501  0.00000000000E+00  0.00000000000E+00 -0.16679139532E+04  0.16679139532E+04  0.50400001928E-02 0.  1.
    10030    2    1    2    0    0  0.00000000000E+00  0.00000000000E+00  0.49384880864E+03  0.38296767151E+04  0.37977015544E+04 0.  0.
        2    1    3    3  502    0 -0.50119653355E+03 -0.10941742659E+04  0.17280381031E+04  0.21058326085E+04  0.25500000920E-02 0. -1.
       -2    1    3    3    0  502  0.50119653355E+03  0.10941742659E+04 -0.12341892945E+04  0.17238441066E+04  0.25500000920E-02 0.  1.
</event>
<event>
 5   0  0.4071750E-09  0.3799284E+04  0.7818609E-02  0.8046308E-01
        1   -1    0    0  501    0  0.00000000000E+00  0.00000000000E+00  0.13672857803E+04  0.13672857803E+04  0.50400001928E-02 0. -1.
       -1   -1    0    0    0  501  0.00000000000E+00  0.00000000000E+00 -0.26392730074E+04  0.26392730074E+04  0.50400001928E-02 0.  1.
    10030    2    1    2    0    0  0.00000000000E+00  0.00000000000E+00 -0.12719872271E+04  0.40065587876E+04  0.37992843817E+04 0.  0.
        4    1    3    3  502    0 -0.15492371115E+04 -0.10785937364E+04 -0.41194381809E+03  0.19321489067E+04  0.12699999809E+01 0. -1.
       -4    1    3    3    0  502  0.15492371115E+04  0.10785937364E+04 -0.86004340900E+03  0.20744098809E+04  0.12699999809E+01 0.  1.
</event>
<event>
 5   0  0.4071750E-09  0.3799615E+04  0.7818609E-02  0.8046237E-01
       -1   -1    0    0    0  501  0.00000000000E+00  0.00000000000E+00  0.13858636922E+04  0.13858636922E+04  0.50400001928E-02 0. -1.
        1   -1    0    0  501    0  0.00000000000E+00  0.00000000000E+00 -0.26043463708E+04  0.26043463708E+04  0.50400001928E-02 0.  1.
    10030    2    1    2    0    0  0.00000000000E+00  0.00000000000E+00 -0.12184826786E+04  0.39902100629E+04  0.37996152842E+04 0.  0.
        4    1    3    3  502    0 -0.86993196589E+02 -0.59568121461E+03 -0.25015333320E+04  0.25729505533E+04  0.12699999809E+01 0.  1.
       -4    1    3    3    0  502  0.86993196589E+02  0.59568121461E+03  0.12830506534E+04  0.14172595097E+04  0.12699999809E+01 0. -1.
</event>
<event>
 5   0  0.4071750E-09  0.3804339E+04  0.7818609E-02  0.8045224E-01
        1   -1    0    0  501    0  0.00000000000E+00  0.00000000000E+00  0.25256797977E+04  0.25256797977E+04  0.50400001928E-02 0. -1.
       -1   -1    0    0    0  501  0.00000000000E+00  0.00000000000E+00 -0.14325842297E+04  0.14325842297E+04  0.50400001928E-02 0.  1.
    10030    2    1    2    0    0  0.00000000000E+00  0.00000000000E+00  0.10930955680E+04  0.39582640275E+04  0.38043391266E+04 0.  0.
        5    1    3    3  502    0  0.10123676878E+03 -0.42782529671E+03  0.24720864638E+04  0.25108797148E+04  0.46999998093E+01 0. -1.
       -5    1    3    3    0  502 -0.10123676878E+03  0.42782529671E+03 -0.13789908958E+04  0.14473843126E+04  0.46999998093E+01 0.  1.
</event>
<event>
 5   0  0.4071750E-09  0.3800606E+04  0.7818609E-02  0.8046025E-01
       -1   -1    0    0    0  501  0.00000000000E+00  0.00000000000E+00  0.34983559809E+04  0.34983559809E+04  0.50400001928E-02 0. -1.
        1   -1    0    0  501    0  0.00000000000E+00  0.00000000000E+00 -0.10322423215E+04  0.10322423215E+04  0.50400001928E-02 0.  1.
    10030    2    1    2    0    0  0.00000000000E+00  0.00000000000E+00  0.24661136594E+04  0.45305983024E+04  0.38006057933E+04 0.  0.
        3    1    3    3  502    0 -0.15552506573E+04 -0.37311292984E+03  0.97246815540E+01  0.15994100303E+04  0.10100000352E+00 0.  1.
       -3    1    3    3    0  502  0.15552506573E+04  0.37311292984E+03  0.24563889778E+04  0.29311882720E+04  0.10100000352E+00 0. -1.
</event>
<event>
 5   0  0.1293993E-08  0.3800411E+04  0.7818609E-02  0.8046067E-01
       -2   -1    0    0    0  501  0.00000000000E+00  0.00000000000E+00  0.22712248518E+04  0.22712248518E+04  0.25500000920E-02 0. -1.
        2   -1    0    0  501    0  0.00000000000E+00  0.00000000000E+00 -0.15897949034E+04  0.15897949034E+04  0.25500000920E-02 0.  1.
    10030    2    1    2    0    0  0.00000000000E+00  0.00000000000E+00  0.68142994835E+03  0.38610197552E+04  0.38004113956E+04 0.  0.
        5    1    3    3  502    0  0.94708677200E+03  0.15969135331E+04  0.75170752663E+03  0.20030458012E+04  0.46999998093E+01 0.  1.
       -5    1    3    3    0  502 -0.94708677200E+03 -0.15969135331E+04 -0.70277578279E+02  0.18579739541E+04  0.46999998093E+01 0. -1.
</event>
<event>
 5   0  0.4071750E-09  0.3799234E+04  0.7818609E-02  0.8046319E-01
        1   -1    0    0  501    0  0.00000000000E+00  0.00000000000E+00  0.17894076685E+04  0.17894076685E+04  0.50400001928E-02 0.  1.
       -1   -1    0    0    0  501  0.00000000000E+00  0.00000000000E+00 -0.20166138556E+04  0.20166138556E+04  0.50400001928E-02 0. -1.
    10030    2    1    2    0    0  0.00000000000E+00  0.00000000000E+00 -0.22720618705E+03  0.38060215241E+04  0.37992337636E+04 0.  0.
        5    1    3    3  502    0  0.18446330517E+03 -0.64496183644E+03 -0.18940007775E+04  0.20092942832E+04  0.46999998093E+01 0. -1.
       -5    1    3    3    0  502 -0.18446330517E+03  0.64496183644E+03  0.16667945905E+04  0.17967272409E+04  0.46999998093E+01 0.  1.
</event>
<event>
 5   0  0.1327249E-08  0.3800057E+04  0.7818609E-02  0.8046143E-01
       -2   -1    0    0    0  501  0.00000000000E+00  0.00000000000E+00  0.28183159367E+04  0.28183159367E+04  0.25500000920E-02 0.  1.
        2   -1    0    0  501    0  0.00000000000E+00  0.00000000000E+00 -0.12809452274E+04  0.12809452274E+04  0.25500000920E-02 0. -1.
    10030    2    1    2    0    0  0.00000000000E+00  0.00000000000E+00  0.15373707093E+04  0.40992611641E+04  0.38000570251E+04 0.  0.
        1    1    3    3  502    0 -0.12150090648E+04  0.66272005417E+03  0.21729766563E+04  0.25762904430E+04  0.50400001928E-02 0.  1.
       -1    1    3    3    0  502  0.12150090648E+04 -0.66272005417E+03 -0.63560594698E+03  0.15229707212E+04  0.50400001928E-02 0. -1.
</event>
<event>
 5   0  0.4071750E-09  0.3799873E+04  0.7818609E-02  0.8046182E-01
        1   -1    0    0  501    0  0.00000000000E+00  0.00000000000E+00  0.15722405944E+04  0.15722405944E+04  0.50400001928E-02 0.  1.
       -1   -1    0    0    0  501  0.00000000000E+00  0.00000000000E+00 -0.22959325991E+04  0.22959325991E+04  0.50400001928E-02 0. -1.
    10030    2    1    2    0    0  0.00000000000E+00  0.00000000000E+00 -0.72369200466E+03  0.38681731935E+04  0.37998728581E+04 0.  0.
        3    1    3    3  502    0  0.85126628121E+03 -0.16448933035E+04  0.69359775049E+02  0.18534128115E+04  0.10100000352E+00 0.  1.
       -3    1    3    3    0  502 -0.85126628121E+03  0.16448933035E+04 -0.79305177971E+03  0.20147603820E+04  0.10100000352E+00 0. -1.
</event>
<event>
 5   0  0.4071750E-09  0.3794857E+04  0.7818609E-02  0.8047259E-01
       -1   -1    0    0    0  501  0.00000000000E+00  0.00000000000E+00  0.19953056258E+04  0.19953056259E+04  0.50400001928E-02 0.  1.
        1   -1    0    0  501    0  0.00000000000E+00  0.00000000000E+00 -0.18043528305E+04  0.18043528305E+04  0.50400001928E-02 0. -1.
    10030    2    1    2    0    0  0.00000000000E+00  0.00000000000E+00  0.19095279533E+03  0.37996584564E+04  0.37948572325E+04 0.  0.
        4    1    3    3  502    0 -0.14027214016E+04  0.97063555018E+03 -0.73652198362E+03  0.18580169394E+04  0.12699999809E+01 0. -1.
       -4    1    3    3    0  502  0.14027214016E+04 -0.97063555018E+03  0.92747477895E+03  0.19416415170E+04  0.12699999809E+01 0.  1.
</event>
<event>
 5   0  0.1327249E-08  0.3802249E+04  0.7818609E-02  0.8045672E-01
       -2   -1    0    0    0  501  0.00000000000E+00  0.00000000000E+00  0.19547536415E+04  0.19547536415E+04  0.25500000920E-02 0.  1.
        2   -1    0    0  501    0  0.00000000000E+00  0.00000000000E+00 -0.18489667209E+04  0.18489667209E+04  0.25500000920E-02 0. -1.
    10030    2    1    2    0    0  0.00000000000E+00  0.00000000000E+00  0.10578692058E+03  0.38037203625E+04  0.38022490349E+04 0.  0.
        1    1    3    3  502    0 -0.11156547875E+04  0.15134523411E+04  0.33416206585E+03  0.19096826647E+04  0.50400001928E-02 0. -1.
       -1    1    3    3    0  502  0.11156547875E+04 -0.15134523411E+04 -0.22837514526E+03  0.18940376978E+04  0.50400001928E-02 0.  1.
</event>
<event>
 5   0  0.1305088E-08  0.3799322E+04  0.7818609E-02  0.8046300E-01
       -2   -1    0    0    0  501  0.00000000000E+00  0.00000000000E+00  0.13902814481E+04  0.13902814481E+04  0.25500000920E-02 0.  1.
        2   -1    0    0  501    0  0.00000000000E+00  0.00000000000E+00 -0.25956707005E+04  0.25956707005E+04  0.25500000920E-02 0. -1.
    10030    2    1    2    0    0  0.00000000000E+00  0.00000000000E+00 -0.12053892524E+04  0.39859521487E+04  0.37993224767E+04 0.  0.
        3    1    3    3  502    0  0.12082760920E+04  0.28463429831E+03 -0.21113030035E+04  0.24491933735E+04  0.10100000352E+00 0. -1.
       -3    1    3    3    0  502 -0.12082760920E+04 -0.28463429831E+03  0.90591375110E+03  0.15367587751E+04  0.10100000352E+00 0.  1.
</event>
<event>
 5   0  0.1327249E-08  0.3800315E+04  0.7818609E-02  0.8046087E-01
       -2   -1    0    0    0  501  0.00000000000E+00  0.00000000000E+00  0.23038427345E+04  0.23038427345E+04  0.25500000920E-02 0.  1.
        2   -1    0    0  501    0  0.00000000000E+00  0.00000000000E+00 -0.15672067962E+04  0.15672067962E+04  0.25500000920E-02 0. -1.
    10030    2    1    2    0    0  0.00000000000E+00  0.00000000000E+00  0.73663593828E+03  0.38710495308E+04  0.38003147191E+04 0.  0.
        1    1    3    3  502    0 -0.17888540587E+04 -0.17945446550E+03  0.99490586092E+03  0.20547604290E+04  0.50400001928E-02 0.  1.
       -1    1    3    3    0  502  0.17888540587E+04  0.17945446550E+03 -0.25826992264E+03  0.18162891018E+04  0.50400001928E-02 0. -1.
</event>
<event>
 5   0  0.1305088E-08  0.3796222E+04  0.7818609E-02  0.8046966E-01
        2   -1    0    0  501    0  0.00000000000E+00  0.00000000000E+00  0.11364742408E+04  0.11364742408E+04  0.25500000920E-02 0. -1.
       -2   -1    0    0    0  501  0.00000000000E+00  0.00000000000E+00 -0.31701775051E+04  0.31701775051E+04  0.25500000920E-02 0.  1.
    10030    2    1    2    0    0  0.00000000000E+00  0.00000000000E+00 -0.20337032643E+04  0.43066517460E+04  0.37962218447E+04 0.  0.
        3    1    3    3  502    0 -0.52232843687E+02 -0.35852792224E+03 -0.31305848164E+04  0.31514808969E+04  0.10100000352E+00 0.  1.
       -3    1    3    3    0  502  0.52232843687E+02  0.35852792224E+03  0.10968815521E+04  0.11551708490E+04  0.10100000352E+00 0. -1.
</event>
<event>
 5   0  0.1261152E-08  0.3803441E+04  0.7818609E-02  0.8045417E-01
        2   -1    0    0  501    0  0.00000000000E+00  0.00000000000E+00  0.25084322865E+04  0.25084322865E+04  0.25500000920E-02 0.  1.
       -2   -1    0    0    0  501  0.00000000000E+00  0.00000000000E+00 -0.14417537389E+04  0.14417537389E+04  0.25500000920E-02 0. -1.
    10030    2    1    2    0    0  0.00000000000E+00  0.00000000000E+00  0.10666785476E+04  0.39501860254E+04  0.38034414037E+04 0.  0.
        2    1    3    3  502    0 -0.77660310248E+03 -0.22035402570E+03  0.23216537486E+04  0.24579960138E+04  0.25500000920E-02 0.  1.
       -2    1    3    3    0  502  0.77660310248E+03  0.22035402570E+03 -0.12549752010E+04  0.14921900116E+04  0.25500000920E-02 0. -1.
</event>
<event>
 5   0  0.1327249E-08  0.3787633E+04  0.7818609E-02  0.8048814E-01
       -2   -1    0    0    0  501  0.00000000000E+00  0.00000000000E+00  0.23695734938E+04  0.23695734938E+04  0.25500000920E-02 0. -1.
        2   -1    0    0  501    0  0.00000000000E+00  0.00000000000E+00 -0.15135809357E+04  0.15135809357E+04  0.25500000920E-02 0.  1.
    10030    2    1    2    0    0  0.00000000000E+00  0.00000000000E+00  0.85599255805E+03  0.38831544295E+04  0.37876331744E+04 0.  0.
        1    1    3    3  502    0  0.17535254480E+04 -0.33836348400E+03 -0.21813583656E+03  0.17991455159E+04  0.50400001928E-02 0.  1.
       -1    1    3    3    0  502 -0.17535254480E+04  0.33836348400E+03  0.10741283946E+04  0.20840089137E+04  0.50400001928E-02 0. -1.
</event>
<event>
 5   0  0.4071750E-09  0.3800481E+04  0.7818609E-02  0.8046052E-01
        1   -1    0    0  501    0  0.00000000000E+00  0.00000000000E+00  0.10619113432E+04  0.10619113432E+04  0.50400001928E-02 0. -1.
       -1   -1    0    0    0  501  0.00000000000E+00  0.00000000000E+00 -0.34003909036E+04  0.34003909036E+04  0.50400001928E-02 0.  1.
    10030    2    1    2    0    0  0.00000000000E+00  0.00000000000E+00 -0.23384795604E+04  0.44623022468E+04  0.38004808496E+04 0.  0.
        5    1    3    3  502    0  0.14709331005E+04 -0.11519735008E+04 -0.76215889892E+03  0.20178194691E+04  0.46999998093E+01 0. -1.
       -5    1    3    3    0  502 -0.14709331005E+04  0.11519735008E+04 -0.15763206615E+04  0.24444827777E+04  0.46999998093E+01 0.  1.
</event>
<event>
 5   0  0.4071750E-09  0.3800040E+04  0.7818609E-02  0.8046146E-01
       -1   -1    0    0    0  501  0.00000000000E+00  0.00000000000E+00  0.21516777156E+04  0.21516777156E+04  0.50400001928E-02 0.  1.
        1   -1    0    0  501    0  0.00000000000E+00  0.00000000000E+00 -0.16777959982E+04  0.16777959982E+04  0.50400001928E-02 0. -1.
    10030    2    1    2    0    0  0.00000000000E+00  0.00000000000E+00  0.47388171736E+03  0.38294737138E+04  0.38000401370E+04 0.  0.
        5    1    3    3  502    0  0.50975083553E+03 -0.18076642411E+04  0.52649590764E+03  0.19505681105E+04  0.46999998093E+01 0. -1.
       -5    1    3    3    0  502 -0.50975083553E+03  0.18076642411E+04 -0.52614190287E+02  0.18789056033E+04  0.46999998093E+01 0.  1.
</event>
<event>
 5   0  0.1261152E-08  0.3800190E+04  0.7818609E-02  0.8046114E-01
        2   -1    0    0  501    0  0.00000000000E+00  0.00000000000E+00  0.31844978139E+04  0.31844978139E+04  0.25500000920E-02 0.  1.
       -2   -1    0    0    0  501  0.00000000000E+00  0.00000000000E+00 -0.11337300743E+04  0.11337300743E+04  0.25500000920E-02 0. -1.
    10030    2    1    2    0    0  0.00000000000E+00  0.00000000000E+00  0.20507677396E+04  0.43182278882E+04  0.38001899653E+04 0.  0.
        2    1    3    3  502    0  0.28243274462E+03 -0.11590488114E+04  0.27059064598E+04  0.29572102008E+04  0.25500000920E-02 0.  1.
       -2    1    3    3    0  502 -0.28243274462E+03  0.11590488114E+04 -0.65513872026E+03  0.13610176874E+04  0.25500000920E-02 0. -1.
</event>
<event>
 5   0  0.4071750E-09  0.3804425E+04  0.7818609E-02  0.8045206E-01
       -1   -1    0    0    0  501  0.00000000000E+00  0.00000000000E+00  0.29861718236E+04  0.29861718236E+04  0.50400001928E-02 0.  1.
        1   -1    0    0  501    0  0.00000000000E+00  0.00000000000E+00 -0.12117225316E+04  0.12117225316E+04  0.50400001928E-02 0. -1.
    10030    2    1    2    0    0  0.00000000000E+00  0.00000000000E+00  0.17744492920E+04  0.41978943551E+04  0.38044246250E+04 0.  0.
        3    1    3    3  502    0  0.31827059997E+03 -0.17384829876E+04  0.11105969013E+03  0.17708623713E+04  0.10100000352E+00 0. -1.
       -3    1    3    3    0  502 -0.31827059997E+03  0.17384829876E+04  0.16633896019E+04  0.24270319839E+04  0.10100000352E+00 0.  1.
</event>
<event>
 5   0  0.4071750E-09  0.3797417E+04  0.7818609E-02  0.8046709E-01
       -1   -1    0    0    0  501  0.00000000000E+00  0.00000000000E+00  0.18004776130E+04  0.18004776130E+04  0.50400001928E-02 0.  1.
        1   -1    0    0  501    0  0.00000000000E+00  0.00000000000E+00 -0.20022982576E+04  0.20022982576E+04  0.50400001928E-02 0. -1.
    10030    2    1    2    0    0  0.00000000000E+00  0.00000000000E+00 -0.20182064460E+03  0.38027758706E+04  0.37974165889E+04 0.  0.
        5    1    3    3  502    0 -0.45306045589E+03 -0.17187104577E+04 -0.76956643801E+03  0.19368748041E+04  0.46999998093E+01 0.  1.
       -5    1    3    3    0  502  0.45306045589E+03  0.17187104577E+04  0.56774579341E+03  0.18659010665E+04  0.46999998093E+01 0. -1.
</event>
<event>
 5   0  0.1293993E-08  0.3801823E+04  0.7818609E-02  0.8045764E-01
        2   -1    0    0  501    0  0.00000000000E+00  0.00000000000E+00  0.16085099925E+04  0.16085099925E+04  0.25500000920E-02 0.  1.
       -2   -1    0    0    0  501  0.00000000000E+00  0.00000000000E+00 -0.22464663576E+04  0.22464663576E+04  0.25500000920E-02 0. -1.
    10030    2    1    2    0    0  0.00000000000E+00  0.00000000000E+00 -0.63795636507E+03  0.38549763501E+04  0.38018225019E+04 0.  0.
        5    1    3    3  502    0  0.58902063061E+03  0.15785901956E+04  0.57341117405E+03  0.17798075102E+04  0.46999998093E+01 0.  1.
       -5    1    3    3    0  502 -0.58902063061E+03 -0.15785901956E+04 -0.12113675391E+04  0.20751688398E+04  0.46999998093E+01 0. -1.
</event>
<event>
 5   0  0.1305088E-08  0.3801061E+04  0.7818609E-02  0.8045927E-01
        2   -1    0    0  501    0  0.00000000000E+00  0.00000000000E+00  0.21442863707E+04  0.21442863707E+04  0.25500000920E-02 0.  1.
       -2   -1    0    0    0  501  0.00000000000E+00  0.00000000000E+00 -0.16844844881E+04  0.16844844881E+04  0.25500000920E-02 0. -1.
    10030    2    1    2    0    0  0.00000000000E+00  0.00000000000E+00  0.45980188259E+03  0.38287708588E+04  0.38010614988E+04 0.  0.
        3    1    3    3  502    0 -0.11727822402E+04 -0.81316423051E+03 -0.10343834676E+04  0.17625559330E+04  0.10100000352E+00 0. -1.
       -3    1    3    3    0  502  0.11727822402E+04  0.81316423051E+03  0.14941853502E+04  0.20662149258E+04  0.10100000352E+00 0.  1.
</event>
<event>
 5   0  0.4071750E-09  0.3799192E+04  0.7818609E-02  0.8046328E-01
       -3   -1    0    0    0  501  0.00000000000E+00  0.00000000000E+00  0.15844183622E+04  0.15844183654E+04  0.10100000352E+00 0. -1.
        3   -1    0    0  501    0  0.00000000000E+00  0.00000000000E+00 -0.22774703152E+04  0.22774703175E+04  0.10100000352E+00 0.  1.
    10030    2    1    2    0    0  0.00000000000E+00  0.00000000000E+00 -0.69305195302E+03  0.38618886829E+04  0.37991924391E+04 0.  0.
        1    1    3    3  502    0  0.17114366404E+03  0.14210375535E+04 -0.16160671875E+04  0.21587753557E+04  0.50400001928E-02 0.  1.
       -1    1    3    3    0  502 -0.17114366404E+03 -0.14210375535E+04  0.92301523443E+03  0.17031133271E+04  0.50400001928E-02 0. -1.
</event>
<event>
 5   0  0.1261152E-08  0.3800758E+04  0.7818609E-02  0.8045992E-01
        2   -1    0    0  501    0  0.00000000000E+00  0.00000000000E+00  0.29221511789E+04  0.29221511789E+04  0.25500000920E-02 0. -1.
       -2   -1    0    0    0  501  0.00000000000E+00  0.00000000000E+00 -0.12358838954E+04  0.12358838954E+04  0.25500000920E-02 0.  1.
    10030    2    1    2    0    0  0.00000000000E+00  0.00000000000E+00  0.16862672835E+04  0.41580350744E+04  0.38007575993E+04 0.  0.
        2    1    3    3  502    0 -0.60717073541E+03  0.13889142715E+04 -0.41077572439E+03  0.15705017833E+04  0.25500000920E-02 0.  1.
       -2    1    3    3    0  502  0.60717073541E+03 -0.13889142715E+04  0.20970430079E+04  0.25875332911E+04  0.25500000920E-02 0. -1.
</event>
<event>
 5   0  0.4071750E-09  0.3801250E+04  0.7818609E-02  0.8045887E-01
        1   -1    0    0  501    0  0.00000000000E+00  0.00000000000E+00  0.13016346556E+04  0.13016346556E+04  0.50400001928E-02 0.  1.
       -1   -1    0    0    0  501  0.00000000000E+00  0.00000000000E+00 -0.27752604307E+04  0.27752604307E+04  0.50400001928E-02 0. -1.
    10030    2    1    2    0    0  0.00000000000E+00  0.00000000000E+00 -0.14736257751E+04  0.40768950863E+04  0.38012498760E+04 0.  0.
        1    1    3    3  502    0  0.10920207396E+04  0.11478725998E+04 -0.18628275041E+04  0.24454543773E+04  0.50400001928E-02 0.  1.
       -1    1    3    3    0  502 -0.10920207396E+04 -0.11478725998E+04  0.38920172905E+03  0.16314407090E+04  0.50400001928E-02 0. -1.
</event>
<event>
 5   0  0.1327249E-08  0.3796206E+04  0.7818609E-02  0.8046969E-01
       -2   -1    0    0    0  501  0.00000000000E+00  0.00000000000E+00  0.16686572178E+04  0.16686572178E+04  0.25500000920E-02 0.  1.
        2   -1    0    0  501    0  0.00000000000E+00  0.00000000000E+00 -0.21590986577E+04  0.21590986577E+04  0.25500000920E-02 0. -1.
    10030    2    1    2    0    0  0.00000000000E+00  0.00000000000E+00 -0.49044143990E+03  0.38277558755E+04  0.37962062952E+04 0.  0.
        1    1    3    3  502    0  0.75680545032E+03  0.15097676370E+03  0.15033330148E+04  0.16898398226E+04  0.50400001928E-02 0.  1.
       -1    1    3    3    0  502 -0.75680545032E+03 -0.15097676370E+03 -0.19937744547E+04  0.21379160528E+04  0.50400001928E-02 0. -1.
</event>
<event>
 5   0  0.4071750E-09  0.3799236E+04  0.7818609E-02  0.8046319E-01
       -1   -1    0    0    0  501  0.00000000000E+00  0.00000000000E+00  0.24193892951E+04  0.24193892951E+04  0.50400001928E-02 0.  1.
        1   -1    0    0  501    0  0.00000000000E+00  0.00000000000E+00 -0.14915119187E+04  0.14915119187E+04  0.50400001928E-02 0. -1.
    10030    2    1    2    0    0  0.00000000000E+00  0.00000000000E+00  0.92787737639E+03  0.39109012138E+04  0.37992356966E+04 0.  0.
        2    1    3    3  502    0 -0.18283949064E+04  0.37152669743E+03  0.83148762926E+03  0.20426531028E+04  0.25500000920E-02 0.  1.
       -2    1    3    3    0  502  0.18283949064E+04 -0.37152669743E+03  0.96389747129E+02  0.18682481110E+04  0.25500000920E-02 0. -1.
</event>
<event>
 5   0  0.4071750E-09  0.3799551E+04  0.7818609E-02  0.8046251E-01
        1   -1    0    0  501    0  0.00000000000E+00  0.00000000000E+00  0.24498491121E+04  0.24498491121E+04  0.50400001928E-02 0. -1.
       -1   -1    0    0    0  501  0.00000000000E+00  0.00000000000E+00 -0.14732119000E+04  0.14732119000E+04  0.50400001928E-02 0.  1.
    10030    2    1    2    0    0  0.00000000000E+00  0.00000000000E+00  0.97663721211E+03  0.39230610122E+04  0.37995509552E+04 0.  0.
        3    1    3    3  502    0  0.34608111762E+03  0.49591254576E+03 -0.13711809934E+04  0.14986122647E+04  0.10100000352E+00 0.  1.
       -3    1    3    3    0  502 -0.34608111762E+03 -0.49591254576E+03  0.23478182055E+04  0.24244487475E+04  0.10100000352E+00 0. -1.
</event>
<event>
 5   0  0.4071750E-09  0.3802899E+04  0.7818609E-02  0.8045533E-01
       -1   -1    0    0    0  501  0.00000000000E+00  0.00000000000E+00  0.18260345835E+04  0.18260345835E+04  0.50400001928E-02 0. -1.
        1   -1    0    0  501    0  0.00000000000E+00  0.00000000000E+00 -0.19799788225E+04  0.19799788225E+04  0.50400001928E-02 0.  1.
    10030    2    1    2    0    0  0.00000000000E+00  0.00000000000E+00 -0.15394423897E+03  0.38060134060E+04  0.38028987914E+04 0.  0.
        5    1    3    3  502    0 -0.12851102746E+04 -0.61991993091E+03  0.11809099030E+04  0.18521283508E+04  0.46999998093E+01 0. -1.
       -5    1    3    3    0  502  0.12851102746E+04  0.61991993091E+03 -0.13348541420E+04  0.19538850552E+04  0.46999998093E+01 0.  1.
</event>
<event>
 5   0  0.4071750E-09  0.3800074E+04  0.7818609E-02  0.8046139E-01
        1   -1    0    0  501    0  0.00000000000E+00  0.00000000000E+00  0.19043393737E+04  0.19043393737E+04  0.50400001928E-02 0. -1.
       -1   -1    0    0    0  501  0.00000000000E+00  0.00000000000E+00 -0.18957441915E+04  0.18957441915E+04  0.50400001928E-02 0.  1.
    10030    2    1    2    0    0  0.00000000000E+00  0.00000000000E+00  0.85951821793E+01  0.38000835652E+04  0.38000738447E+04 0.  0.
        2    1    3    3  502    0 -0.35648316756E+03 -0.83546275870E+03 -0.16645571913E+04  0.18962670996E+04  0.25500000920E-02 0.  1.
       -2    1    3    3    0  502  0.35648316756E+03  0.83546275870E+03  0.16731523734E+04  0.19038164656E+04  0.25500000920E-02 0. -1.
</event>
<event>
 5   0  0.1264013E-08  0.3799833E+04  0.7818609E-02  0.8046191E-01
        2   -1    0    0  501    0  0.00000000000E+00  0.00000000000E+00  0.22658755237E+04  0.22658755237E+04  0.25500000920E-02 0.  1.
       -2   -1    0    0    0  501  0.00000000000E+00  0.00000000000E+00 -0.15930627191E+04  0.15930627191E+04  0.25500000920E-02 0. -1.
    10030    2    1    2    0    0  0.00000000000E+00  0.00000000000E+00  0.67281280461E+03  0.38589382428E+04  0.37998325347E+04 0.  0.
        4    1    3    3  502    0  0.51691982275E+02  0.28278912175E+03  0.22436601160E+04  0.22620022275E+04  0.12699999809E+01 0.  1.
       -4    1    3    3    0  502 -0.51691982275E+02 -0.28278912175E+03 -0.15708473113E+04  0.15969360153E+04  0.12699999809E+01 0. -1.
</event>
<event>
 5   0  0.4071750E-09  0.3799096E+04  0.7818609E-02  0.8046349E-01
       -1   -1    0    0    0  501  0.00000000000E+00  0.00000000000E+00  0.17400809555E+04  0.17400809555E+04  0.50400001928E-02 0.  1.
        1   -1    0    0  501    0  0.00000000000E+00  0.00000000000E+00 -0.20736292383E+04  0.20736292383E+04  0.50400001928E-02 0. -1.
    10030    2    1    2    0    0  0.00000000000E+00  0.00000000000E+00 -0.33354828281E+03  0.38137101938E+04  0.37990960748E+04 0.  0.
        4    1    3    3  502    0  0.65151758858E+03  0.72754073231E+03  0.14687539001E+04  0.17638113044E+04  0.12699999809E+01 0.  1.
       -4    1    3    3    0  502 -0.65151758858E+03 -0.72754073231E+03 -0.18023021830E+04  0.20498988895E+04  0.12699999809E+01 0. -1.
</event>
<event>
 5   0  0.4071750E-09  0.3801371E+04  0.7818609E-02  0.8045861E-01
        1   -1    0    0  501    0  0.00000000000E+00  0.00000000000E+00  0.26483059745E+04  0.26483059745E+04  0.50400001928E-02 0. -1.
       -1   -1    0    0    0  501  0.00000000000E+00  0.00000000000E+00 -0.13641191254E+04  0.13641191254E+04  0.50400001928E-02 0.  1.
    10030    2    1    2    0    0  0.00000000000E+00  0.00000000000E+00  0.12841868491E+04  0.40124250999E+04  0.38013707157E+04 0.  0.
        5    1    3    3  502    0  0.86607882142E+03  0.15388523378E+04 -0.10009871857E+03  0.17686720685E+04  0.46999998093E+01 0.  1.
       -5    1    3    3    0  502 -0.86607882142E+03 -0.15388523378E+04  0.13842855677E+04  0.22437530313E+04  0.46999998093E+01 0. -1.
</event>
<event>
 5   0  0.4071750E-09  0.3800735E+04  0.7818609E-02  0.8045997E-01
       -1   -1    0    0    0  501  0.00000000000E+00  0.00000000000E+00  0.29355009611E+04  0.29355009611E+04  0.50400001928E-02 0.  1.
        1   -1    0    0  501    0  0.00000000000E+00  0.00000000000E+00 -0.12302488122E+04  0.12302488122E+04  0.50400001928E-02 0. -1.
    10030    2    1    2    0    0  0.00000000000E+00  0.00000000000E+00  0.17052521489E+04  0.41657497733E+04  0.38007349660E+04 0.  0.
        2    1    3    3  502    0 -0.39498512005E+03  0.71134617608E+03  0.27349320376E+04  0.28533979529E+04  0.25500000920E-02 0.  1.
       -2    1    3    3    0  502  0.39498512005E+03 -0.71134617608E+03 -0.10296798887E+04  0.13123518204E+04  0.25500000920E-02 0. -1.
</event>
<event>
 5   0  0.1327249E-08  0.3800763E+04  0.7818609E-02  0.8045991E-01
        2   -1    0    0  501    0  0.00000000000E+00  0.00000000000E+00  0.19669390608E+04  0.19669390608E+04  0.25500000920E-02 0.  1.
       -2   -1    0    0    0  501  0.00000000000E+00  0.00000000000E+00 -0.18360759807E+04  0.18360759807E+04  0.25500000920E-02 0. -1.
    10030    2    1    2    0    0  0.00000000000E+00  0.00000000000E+00  0.13086308011E+03  0.38030150415E+04  0.38007628524E+04 0.  0.
        1    1    3    3  502    0  0.53251295288E+03  0.12302161441E+04 -0.12823810371E+04  0.18551288177E+04  0.50400001928E-02 0. -1.
       -1    1    3    3    0  502 -0.53251295288E+03 -0.12302161441E+04  0.14132441172E+04  0.19478862238E+04  0.50400001928E-02 0.  1.
</event>
<event>
 5   0  0.1305088E-08  0.3799278E+04  0.7818609E-02  0.8046310E-01
        2   -1    0    0  501    0  0.00000000000E+00  0.00000000000E+00  0.26411162887E+04  0.26411162887E+04  0.25500000920E-02 0.  1.
       -2   -1    0    0    0  501  0.00000000000E+00  0.00000000000E+00 -0.13663266398E+04  0.13663266398E+04  0.25500000920E-02 0. -1.
    10030    2    1    2    0    0  0.00000000000E+00  0.00000000000E+00  0.12747896489E+04  0.40074429285E+04  0.37992775861E+04 0.  0.
        3    1    3    3  502    0 -0.10774508926E+04  0.12536407958E+04 -0.34989827400E+03  0.16896580965E+04  0.10100000352E+00 0. -1.
       -3    1    3    3    0  502  0.10774508926E+04 -0.12536407958E+04  0.16246879229E+04  0.23177848320E+04  0.10100000352E+00 0.  1.
</event>
<event>
 5   0  0.1305088E-08  0.3794671E+04  0.7818609E-02  0.8047299E-01
        2   -1    0    0  501    0  0.00000000000E+00  0.00000000000E+00  0.18672331028E+04  0.18672331028E+04  0.25500000920E-02 0.  1.
       -2   -1    0    0    0  501  0.00000000000E+00  0.00000000000E+00 -0.19279236978E+04  0.19279236978E+04  0.25500000920E-02 0. -1.
    10030    2    1    2    0    0  0.00000000000E+00  0.00000000000E+00 -0.60690595020E+02  0.37951568006E+04  0.37946714999E+04 0.  0.
        3    1    3    3  502    0  0.54309669799E+03  0.52098515308E+02 -0.18477773743E+04  0.19266420306E+04  0.10100000352E+00 0. -1.
       -3    1    3    3    0  502 -0.54309669799E+03 -0.52098515308E+02  0.17870867793E+04  0.18685147700E+04  0.10100000352E+00 0.  1.
</event>
<event>
 5   0  0.4071750E-09  0.3800748E+04  0.7818609E-02  0.8045994E-01
       -1   -1    0    0    0  501  0.00000000000E+00  0.00000000000E+00  0.13309051033E+04  0.13309051033E+04  0.50400001928E-02 0. -1.
        1   -1    0    0  501    0  0.00000000000E+00  0.00000000000E+00 -0.27135075251E+04  0.27135075251E+04  0.50400001928E-02 0.  1.
    10030    2    1    2    0    0  0.00000000000E+00  0.00000000000E+00 -0.13826024218E+04  0.40444126284E+04  0.38007478280E+04 0.  0.
        4    1    3    3  502    0 -0.13584737292E+03  0.16602722923E+04  0.28191469891E+03  0.16895076512E+04  0.12699999809E+01 0. -1.
       -4    1    3    3    0  502  0.13584737292E+03 -0.16602722923E+04 -0.16645171207E+04  0.23549049771E+04  0.12699999809E+01 0.  1.
</event>
<event>
 5   0  0.1327249E-08  0.3799703E+04  0.7818609E-02  0.8046219E-01
       -2   -1    0    0    0  501  0.00000000000E+00  0.00000000000E+00  0.18734545744E+04  0.18734545744E+04  0.25500000920E-02 0. -1.
        2   -1    0    0  501    0  0.00000000000E+00  0.00000000000E+00 -0.19266203584E+04  0.19266203584E+04  0.25500000920E-02 0.  1.
    10030    2    1    2    0    0  0.00000000000E+00  0.00000000000E+00 -0.53165784072E+02  0.38000749328E+04  0.37997030008E+04 0.  0.
        1    1    3    3  502    0  0.74319755552E+03 -0.13843253494E+04 -0.10947400789E+04  0.19149817544E+04  0.50400001928E-02 0.  1.
       -1    1    3    3    0  502 -0.74319755552E+03  0.13843253494E+04  0.10415742948E+04  0.18850931784E+04  0.50400001928E-02 0. -1.
</event>
<event>
 5   0  0.4071750E-09  0.3799273E+04  0.7818609E-02  0.8046311E-01
       -1   -1    0    0    0  501  0.00000000000E+00  0.00000000000E+00  0.19253708989E+04  0.19253708989E+04  0.50400001928E-02 0. -1.
        1   -1    0    0  501    0  0.00000000000E+00  0.00000000000E+00 -0.18742460543E+04  0.18742460543E+04  0.50400001928E-02 0.  1.
    10030    2    1    2    0    0  0.00000000000E+00  0.00000000000E+00  0.51124844582E+02  0.37996169533E+04  0.37992729886E+04 0.  0.
        2    1    3    3  502    0  0.75832833717E+03  0.57771530066E+03 -0.16176937496E+04  0.18776980330E+04  0.25500000920E-02 0.  1.
       -2    1    3    3    0  502 -0.75832833717E+03 -0.57771530066E+03  0.16688185942E+04  0.19219189202E+04  0.25500000920E-02 0. -1.
</event>
<event>
 5   0  0.4071750E-09  0.3801574E+04  0.7818609E-02  0.8045817E-01
        1   -1    0    0  501    0  0.00000000000E+00  0.00000000000E+00  0.23813427737E+04  0.23813427737E+04  0.50400001928E-02 0. -1.
       -1   -1    0    0    0  501  0.00000000000E+00  0.00000000000E+00 -0.15172071517E+04  0.15172071517E+04  0.50400001928E-02 0.  1.
    10030    2    1    2    0    0  0.00000000000E+00  0.00000000000E+00  0.86413562206E+03  0.38985499254E+04  0.38015735094E+04 0.  0.
        3    1    3    3  502    0 -0.23791952667E+03 -0.45298973084E+03  0.23093903810E+04  0.23653941193E+04  0.10100000352E+00 0. -1.
       -3    1    3    3    0  502  0.23791952667E+03  0.45298973084E+03 -0.14452547589E+04  0.15331558061E+04  0.10100000352E+00 0.  1.
</event>
<event>
 5   0  0.4071750E-09  0.3799919E+04  0.7818609E-02  0.8046172E-01
        1   -1    0    0  501    0  0.00000000000E+00  0.00000000000E+00  0.21051991453E+04  0.21051991453E+04  0.50400001928E-02 0.  1.
       -1   -1    0    0    0  501  0.00000000000E+00  0.00000000000E+00 -0.17147286581E+04  0.17147286581E+04  0.50400001928E-02 0. -1.
    10030    2    1    2    0    0  0.00000000000E+00  0.00000000000E+00  0.39047048717E+03  0.38199278034E+04  0.37999185810E+04 0.  0.
        5    1    3    3  502    0  0.36597985783E+03 -0.42939613087E+03 -0.16285674554E+04  0.17235359991E+04  0.46999998093E+01 0. -1.
       -5    1    3    3    0  502 -0.36597985783E+03  0.42939613087E+03  0.20190379426E+04  0.20963918043E+04  0.46999998093E+01 0.  1.
</event>
<event>
 5   0  0.1261152E-08  0.3798742E+04  0.7818609E-02  0.8046425E-01
       -2   -1    0    0    0  501  0.00000000000E+00  0.00000000000E+00  0.15581790018E+04  0.15581790018E+04  0.25500000920E-02 0. -1.
        2   -1    0    0  501    0  0.00000000000E+00  0.00000000000E+00 -0.23152731439E+04  0.23152731439E+04  0.25500000920E-02 0.  1.
    10030    2    1    2    0    0  0.00000000000E+00  0.00000000000E+00 -0.75709414209E+03  0.38734521456E+04  0.37987418950E+04 0.  0.
        2    1    3    3  502    0  0.48585673330E+03 -0.52980567237E+03 -0.21712074418E+04  0.22871144640E+04  0.25500000920E-02 0.  1.
       -2    1    3    3    0  502 -0.48585673330E+03  0.52980567237E+03  0.14141132998E+04  0.15863376817E+04  0.25500000920E-02 0. -1.
</event>
<event>
 5   0  0.1264013E-08  0.3801710E+04  0.7818609E-02  0.8045788E-01
       -2   -1    0    0    0  501  0.00000000000E+00  0.00000000000E+00  0.21697363813E+04  0.21697363813E+04  0.25500000920E-02 0.  1.
        2   -1    0    0  501    0  0.00000000000E+00  0.00000000000E+00 -0.16652943686E+04  0.16652943686E+04  0.25500000920E-02 0. -1.
    10030    2    1    2    0    0  0.00000000000E+00  0.00000000000E+00  0.50444201274E+03  0.38350307499E+04  0.38017100243E+04 0.  0.
        4    1    3    3  502    0 -0.14841334777E+04 -0.18054756420E+03 -0.93194951269E+03  0.17617551219E+04  0.12699999809E+01 0. -1.
       -4    1    3    3    0  502  0.14841334777E+04  0.18054756420E+03  0.14363915254E+04  0.20732756280E+04  0.12699999809E+01 0.  1.
</event>
<event>
 5   0  0.1305088E-08  0.3800644E+04  0.7818609E-02  0.8046017E-01
       -2   -1    0    0    0  501  0.00000000000E+00  0.00000000000E+00  0.12908801969E+04  0.12908801969E+04  0.25500000920E-02 0.  1.
        2   -1    0    0  501    0  0.00000000000E+00  0.00000000000E+00 -0.27974892948E+04  0.27974892948E+04  0.25500000920E-02 0. -1.
    10030    2    1    2    0    0  0.00000000000E+00  0.00000000000E+00 -0.15066090979E+04  0.40883694917E+04  0.38006439095E+04 0.  0.
        3    1    3    3  502    0 -0.79567110572E+03 -0.16808340804E+04 -0.11739693635E+04  0.21992043540E+04  0.10100000352E+00 0.  1.
       -3    1    3    3    0  502  0.79567110572E+03  0.16808340804E+04 -0.33263973446E+03  0.18891651377E+04  0.10100000352E+00 0. -1.
</event>
<event>
 5   0  0.4071750E-09  0.3790154E+04  0.7818609E-02  0.8048271E-01
       -1   -1    0    0    0  501  0.00000000000E+00  0.00000000000E+00  0.16040342775E+04  0.16040342775E+04  0.50400001928E-02 0. -1.
        1   -1    0    0  501    0  0.00000000000E+00  0.00000000000E+00 -0.22389274598E+04  0.22389274598E+04  0.50400001928E-02 0.  1.
    10030    2    1    2    0    0  0.00000000000E+00  0.00000000000E+00 -0.63489318233E+03  0.38429617373E+04  0.37901537649E+04 0.  0.
        2    1    3    3  502    0  0.54834082743E+03  0.95753075614E+03  0.12447255073E+04  0.16633954432E+04  0.25500000920E-02 0. -1.
       -2    1    3    3    0  502 -0.54834082743E+03 -0.95753075614E+03 -0.18796186896E+04  0.21795662941E+04  0.25500000920E-02 0.  1.
</event>
<event>
 5   0  0.1264013E-08  0.3799922E+04  0.7818609E-02  0.8046172E-01
       -2   -1    0    0    0  501  0.00000000000E+00  0.00000000000E+00  0.23549516861E+04  0.23549516861E+04  0.25500000920E-02 0.  1.
        2   -1    0    0  501    0  0.00000000000E+00  0.00000000000E+00 -0.15328769587E+04  0.15328769587E+04  0.25500000920E-02 0. -1.
    10030    2    1    2    0    0  0.00000000000E+00  0.00000000000E+00  0.82207472732E+03  0.38878286448E+04  0.37999216721E+04 0.  0.
        4    1    3    3  502    0  0.92002569298E+03  0.14562442135E+04  0.12313043445E+04  0.21173583746E+04  0.12699999809E+01 0.  1.
       -4    1    3    3    0  502 -0.92002569298E+03 -0.14562442135E+04 -0.40922961716E+03  0.17704702702E+04  0.12699999809E+01 0. -1.
</event>
<event>
 5   0  0.1327249E-08  0.3800554E+04  0.7818609E-02  0.8046036E-01
        2   -1    0    0  501    0  0.00000000000E+00  0.00000000000E+00  0.14999871335E+04  0.14999871335E+04  0.25500000920E-02 0.  1.
       -2   -1    0    0    0  501  0.00000000000E+00  0.00000000000E+00 -0.24073888142E+04  0.24073888142E+04  0.25500000920E-02 0. -1.
    10030    2    1    2    0    0  0.00000000000E+00  0.00000000000E+00 -0.90740168067E+03  0.39073759477E+04  0.38005537737E+04 0.  0.
        1    1    3    3  502    0 -0.10551474492E+04 -0.13223811286E+04  0.43608657399E+03  0.17470545181E+04  0.50400001928E-02 0.  1.
       -1    1    3    3    0  502  0.10551474492E+04  0.13223811286E+04 -0.13434882547E+04  0.21603214297E+04  0.50400001928E-02 0. -1.
</event>
<event>
 5   0  0.4071750E-09  0.3799937E+04  0.7818609E-02  0.8046168E-01
        1   -1    0    0  501    0  0.00000000000E+00  0.00000000000E+00  0.13288839744E+04  0.13288839744E+04  0.50400001928E-02 0. -1.
       -1   -1    0    0    0  501  0.00000000000E+00  0.00000000000E+00 -0.27164745304E+04  0.27164745304E+04  0.50400001928E-02 0.  1.
    10030    2    1    2    0    0  0.00000000000E+00  0.00000000000E+00 -0.13875905560E+04  0.40453585048E+04  0.37999365628E+04 0.  0.
        1    1    3    3  502    0  0.34913507812E+03 -0.18438348599E+04 -0.10100635927E+04  0.21311618322E+04  0.50400001928E-02 0. -1.
       -1    1    3    3    0  502 -0.34913507812E+03  0.18438348599E+04 -0.37752696325E+03  0.19141966726E+04  0.50400001928E-02 0.  1.
</event>
<event>
 5   0  0.4071750E-09  0.3798046E+04  0.7818609E-02  0.8046574E-01
        1   -1    0    0  501    0  0.00000000000E+00  0.00000000000E+00  0.21454199362E+04  0.21454199362E+04  0.50400001928E-02 0. -1.
       -1   -1    0    0    0  501  0.00000000000E+00  0.00000000000E+00 -0.16809241897E+04  0.16809241897E+04  0.50400001928E-02 0.  1.
    10030    2    1    2    0    0  0.00000000000E+00  0.00000000000E+00  0.46449574653E+03  0.38263441260E+04  0.37980459544E+04 0.  0.
        5    1    3    3  502    0 -0.63853259850E+03 -0.13040058999E+04 -0.10008450195E+04  0.17634818143E+04  0.46999998093E+01 0.  1.
       -5    1    3    3    0  502  0.63853259850E+03  0.13040058999E+04  0.14653407661E+04  0.20628623117E+04  0.46999998093E+01 0. -1.
</event>
<event>
 5   0  0.1293993E-08  0.3800284E+04  0.7818609E-02  0.8046094E-01
       -2   -1    0    0    0  501  0.00000000000E+00  0.00000000000E+00  0.15285119619E+04  0.15285119619E+04  0.25500000920E-02 0. -1.
        2   -1    0    0  501    0  0.00000000000E+00  0.00000000000E+00 -0.23621275778E+04  0.23621275778E+04  0.25500000920E-02 0.  1.
    10030    2    1    2    0    0  0.00000000000E+00  0.00000000000E+00 -0.83361561583E+03  0.38906395397E+04  0.38002843358E+04 0.  0.
        5    1    3    3  502    0  0.13917827334E+04 -0.11221022726E+04  0.24219339582E+03  0.18041209544E+04  0.46999998093E+01 0. -1.
       -5    1    3    3    0  502 -0.13917827334E+04  0.11221022726E+04 -0.10758090117E+04  0.20865185853E+04  0.46999998093E+01 0.  1.
</event>
<event>
 5   0  0.1293993E-08  0.3798313E+04  0.7818609E-02  0.8046517E-01
       -2   -1    0    0    0  501  0.00000000000E+00  0.00000000000E+00  0.22545645774E+04  0.22545645774E+04  0.25500000920E-02 0.  1.
        2   -1    0    0  501    0  0.00000000000E+00  0.00000000000E+00 -0.15997750296E+04  0.15997750296E+04  0.25500000920E-02 0. -1.
    10030    2    1    2    0    0  0.00000000000E+00  0.00000000000E+00  0.65478954779E+03  0.38543396069E+04  0.37983133696E+04 0.  0.
        5    1    3    3  502    0 -0.62035303924E+03  0.27010416709E+03  0.21281062309E+04  0.22330813631E+04  0.46999998093E+01 0.  1.
       -5    1    3    3    0  502  0.62035303924E+03 -0.27010416709E+03 -0.14733166831E+04  0.16212582438E+04  0.46999998093E+01 0. -1.
</event>
<event>
 5   0  0.1293993E-08  0.3798726E+04  0.7818609E-02  0.8046428E-01
       -2   -1    0    0    0  501  0.00000000000E+00  0.00000000000E+00  0.15299485366E+04  0.15299485366E+04  0.25500000920E-02 0.  1.
        2   -1    0    0  501    0  0.00000000000E+00  0.00000000000E+00 -0.23579747153E+04  0.23579747153E+04  0.25500000920E-02 0. -1.
    10030    2    1    2    0    0  0.00000000000E+00  0.00000000000E+00 -0.82802617866E+03  0.38879232519E+04  0.37987260839E+04 0.  0.
        5    1    3    3  502    0 -0.85935357271E+03  0.14819308283E+04 -0.12536107317E+04  0.21227740105E+04  0.46999998093E+01 0. -1.
       -5    1    3    3    0  502  0.85935357271E+03 -0.14819308283E+04  0.42558455301E+03  0.17651492415E+04  0.46999998093E+01 0.  1.
</event>
<event>
 5   0  0.1264013E-08  0.3802606E+04  0.7818609E-02  0.8045596E-01
        2   -1    0    0  501    0  0.00000000000E+00  0.00000000000E+00  0.15775069658E+04  0.15775069658E+04  0.25500000920E-02 0.  1.
       -2   -1    0    0    0  501  0.00000000000E+00  0.00000000000E+00 -0.22915612505E+04  0.22915612505E+04  0.25500000920E-02 0. -1.
    10030    2    1    2    0    0  0.00000000000E+00  0.00000000000E+00 -0.71405428466E+03  0.38690682163E+04  0.38026063879E+04 0.  0.
        4    1    3    3  502    0 -0.14831016969E+04 -0.48861834371E+03 -0.14607040673E+04  0.21382227466E+04  0.12699999809E+01 0. -1.
       -4    1    3    3    0  502  0.14831016969E+04  0.48861834371E+03  0.74664978260E+03  0.17308454697E+04  0.12699999809E+01 0.  1.
</event>
<event>
 5   0  0.1264013E-08  0.3800346E+04  0.7818609E-02  0.8046081E-01
       -2   -1    0    0    0  501  0.00000000000E+00  0.00000000000E+00  0.16887468340E+04  0.16887468341E+04  0.25500000920E-02 0. -1.
        2   -1    0    0  501    0  0.00000000000E+00  0.00000000000E+00 -0.21380688391E+04  0.21380688391E+04  0.25500000920E-02 0.  1.
    10030    2    1    2    0    0  0.00000000000E+00  0.00000000000E+00 -0.44932200506E+03  0.38268156732E+04  0.38003457648E+04 0.  0.
        4    1    3    3  502    0 -0.15269979195E+04  0.21739955865E+02  0.91390450112E+03  0.17797242263E+04  0.12699999809E+01 0. -1.
       -4    1    3    3    0  502  0.15269979195E+04 -0.21739955865E+02 -0.13632265062E+04  0.20470914468E+04  0.12699999809E+01 0.  1.
</event>
<event>
 5   0  0.4071750E-09  0.3800619E+04  0.7818609E-02  0.8046022E-01
        1   -1    0    0  501    0  0.00000000000E+00  0.00000000000E+00  0.22195802707E+04  0.22195802708E+04  0.50400001928E-02 0. -1.
       -1   -1    0    0    0  501  0.00000000000E+00  0.00000000000E+00 -0.16269632703E+04  0.16269632703E+04  0.50400001928E-02 0.  1.
    10030    2    1    2    0    0  0.00000000000E+00  0.00000000000E+00  0.59261700048E+03  0.38465435410E+04  0.38006186738E+04 0.  0.
        5    1    3    3  502    0 -0.11757194179E+04  0.82698510501E+03  0.15542810834E+04  0.21170810777E+04  0.46999998093E+01 0. -1.
       -5    1    3    3    0  502  0.11757194179E+04 -0.82698510501E+03 -0.96166408290E+03  0.17294624633E+04  0.46999998093E+01 0.  1.
</event>
<event>
 5   0  0.1305088E-08  0.3800345E+04  0.7818609E-02  0.8046081E-01
       -2   -1    0    0    0  501  0.00000000000E+00  0.00000000000E+00  0.12940136620E+04  0.12940136620E+04  0.25500000920E-02 0.  1.
        2   -1    0    0  501    0  0.00000000000E+00  0.00000000000E+00 -0.27902760988E+04  0.27902760988E+04  0.25500000920E-02 0. -1.
    10030    2    1    2    0    0  0.00000000000E+00  0.00000000000E+00 -0.14962624367E+04  0.40842897608E+04  0.38003449279E+04 0.  0.
        3    1    3    3  502    0 -0.75375795055E+03 -0.19073090156E+03 -0.26114927429E+04  0.27247795656E+04  0.10100000352E+00 0. -1.
       -3    1    3    3    0  502  0.75375795055E+03  0.19073090156E+03  0.11152303062E+04  0.13595101952E+04  0.10100000352E+00 0.  1.
</event>
<event>
 5   0  0.1261152E-08  0.3799400E+04  0.7818609E-02  0.8046284E-01
        2   -1    0    0  501    0  0.00000000000E+00  0.00000000000E+00  0.13704987718E+04  0.13704987718E+04  0.25500000920E-02 0. -1.
       -2   -1    0    0    0  501  0.00000000000E+00  0.00000000000E+00 -0.26332462039E+04  0.26332462039E+04  0.25500000920E-02 0.  1.
    10030    2    1    2    0    0  0.00000000000E+00  0.00000000000E+00 -0.12627474321E+04  0.40037449757E+04  0.37994003149E+04 0.  0.
        2    1    3    3  502    0 -0.27765204758E+03  0.58389049819E+03  0.12509919658E+04  0.14081902115E+04  0.25500000920E-02 0. -1.
       -2    1    3    3    0  502  0.27765204758E+03 -0.58389049819E+03 -0.25137393979E+04  0.25955547642E+04  0.25500000920E-02 0.  1.
</event>
<event>
 5   0  0.4071750E-09  0.3799805E+04  0.7818609E-02  0.8046197E-01
       -1   -1    0    0    0  501  0.00000000000E+00  0.00000000000E+00  0.17539992817E+04  0.17539992817E+04  0.50400001928E-02 0.  1.
        1   -1    0    0  501    0  0.00000000000E+00  0.00000000000E+00 -0.20579419561E+04  0.20579419561E+04  0.50400001928E-02 0. -1.
    10030    2    1    2    0    0  0.00000000000E+00  0.00000000000E+00 -0.30394267435E+03  0.38119412378E+04  0.37998045807E+04 0.  0.
        3    1    3    3  502    0  0.11657636200E+04 -0.15000064703E+04 -0.17663591851E+03  0.19079372334E+04  0.10100000352E+00 0.  1.
       -3    1    3    3    0  502 -0.11657636200E+04  0.15000064703E+04 -0.12730675584E+03  0.19040040044E+04  0.10100000352E+00 0. -1.
</event>
<event>
 5   0  0.1293993E-08  0.3801119E+04  0.7818609E-02  0.8045915E-01
       -2   -1    0    0    0  501  0.00000000000E+00  0.00000000000E+00  0.18858598041E+04  0.18858598041E+04  0.25500000920E-02 0. -1.
        2   -1    0    0  501    0  0.00000000000E+00  0.00000000000E+00 -0.19153736684E+04  0.19153736684E+04  0.25500000920E-02 0.  1.
    10030    2    1    2    0    0  0.00000000000E+00  0.00000000000E+00 -0.29513864282E+02  0.38012334725E+04  0.38011188937E+04 0.  0.
        5    1    3    3  502    0 -0.17291824409E+03  0.60430838245E+03  0.17789009861E+04  0.18866902630E+04  0.46999998093E+01 0. -1.
       -5    1    3    3    0  502  0.17291824409E+03 -0.60430838245E+03 -0.18084148503E+04  0.19145432095E+04  0.46999998093E+01 0.  1.
</event>
<event>
 5   0  0.1261152E-08  0.3799432E+04  0.7818609E-02  0.8046277E-01
       -2   -1    0    0    0  501  0.00000000000E+00  0.00000000000E+00  0.18148902813E+04  0.18148902813E+04  0.25500000920E-02 0.  1.
        2   -1    0    0  501    0  0.00000000000E+00  0.00000000000E+00 -0.19885063571E+04  0.19885063571E+04  0.25500000920E-02 0. -1.
    10030    2    1    2    0    0  0.00000000000E+00  0.00000000000E+00 -0.17361607586E+03  0.38033966384E+04  0.37994319901E+04 0.  0.
        2    1    3    3  502    0 -0.48238867630E+01  0.20341655642E+03  0.18039506678E+04  0.18153896488E+04  0.25500000920E-02 0.  1.
       -2    1    3    3    0  502  0.48238867630E+01 -0.20341655642E+03 -0.19775667436E+04  0.19880069896E+04  0.25500000920E-02 0. -1.
</event>
<event>
 5   0  0.4071750E-09  0.3802396E+04  0.7818609E-02  0.8045641E-01
        1   -1    0    0  501    0  0.00000000000E+00  0.00000000000E+00  0.23487412645E+04  0.23487412645E+04  0.50400001928E-02 0.  1.
       -1   -1    0    0    0  501  0.00000000000E+00  0.00000000000E+00 -0.15389322668E+04  0.15389322668E+04  0.50400001928E-02 0. -1.
    10030    2    1    2    0    0  0.00000000000E+00  0.00000000000E+00  0.80980899770E+03  0.38876735313E+04  0.38023959385E+04 0.  0.
        1    1    3    3  502    0 -0.13636972248E+04  0.12938054807E+04  0.11400465125E+03  0.18832418334E+04  0.50400001928E-02 0. -1.
       -1    1    3    3    0  502  0.13636972248E+04 -0.12938054807E+04  0.69580434645E+03  0.20044316978E+04  0.50400001928E-02 0.  1.
</event>
<event>
 5   0  0.1293993E-08  0.3807442E+04  0.7818609E-02  0.8044560E-01
        2   -1    0    0  501    0  0.00000000000E+00  0.00000000000E+00  0.26974599247E+04  0.26974599247E+04  0.25500000920E-02 0.  1.
       -2   -1    0    0    0  501  0.00000000000E+00  0.00000000000E+00 -0.13435428683E+04  0.13435428683E+04  0.25500000920E-02 0. -1.
    10030    2    1    2    0    0  0.00000000000E+00  0.00000000000E+00  0.13539170565E+04  0.40410027930E+04  0.38074416840E+04 0.  0.
        5    1    3    3  502    0  0.54545628274E+03 -0.98397884719E+03  0.23068702137E+04  0.25665948650E+04  0.46999998093E+01 0.  1.
       -5    1    3    3    0  502 -0.54545628274E+03  0.98397884719E+03 -0.95295315727E+03  0.14744079280E+04  0.46999998093E+01 0. -1.
</event>
<event>
 5   0  0.1293993E-08  0.3800322E+04  0.7818609E-02  0.8046086E-01
        2   -1    0    0  501    0  0.00000000000E+00  0.00000000000E+00  0.17244135488E+04  0.17244135488E+04  0.25500000920E-02 0.  1.
       -2   -1    0    0    0  501  0.00000000000E+00  0.00000000000E+00 -0.20938206498E+04  0.20938206498E+04  0.25500000920E-02 0. -1.
    10030    2    1    2    0    0  0.00000000000E+00  0.00000000000E+00 -0.36940710097E+03  0.38182341986E+04  0.38003224585E+04 0.  0.
        5    1    3    3  502    0 -0.59524553566E+02  0.43365535531E+03  0.16730626615E+04  0.17293816522E+04  0.46999998093E+01 0.  1.
       -5    1    3    3    0  502  0.59524553566E+02 -0.43365535531E+03 -0.20424697625E+04  0.20888525463E+04  0.46999998093E+01 0. -1.
</event>
<event>
 5   0  0.1305088E-08  0.3798068E+04  0.7818609E-02  0.8046570E-01
        2   -1    0    0  501    0  0.00000000000E+00  0.00000000000E+00  0.14555845741E+04  0.14555845741E+04  0.25500000920E-02 0.  1.
       -2   -1    0    0    0  501  0.00000000000E+00  0.00000000000E+00 -0.24775821267E+04  0.24775821267E+04  0.25500000920E-02 0. -1.
    10030    2    1    2    0    0  0.00000000000E+00  0.00000000000E+00 -0.10219975527E+04  0.39331667008E+04  0.37980681008E+04 0.  0.
        3    1    3    3  502    0 -0.15041920988E+04 -0.11364233687E+04 -0.27422116651E+03  0.19050588445E+04  0.10100000352E+00 0. -1.
       -3    1    3    3    0  502  0.15041920988E+04  0.11364233687E+04 -0.74777638616E+03  0.20281078563E+04  0.10100000352E+00 0.  1.
</event>
<event>
 5   0  0.4071750E-09  0.3800362E+04  0.7818609E-02  0.8046077E-01
       -1   -1    0    0    0  501  0.00000000000E+00  0.00000000000E+00  0.15126140478E+04  0.15126140478E+04  0.50400001928E-02 0. -1.
        1   -1    0    0  501    0  0.00000000000E+00  0.00000000000E+00 -0.23870514725E+04  0.23870514725E+04  0.50400001928E-02 0.  1.
    10030    2    1    2    0    0  0.00000000000E+00  0.00000000000E+00 -0.87443742462E+03  0.38996655203E+04  0.38003618723E+04 0.  0.
        2    1    3    3  502    0 -0.32691712571E+03  0.17656055493E+04  0.20067594541E+03  0.18067951179E+04  0.25500000920E-02 0. -1.
       -2    1    3    3    0  502  0.32691712571E+03 -0.17656055493E+04 -0.10751133700E+04  0.20928704024E+04  0.25500000920E-02 0.  1.
</event>
<event>
 5   0  0.4071750E-09  0.3799618E+04  0.7818609E-02  0.8046237E-01
       -1   -1    0    0    0  501  0.00000000000E+00  0.00000000000E+00  0.15269377313E+04  0.15269377313E+04  0.50400001928E-02 0. -1.
        1   -1    0    0  501    0  0.00000000000E+00  0.00000000000E+00 -0.23637339014E+04  0.23637339014E+04  0.50400001928E-02 0.  1.
    10030    2    1    2    0    0  0.00000000000E+00  0.00000000000E+00 -0.83679617004E+03  0.38906716327E+04  0.37996181286E+04 0.  0.
        5    1    3    3  502    0 -0.48598820064E+03  0.16395852171E+04 -0.12657726763E+04  0.21275870777E+04  0.46999998093E+01 0.  1.
       -5    1    3    3    0  502  0.48598820064E+03 -0.16395852171E+04  0.42897650623E+03  0.17630845550E+04  0.46999998093E+01 0. -1.
</event>
<event>
 5   0  0.1261152E-08  0.3799833E+04  0.7818609E-02  0.8046191E-01
        2   -1    0    0  501    0  0.00000000000E+00  0.00000000000E+00  0.22085659554E+04  0.22085659555E+04  0.25500000920E-02 0.  1.
       -2   -1    0    0    0  501  0.00000000000E+00  0.00000000000E+00 -0.16344008714E+04  0.16344008714E+04  0.25500000920E-02 0. -1.
    10030    2    1    2    0    0  0.00000000000E+00  0.00000000000E+00  0.57416508410E+03  0.38429668268E+04  0.37998326921E+04 0.  0.
        2    1    3    3  502    0 -0.19940249096E+02 -0.14381366276E+04 -0.96839856063E+03  0.17339060948E+04  0.25500000920E-02 0. -1.
       -2    1    3    3    0  502  0.19940249096E+02  0.14381366276E+04  0.15425636447E+04  0.21090607320E+04  0.25500000920E-02 0.  1.
</event>
<event>
 5   0  0.1327249E-08  0.3799529E+04  0.7818609E-02  0.8046256E-01
       -2   -1    0    0    0  501  0.00000000000E+00  0.00000000000E+00  0.18932916745E+04  0.18932916745E+04  0.25500000920E-02 0.  1.
        2   -1    0    0  501    0  0.00000000000E+00  0.00000000000E+00 -0.19062589750E+04  0.19062589750E+04  0.25500000920E-02 0. -1.
    10030    2    1    2    0    0  0.00000000000E+00  0.00000000000E+00 -0.12967300456E+02  0.37995506495E+04  0.37995285217E+04 0.  0.
        1    1    3    3  502    0 -0.12947989836E+04 -0.74827519646E+03  0.11651391807E+04  0.18957767505E+04  0.50400001928E-02 0.  1.
       -1    1    3    3    0  502  0.12947989836E+04  0.74827519646E+03 -0.11781064812E+04  0.19037738990E+04  0.50400001928E-02 0. -1.
</event>
<event>
 5   0  0.4071750E-09  0.3797225E+04  0.7818609E-02  0.8046751E-01
        1   -1    0    0  501    0  0.00000000000E+00  0.00000000000E+00  0.19647217629E+04  0.19647217630E+04  0.50400001928E-02 0. -1.
       -1   -1    0    0    0  501  0.00000000000E+00  0.00000000000E+00 -0.18347274655E+04  0.18347274655E+04  0.50400001928E-02 0.  1.
    10030    2    1    2    0    0  0.00000000000E+00  0.00000000000E+00  0.12999429744E+03  0.37994492285E+04  0.37972247658E+04 0.  0.
        4    1    3    3  502    0  0.10688513575E+04 -0.95644206483E+03 -0.11797182181E+04  0.18571379418E+04  0.12699999809E+01 0.  1.
       -4    1    3    3    0  502 -0.10688513575E+04  0.95644206483E+03  0.13097125156E+04  0.19423112866E+04  0.12699999809E+01 0. -1.
</event>
<event>
 5   0  0.4071750E-09  0.3797149E+04  0.7818609E-02  0.8046767E-01
       -1   -1    0    0    0  501  0.00000000000E+00  0.00000000000E+00  0.20355557166E+04  0.20355557166E+04  0.50400001928E-02 0. -1.
        1   -1    0    0  501    0  0.00000000000E+00  0.00000000000E+00 -0.17708111682E+04  0.17708111682E+04  0.50400001928E-02 0.  1.
    10030    2    1    2    0    0  0.00000000000E+00  0.00000000000E+00  0.26474454841E+03  0.38063668848E+04  0.37971488233E+04 0.  0.
        3    1    3    3  502    0 -0.13685539456E+04 -0.12400847733E+04 -0.30896308359E+03  0.18724872081E+04  0.10100000352E+00 0.  1.
       -3    1    3    3    0  502  0.13685539456E+04  0.12400847733E+04  0.57370763200E+03  0.19338796768E+04  0.10100000352E+00 0. -1.
</event>
<event>
 5   0  0.1261152E-08  0.3797856E+04  0.7818609E-02  0.8046615E-01
       -2   -1    0    0    0  501  0.00000000000E+00  0.00000000000E+00  0.18674721034E+04  0.18674721034E+04  0.25500000920E-02 0.  1.
        2   -1    0    0  501    0  0.00000000000E+00  0.00000000000E+00 -0.19309136566E+04  0.19309136566E+04  0.25500000920E-02 0. -1.
    10030    2    1    2    0    0  0.00000000000E+00  0.00000000000E+00 -0.63441553154E+02  0.37983857600E+04  0.37978559150E+04 0.  0.
        2    1    3    3  502    0  0.13203367631E+04  0.12464515912E+04 -0.58767299900E+03  0.19084785278E+04  0.25500000920E-02 0. -1.
       -2    1    3    3    0  502 -0.13203367631E+04 -0.12464515912E+04  0.52423144585E+03  0.18899072322E+04  0.25500000920E-02 0.  1.
</event>
<event>
 5   0  0.4071750E-09  0.3783622E+04  0.7818609E-02  0.8049679E-01
        1   -1    0    0  501    0  0.00000000000E+00  0.00000000000E+00  0.18757292301E+04  0.18757292301E+04  0.50400001928E-02 0. -1.
       -1   -1    0    0    0  501  0.00000000000E+00  0.00000000000E+00 -0.19080304252E+04  0.19080304252E+04  0.50400001928E-02 0.  1.
    10030    2    1    2    0    0  0.00000000000E+00  0.00000000000E+00 -0.32301195097E+02  0.37837596553E+04  0.37836217784E+04 0.  0.
        3    1    3    3  502    0  0.15457884168E+04 -0.17468821304E+03  0.10604436145E+04  0.18826891594E+04  0.10100000352E+00 0. -1.
       -3    1    3    3    0  502 -0.15457884168E+04  0.17468821304E+03 -0.10927448096E+04  0.19010704959E+04  0.10100000352E+00 0.  1.
</event>
<event>
 5   0  0.4071750E-09  0.3800367E+04  0.7818609E-02  0.8046076E-01
       -1   -1    0    0    0  501  0.00000000000E+00  0.00000000000E+00  0.15498615290E+04  0.15498615290E+04  0.50400001928E-02 0.  1.
        1   -1    0    0  501    0  0.00000000000E+00  0.00000000000E+00 -0.23296899259E+04  0.23296899259E+04  0.50400001928E-02 0. -1.
    10030    2    1    2    0    0  0.00000000000E+00  0.00000000000E+00 -0.77982839694E+03  0.38795514549E+04  0.38003667142E+04 0.  0.
        1    1    3    3  502    0 -0.74431293165E+03  0.17363533598E+04 -0.59855486397E+03  0.19817145747E+04  0.50400001928E-02 0. -1.
       -1    1    3    3    0  502  0.74431293165E+03 -0.17363533598E+04 -0.18127353297E+03  0.18978368802E+04  0.50400001928E-02 0.  1.
</event>
<event>
 5   0  0.4071750E-09  0.3800726E+04  0.7818609E-02  0.8045999E-01
       -1   -1    0    0    0  501  0.00000000000E+00  0.00000000000E+00  0.17751502914E+04  0.17751502914E+04  0.50400001928E-02 0. -1.
        1   -1    0    0  501    0  0.00000000000E+00  0.00000000000E+00 -0.20344075502E+04  0.20344075502E+04  0.50400001928E-02 0.  1.
    10030    2    1    2    0    0  0.00000000000E+00  0.00000000000E+00 -0.25925725872E+03  0.38095578416E+04  0.38007258020E+04 0.  0.
        2    1    3    3  502    0 -0.87478745397E+03  0.35742095972E+03  0.15229526255E+04  0.17923134579E+04  0.25500000920E-02 0. -1.
       -2    1    3    3    0  502  0.87478745397E+03 -0.35742095972E+03 -0.17822098842E+04  0.20172443837E+04  0.25500000920E-02 0.  1.
</event>
<event>
 5   0  0.1264013E-08  0.3798789E+04  0.7818609E-02  0.8046415E-01
       -2   -1    0    0    0  501  0.00000000000E+00  0.00000000000E+00  0.16164001443E+04  0.16164001443E+04  0.25500000920E-02 0.  1.
        2   -1    0    0  501    0  0.00000000000E+00  0.00000000000E+00 -0.22319344624E+04  0.22319344624E+04  0.25500000920E-02 0. -1.
    10030    2    1    2    0    0  0.00000000000E+00  0.00000000000E+00 -0.61553431804E+03  0.38483346067E+04  0.37987888528E+04 0.  0.
        4    1    3    3  502    0 -0.97609855005E+03  0.61311314451E+03 -0.18370995231E+04  0.21687813117E+04  0.12699999809E+01 0. -1.
       -4    1    3    3    0  502  0.97609855005E+03 -0.61311314451E+03  0.12215652051E+04  0.16795532950E+04  0.12699999809E+01 0.  1.
</event>
<event>
 5   0  0.1293993E-08  0.3800243E+04  0.7818609E-02  0.8046103E-01
        2   -1    0    0  501    0  0.00000000000E+00  0.00000000000E+00  0.15814528556E+04  0.15814528556E+04  0.25500000920E-02 0.  1.
       -2   -1    0    0    0  501  0.00000000000E+00  0.00000000000E+00 -0.22830025846E+04  0.22830025846E+04  0.25500000920E-02 0. -1.
    10030    2    1    2    0    0  0.00000000000E+00  0.00000000000E+00 -0.70154972896E+03  0.38644554402E+04  0.38002426011E+04 0.  0.
        5    1    3    3  502    0  0.12101725191E+03  0.16066564864E+04 -0.13749919376E+04  0.21181631569E+04  0.46999998093E+01 0.  1.
       -5    1    3    3    0  502 -0.12101725191E+03 -0.16066564864E+04  0.67344220861E+03  0.17462922834E+04  0.46999998093E+01 0. -1.
</event>
<event>
 5   0  0.1264013E-08  0.3800190E+04  0.7818609E-02  0.8046114E-01
        2   -1    0    0  501    0  0.00000000000E+00  0.00000000000E+00  0.24945658469E+04  0.24945658469E+04  0.25500000920E-02 0.  1.
       -2   -1    0    0    0  501  0.00000000000E+00  0.00000000000E+00 -0.14472900843E+04  0.14472900843E+04  0.25500000920E-02 0. -1.
    10030    2    1    2    0    0  0.00000000000E+00  0.00000000000E+00  0.10472757626E+04  0.39418559312E+04  0.38001896873E+04 0.  0.
        4    1    3    3  502    0  0.17404627721E+04  0.74288910122E+03  0.34619370352E+03  0.19237844398E+04  0.12699999809E+01 0. -1.
       -4    1    3    3    0  502 -0.17404627721E+04 -0.74288910122E+03  0.70108205911E+03  0.20180714914E+04  0.12699999809E+01 0.  1.
</event>
<event>
 5   0  0.1327249E-08  0.3799758E+04  0.7818609E-02  0.8046207E-01
       -2   -1    0    0    0  501  0.00000000000E+00  0.00000000000E+00  0.17658096032E+04  0.17658096032E+04  0.25500000920E-02 0.  1.
        2   -1    0    0  501    0  0.00000000000E+00  0.00000000000E+00 -0.20441278823E+04  0.20441278823E+04  0.25500000920E-02 0. -1.
    10030    2    1    2    0    0  0.00000000000E+00  0.00000000000E+00 -0.27831827908E+03  0.38099374855E+04  0.37997582264E+04 0.  0.
        1    1    3    3  502    0 -0.95661537915E+03  0.15949158416E+04  0.25004450021E+03  0.18765371773E+04  0.50400001928E-02 0.  1.
       -1    1    3    3    0  502  0.95661537915E+03 -0.15949158416E+04 -0.52836277930E+03  0.19334003083E+04  0.50400001928E-02 0. -1.
</event>
<event>
 5   0  0.1293993E-08  0.3800465E+04  0.7818609E-02  0.8046055E-01
       -2   -1    0    0    0  501  0.00000000000E+00  0.00000000000E+00  0.25535709991E+04  0.25535709991E+04  0.25500000920E-02 0. -1.
        2   -1    0    0  501    0  0.00000000000E+00  0.00000000000E+00 -0.14140522530E+04  0.14140522530E+04  0.25500000920E-02 0.  1.
    10030    2    1    2    0    0  0.00000000000E+00  0.00000000000E+00  0.11395187461E+04  0.39676232521E+04  0.38004646160E+04 0.  0.
        5    1    3    3  502    0 -0.15396321196E+04 -0.11136802449E+04  0.58070790942E+03  0.19869560935E+04  0.46999998093E+01 0. -1.
       -5    1    3    3    0  502  0.15396321196E+04  0.11136802449E+04  0.55881083664E+03  0.19806671585E+04  0.46999998093E+01 0.  1.
</event>
<event>
 5   0  0.1305088E-08  0.3799726E+04  0.7818609E-02  0.8046214E-01
       -2   -1    0    0    0  501  0.00000000000E+00  0.00000000000E+00  0.16559437302E+04  0.16559437302E+04  0.25500000920E-02 0. -1.
        2   -1    0    0  501    0  0.00000000000E+00  0.00000000000E+00 -0.21797117284E+04  0.21797117284E+04  0.25500000920E-02 0.  1.
    10030    2    1    2    0    0  0.00000000000E+00  0.00000000000E+00 -0.52376799820E+03  0.38356554586E+04  0.37997262902E+04 0.  0.
        3    1    3    3  502    0 -0.45575366810E+03 -0.18332066390E+04 -0.46658701711E+03  0.19457804198E+04  0.10100000352E+00 0. -1.
       -3    1    3    3    0  502  0.45575366810E+03  0.18332066390E+04 -0.57180981091E+02  0.18898750388E+04  0.10100000352E+00 0.  1.
</event>
<event>
 5   0  0.1264013E-08  0.3780923E+04  0.7818609E-02  0.8050261E-01
       -2   -1    0    0    0  501  0.00000000000E+00  0.00000000000E+00  0.27034170006E+04  0.27034170006E+04  0.25500000920E-02 0.  1.
        2   -1    0    0  501    0  0.00000000000E+00  0.00000000000E+00 -0.13219730305E+04  0.13219730305E+04  0.25500000920E-02 0. -1.
    10030    2    1    2    0    0  0.00000000000E+00  0.00000000000E+00  0.13814439701E+04  0.40253900312E+04  0.37809228319E+04 0.  0.
        4    1    3    3  502    0 -0.77214470762E+03  0.12646562579E+04 -0.55918834392E+03  0.15837474916E+04  0.12699999809E+01 0. -1.
       -4    1    3    3    0  502  0.77214470762E+03 -0.12646562579E+04  0.19406323140E+04  0.24416425396E+04  0.12699999809E+01 0.  1.
</event>
<event>
 5   0  0.4071750E-09  0.3799109E+04  0.7818609E-02  0.8046346E-01
       -1   -1    0    0    0  501  0.00000000000E+00  0.00000000000E+00  0.14628706093E+04  0.14628706093E+04  0.50400001928E-02 0.  1.
        1   -1    0    0  501    0  0.00000000000E+00  0.00000000000E+00 -0.24665941394E+04  0.24665941394E+04  0.50400001928E-02 0. -1.
    10030    2    1    2    0    0  0.00000000000E+00  0.00000000000E+00 -0.10037235301E+04  0.39294647488E+04  0.37991094071E+04 0.  0.
        3    1    3    3  502    0  0.10229598881E+04  0.90601075417E+03  0.86288378147E+03  0.16161283519E+04  0.10100000352E+00 0.  1.
       -3    1    3    3    0  502 -0.10229598881E+04 -0.90601075417E+03 -0.18666073116E+04  0.23133363969E+04  0.10100000352E+00 0. -1.
</event>
<event>
 5   0  0.4071750E-09  0.3800514E+04  0.7818609E-02  0.8046045E-01
        1   -1    0    0  501    0  0.00000000000E+00  0.00000000000E+00  0.22149185056E+04  0.22149185056E+04  0.50400001928E-02 0.  1.
       -1   -1    0    0    0  501  0.00000000000E+00  0.00000000000E+00 -0.16302974606E+04  0.16302974606E+04  0.50400001928E-02 0. -1.
    10030    2    1    2    0    0  0.00000000000E+00  0.00000000000E+00  0.58462104504E+03  0.38452159662E+04  0.38005136574E+04 0.  0.
        2    1    3    3  502    0 -0.58180750244E+03 -0.56733440578E+03 -0.14456270661E+04  0.16583744789E+04  0.25500000920E-02 0. -1.
       -2    1    3    3    0  502  0.58180750244E+03  0.56733440578E+03  0.20302481111E+04  0.21868414873E+04  0.25500000920E-02 0.  1.
</event>
<event>
 5   0  0.4071750E-09  0.3799438E+04  0.7818609E-02  0.8046276E-01
        1   -1    0    0  501    0  0.00000000000E+00  0.00000000000E+00  0.13637185087E+04  0.13637185087E+04  0.50400001928E-02 0. -1.
       -1   -1    0    0    0  501  0.00000000000E+00  0.00000000000E+00 -0.26463907682E+04  0.26463907683E+04  0.50400001928E-02 0.  1.
    10030    2    1    2    0    0  0.00000000000E+00  0.00000000000E+00 -0.12826722595E+04  0.40101092770E+04  0.37994378910E+04 0.  0.
        5    1    3    3  502    0 -0.22710790588E+03  0.17725425629E+04  0.38936645173E+02  0.17874628082E+04  0.46999998093E+01 0. -1.
       -5    1    3    3    0  502  0.22710790588E+03 -0.17725425629E+04 -0.13216089047E+04  0.22226464688E+04  0.46999998093E+01 0.  1.
</event>
<event>
 5   0  0.1264013E-08  0.3802363E+04  0.7818609E-02  0.8045648E-01
        2   -1    0    0  501    0  0.00000000000E+00  0.00000000000E+00  0.22036871118E+04  0.22036871118E+04  0.25500000920E-02 0. -1.
       -2   -1    0    0    0  501  0.00000000000E+00  0.00000000000E+00 -0.16402012843E+04  0.16402012843E+04  0.25500000920E-02 0.  1.
    10030    2    1    2    0    0  0.00000000000E+00  0.00000000000E+00  0.56348582748E+03  0.38438883961E+04  0.38023626502E+04 0.  0.
        4    1    3    3  502    0  0.22286529242E+03 -0.18053393515E+04  0.84056348157E+03  0.20038631919E+04  0.12699999809E+01 0. -1.
       -4    1    3    3    0  502 -0.22286529242E+03  0.18053393515E+04 -0.27707765409E+03  0.18400252041E+04  0.12699999809E+01 0.  1.
</event>
<event>
 5   0  0.4071750E-09  0.3799803E+04  0.7818609E-02  0.8046197E-01
        1   -1    0    0  501    0  0.00000000000E+00  0.00000000000E+00  0.14551282379E+04  0.14551282379E+04  0.50400001928E-02 0.  1.
       -1   -1    0    0    0  501  0.00000000000E+00  0.00000000000E+00 -0.24806236504E+04  0.24806236504E+04  0.50400001928E-02 0. -1.
    10030    2    1    2    0    0  0.00000000000E+00  0.00000000000E+00 -0.10254954125E+04  0.39357518884E+04  0.37998029009E+04 0.  0.
        1    1    3    3  502    0  0.95991139990E+03  0.14646465906E+04  0.25050605453E+03  0.17690033393E+04  0.50400001928E-02 0.  1.
       -1    1    3    3    0  502 -0.95991139990E+03 -0.14646465906E+04 -0.12760014670E+04  0.21667485491E+04  0.50400001928E-02 0. -1.
</event>
<event>
 5   0  0.4071750E-09  0.3800693E+04  0.7818609E-02  0.8046006E-01
        1   -1    0    0  501    0  0.00000000000E+00  0.00000000000E+00  0.23369021297E+04  0.23369021297E+04  0.50400001928E-02 0.  1.
       -1   -1    0    0    0  501  0.00000000000E+00  0.00000000000E+00 -0.15453436236E+04  0.15453436236E+04  0.50400001928E-02 0. -1.
    10030    2    1    2    0    0  0.00000000000E+00  0.00000000000E+00  0.79155850613E+03  0.38822457533E+04  0.38006929921E+04 0.  0.
        5    1    3    3  502    0  0.60728802193E+03  0.91071826068E+03  0.19825231389E+04  0.22646471200E+04  0.46999998093E+01 0.  1.
       -5    1    3    3    0  502 -0.60728802193E+03 -0.91071826068E+03 -0.11909646327E+04  0.16175986333E+04  0.46999998093E+01 0. -1.
</event>
<event>
 5   0  0.4071750E-09  0.3800272E+04  0.7818609E-02  0.8046096E-01
        1   -1    0    0  501    0  0.00000000000E+00  0.00000000000E+00  0.22205977967E+04  0.22205977968E+04  0.50400001928E-02 0.  1.
       -1   -1    0    0    0  501  0.00000000000E+00  0.00000000000E+00 -0.16259212530E+04  0.16259212530E+04  0.50400001928E-02 0. -1.
    10030    2    1    2    0    0  0.00000000000E+00  0.00000000000E+00  0.59467654379E+03  0.38465190497E+04  0.38002721755E+04 0.  0.
        1    1    3    3  502    0 -0.13193363118E+04 -0.64812165871E+03  0.15160705298E+04  0.21116770207E+04  0.50400001928E-02 0.  1.
       -1    1    3    3    0  502  0.13193363118E+04  0.64812165871E+03 -0.92139398604E+03  0.17348420290E+04  0.50400001928E-02 0. -1.
</event>
<event>
 5   0  0.4071750E-09  0.3783703E+04  0.7818609E-02  0.8049661E-01
       -1   -1    0    0    0  501  0.00000000000E+00  0.00000000000E+00  0.17069944159E+04  0.17069944159E+04  0.50400001928E-02 0. -1.
        1   -1    0    0  501    0  0.00000000000E+00  0.00000000000E+00 -0.20967269637E+04  0.20967269637E+04  0.50400001928E-02 0.  1.
    10030    2    1    2    0    0  0.00000000000E+00  0.00000000000E+00 -0.38973254776E+03  0.38037213796E+04  0.37837025352E+04 0.  0.
        2    1    3    3  502    0 -0.60100900852E+03 -0.32571786385E+03 -0.19682281140E+04  0.20835608616E+04  0.25500000920E-02 0.  1.
       -2    1    3    3    0  502  0.60100900852E+03  0.32571786385E+03  0.15784955662E+04  0.17201605180E+04  0.25500000920E-02 0. -1.
</event>
<event>
 5   0  0.1293993E-08  0.3804384E+04  0.7818609E-02  0.8045215E-01
       -2   -1    0    0    0  501  0.00000000000E+00  0.00000000000E+00  0.16017529213E+04  0.16017529213E+04  0.25500000920E-02 0. -1.
        2   -1    0    0  501    0  0.00000000000E+00  0.00000000000E+00 -0.22589836417E+04  0.22589836417E+04  0.25500000920E-02 0.  1.
    10030    2    1    2    0    0  0.00000000000E+00  0.00000000000E+00 -0.65723072034E+03  0.38607365630E+04  0.38043836018E+04 0.  0.
        5    1    3    3  502    0 -0.18654163438E+04  0.27841488150E+03 -0.57929375174E+03  0.19730424027E+04  0.46999998093E+01 0.  1.
       -5    1    3    3    0  502  0.18654163438E+04 -0.27841488150E+03 -0.77936968603E+02  0.18876941603E+04  0.46999998093E+01 0. -1.
</event>
<event>
 5   0  0.1264013E-08  0.3800249E+04  0.7818609E-02  0.8046101E-01
       -2   -1    0    0    0  501  0.00000000000E+00  0.00000000000E+00  0.20814112470E+04  0.20814112470E+04  0.25500000920E-02 0.  1.
        2   -1    0    0  501    0  0.00000000000E+00  0.00000000000E+00 -0.17346276799E+04  0.17346276799E+04  0.25500000920E-02 0. -1.
    10030    2    1    2    0    0  0.00000000000E+00  0.00000000000E+00  0.34678356711E+03  0.38160389269E+04  0.38002492352E+04 0.  0.
        4    1    3    3  502    0  0.23129780976E+03 -0.11792241052E+04  0.16513781180E+04  0.20423318704E+04  0.12699999809E+01 0.  1.
       -4    1    3    3    0  502 -0.23129780976E+03  0.11792241052E+04 -0.13045945509E+04  0.17737070565E+04  0.12699999809E+01 0. -1.
</event>
<event>
 5   0  0.4071750E-09  0.3799809E+04  0.7818609E-02  0.8046196E-01
       -1   -1    0    0    0  501  0.00000000000E+00  0.00000000000E+00  0.23302897321E+04  0.23302897321E+04  0.50400001928E-02 0.  1.
        1   -1    0    0  501    0  0.00000000000E+00  0.00000000000E+00 -0.15490075249E+04  0.15490075250E+04  0.50400001928E-02 0. -1.
    10030    2    1    2    0    0  0.00000000000E+00  0.00000000000E+00  0.78128220718E+03  0.38792972571E+04  0.37998085901E+04 0.  0.
        3    1    3    3  502    0  0.17583859040E+04  0.57584477835E+03  0.83108000654E+03  0.20283520857E+04  0.10100000352E+00 0. -1.
       -3    1    3    3    0  502 -0.17583859040E+04 -0.57584477835E+03 -0.49797799361E+02  0.18509451713E+04  0.10100000352E+00 0.  1.
</event>
<event>
 5   0  0.4071750E-09  0.3800660E+04  0.7818609E-02  0.8046013E-01
        1   -1    0    0  501    0  0.00000000000E+00  0.00000000000E+00  0.26372867709E+04  0.26372867709E+04  0.50400001928E-02 0. -1.
       -1   -1    0    0    0  501  0.00000000000E+00  0.00000000000E+00 -0.13693064821E+04  0.13693064821E+04  0.50400001928E-02 0.  1.
    10030    2    1    2    0    0  0.00000000000E+00  0.00000000000E+00  0.12679802889E+04  0.40065932530E+04  0.38006598745E+04 0.  0.
        2    1    3    3  502    0 -0.87721415494E+03 -0.10892828669E+03 -0.11393847380E+04  0.14420706039E+04  0.25500000920E-02 0.  1.
       -2    1    3    3    0  502  0.87721415494E+03  0.10892828669E+03  0.24073650269E+04  0.25645226491E+04  0.25500000920E-02 0. -1.
</event>
<event>
 5   0  0.1264013E-08  0.3799317E+04  0.7818609E-02  0.8046302E-01
        2   -1    0    0  501    0  0.00000000000E+00  0.00000000000E+00  0.21092126038E+04  0.21092126038E+04  0.25500000920E-02 0.  1.
       -2   -1    0    0    0  501  0.00000000000E+00  0.00000000000E+00 -0.17109235289E+04  0.17109235289E+04  0.25500000920E-02 0. -1.
    10030    2    1    2    0    0  0.00000000000E+00  0.00000000000E+00  0.39828907485E+03  0.38201361327E+04  0.37993165024E+04 0.  0.
        4    1    3    3  502    0 -0.14142388923E+04 -0.59012908366E+03 -0.92967211356E+03  0.17923771454E+04  0.12699999809E+01 0. -1.
       -4    1    3    3    0  502  0.14142388923E+04  0.59012908366E+03  0.13279611884E+04  0.20277589873E+04  0.12699999809E+01 0.  1.
</event>
<event>
 5   0  0.4071750E-09  0.3800363E+04  0.7818609E-02  0.8046077E-01
        1   -1    0    0  501    0  0.00000000000E+00  0.00000000000E+00  0.19897036461E+04  0.19897036461E+04  0.50400001928E-02 0. -1.
       -1   -1    0    0    0  501  0.00000000000E+00  0.00000000000E+00 -0.18146871111E+04  0.18146871112E+04  0.50400001928E-02 0.  1.
    10030    2    1    2    0    0  0.00000000000E+00  0.00000000000E+00  0.17501653497E+03  0.38043907573E+04  0.38003629099E+04 0.  0.
        1    1    3    3  502    0  0.51558776608E+03 -0.75754202128E+03 -0.15788847620E+04  0.18255349217E+04  0.50400001928E-02 0.  1.
       -1    1    3    3    0  502 -0.51558776608E+03  0.75754202128E+03  0.17539012970E+04  0.19788558356E+04  0.50400001928E-02 0. -1.
</event>
<event>
 5   0  0.1264013E-08  0.3800536E+04  0.7818609E-02  0.8046040E-01
        2   -1    0    0  501    0  0.00000000000E+00  0.00000000000E+00  0.22332419572E+04  0.22332419572E+04  0.25500000920E-02 0. -1.
       -2   -1    0    0    0  501  0.00000000000E+00  0.00000000000E+00 -0.16169400560E+04  0.16169400560E+04  0.25500000920E-02 0.  1.
    10030    2    1    2    0    0  0.00000000000E+00  0.00000000000E+00  0.61630190114E+03  0.38501820132E+04  0.38005359492E+04 0.  0.
        4    1    3    3  502    0  0.13374927908E+04 -0.29555224808E+03  0.16424662084E+04  0.21386759819E+04  0.12699999809E+01 0. -1.
       -4    1    3    3    0  502 -0.13374927908E+04  0.29555224808E+03 -0.10261643072E+04  0.17115060313E+04  0.12699999809E+01 0.  1.
</event>
<event>
 5   0  0.4071750E-09  0.3798525E+04  0.7818609E-02  0.8046471E-01
       -1   -1    0    0    0  501  0.00000000000E+00  0.00000000000E+00  0.15241234539E+04  0.15241234539E+04  0.50400001928E-02 0.  1.
        1   -1    0    0  501    0  0.00000000000E+00  0.00000000000E+00 -0.23667367274E+04  0.23667367274E+04  0.50400001928E-02 0. -1.
    10030    2    1    2    0    0  0.00000000000E+00  0.00000000000E+00 -0.84261327353E+03  0.38908601813E+04  0.37985254800E+04 0.  0.
        1    1    3    3  502    0 -0.34501807604E+03  0.11965839658E+04  0.10475483379E+04  0.16273316135E+04  0.50400001928E-02 0.  1.
       -1    1    3    3    0  502  0.34501807604E+03 -0.11965839658E+04 -0.18901616114E+04  0.22635285678E+04  0.50400001928E-02 0. -1.
</event>
<event>
 5   0  0.4071750E-09  0.3797508E+04  0.7818609E-02  0.8046690E-01
       -1   -1    0    0    0  501  0.00000000000E+00  0.00000000000E+00  0.14680181903E+04  0.14680181903E+04  0.50400001928E-02 0. -1.
        1   -1    0    0  501    0  0.00000000000E+00  0.00000000000E+00 -0.24558728811E+04  0.24558728811E+04  0.50400001928E-02 0.  1.
    10030    2    1    2    0    0  0.00000000000E+00  0.00000000000E+00 -0.98785469075E+03  0.39238910714E+04  0.37975076366E+04 0.  0.
        1    1    3    3  502    0  0.46899329531E+03  0.18399205915E+04 -0.49587927671E+03  0.19624369419E+04  0.50400001928E-02 0. -1.
       -1    1    3    3    0  502 -0.46899329531E+03 -0.18399205915E+04 -0.49197541404E+03  0.19614541295E+04  0.50400001928E-02 0.  1.
</event>
<event>
 5   0  0.1305088E-08  0.3799385E+04  0.7818609E-02  0.8046287E-01
        2   -1    0    0  501    0  0.00000000000E+00  0.00000000000E+00  0.15330008260E+04  0.15330008260E+04  0.25500000920E-02 0.  1.
       -2   -1    0    0    0  501  0.00000000000E+00  0.00000000000E+00 -0.23540968426E+04  0.23540968426E+04  0.25500000920E-02 0. -1.
    10030    2    1    2    0    0  0.00000000000E+00  0.00000000000E+00 -0.82109601664E+03  0.38870976686E+04  0.37993854262E+04 0.  0.
        3    1    3    3  502    0 -0.18424341181E+04  0.46281388404E+03 -0.40185338469E+03  0.19417122144E+04  0.10100000352E+00 0. -1.
       -3    1    3    3    0  502  0.18424341181E+04 -0.46281388404E+03 -0.41924263195E+03  0.19453854542E+04  0.10100000352E+00 0.  1.
</event>
<event>
 5   0  0.4071750E-09  0.3795872E+04  0.7818609E-02  0.8047041E-01
       -3   -1    0    0    0  501  0.00000000000E+00  0.00000000000E+00  0.20374351679E+04  0.20374351704E+04  0.10100000352E+00 0.  1.
        3   -1    0    0  501    0  0.00000000000E+00  0.00000000000E+00 -0.17679884825E+04  0.17679884853E+04  0.10100000352E+00 0. -1.
    10030    2    1    2    0    0  0.00000000000E+00  0.00000000000E+00  0.26944668546E+03  0.38054236558E+04  0.37958724536E+04 0.  0.
        1    1    3    3  502    0  0.73179481678E+03 -0.94656291442E+03 -0.13422987644E+04  0.17981298557E+04  0.50400001928E-02 0. -1.
       -1    1    3    3    0  502 -0.73179481678E+03  0.94656291442E+03  0.16117454499E+04  0.20072938001E+04  0.50400001928E-02 0.  1.
</event>
<event>
 5   0  0.1305088E-08  0.3799628E+04  0.7818609E-02  0.8046235E-01
        2   -1    0    0  501    0  0.00000000000E+00  0.00000000000E+00  0.27262941817E+04  0.27262941817E+04  0.25500000920E-02 0. -1.
       -2   -1    0    0    0  501  0.00000000000E+00  0.00000000000E+00 -0.13238826490E+04  0.13238826490E+04  0.25500000920E-02 0.  1.
    10030    2    1    2    0    0  0.00000000000E+00  0.00000000000E+00  0.14024115326E+04  0.40501768307E+04  0.37996281730E+04 0.  0.
        3    1    3    3  502    0 -0.47071946482E+02  0.28026299316E+03  0.27035088671E+04  0.27184045538E+04  0.10100000352E+00 0. -1.
       -3    1    3    3    0  502  0.47071946482E+02 -0.28026299316E+03 -0.13010973345E+04  0.13317722769E+04  0.10100000352E+00 0.  1.
</event>
<event>
 5   0  0.1264013E-08  0.3800123E+04  0.7818609E-02  0.8046128E-01
       -2   -1    0    0    0  501  0.00000000000E+00  0.00000000000E+00  0.25086417686E+04  0.25086417686E+04  0.25500000920E-02 0. -1.
        2   -1    0    0  501    0  0.00000000000E+00  0.00000000000E+00 -0.14391190348E+04  0.14391190348E+04  0.25500000920E-02 0.  1.
    10030    2    1    2    0    0  0.00000000000E+00  0.00000000000E+00  0.10695227338E+04  0.39477608033E+04  0.38001232193E+04 0.  0.
        4    1    3    3  502    0 -0.13266452206E+04  0.56566072566E+03 -0.75034062524E+03  0.16257220749E+04  0.12699999809E+01 0.  1.
       -4    1    3    3    0  502  0.13266452206E+04 -0.56566072566E+03  0.18198633590E+04  0.23220387285E+04  0.12699999809E+01 0. -1.
</event>
<event>
 5   0  0.1305088E-08  0.3798411E+04  0.7818609E-02  0.8046496E-01
        2   -1    0    0  501    0  0.00000000000E+00  0.00000000000E+00  0.26554384744E+04  0.26554384744E+04  0.25500000920E-02 0.  1.
       -2   -1    0    0    0  501  0.00000000000E+00  0.00000000000E+00 -0.13583376977E+04  0.13583376977E+04  0.25500000920E-02 0. -1.
    10030    2    1    2    0    0  0.00000000000E+00  0.00000000000E+00  0.12971007767E+04  0.40137761721E+04  0.37984113435E+04 0.  0.
        3    1    3    3  502    0 -0.17100856137E+04  0.45473976822E+03 -0.80342783429E+02  0.17713373581E+04  0.10100000352E+00 0. -1.
       -3    1    3    3    0  502  0.17100856137E+04 -0.45473976822E+03  0.13774435601E+04  0.22424388140E+04  0.10100000352E+00 0.  1.
</event>
<event>
 5   0  0.1327249E-08  0.3800009E+04  0.7818609E-02  0.8046153E-01
        2   -1    0    0  501    0  0.00000000000E+00  0.00000000000E+00  0.13591250950E+04  0.13591250950E+04  0.25500000920E-02 0. -1.
       -2   -1    0    0    0  501  0.00000000000E+00  0.00000000000E+00 -0.26561324486E+04  0.26561324486E+04  0.25500000920E-02 0.  1.
    10030    2    1    2    0    0  0.00000000000E+00  0.00000000000E+00 -0.12970073536E+04  0.40152575436E+04  0.38000085613E+04 0.  0.
        1    1    3    3  502    0  0.15831149970E+04  0.10100810295E+04 -0.34317279335E+03  0.19090008764E+04  0.50400001928E-02 0. -1.
       -1    1    3    3    0  502 -0.15831149970E+04 -0.10100810295E+04 -0.95383456030E+03  0.21062566672E+04  0.50400001928E-02 0.  1.
</event>
<event>
 5   0  0.4071750E-09  0.3801046E+04  0.7818609E-02  0.8045930E-01
        1   -1    0    0  501    0  0.00000000000E+00  0.00000000000E+00  0.16483988106E+04  0.16483988106E+04  0.50400001928E-02 0.  1.
       -1   -1    0    0    0  501  0.00000000000E+00  0.00000000000E+00 -0.21912100187E+04  0.21912100187E+04  0.50400001928E-02 0. -1.
    10030    2    1    2    0    0  0.00000000000E+00  0.00000000000E+00 -0.54281120807E+03  0.38396088293E+04  0.38010461658E+04 0.  0.
        2    1    3    3  502    0 -0.55439264117E+03 -0.87958079629E+03  0.13356381990E+04  0.16926142432E+04  0.25500000920E-02 0.  1.
       -2    1    3    3    0  502  0.55439264117E+03  0.87958079629E+03 -0.18784494071E+04  0.21469945861E+04  0.25500000920E-02 0. -1.
</event>
<event>
 5   0  0.4071750E-09  0.3806067E+04  0.7818609E-02  0.8044854E-01
       -1   -1    0    0    0  501  0.00000000000E+00  0.00000000000E+00  0.15788964468E+04  0.15788964468E+04  0.50400001928E-02 0.  1.
        1   -1    0    0  501    0  0.00000000000E+00  0.00000000000E+00 -0.22937141716E+04  0.22937141717E+04  0.50400001928E-02 0. -1.
    10030    2    1    2    0    0  0.00000000000E+00  0.00000000000E+00 -0.71481772487E+03  0.38726106184E+04  0.38060673434E+04 0.  0.
        4    1    3    3  502    0  0.79359524521E+03  0.10212218643E+04 -0.17778274643E+04  0.21984903036E+04  0.12699999809E+01 0. -1.
       -4    1    3    3    0  502 -0.79359524521E+03 -0.10212218643E+04  0.10630097395E+04  0.16741203148E+04  0.12699999809E+01 0.  1.
</event>
<event>
 5   0  0.1293993E-08  0.3800202E+04  0.7818609E-02  0.8046112E-01
        2   -1    0    0  501    0  0.00000000000E+00  0.00000000000E+00  0.24339815911E+04  0.24339815911E+04  0.25500000920E-02 0.  1.
       -2   -1    0    0    0  501  0.00000000000E+00  0.00000000000E+00 -0.14833242639E+04  0.14833242639E+04  0.25500000920E-02 0. -1.
    10030    2    1    2    0    0  0.00000000000E+00  0.00000000000E+00  0.95065732725E+03  0.39173058550E+04  0.38002020746E+04 0.  0.
        5    1    3    3  502    0 -0.90780673424E+03  0.92003233359E+03 -0.96035272581E+03  0.16102397367E+04  0.46999998093E+01 0. -1.
       -5    1    3    3    0  502  0.90780673424E+03 -0.92003233359E+03  0.19110100531E+04  0.23070661184E+04  0.46999998093E+01 0.  1.
</event>
<event>
 5   0  0.4071750E-09  0.3800120E+04  0.7818609E-02  0.8046129E-01
       -1   -1    0    0    0  501  0.00000000000E+00  0.00000000000E+00  0.12532125882E+04  0.12532125883E+04  0.50400001928E-02 0. -1.
        1   -1    0    0  501    0  0.00000000000E+00  0.00000000000E+00 -0.28807789118E+04  0.28807789118E+04  0.50400001928E-02 0.  1.
    10030    2    1    2    0    0  0.00000000000E+00  0.00000000000E+00 -0.16275663236E+04  0.41339915001E+04  0.38001202067E+04 0.  0.
        1    1    3    3  502    0  0.16798448643E+04 -0.68545009534E+03 -0.14277321351E+04  0.23087095207E+04  0.50400001928E-02 0.  1.
       -1    1    3    3    0  502 -0.16798448643E+04  0.68545009534E+03 -0.19983418847E+03  0.18252819794E+04  0.50400001928E-02 0. -1.
</event>
<event>
 5   0  0.4071750E-09  0.3795665E+04  0.7818609E-02  0.8047086E-01
       -1   -1    0    0    0  501  0.00000000000E+00  0.00000000000E+00  0.22233906440E+04  0.22233906440E+04  0.50400001928E-02 0.  1.
        1   -1    0    0  501    0  0.00000000000E+00  0.00000000000E+00 -0.16199436252E+04  0.16199436252E+04  0.50400001928E-02 0. -1.
    10030    2    1    2    0    0  0.00000000000E+00  0.00000000000E+00  0.60344701884E+03  0.38433342693E+04  0.37956646323E+04 0.  0.
        4    1    3    3  502    0  0.83257396526E+03 -0.71439230567E+03  0.18697946108E+04  0.21678720612E+04  0.12699999809E+01 0.  1.
       -4    1    3    3    0  502 -0.83257396526E+03  0.71439230567E+03 -0.12663475920E+04  0.16754622081E+04  0.12699999809E+01 0. -1.
</event>
<event>
 5   0  0.4071750E-09  0.3800023E+04  0.7818609E-02  0.8046150E-01
        1   -1    0    0  501    0  0.00000000000E+00  0.00000000000E+00  0.22507015397E+04  0.22507015397E+04  0.50400001928E-02 0. -1.
       -1   -1    0    0    0  501  0.00000000000E+00  0.00000000000E+00 -0.16039639958E+04  0.16039639958E+04  0.50400001928E-02 0.  1.
    10030    2    1    2    0    0  0.00000000000E+00  0.00000000000E+00  0.64673754387E+03  0.38546655356E+04  0.38000232816E+04 0.  0.
        5    1    3    3  502    0  0.88043549260E+03 -0.15450638575E+04  0.10020433337E+04  0.20412010957E+04  0.46999998093E+01 0.  1.
       -5    1    3    3    0  502 -0.88043549260E+03  0.15450638575E+04 -0.35530578980E+03  0.18134644399E+04  0.46999998093E+01 0. -1.
</event>
<event>
 5   0  0.1264013E-08  0.3799039E+04  0.7818609E-02  0.8046361E-01
       -2   -1    0    0    0  501  0.00000000000E+00  0.00000000000E+00  0.13879347754E+04  0.13879347754E+04  0.25500000920E-02 0.  1.
        2   -1    0    0  501    0  0.00000000000E+00  0.00000000000E+00 -0.25996714664E+04  0.25996714664E+04  0.25500000920E-02 0. -1.
    10030    2    1    2    0    0  0.00000000000E+00  0.00000000000E+00 -0.12117366910E+04  0.39876062418E+04  0.37990390537E+04 0.  0.
        4    1    3    3  502    0  0.93148782624E+03  0.84430885178E+03  0.88876461926E+03  0.15396204626E+04  0.12699999809E+01 0.  1.
       -4    1    3    3    0  502 -0.93148782624E+03 -0.84430885178E+03 -0.21005013103E+04  0.24479857792E+04  0.12699999809E+01 0. -1.
</event>
<event>
 5   0  0.4071750E-09  0.3799483E+04  0.7818609E-02  0.8046266E-01
        1   -1    0    0  501    0  0.00000000000E+00  0.00000000000E+00  0.16341491176E+04  0.16341491176E+04  0.50400001928E-02 0. -1.
       -1   -1    0    0    0  501  0.00000000000E+00  0.00000000000E+00 -0.22084999601E+04  0.22084999602E+04  0.50400001928E-02 0.  1.
    10030    2    1    2    0    0  0.00000000000E+00  0.00000000000E+00 -0.57435084251E+03  0.38426490778E+04  0.37994832602E+04 0.  0.
        1    1    3    3  502    0  0.12222006639E+04  0.35502815497E+03 -0.17135884102E+04  0.21345268078E+04  0.50400001928E-02 0.  1.
       -1    1    3    3    0  502 -0.12222006639E+04 -0.35502815497E+03  0.11392375677E+04  0.17081222700E+04  0.50400001928E-02 0. -1.
</event>
<event>
 5   0  0.1261152E-08  0.3788030E+04  0.7818609E-02  0.8048728E-01
       -2   -1    0    0    0  501  0.00000000000E+00  0.00000000000E+00  0.31190741963E+04  0.31190741963E+04  0.25500000920E-02 0. -1.
        2   -1    0    0  501    0  0.00000000000E+00  0.00000000000E+00 -0.11501148621E+04  0.11501148621E+04  0.25500000920E-02 0.  1.
    10030    2    1    2    0    0  0.00000000000E+00  0.00000000000E+00  0.19689593341E+04  0.42691890584E+04  0.37880304060E+04 0.  0.
        2    1    3    3  502    0  0.14941763974E+04 -0.31415193552E+03 -0.27860801896E+03  0.15520557249E+04  0.25500000920E-02 0.  1.
       -2    1    3    3    0  502 -0.14941763974E+04  0.31415193552E+03  0.22475673531E+04  0.27171333335E+04  0.25500000920E-02 0. -1.
</event>
<event>
 5   0  0.1293993E-08  0.3799385E+04  0.7818609E-02  0.8046287E-01
       -2   -1    0    0    0  501  0.00000000000E+00  0.00000000000E+00  0.15182782616E+04  0.15182782616E+04  0.25500000920E-02 0.  1.
        2   -1    0    0  501    0  0.00000000000E+00  0.00000000000E+00 -0.23769238185E+04  0.23769238185E+04  0.25500000920E-02 0. -1.
    10030    2    1    2    0    0  0.00000000000E+00  0.00000000000E+00 -0.85864555690E+03  0.38952020802E+04  0.37993850888E+04 0.  0.
        5    1    3    3  502    0  0.15737226524E+03 -0.18895001386E+04 -0.54990209595E+03  0.19741811489E+04  0.46999998093E+01 0. -1.
       -5    1    3    3    0  502 -0.15737226524E+03  0.18895001386E+04 -0.30874346095E+03  0.19210209312E+04  0.46999998093E+01 0.  1.
</event>
<event>
 5   0  0.4071750E-09  0.3800092E+04  0.7818609E-02  0.8046135E-01
       -1   -1    0    0    0  501  0.00000000000E+00  0.00000000000E+00  0.15557019981E+04  0.15557019981E+04  0.50400001928E-02 0.  1.
        1   -1    0    0  501    0  0.00000000000E+00  0.00000000000E+00 -0.23206087105E+04  0.23206087105E+04  0.50400001928E-02 0. -1.
    10030    2    1    2    0    0  0.00000000000E+00  0.00000000000E+00 -0.76490671237E+03  0.38763107086E+04  0.38000924240E+04 0.  0.
        3    1    3    3  502    0 -0.14176211659E+04  0.54085571744E+03 -0.15490707474E+04  0.21683622547E+04  0.10100000352E+00 0. -1.
       -3    1    3    3    0  502  0.14176211659E+04 -0.54085571744E+03  0.78416403502E+03  0.17079484539E+04  0.10100000352E+00 0.  1.
</event>
<event>
 5   0  0.4071750E-09  0.3796003E+04  0.7818609E-02  0.8047013E-01
        1   -1    0    0  501    0  0.00000000000E+00  0.00000000000E+00  0.17571453975E+04  0.17571453975E+04  0.50400001928E-02 0.  1.
       -1   -1    0    0    0  501  0.00000000000E+00  0.00000000000E+00 -0.20501492750E+04  0.20501492750E+04  0.50400001928E-02 0. -1.
    10030    2    1    2    0    0  0.00000000000E+00  0.00000000000E+00 -0.29300387751E+03  0.38072946726E+04  0.37960033524E+04 0.  0.
        5    1    3    3  502    0  0.12769237798E+04  0.10016416089E+04 -0.11335878808E+04  0.19796120391E+04  0.46999998093E+01 0. -1.
       -5    1    3    3    0  502 -0.12769237798E+04 -0.10016416089E+04  0.84058400326E+03  0.18276826334E+04  0.46999998093E+01 0.  1.
</event>
<event>
 5   0  0.1261152E-08  0.3798143E+04  0.7818609E-02  0.8046553E-01
       -2   -1    0    0    0  501  0.00000000000E+00  0.00000000000E+00  0.14669522741E+04  0.14669522741E+04  0.25500000920E-02 0.  1.
        2   -1    0    0  501    0  0.00000000000E+00  0.00000000000E+00 -0.24584798715E+04  0.24584798715E+04  0.25500000920E-02 0. -1.
    10030    2    1    2    0    0  0.00000000000E+00  0.00000000000E+00 -0.99152759734E+03  0.39254321456E+04  0.37981430401E+04 0.  0.
        2    1    3    3  502    0 -0.11321596219E+04 -0.14005228861E+04  0.12711385964E+03  0.18053829780E+04  0.25500000920E-02 0.  1.
       -2    1    3    3    0  502  0.11321596219E+04  0.14005228861E+04 -0.11186414570E+04  0.21200491676E+04  0.25500000920E-02 0. -1.
</event>
<event>
 5   0  0.4071750E-09  0.3799091E+04  0.7818609E-02  0.8046350E-01
        1   -1    0    0  501    0  0.00000000000E+00  0.00000000000E+00  0.32513504751E+04  0.32513504751E+04  0.50400001928E-02 0.  1.
       -1   -1    0    0    0  501  0.00000000000E+00  0.00000000000E+00 -0.11097766800E+04  0.11097766800E+04  0.50400001928E-02 0. -1.
    10030    2    1    2    0    0  0.00000000000E+00  0.00000000000E+00  0.21415737951E+04  0.43611271551E+04  0.37990909101E+04 0.  0.
        4    1    3    3  502    0 -0.17385430467E+04  0.50054249120E+03  0.40617383401E+03  0.18541988856E+04  0.12699999809E+01 0. -1.
       -4    1    3    3    0  502  0.17385430467E+04 -0.50054249120E+03  0.17353999611E+04  0.25069282696E+04  0.12699999809E+01 0.  1.
</event>
<event>
 5   0  0.1305088E-08  0.3801325E+04  0.7818609E-02  0.8045871E-01
       -2   -1    0    0    0  501  0.00000000000E+00  0.00000000000E+00  0.20525622664E+04  0.20525622664E+04  0.25500000920E-02 0.  1.
        2   -1    0    0  501    0  0.00000000000E+00  0.00000000000E+00 -0.17600044309E+04  0.17600044309E+04  0.25500000920E-02 0. -1.
    10030    2    1    2    0    0  0.00000000000E+00  0.00000000000E+00  0.29255783553E+03  0.38125666973E+04  0.38013253918E+04 0.  0.
        3    1    3    3  502    0 -0.31051902683E+03 -0.81661302742E+03  0.18392397178E+04  0.20361929310E+04  0.10100000352E+00 0.  1.
       -3    1    3    3    0  502  0.31051902683E+03  0.81661302742E+03 -0.15466818822E+04  0.17763737663E+04  0.10100000352E+00 0. -1.
</event>
<event>
 5   0  0.1293993E-08  0.3796745E+04  0.7818609E-02  0.8046854E-01
       -2   -1    0    0    0  501  0.00000000000E+00  0.00000000000E+00  0.12297204928E+04  0.12297204928E+04  0.25500000920E-02 0. -1.
        2   -1    0    0  501    0  0.00000000000E+00  0.00000000000E+00 -0.29305999762E+04  0.29305999762E+04  0.25500000920E-02 0.  1.
    10030    2    1    2    0    0  0.00000000000E+00  0.00000000000E+00 -0.17008794834E+04  0.41603204690E+04  0.37967453678E+04 0.  0.
        5    1    3    3  502    0  0.56371412810E+02 -0.62906953885E+03  0.11112120268E+04  0.12781707552E+04  0.46999998093E+01 0. -1.
       -5    1    3    3    0  502 -0.56371412810E+02  0.62906953885E+03 -0.28120915103E+04  0.28821497138E+04  0.46999998093E+01 0.  1.
</event>
<event>
 5   0  0.1264013E-08  0.3801076E+04  0.7818609E-02  0.8045924E-01
        2   -1    0    0  501    0  0.00000000000E+00  0.00000000000E+00  0.18072145578E+04  0.18072145578E+04  0.25500000920E-02 0. -1.
       -2   -1    0    0    0  501  0.00000000000E+00  0.00000000000E+00 -0.19986808772E+04  0.19986808772E+04  0.25500000920E-02 0.  1.
    10030    2    1    2    0    0  0.00000000000E+00  0.00000000000E+00 -0.19146631945E+03  0.38058954350E+04  0.38010762569E+04 0.  0.
        4    1    3    3  502    0 -0.49973483780E+03  0.15200052373E+04  0.93118538687E+03  0.18512856795E+04  0.12699999809E+01 0. -1.
       -4    1    3    3    0  502  0.49973483780E+03 -0.15200052373E+04 -0.11226517063E+04  0.19546097555E+04  0.12699999809E+01 0.  1.
</event>
<event>
 5   0  0.4071750E-09  0.3806267E+04  0.7818609E-02  0.8044811E-01
        1   -1    0    0  501    0  0.00000000000E+00  0.00000000000E+00  0.14238693044E+04  0.14238693044E+04  0.50400001928E-02 0. -1.
       -1   -1    0    0    0  501  0.00000000000E+00  0.00000000000E+00 -0.25437141223E+04  0.25437141223E+04  0.50400001928E-02 0.  1.
    10030    2    1    2    0    0  0.00000000000E+00  0.00000000000E+00 -0.11198448179E+04  0.39675834267E+04  0.38062666528E+04 0.  0.
        1    1    3    3  502    0  0.15008718545E+04 -0.11304190813E+04 -0.24469393170E+03  0.18948189209E+04  0.50400001928E-02 0. -1.
       -1    1    3    3    0  502 -0.15008718545E+04  0.11304190813E+04 -0.87515088616E+03  0.20727645058E+04  0.50400001928E-02 0.  1.
</event>
<event>
 5   0  0.1327249E-08  0.3799953E+04  0.7818609E-02  0.8046165E-01
       -2   -1    0    0    0  501  0.00000000000E+00  0.00000000000E+00  0.14305888880E+04  0.14305888880E+04  0.25500000920E-02 0. -1.
        2   -1    0    0  501    0  0.00000000000E+00  0.00000000000E+00 -0.25233741921E+04  0.25233741921E+04  0.25500000920E-02 0.  1.
    10030    2    1    2    0    0  0.00000000000E+00  0.00000000000E+00 -0.10927853041E+04  0.39539630801E+04  0.37999531994E+04 0.  0.
        1    1    3    3  502    0 -0.13748486374E+04 -0.52316324478E+03  0.70484235704E+03  0.16311686929E+04  0.50400001928E-02 0. -1.
       -1    1    3    3    0  502  0.13748486374E+04  0.52316324478E+03 -0.17976276612E+04  0.23227943871E+04  0.50400001928E-02 0.  1.
</event>
<event>
 5   0  0.4071750E-09  0.3800281E+04  0.7818609E-02  0.8046095E-01
       -1   -1    0    0    0  501  0.00000000000E+00  0.00000000000E+00  0.23414477894E+04  0.23414477894E+04  0.50400001928E-02 0. -1.
        1   -1    0    0  501    0  0.00000000000E+00  0.00000000000E+00 -0.15420089301E+04  0.15420089301E+04  0.50400001928E-02 0.  1.
    10030    2    1    2    0    0  0.00000000000E+00  0.00000000000E+00  0.79943885926E+03  0.38834567195E+04  0.38002807268E+04 0.  0.
        1    1    3    3  502    0  0.10342007726E+04  0.12582211297E+04  0.13998338102E+04  0.21476094490E+04  0.50400001928E-02 0. -1.
       -1    1    3    3    0  502 -0.10342007726E+04 -0.12582211297E+04 -0.60039495093E+03  0.17358472705E+04  0.50400001928E-02 0.  1.
</event>
<event>
 5   0  0.1264013E-08  0.3798804E+04  0.7818609E-02  0.8046412E-01
       -2   -1    0    0    0  501  0.00000000000E+00  0.00000000000E+00  0.13557697643E+04  0.13557697643E+04  0.25500000920E-02 0.  1.
        2   -1    0    0  501    0  0.00000000000E+00  0.00000000000E+00 -0.26610185837E+04  0.26610185837E+04  0.25500000920E-02 0. -1.
    10030    2    1    2    0    0  0.00000000000E+00  0.00000000000E+00 -0.13052488194E+04  0.40167883481E+04  0.37988043056E+04 0.  0.
        4    1    3    3  502    0  0.12949924717E+04  0.10768883412E+04 -0.15810957201E+04  0.23100994113E+04  0.12699999809E+01 0.  1.
       -4    1    3    3    0  502 -0.12949924717E+04 -0.10768883412E+04  0.27584690071E+03  0.17066889367E+04  0.12699999809E+01 0. -1.
</event>
<event>
 5   0  0.4071750E-09  0.3795488E+04  0.7818609E-02  0.8047124E-01
       -1   -1    0    0    0  501  0.00000000000E+00  0.00000000000E+00  0.15400251857E+04  0.15400251857E+04  0.50400001928E-02 0. -1.
        1   -1    0    0  501    0  0.00000000000E+00  0.00000000000E+00 -0.23385547031E+04  0.23385547031E+04  0.50400001928E-02 0.  1.
    10030    2    1    2    0    0  0.00000000000E+00  0.00000000000E+00 -0.79852951743E+03  0.38785798888E+04  0.37954884486E+04 0.  0.
        1    1    3    3  502    0 -0.22093937776E+03 -0.18793478829E+04 -0.25234499765E+03  0.19090418203E+04  0.50400001928E-02 0.  1.
       -1    1    3    3    0  502  0.22093937776E+03  0.18793478829E+04 -0.54618451978E+03  0.19695380685E+04  0.50400001928E-02 0. -1.
</event>
<event>
 5   0  0.1293993E-08  0.3801105E+04  0.7818609E-02  0.8045918E-01
        2   -1    0    0  501    0  0.00000000000E+00  0.00000000000E+00  0.21073966489E+04  0.21073966489E+04  0.25500000920E-02 0.  1.
       -2   -1    0    0    0  501  0.00000000000E+00  0.00000000000E+00 -0.17140107295E+04  0.17140107295E+04  0.25500000920E-02 0. -1.
    10030    2    1    2    0    0  0.00000000000E+00  0.00000000000E+00  0.39338591944E+03  0.38214073783E+04  0.38011053484E+04 0.  0.
        5    1    3    3  502    0  0.17364180466E+04 -0.42725281928E+03 -0.45047327431E+03  0.18440826622E+04  0.46999998093E+01 0.  1.
       -5    1    3    3    0  502 -0.17364180466E+04  0.42725281928E+03  0.84385919375E+03  0.19773247161E+04  0.46999998093E+01 0. -1.
</event>
<event>
 5   0  0.1293993E-08  0.3796661E+04  0.7818609E-02  0.8046872E-01
       -2   -1    0    0    0  501  0.00000000000E+00  0.00000000000E+00  0.23381489197E+04  0.23381489197E+04  0.25500000920E-02 0. -1.
        2   -1    0    0  501    0  0.00000000000E+00  0.00000000000E+00 -0.15412444369E+04  0.15412444369E+04  0.25500000920E-02 0.  1.
    10030    2    1    2    0    0  0.00000000000E+00  0.00000000000E+00  0.79690448284E+03  0.38793933567E+04  0.37966611728E+04 0.  0.
        5    1    3    3  502    0 -0.17927408175E+03  0.10608003895E+04 -0.11996625864E+04  0.16114121366E+04  0.46999998093E+01 0.  1.
       -5    1    3    3    0  502  0.17927408175E+03 -0.10608003895E+04  0.19965670692E+04  0.22679812201E+04  0.46999998093E+01 0. -1.
</event>
<event>
 5   0  0.1261152E-08  0.3802124E+04  0.7818609E-02  0.8045699E-01
        2   -1    0    0  501    0  0.00000000000E+00  0.00000000000E+00  0.13611340877E+04  0.13611340877E+04  0.25500000920E-02 0.  1.
       -2   -1    0    0    0  501  0.00000000000E+00  0.00000000000E+00 -0.26551652665E+04  0.26551652665E+04  0.25500000920E-02 0. -1.
    10030    2    1    2    0    0  0.00000000000E+00  0.00000000000E+00 -0.12940311787E+04  0.40162993542E+04  0.38021235923E+04 0.  0.
        2    1    3    3  502    0 -0.13049835086E+04  0.94093912884E+03  0.42279621986E+03  0.16634617656E+04  0.25500000920E-02 0.  1.
       -2    1    3    3    0  502  0.13049835086E+04 -0.94093912884E+03 -0.17168273986E+04  0.23528375886E+04  0.25500000920E-02 0. -1.
</event>
<event>
 5   0  0.1261152E-08  0.3799866E+04  0.7818609E-02  0.8046184E-01
        2   -1    0    0  501    0  0.00000000000E+00  0.00000000000E+00  0.23775095468E+04  0.23775095468E+04  0.25500000920E-02 0.  1.
       -2   -1    0    0    0  501  0.00000000000E+00  0.00000000000E+00 -0.15182881303E+04  0.15182881303E+04  0.25500000920E-02 0. -1.
    10030    2    1    2    0    0  0.00000000000E+00  0.00000000000E+00  0.85922141644E+03  0.38957976771E+04  0.37998655369E+04 0.  0.
        2    1    3    3  502    0  0.13534798858E+04  0.11406793121E+04 -0.27824545148E+03  0.17917805741E+04  0.25500000920E-02 0. -1.
       -2    1    3    3    0  502 -0.13534798858E+04 -0.11406793121E+04  0.11374668679E+04  0.21040171031E+04  0.25500000920E-02 0.  1.
</event>
<event>
 5   0  0.1327249E-08  0.3799819E+04  0.7818609E-02  0.8046194E-01
        2   -1    0    0  501    0  0.00000000000E+00  0.00000000000E+00  0.24887109057E+04  0.24887109057E+04  0.25500000920E-02 0.  1.
       -2   -1    0    0    0  501  0.00000000000E+00  0.00000000000E+00 -0.14504122573E+04  0.14504122573E+04  0.25500000920E-02 0. -1.
    10030    2    1    2    0    0  0.00000000000E+00  0.00000000000E+00  0.10382986484E+04  0.39391231630E+04  0.37998193654E+04 0.  0.
        1    1    3    3  502    0  0.81044506766E+03  0.19910672023E+03 -0.12502309066E+04  0.15031773061E+04  0.50400001928E-02 0. -1.
       -1    1    3    3    0  502 -0.81044506766E+03 -0.19910672023E+03  0.22885295550E+04  0.24359458569E+04  0.50400001928E-02 0.  1.
</event>
<event>
 5   0  0.4071750E-09  0.3799833E+04  0.7818609E-02  0.8046191E-01
        1   -1    0    0  501    0  0.00000000000E+00  0.00000000000E+00  0.13506573220E+04  0.13506573220E+04  0.50400001928E-02 0. -1.
       -1   -1    0    0    0  501  0.00000000000E+00  0.00000000000E+00 -0.26725376816E+04  0.26725376816E+04  0.50400001928E-02 0.  1.
    10030    2    1    2    0    0  0.00000000000E+00  0.00000000000E+00 -0.13218803597E+04  0.40231950036E+04  0.37998329373E+04 0.  0.
        5    1    3    3  502    0 -0.95961547809E+03 -0.28617728693E+03  0.10485588777E+04  0.14499162442E+04  0.46999998093E+01 0. -1.
       -5    1    3    3    0  502  0.95961547809E+03  0.28617728693E+03 -0.23704392373E+04  0.25732787593E+04  0.46999998093E+01 0.  1.
</event>
<event>
 5   0  0.4071750E-09  0.3799740E+04  0.7818609E-02  0.8046211E-01
        1   -1    0    0  501    0  0.00000000000E+00  0.00000000000E+00  0.17691303775E+04  0.17691303775E+04  0.50400001928E-02 0. -1.
       -1   -1    0    0    0  501  0.00000000000E+00  0.00000000000E+00 -0.20402718033E+04  0.20402718033E+04  0.50400001928E-02 0.  1.
    10030    2    1    2    0    0  0.00000000000E+00  0.00000000000E+00 -0.27114142578E+03  0.38094021807E+04  0.37997404256E+04 0.  0.
        3    1    3    3  502    0 -0.93576509070E+03  0.65192977074E+03  0.13877790716E+04  0.17962737800E+04  0.10100000352E+00 0. -1.
       -3    1    3    3    0  502  0.93576509070E+03 -0.65192977074E+03 -0.16589204974E+04  0.20131284007E+04  0.10100000352E+00 0.  1.
</event>
<event>
 5   0  0.1305088E-08  0.3798121E+04  0.7818609E-02  0.8046558E-01
        2   -1    0    0  501    0  0.00000000000E+00  0.00000000000E+00  0.25228286097E+04  0.25228286097E+04  0.25500000920E-02 0.  1.
       -2   -1    0    0    0  501  0.00000000000E+00  0.00000000000E+00 -0.14295188563E+04  0.14295188563E+04  0.25500000920E-02 0. -1.
    10030    2    1    2    0    0  0.00000000000E+00  0.00000000000E+00  0.10933097534E+04  0.39523474661E+04  0.37981211507E+04 0.  0.
        3    1    3    3  502    0 -0.14039652510E+03 -0.10386244272E+04  0.21946209531E+04  0.24320388613E+04  0.10100000352E+00 0.  1.
       -3    1    3    3    0  502  0.14039652510E+03  0.10386244272E+04 -0.11013111997E+04  0.15203086048E+04  0.10100000352E+00 0. -1.
</event>
<event>
 5   0  0.4071750E-09  0.3801046E+04  0.7818609E-02  0.8045930E-01
       -1   -1    0    0    0  501  0.00000000000E+00  0.00000000000E+00  0.19643952361E+04  0.19643952361E+04  0.50400001928E-02 0.  1.
        1   -1    0    0  501    0  0.00000000000E+00  0.00000000000E+00 -0.18387279784E+04  0.18387279784E+04  0.50400001928E-02 0. -1.
    10030    2    1    2    0    0  0.00000000000E+00  0.00000000000E+00  0.12566725775E+03  0.38031232145E+04  0.38010464250E+04 0.  0.
        1    1    3    3  502    0  0.16871357859E+04  0.83676006075E+03 -0.19302844425E+03  0.18931071125E+04  0.50400001928E-02 0.  1.
       -1    1    3    3    0  502 -0.16871357859E+04 -0.83676006075E+03  0.31869570200E+03  0.19100161020E+04  0.50400001928E-02 0. -1.
</event>
<event>
 5   0  0.1261152E-08  0.3800235E+04  0.7818609E-02  0.8046105E-01
       -2   -1    0    0    0  501  0.00000000000E+00  0.00000000000E+00  0.18216342246E+04  0.18216342246E+04  0.25500000920E-02 0. -1.
        2   -1    0    0  501    0  0.00000000000E+00  0.00000000000E+00 -0.19819817487E+04  0.19819817487E+04  0.25500000920E-02 0.  1.
    10030    2    1    2    0    0  0.00000000000E+00  0.00000000000E+00 -0.16034752414E+03  0.38036159733E+04  0.38002346170E+04 0.  0.
        2    1    3    3  502    0 -0.35618932601E+03 -0.64713346890E+03 -0.18323865365E+04  0.19756753229E+04  0.25500000920E-02 0.  1.
       -2    1    3    3    0  502  0.35618932601E+03  0.64713346890E+03  0.16720390124E+04  0.18279406504E+04  0.25500000920E-02 0. -1.
</event>
<event>
 5   0  0.4071750E-09  0.3774569E+04  0.7818609E-02  0.8051634E-01
        1   -1    0    0  501    0  0.00000000000E+00  0.00000000000E+00  0.22792942100E+04  0.22792942100E+04  0.50400001928E-02 0.  1.
       -1   -1    0    0    0  501  0.00000000000E+00  0.00000000000E+00 -0.15626952098E+04  0.15626952098E+04  0.50400001928E-02 0. -1.
    10030    2    1    2    0    0  0.00000000000E+00  0.00000000000E+00  0.71659900025E+03  0.38419894198E+04  0.37745686607E+04 0.  0.
        4    1    3    3  502    0 -0.69691050621E+03  0.17497742963E+04  0.48063865667E+03  0.19438131270E+04  0.12699999809E+01 0.  1.
       -4    1    3    3    0  502  0.69691050621E+03 -0.17497742963E+04  0.23596034358E+03  0.18981762927E+04  0.12699999809E+01 0. -1.
</event>
<event>
 5   0  0.4071750E-09  0.3799095E+04  0.7818609E-02  0.8046349E-01
        1   -1    0    0  501    0  0.00000000000E+00  0.00000000000E+00  0.15455589625E+04  0.15455589625E+04  0.50400001928E-02 0. -1.
       -1   -1    0    0    0  501  0.00000000000E+00  0.00000000000E+00 -0.23346123982E+04  0.23346123982E+04  0.50400001928E-02 0.  1.
    10030    2    1    2    0    0  0.00000000000E+00  0.00000000000E+00 -0.78905343576E+03  0.38801713607E+04  0.37990952165E+04 0.  0.
        1    1    3    3  502    0  0.61256233454E+03 -0.10600887996E+04  0.10887965541E+04  0.16384440220E+04  0.50400001928E-02 0. -1.
       -1    1    3    3    0  502 -0.61256233454E+03  0.10600887996E+04 -0.18778499899E+04  0.22417273388E+04  0.50400001928E-02 0.  1.
</event>
<event>
 5   0  0.4071750E-09  0.3800903E+04  0.7818609E-02  0.8045961E-01
        1   -1    0    0  501    0  0.00000000000E+00  0.00000000000E+00  0.16080479116E+04  0.16080479116E+04  0.50400001928E-02 0.  1.
       -1   -1    0    0    0  501  0.00000000000E+00  0.00000000000E+00 -0.22460253448E+04  0.22460253448E+04  0.50400001928E-02 0. -1.
    10030    2    1    2    0    0  0.00000000000E+00  0.00000000000E+00 -0.63797743318E+03  0.38540732563E+04  0.38009032426E+04 0.  0.
        2    1    3    3  502    0  0.36817239490E+03 -0.22057012134E+02  0.15714081003E+04  0.16141130202E+04  0.25500000920E-02 0.  1.
       -2    1    3    3    0  502 -0.36817239490E+03  0.22057012134E+02 -0.22093855335E+04  0.22399602362E+04  0.25500000920E-02 0. -1.
</event>
<event>
 5   0  0.4071750E-09  0.3800820E+04  0.7818609E-02  0.8045979E-01
        1   -1    0    0  501    0  0.00000000000E+00  0.00000000000E+00  0.19847630679E+04  0.19847630679E+04  0.50400001928E-02 0. -1.
       -1   -1    0    0    0  501  0.00000000000E+00  0.00000000000E+00 -0.18196419078E+04  0.18196419078E+04  0.50400001928E-02 0.  1.
    10030    2    1    2    0    0  0.00000000000E+00  0.00000000000E+00  0.16512116012E+03  0.38044049758E+04  0.38008199408E+04 0.  0.
        5    1    3    3  502    0 -0.16437744219E+04  0.64442879184E+03  0.78625509686E+03  0.19327446767E+04  0.46999998093E+01 0. -1.
       -5    1    3    3    0  502  0.16437744219E+04 -0.64442879184E+03 -0.62113393674E+03  0.18716602991E+04  0.46999998093E+01 0.  1.
</event>
<event>
 5   0  0.1264013E-08  0.3801930E+04  0.7818609E-02  0.8045741E-01
        2   -1    0    0  501    0  0.00000000000E+00  0.00000000000E+00  0.19967851781E+04  0.19967851781E+04  0.25500000920E-02 0. -1.
       -2   -1    0    0    0  501  0.00000000000E+00  0.00000000000E+00 -0.18097431034E+04  0.18097431034E+04  0.25500000920E-02 0.  1.
    10030    2    1    2    0    0  0.00000000000E+00  0.00000000000E+00  0.18704207472E+03  0.38065282815E+04  0.38019301441E+04 0.  0.
        4    1    3    3  502    0 -0.18920720374E+04 -0.17165440653E+03  0.15890516590E+03  0.19064769326E+04  0.12699999809E+01 0.  1.
       -4    1    3    3    0  502  0.18920720374E+04  0.17165440653E+03  0.28136908816E+02  0.19000513489E+04  0.12699999809E+01 0. -1.
</event>
<event>
 5   0  0.1264013E-08  0.3800173E+04  0.7818609E-02  0.8046118E-01
       -2   -1    0    0    0  501  0.00000000000E+00  0.00000000000E+00  0.16274225052E+04  0.16274225052E+04  0.25500000920E-02 0.  1.
        2   -1    0    0  501    0  0.00000000000E+00  0.00000000000E+00 -0.22184331538E+04  0.22184331538E+04  0.25500000920E-02 0. -1.
    10030    2    1    2    0    0  0.00000000000E+00  0.00000000000E+00 -0.59101064861E+03  0.38458556589E+04  0.38001726490E+04 0.  0.
        4    1    3    3  502    0 -0.45829120750E+03  0.14219614126E+04  0.89262722128E+03  0.17403419374E+04  0.12699999809E+01 0.  1.
       -4    1    3    3    0  502  0.45829120750E+03 -0.14219614126E+04 -0.14836378699E+04  0.21055137216E+04  0.12699999809E+01 0. -1.
</event>
<event>
 5   0  0.4071750E-09  0.3799601E+04  0.7818609E-02  0.8046240E-01
        1   -1    0    0  501    0  0.00000000000E+00  0.00000000000E+00  0.20849484459E+04  0.20849484459E+04  0.50400001928E-02 0.  1.
       -1   -1    0    0    0  501  0.00000000000E+00  0.00000000000E+00 -0.17310945323E+04  0.17310945323E+04  0.50400001928E-02 0. -1.
    10030    2    1    2    0    0  0.00000000000E+00  0.00000000000E+00  0.35385391358E+03  0.38160429783E+04  0.37996014817E+04 0.  0.
        2    1    3    3  502    0 -0.94418756837E+03  0.32983297014E+03  0.17991447508E+04  0.20584464498E+04  0.25500000920E-02 0.  1.
       -2    1    3    3    0  502  0.94418756837E+03 -0.32983297014E+03 -0.14452908372E+04  0.17575965284E+04  0.25500000920E-02 0. -1.
</event>
<event>
 5   0  0.1264013E-08  0.3798088E+04  0.7818609E-02  0.8046565E-01
        2   -1    0    0  501    0  0.00000000000E+00  0.00000000000E+00  0.21277005510E+04  0.21277005511E+04  0.25500000920E-02 0.  1.
       -2   -1    0    0    0  501  0.00000000000E+00  0.00000000000E+00 -0.16949606452E+04  0.16949606453E+04  0.25500000920E-02 0. -1.
    10030    2    1    2    0    0  0.00000000000E+00  0.00000000000E+00  0.43273990580E+03  0.38226611963E+04  0.37980883080E+04 0.  0.
        4    1    3    3  502    0  0.77916092597E+03 -0.97757860369E+03  0.16551696392E+04  0.20742082399E+04  0.12699999809E+01 0.  1.
       -4    1    3    3    0  502 -0.77916092597E+03  0.97757860369E+03 -0.12224297334E+04  0.17484529564E+04  0.12699999809E+01 0. -1.
</event>
<event>
 5   0  0.1327249E-08  0.3799862E+04  0.7818609E-02  0.8046185E-01
       -2   -1    0    0    0  501  0.00000000000E+00  0.00000000000E+00  0.16360545031E+04  0.16360545031E+04  0.25500000920E-02 0. -1.
        2   -1    0    0  501    0  0.00000000000E+00  0.00000000000E+00 -0.22063676167E+04  0.22063676167E+04  0.25500000920E-02 0.  1.
    10030    2    1    2    0    0  0.00000000000E+00  0.00000000000E+00 -0.57031311366E+03  0.38424221198E+04  0.37998619316E+04 0.  0.
        1    1    3    3  502    0  0.18147351066E+04  0.11790192403E+02  0.28357979649E+03  0.18367961283E+04  0.50400001928E-02 0. -1.
       -1    1    3    3    0  502 -0.18147351066E+04 -0.11790192403E+02 -0.85389291015E+03  0.20056259915E+04  0.50400001928E-02 0.  1.
</event>
<event>
 5   0  0.1264013E-08  0.3799030E+04  0.7818609E-02  0.8046363E-01
        2   -1    0    0  501    0  0.00000000000E+00  0.00000000000E+00  0.24364627984E+04  0.24364627984E+04  0.25500000920E-02 0. -1.
       -2   -1    0    0    0  501  0.00000000000E+00  0.00000000000E+00 -0.14809001114E+04  0.14809001115E+04  0.25500000920E-02 0.  1.
    10030    2    1    2    0    0  0.00000000000E+00  0.00000000000E+00  0.95556268695E+03  0.39173629099E+04  0.37990304183E+04 0.  0.
        4    1    3    3  502    0 -0.51884211979E+03  0.10624071889E+03  0.23587922089E+04  0.24175166045E+04  0.12699999809E+01 0. -1.
       -4    1    3    3    0  502  0.51884211979E+03 -0.10624071889E+03 -0.14032295219E+04  0.14998463053E+04  0.12699999809E+01 0.  1.
</event>
<event>
 5   0  0.4071750E-09  0.3799964E+04  0.7818609E-02  0.8046163E-01
       -1   -1    0    0    0  501  0.00000000000E+00  0.00000000000E+00  0.21537995878E+04  0.21537995878E+04  0.50400001928E-02 0.  1.
        1   -1    0    0  501    0  0.00000000000E+00  0.00000000000E+00 -0.16760761747E+04  0.16760761747E+04  0.50400001928E-02 0. -1.
    10030    2    1    2    0    0  0.00000000000E+00  0.00000000000E+00  0.47772341306E+03  0.38298757625E+04  0.37999643020E+04 0.  0.
        5    1    3    3  502    0  0.95772481681E+03 -0.11184842238E+04  0.14490070743E+04  0.20658865833E+04  0.46999998093E+01 0.  1.
       -5    1    3    3    0  502 -0.95772481681E+03  0.11184842238E+04 -0.97128366128E+03  0.17639891792E+04  0.46999998093E+01 0. -1.
</event>
<event>
 5   0  0.1293993E-08  0.3800182E+04  0.7818609E-02  0.8046116E-01
        2   -1    0    0  501    0  0.00000000000E+00  0.00000000000E+00  0.23308148702E+04  0.23308148702E+04  0.25500000920E-02 0. -1.
       -2   -1    0    0    0  501  0.00000000000E+00  0.00000000000E+00 -0.15489625327E+04  0.15489625327E+04  0.25500000920E-02 0.  1.
    10030    2    1    2    0    0  0.00000000000E+00  0.00000000000E+00  0.78185233753E+03  0.38797774029E+04  0.38001815244E+04 0.  0.
        5    1    3    3  502    0  0.85076649460E+03  0.43448507267E+02  0.21249203324E+04  0.22893230244E+04  0.46999998093E+01 0. -1.
       -5    1    3    3    0  502 -0.85076649460E+03 -0.43448507267E+02 -0.13430679949E+04  0.15904543784E+04  0.46999998093E+01 0.  1.
</event>
<event>
 5   0  0.4071750E-09  0.3800464E+04  0.7818609E-02  0.8046055E-01
        1   -1    0    0  501    0  0.00000000000E+00  0.00000000000E+00  0.27157930377E+04  0.27157930377E+04  0.50400001928E-02 0.  1.
       -1   -1    0    0    0  501  0.00000000000E+00  0.00000000000E+00 -0.13295861925E+04  0.13295861925E+04  0.50400001928E-02 0. -1.
    10030    2    1    2    0    0  0.00000000000E+00  0.00000000000E+00  0.13862068451E+04  0.40453792302E+04  0.38004636163E+04 0.  0.
        5    1    3    3  502    0  0.17294365187E+04 -0.27514207751E+03 -0.92139308430E+02  0.17536150026E+04  0.46999998093E+01 0. -1.
       -5    1    3    3    0  502 -0.17294365187E+04  0.27514207751E+03  0.14783461536E+04  0.22917642276E+04  0.46999998093E+01 0.  1.
</event>
<event>
 5   0  0.4071750E-09  0.3800545E+04  0.7818609E-02  0.8046038E-01
        1   -1    0    0  501    0  0.00000000000E+00  0.00000000000E+00  0.30919030316E+04  0.30919030316E+04  0.50400001928E-02 0. -1.
       -1   -1    0    0    0  501  0.00000000000E+00  0.00000000000E+00 -0.11679008565E+04  0.11679008566E+04  0.50400001928E-02 0.  1.
    10030    2    1    2    0    0  0.00000000000E+00  0.00000000000E+00  0.19240021751E+04  0.42598038882E+04  0.38005453288E+04 0.  0.
        3    1    3    3  502    0 -0.12666127443E+04 -0.98923169587E+03  0.20985070459E+04  0.26432213347E+04  0.10100000352E+00 0. -1.
       -3    1    3    3    0  502  0.12666127443E+04  0.98923169587E+03 -0.17450487085E+03  0.16165825535E+04  0.10100000352E+00 0.  1.
</event>
<event>
 5   0  0.1305088E-08  0.3799725E+04  0.7818609E-02  0.8046214E-01
        2   -1    0    0  501    0  0.00000000000E+00  0.00000000000E+00  0.13515934478E+04  0.13515934478E+04  0.25500000920E-02 0.  1.
       -2   -1    0    0    0  501  0.00000000000E+00  0.00000000000E+00 -0.26705344426E+04  0.26705344426E+04  0.25500000920E-02 0. -1.
    10030    2    1    2    0    0  0.00000000000E+00  0.00000000000E+00 -0.13189409948E+04  0.40221278904E+04  0.37997246504E+04 0.  0.
        3    1    3    3  502    0 -0.11917311097E+04 -0.58484051650E+01 -0.22256748026E+04  0.25246555367E+04  0.10100000352E+00 0.  1.
       -3    1    3    3    0  502  0.11917311097E+04  0.58484051650E+01  0.90673380779E+03  0.14974723537E+04  0.10100000352E+00 0. -1.
</event>
<event>
 5   0  0.4071750E-09  0.3801499E+04  0.7818609E-02  0.8045833E-01
       -1   -1    0    0    0  501  0.00000000000E+00  0.00000000000E+00  0.21789570784E+04  0.21789570784E+04  0.50400001928E-02 0. -1.
        1   -1    0    0  501    0  0.00000000000E+00  0.00000000000E+00 -0.16580635158E+04  0.16580635158E+04  0.50400001928E-02 0.  1.
    10030    2    1    2    0    0  0.00000000000E+00  0.00000000000E+00  0.52089356259E+03  0.38370205943E+04  0.38014993012E+04 0.  0.
        1    1    3    3  502    0 -0.13376121968E+04  0.11834597690E+04 -0.39606599941E+03  0.18293856045E+04  0.50400001928E-02 0.  1.
       -1    1    3    3    0  502  0.13376121968E+04 -0.11834597690E+04  0.91695956200E+03  0.20076349898E+04  0.50400001928E-02 0. -1.
</event>
<event>
 5   0  0.4071750E-09  0.3801505E+04  0.7818609E-02  0.8045832E-01
        1   -1    0    0  501    0  0.00000000000E+00  0.00000000000E+00  0.25908964712E+04  0.25908964712E+04  0.50400001928E-02 0. -1.
       -1   -1    0    0    0  501  0.00000000000E+00  0.00000000000E+00 -0.13944440231E+04  0.13944440231E+04  0.50400001928E-02 0.  1.
    10030    2    1    2    0    0  0.00000000000E+00  0.00000000000E+00  0.11964524481E+04  0.39853404944E+04  0.38015050172E+04 0.  0.
        4    1    3    3  502    0 -0.17564107455E+04  0.62283210786E+03  0.20602247156E+03  0.18749254421E+04  0.12699999809E+01 0.  1.
       -4    1    3    3    0  502  0.17564107455E+04 -0.62283210786E+03  0.99042997653E+03  0.21104150523E+04  0.12699999809E+01 0. -1.
</event>
<event>
 5   0  0.4071750E-09  0.3799300E+04  0.7818609E-02  0.8046305E-01
        1   -1    0    0  501    0  0.00000000000E+00  0.00000000000E+00  0.26648929364E+04  0.26648929364E+04  0.50400001928E-02 0. -1.
       -1   -1    0    0    0  501  0.00000000000E+00  0.00000000000E+00 -0.13541523035E+04  0.13541523035E+04  0.50400001928E-02 0.  1.
    10030    2    1    2    0    0  0.00000000000E+00  0.00000000000E+00  0.13107406329E+04  0.40190452399E+04  0.37993004138E+04 0.  0.
        5    1    3    3  502    0  0.58157341820E+02 -0.54531028804E+03  0.25793286306E+04  0.26369876491E+04  0.46999998093E+01 0. -1.
       -5    1    3    3    0  502 -0.58157341820E+02  0.54531028804E+03 -0.12685879977E+04  0.13820575909E+04  0.46999998093E+01 0.  1.
</event>
<event>
 5   0  0.4071750E-09  0.3800588E+04  0.7818609E-02  0.8046029E-01
       -1   -1    0    0    0  501  0.00000000000E+00  0.00000000000E+00  0.15982974760E+04  0.15982974760E+04  0.50400001928E-02 0.  1.
        1   -1    0    0  501    0  0.00000000000E+00  0.00000000000E+00 -0.22593526366E+04  0.22593526367E+04  0.50400001928E-02 0. -1.
    10030    2    1    2    0    0  0.00000000000E+00  0.00000000000E+00 -0.66105516068E+03  0.38576501126E+04  0.38005881737E+04 0.  0.
        1    1    3    3  502    0  0.40980771179E+03  0.36079314991E+03 -0.21780213110E+04  0.22454155270E+04  0.50400001928E-02 0. -1.
       -1    1    3    3    0  502 -0.40980771179E+03 -0.36079314991E+03  0.15169661504E+04  0.16122345856E+04  0.50400001928E-02 0.  1.
</event>
<event>
 5   0  0.4071750E-09  0.3800601E+04  0.7818609E-02  0.8046026E-01
       -1   -1    0    0    0  501  0.00000000000E+00  0.00000000000E+00  0.19049242239E+04  0.19049242239E+04  0.50400001928E-02 0. -1.
        1   -1    0    0  501    0  0.00000000000E+00  0.00000000000E+00 -0.18956883201E+04  0.18956883201E+04  0.50400001928E-02 0.  1.
    10030    2    1    2    0    0  0.00000000000E+00  0.00000000000E+00  0.92359038392E+01  0.38006125440E+04  0.38006013218E+04 0.  0.
        1    1    3    3  502    0  0.97332284719E+02  0.38613450389E+03 -0.18534965661E+04  0.18957908506E+04  0.50400001928E-02 0.  1.
       -1    1    3    3    0  502 -0.97332284719E+02 -0.38613450389E+03  0.18627324699E+04  0.19048216933E+04  0.50400001928E-02 0. -1.
</event>
<event>
 5   0  0.1264013E-08  0.3800423E+04  0.7818609E-02  0.8046064E-01
       -2   -1    0    0    0  501  0.00000000000E+00  0.00000000000E+00  0.21543368645E+04  0.21543368645E+04  0.25500000920E-02 0. -1.
        2   -1    0    0  501    0  0.00000000000E+00  0.00000000000E+00 -0.16760625411E+04  0.16760625411E+04  0.25500000920E-02 0.  1.
    10030    2    1    2    0    0  0.00000000000E+00  0.00000000000E+00  0.47827432333E+03  0.38303994056E+04  0.38004227762E+04 0.  0.
        4    1    3    3  502    0 -0.17741597208E+04  0.34443569185E+03 -0.35245347034E+03  0.18413320511E+04  0.12699999809E+01 0.  1.
       -4    1    3    3    0  502  0.17741597208E+04 -0.34443569185E+03  0.83072779367E+03  0.19890673545E+04  0.12699999809E+01 0. -1.
</event>
<event>
 5   0  0.4071750E-09  0.3799540E+04  0.7818609E-02  0.8046254E-01
       -1   -1    0    0    0  501  0.00000000000E+00  0.00000000000E+00  0.17113729039E+04  0.17113729039E+04  0.50400001928E-02 0. -1.
        1   -1    0    0  501    0  0.00000000000E+00  0.00000000000E+00 -0.21089073027E+04  0.21089073027E+04  0.50400001928E-02 0.  1.
    10030    2    1    2    0    0  0.00000000000E+00  0.00000000000E+00 -0.39753439874E+03  0.38202802066E+04  0.37995404010E+04 0.  0.
        4    1    3    3  502    0  0.87221630183E+03  0.10946666073E+04  0.10927946159E+04  0.17757415194E+04  0.12699999809E+01 0. -1.
       -4    1    3    3    0  502 -0.87221630183E+03 -0.10946666073E+04 -0.14903290147E+04  0.20445386871E+04  0.12699999809E+01 0.  1.
</event>
<event>
 5   0  0.4071750E-09  0.3801552E+04  0.7818609E-02  0.8045822E-01
       -1   -1    0    0    0  501  0.00000000000E+00  0.00000000000E+00  0.26720766655E+04  0.26720766655E+04  0.50400001928E-02 0.  1.
        1   -1    0    0  501    0  0.00000000000E+00  0.00000000000E+00 -0.13521126546E+04  0.13521126546E+04  0.50400001928E-02 0. -1.
    10030    2    1    2    0    0  0.00000000000E+00  0.00000000000E+00  0.13199640110E+04  0.40241893201E+04  0.38015516166E+04 0.  0.
        1    1    3    3  502    0 -0.86022699554E+03 -0.13772085111E+04 -0.38593958328E+03  0.16690246040E+04  0.50400001928E-02 0. -1.
       -1    1    3    3    0  502  0.86022699554E+03  0.13772085111E+04  0.17059035943E+04  0.23551647161E+04  0.50400001928E-02 0.  1.
</event>
<event>
 5   0  0.4071750E-09  0.3800792E+04  0.7818609E-02  0.8045985E-01
        1   -1    0    0  501    0  0.00000000000E+00  0.00000000000E+00  0.11373804010E+04  0.11373804010E+04  0.50400001928E-02 0.  1.
       -1   -1    0    0    0  501  0.00000000000E+00  0.00000000000E+00 -0.31752829458E+04  0.31752829458E+04  0.50400001928E-02 0. -1.
    10030    2    1    2    0    0  0.00000000000E+00  0.00000000000E+00 -0.20379025448E+04  0.43126633468E+04  0.38007918071E+04 0.  0.
        3    1    3    3  502    0  0.14816076501E+04  0.99641778338E+03 -0.17573579162E+04  0.25052577679E+04  0.10100000352E+00 0. -1.
       -3    1    3    3    0  502 -0.14816076501E+04 -0.99641778338E+03 -0.28054462860E+03  0.18074055789E+04  0.10100000352E+00 0.  1.
</event>
<event>
 5   0  0.4071750E-09  0.3797636E+04  0.7818609E-02  0.8046662E-01
        1   -1    0    0  501    0  0.00000000000E+00  0.00000000000E+00  0.15717622303E+04  0.15717622303E+04  0.50400001928E-02 0.  1.
       -1   -1    0    0    0  501  0.00000000000E+00  0.00000000000E+00 -0.22939282021E+04  0.22939282021E+04  0.50400001928E-02 0. -1.
    10030    2    1    2    0    0  0.00000000000E+00  0.00000000000E+00 -0.72216597177E+03  0.38656904324E+04  0.37976359526E+04 0.  0.
        5    1    3    3  502    0  0.30250573727E+03  0.52093772548E+03 -0.21940749066E+04  0.22752741858E+04  0.46999998093E+01 0. -1.
       -5    1    3    3    0  502 -0.30250573727E+03 -0.52093772548E+03  0.14719089349E+04  0.15904162466E+04  0.46999998093E+01 0.  1.
</event>
<event>
 5   0  0.1264013E-08  0.3800506E+04  0.7818609E-02  0.8046046E-01
       -2   -1    0    0    0  501  0.00000000000E+00  0.00000000000E+00  0.23892840813E+04  0.23892840813E+04  0.25500000920E-02 0.  1.
        2   -1    0    0  501    0  0.00000000000E+00  0.00000000000E+00 -0.15113154300E+04  0.15113154300E+04  0.25500000920E-02 0. -1.
    10030    2    1    2    0    0  0.00000000000E+00  0.00000000000E+00  0.87796865128E+03  0.39005995113E+04  0.38005062287E+04 0.  0.
        4    1    3    3  502    0 -0.31588464975E+02  0.42111087330E+03  0.23405147970E+04  0.23783068193E+04  0.12699999809E+01 0.  1.
       -4    1    3    3    0  502  0.31588464975E+02 -0.42111087330E+03 -0.14625461457E+04  0.15222926920E+04  0.12699999809E+01 0. -1.
</event>
<event>
 5   0  0.4071750E-09  0.3791424E+04  0.7818609E-02  0.8047998E-01
        1   -1    0    0  501    0  0.00000000000E+00  0.00000000000E+00  0.11796618178E+04  0.11796618178E+04  0.50400001928E-02 0.  1.
       -1   -1    0    0    0  501  0.00000000000E+00  0.00000000000E+00 -0.30464012589E+04  0.30464012589E+04  0.50400001928E-02 0. -1.
    10030    2    1    2    0    0  0.00000000000E+00  0.00000000000E+00 -0.18667394411E+04  0.42260630767E+04  0.37914236096E+04 0.  0.
        2    1    3    3  502    0 -0.56172651870E+03  0.14057149587E+04  0.33856408208E+03  0.15511920786E+04  0.25500000920E-02 0.  1.
       -2    1    3    3    0  502  0.56172651870E+03 -0.14057149587E+04 -0.22053035232E+04  0.26748709981E+04  0.25500000920E-02 0. -1.
</event>
<event>
 5   0  0.4071750E-09  0.3799122E+04  0.7818609E-02  0.8046343E-01
       -1   -1    0    0    0  501  0.00000000000E+00  0.00000000000E+00  0.17187975364E+04  0.17187975365E+04  0.50400001928E-02 0. -1.
        1   -1    0    0  501    0  0.00000000000E+00  0.00000000000E+00 -0.20993347418E+04  0.20993347418E+04  0.50400001928E-02 0.  1.
    10030    2    1    2    0    0  0.00000000000E+00  0.00000000000E+00 -0.38053720538E+03  0.38181322783E+04  0.37991216787E+04 0.  0.
        4    1    3    3  502    0 -0.16036846108E+04 -0.10119378473E+04 -0.77873247589E+02  0.18978641662E+04  0.12699999809E+01 0. -1.
       -4    1    3    3    0  502  0.16036846108E+04  0.10119378473E+04 -0.30266395779E+03  0.19202681120E+04  0.12699999809E+01 0.  1.
</event>
<event>
 5   0  0.1264013E-08  0.3800648E+04  0.7818609E-02  0.8046016E-01
        2   -1    0    0  501    0  0.00000000000E+00  0.00000000000E+00  0.21011186449E+04  0.21011186449E+04  0.25500000920E-02 0. -1.
       -2   -1    0    0    0  501  0.00000000000E+00  0.00000000000E+00 -0.17187182423E+04  0.17187182423E+04  0.25500000920E-02 0.  1.
    10030    2    1    2    0    0  0.00000000000E+00  0.00000000000E+00  0.38240040255E+03  0.38198368872E+04  0.38006478102E+04 0.  0.
        4    1    3    3  502    0  0.72844574212E+03 -0.81037183663E+02 -0.15709429192E+04  0.17335118957E+04  0.12699999809E+01 0.  1.
       -4    1    3    3    0  502 -0.72844574212E+03  0.81037183663E+02  0.19533433218E+04  0.20863249914E+04  0.12699999809E+01 0. -1.
</event>
<event>
 5   0  0.1293993E-08  0.3800767E+04  0.7818609E-02  0.8045990E-01
       -2   -1    0    0    0  501  0.00000000000E+00  0.00000000000E+00  0.16996039678E+04  0.16996039678E+04  0.25500000920E-02 0.  1.
        2   -1    0    0  501    0  0.00000000000E+00  0.00000000000E+00 -0.21248822817E+04  0.21248822817E+04  0.25500000920E-02 0. -1.
    10030    2    1    2    0    0  0.00000000000E+00  0.00000000000E+00 -0.42527831387E+03  0.38244862496E+04  0.38007674789E+04 0.  0.
        5    1    3    3  502    0  0.13381561487E+04 -0.98250233726E+03  0.71804550417E+03  0.18087520994E+04  0.46999998093E+01 0.  1.
       -5    1    3    3    0  502 -0.13381561487E+04  0.98250233726E+03 -0.11433238180E+04  0.20157341501E+04  0.46999998093E+01 0. -1.
</event>
<event>
 5   0  0.4071750E-09  0.3799529E+04  0.7818609E-02  0.8046256E-01
        1   -1    0    0  501    0  0.00000000000E+00  0.00000000000E+00  0.28183885431E+04  0.28183885431E+04  0.50400001928E-02 0.  1.
       -1   -1    0    0    0  501  0.00000000000E+00  0.00000000000E+00 -0.12805564837E+04  0.12805564838E+04  0.50400001928E-02 0. -1.
    10030    2    1    2    0    0  0.00000000000E+00  0.00000000000E+00  0.15378320593E+04  0.40989450268E+04  0.37995292985E+04 0.  0.
        4    1    3    3  502    0 -0.65284555931E+03 -0.17840659230E+04  0.77146156583E+03  0.20504275414E+04  0.12699999809E+01 0.  1.
       -4    1    3    3    0  502  0.65284555931E+03  0.17840659230E+04  0.76637049350E+03  0.20485174855E+04  0.12699999809E+01 0. -1.
</event>
<event>
 5   0  0.1264013E-08  0.3799439E+04  0.7818609E-02  0.8046275E-01
       -2   -1    0    0    0  501  0.00000000000E+00  0.00000000000E+00  0.28296596642E+04  0.28296596642E+04  0.25500000920E-02 0. -1.
        2   -1    0    0  501    0  0.00000000000E+00  0.00000000000E+00 -0.12753952281E+04  0.12753952281E+04  0.25500000920E-02 0.  1.
    10030    2    1    2    0    0  0.00000000000E+00  0.00000000000E+00  0.15542644361E+04  0.41050548923E+04  0.37994391337E+04 0.  0.
        4    1    3    3  502    0 -0.50551501340E+03  0.24068000786E+03  0.27384932119E+04  0.27951420321E+04  0.12699999809E+01 0. -1.
       -4    1    3    3    0  502  0.50551501340E+03 -0.24068000786E+03 -0.11842287758E+04  0.13099128602E+04  0.12699999809E+01 0.  1.
</event>
<event>
 5   0  0.1305088E-08  0.3775717E+04  0.7818609E-02  0.8051386E-01
        2   -1    0    0  501    0  0.00000000000E+00  0.00000000000E+00  0.15660286631E+04  0.15660286631E+04  0.25500000920E-02 0. -1.
       -2   -1    0    0    0  501  0.00000000000E+00  0.00000000000E+00 -0.22758267412E+04  0.22758267412E+04  0.25500000920E-02 0.  1.
    10030    2    1    2    0    0  0.00000000000E+00  0.00000000000E+00 -0.70979807805E+03  0.38418554043E+04  0.37757171022E+04 0.  0.
        3    1    3    3  502    0 -0.51348538099E+03  0.16749353555E+04 -0.10707379605E+04  0.20531817922E+04  0.10100000352E+00 0.  1.
       -3    1    3    3    0  502  0.51348538099E+03 -0.16749353555E+04  0.36093988248E+03  0.17886736121E+04  0.10100000352E+00 0. -1.
</event>
<event>
 5   0  0.4071750E-09  0.3798829E+04  0.7818609E-02  0.8046406E-01
        1   -1    0    0  501    0  0.00000000000E+00  0.00000000000E+00  0.23831977624E+04  0.23831977624E+04  0.50400001928E-02 0.  1.
       -1   -1    0    0    0  501  0.00000000000E+00  0.00000000000E+00 -0.15138382536E+04  0.15138382536E+04  0.50400001928E-02 0. -1.
    10030    2    1    2    0    0  0.00000000000E+00  0.00000000000E+00  0.86935950878E+03  0.38970360160E+04  0.37988292611E+04 0.  0.
        5    1    3    3  502    0  0.16777444023E+04 -0.48572774935E+03 -0.33093576979E+03  0.17777227849E+04  0.46999998093E+01 0. -1.
       -5    1    3    3    0  502 -0.16777444023E+04  0.48572774935E+03  0.12002952786E+04  0.21193132312E+04  0.46999998093E+01 0.  1.
</event>
<event>
 5   0  0.1261152E-08  0.3803083E+04  0.7818609E-02  0.8045494E-01
       -2   -1    0    0    0  501  0.00000000000E+00  0.00000000000E+00  0.21731286383E+04  0.21731286383E+04  0.25500000920E-02 0. -1.
        2   -1    0    0  501    0  0.00000000000E+00  0.00000000000E+00 -0.16638963415E+04  0.16638963415E+04  0.25500000920E-02 0.  1.
    10030    2    1    2    0    0  0.00000000000E+00  0.00000000000E+00  0.50923229680E+03  0.38370249799E+04  0.38030833759E+04 0.  0.
        2    1    3    3  502    0  0.16419248818E+04 -0.15846466677E+03 -0.69978210474E+03  0.17918491461E+04  0.25500000920E-02 0.  1.
       -2    1    3    3    0  502 -0.16419248818E+04  0.15846466677E+03  0.12090144015E+04  0.20451758338E+04  0.25500000920E-02 0. -1.
</event>
<event>
 5   0  0.4071750E-09  0.3796478E+04  0.7818609E-02  0.8046911E-01
       -3   -1    0    0    0  501  0.00000000000E+00  0.00000000000E+00  0.13155521141E+04  0.13155521179E+04  0.10100000352E+00 0. -1.
        3   -1    0    0  501    0  0.00000000000E+00  0.00000000000E+00 -0.27390101095E+04  0.27390101113E+04  0.10100000352E+00 0.  1.
    10030    2    1    2    0    0  0.00000000000E+00  0.00000000000E+00 -0.14234579954E+04  0.40545622293E+04  0.37964776051E+04 0.  0.
        5    1    3    3  502    0 -0.79607762946E+03  0.15124445867E+04  0.17028300501E+03  0.17176281937E+04  0.46999998093E+01 0.  1.
       -5    1    3    3    0  502  0.79607762946E+03 -0.15124445867E+04 -0.15937410004E+04  0.23369340355E+04  0.46999998093E+01 0. -1.
</event>
<event>
 5   0  0.1261152E-08  0.3804523E+04  0.7818609E-02  0.8045185E-01
        2   -1    0    0  501    0  0.00000000000E+00  0.00000000000E+00  0.21778595530E+04  0.21778595530E+04  0.25500000920E-02 0.  1.
       -2   -1    0    0    0  501  0.00000000000E+00  0.00000000000E+00 -0.16615388482E+04  0.16615388482E+04  0.25500000920E-02 0. -1.
    10030    2    1    2    0    0  0.00000000000E+00  0.00000000000E+00  0.51632070482E+03  0.38393984012E+04  0.38045227050E+04 0.  0.
        2    1    3    3  502    0  0.13865260856E+03 -0.12822207004E+04  0.16692931913E+04  0.21094677596E+04  0.25500000920E-02 0.  1.
       -2    1    3    3    0  502 -0.13865260856E+03  0.12822207004E+04 -0.11529724865E+04  0.17299306416E+04  0.25500000920E-02 0. -1.
</event>
<event>
 5   0  0.4071750E-09  0.3799956E+04  0.7818609E-02  0.8046164E-01
       -1   -1    0    0    0  501  0.00000000000E+00  0.00000000000E+00  0.16293610226E+04  0.16293610226E+04  0.50400001928E-02 0.  1.
        1   -1    0    0  501    0  0.00000000000E+00  0.00000000000E+00 -0.22155414431E+04  0.22155414431E+04  0.50400001928E-02 0. -1.
    10030    2    1    2    0    0  0.00000000000E+00  0.00000000000E+00 -0.58618042049E+03  0.38449024656E+04  0.37999562478E+04 0.  0.
        3    1    3    3  502    0  0.11398633773E+04 -0.10510040158E+04  0.81808818376E+03  0.17530448502E+04  0.10100000352E+00 0.  1.
       -3    1    3    3    0  502 -0.11398633773E+04  0.10510040158E+04 -0.14042686042E+04  0.20918576154E+04  0.10100000352E+00 0. -1.
</event>
<event>
 5   0  0.1305088E-08  0.3803670E+04  0.7818609E-02  0.8045368E-01
       -2   -1    0    0    0  501  0.00000000000E+00  0.00000000000E+00  0.22225996248E+04  0.22225996248E+04  0.25500000920E-02 0.  1.
        2   -1    0    0  501    0  0.00000000000E+00  0.00000000000E+00 -0.16273627376E+04  0.16273627376E+04  0.25500000920E-02 0. -1.
    10030    2    1    2    0    0  0.00000000000E+00  0.00000000000E+00  0.59523688715E+03  0.38499623624E+04  0.38036697070E+04 0.  0.
        3    1    3    3  502    0  0.11301315301E+04  0.34350226878E+03 -0.12110877508E+04  0.16917223869E+04  0.10100000352E+00 0. -1.
       -3    1    3    3    0  502 -0.11301315301E+04 -0.34350226878E+03  0.18063246380E+04  0.21582399755E+04  0.10100000352E+00 0.  1.
</event>
<event>
 5   0  0.4071750E-09  0.3797947E+04  0.7818609E-02  0.8046596E-01
        1   -1    0    0  501    0  0.00000000000E+00  0.00000000000E+00  0.21531272926E+04  0.21531272926E+04  0.50400001928E-02 0. -1.
       -1   -1    0    0    0  501  0.00000000000E+00  0.00000000000E+00 -0.16748198461E+04  0.16748198461E+04  0.50400001928E-02 0.  1.
    10030    2    1    2    0    0  0.00000000000E+00  0.00000000000E+00  0.47830744654E+03  0.38279471387E+04  0.37979469827E+04 0.  0.
        4    1    3    3  502    0 -0.74210524333E+03 -0.13090843818E+04  0.14066108916E+04  0.20598490052E+04  0.12699999809E+01 0. -1.
       -4    1    3    3    0  502  0.74210524333E+03  0.13090843818E+04 -0.92830344508E+03  0.17680981335E+04  0.12699999809E+01 0.  1.
</event>
<event>
 5   0  0.4071750E-09  0.3799720E+04  0.7818609E-02  0.8046215E-01
        1   -1    0    0  501    0  0.00000000000E+00  0.00000000000E+00  0.20533925432E+04  0.20533925432E+04  0.50400001928E-02 0.  1.
       -1   -1    0    0    0  501  0.00000000000E+00  0.00000000000E+00 -0.17578073765E+04  0.17578073765E+04  0.50400001928E-02 0. -1.
    10030    2    1    2    0    0  0.00000000000E+00  0.00000000000E+00  0.29558516665E+03  0.38111999197E+04  0.37997202841E+04 0.  0.
        3    1    3    3  502    0 -0.43871942186E+03 -0.17902275785E+02 -0.17062163909E+04  0.17618086177E+04  0.10100000352E+00 0. -1.
       -3    1    3    3    0  502  0.43871942186E+03  0.17902275785E+02  0.20018015576E+04  0.20493913020E+04  0.10100000352E+00 0.  1.
</event>
<event>
 5   0  0.1261152E-08  0.3802381E+04  0.7818609E-02  0.8045644E-01
       -2   -1    0    0    0  501  0.00000000000E+00  0.00000000000E+00  0.12889517771E+04  0.12889517771E+04  0.25500000920E-02 0.  1.
        2   -1    0    0  501    0  0.00000000000E+00  0.00000000000E+00 -0.28042360190E+04  0.28042360190E+04  0.25500000920E-02 0. -1.
    10030    2    1    2    0    0  0.00000000000E+00  0.00000000000E+00 -0.15152842419E+04  0.40931877962E+04  0.38023808332E+04 0.  0.
        2    1    3    3  502    0 -0.91278958040E+03  0.85433174110E+03  0.78419080607E+03  0.14758125769E+04  0.25500000920E-02 0.  1.
       -2    1    3    3    0  502  0.91278958040E+03 -0.85433174110E+03 -0.22994750480E+04  0.26173752192E+04  0.25500000920E-02 0. -1.
</event>
<event>
 5   0  0.4071750E-09  0.3791518E+04  0.7818609E-02  0.8047978E-01
       -1   -1    0    0    0  501  0.00000000000E+00  0.00000000000E+00  0.15812261896E+04  0.15812261896E+04  0.50400001928E-02 0. -1.
        1   -1    0    0  501    0  0.00000000000E+00  0.00000000000E+00 -0.22728575430E+04  0.22728575431E+04  0.50400001928E-02 0.  1.
    10030    2    1    2    0    0  0.00000000000E+00  0.00000000000E+00 -0.69163135349E+03  0.38540837326E+04  0.37915178344E+04 0.  0.
        5    1    3    3  502    0  0.85741198217E+03  0.13167106378E+03  0.13676414923E+04  0.16195548517E+04  0.46999998093E+01 0. -1.
       -5    1    3    3    0  502 -0.85741198217E+03 -0.13167106378E+03 -0.20592728458E+04  0.22345288809E+04  0.46999998093E+01 0.  1.
</event>
<event>
 5   0  0.1264013E-08  0.3802585E+04  0.7818609E-02  0.8045600E-01
       -2   -1    0    0    0  501  0.00000000000E+00  0.00000000000E+00  0.22390451155E+04  0.22390451155E+04  0.25500000920E-02 0.  1.
        2   -1    0    0  501    0  0.00000000000E+00  0.00000000000E+00 -0.16144886946E+04  0.16144886946E+04  0.25500000920E-02 0. -1.
    10030    2    1    2    0    0  0.00000000000E+00  0.00000000000E+00  0.62455642089E+03  0.38535338101E+04  0.38025849238E+04 0.  0.
        4    1    3    3  502    0  0.28105845363E+03  0.18181888144E+04  0.79840008158E+03  0.20055544676E+04  0.12699999809E+01 0.  1.
       -4    1    3    3    0  502 -0.28105845363E+03 -0.18181888144E+04 -0.17384366069E+03  0.18479793425E+04  0.12699999809E+01 0. -1.
</event>
<event>
 5   0  0.1305088E-08  0.3799925E+04  0.7818609E-02  0.8046171E-01
        2   -1    0    0  501    0  0.00000000000E+00  0.00000000000E+00  0.18914116936E+04  0.18914116936E+04  0.25500000920E-02 0.  1.
       -2   -1    0    0    0  501  0.00000000000E+00  0.00000000000E+00 -0.19085523843E+04  0.19085523843E+04  0.25500000920E-02 0. -1.
    10030    2    1    2    0    0  0.00000000000E+00  0.00000000000E+00 -0.17140690739E+02  0.37999640779E+04  0.37999254190E+04 0.  0.
        3    1    3    3  502    0  0.93965096681E+03 -0.96937369392E+03 -0.13454567858E+04  0.19060124004E+04  0.10100000352E+00 0. -1.
       -3    1    3    3    0  502 -0.93965096681E+03  0.96937369392E+03  0.13283160951E+04  0.18939516775E+04  0.10100000352E+00 0.  1.
</event>
<event>
 5   0  0.1293993E-08  0.3787796E+04  0.7818609E-02  0.8048779E-01
        2   -1    0    0  501    0  0.00000000000E+00  0.00000000000E+00  0.13050780382E+04  0.13050780382E+04  0.25500000920E-02 0.  1.
       -2   -1    0    0    0  501  0.00000000000E+00  0.00000000000E+00 -0.27483791179E+04  0.27483791179E+04  0.25500000920E-02 0. -1.
    10030    2    1    2    0    0  0.00000000000E+00  0.00000000000E+00 -0.14433010797E+04  0.40534571562E+04  0.37877957852E+04 0.  0.
        5    1    3    3  502    0 -0.12582135020E+04  0.13192756141E+04 -0.17259897181E+03  0.18312296027E+04  0.46999998093E+01 0. -1.
       -5    1    3    3    0  502  0.12582135020E+04 -0.13192756141E+04 -0.12707021079E+04  0.22222275535E+04  0.46999998093E+01 0.  1.
</event>
<event>
 5   0  0.4071750E-09  0.3799474E+04  0.7818609E-02  0.8046268E-01
       -1   -1    0    0    0  501  0.00000000000E+00  0.00000000000E+00  0.17276350500E+04  0.17276350500E+04  0.50400001928E-02 0. -1.
        1   -1    0    0  501    0  0.00000000000E+00  0.00000000000E+00 -0.20889829069E+04  0.20889829069E+04  0.50400001928E-02 0.  1.
    10030    2    1    2    0    0  0.00000000000E+00  0.00000000000E+00 -0.36134785687E+03  0.38166179569E+04  0.37994736945E+04 0.  0.
        4    1    3    3  502    0 -0.91447779054E+03 -0.91773958712E+03  0.12150136921E+04  0.17761687600E+04  0.12699999809E+01 0. -1.
       -4    1    3    3    0  502  0.91447779054E+03  0.91773958712E+03 -0.15763615490E+04  0.20404491969E+04  0.12699999809E+01 0.  1.
</event>
<event>
 5   0  0.4071750E-09  0.3799635E+04  0.7818609E-02  0.8046233E-01
       -1   -1    0    0    0  501  0.00000000000E+00  0.00000000000E+00  0.20538763742E+04  0.20538763742E+04  0.50400001928E-02 0. -1.
        1   -1    0    0  501    0  0.00000000000E+00  0.00000000000E+00 -0.17573147355E+04  0.17573147355E+04  0.50400001928E-02 0.  1.
    10030    2    1    2    0    0  0.00000000000E+00  0.00000000000E+00  0.29656163866E+03  0.38111911097E+04  0.37996353600E+04 0.  0.
        3    1    3    3  502    0  0.11148718251E+04 -0.14460215872E+04  0.67465256071E+03  0.19465543160E+04  0.10100000352E+00 0. -1.
       -3    1    3    3    0  502 -0.11148718251E+04  0.14460215872E+04 -0.37809092206E+03  0.18646367938E+04  0.10100000352E+00 0.  1.
</event>
<event>
 5   0  0.4071750E-09  0.3790528E+04  0.7818609E-02  0.8048191E-01
        1   -1    0    0  501    0  0.00000000000E+00  0.00000000000E+00  0.19067588144E+04  0.19067588144E+04  0.50400001928E-02 0.  1.
       -1   -1    0    0    0  501  0.00000000000E+00  0.00000000000E+00 -0.18838389450E+04  0.18838389450E+04  0.50400001928E-02 0. -1.
    10030    2    1    2    0    0  0.00000000000E+00  0.00000000000E+00  0.22919869457E+02  0.37905977594E+04  0.37905284662E+04 0.  0.
        5    1    3    3  502    0  0.85413820869E+03  0.12801446378E+03 -0.16755992514E+04  0.18850980674E+04  0.46999998093E+01 0. -1.
       -5    1    3    3    0  502 -0.85413820869E+03 -0.12801446378E+03  0.16985191208E+04  0.19054996920E+04  0.46999998093E+01 0.  1.
</event>
<event>
 5   0  0.1264013E-08  0.3801030E+04  0.7818609E-02  0.8045934E-01
        2   -1    0    0  501    0  0.00000000000E+00  0.00000000000E+00  0.21776870355E+04  0.21776870355E+04  0.25500000920E-02 0.  1.
       -2   -1    0    0    0  501  0.00000000000E+00  0.00000000000E+00 -0.16586212553E+04  0.16586212553E+04  0.25500000920E-02 0. -1.
    10030    2    1    2    0    0  0.00000000000E+00  0.00000000000E+00  0.51906578025E+03  0.38363082908E+04  0.38010303890E+04 0.  0.
        4    1    3    3  502    0  0.25104684519E+03 -0.50496651872E+03 -0.15722333307E+04  0.16703098403E+04  0.12699999809E+01 0. -1.
       -4    1    3    3    0  502 -0.25104684519E+03  0.50496651872E+03  0.20912991109E+04  0.21659984506E+04  0.12699999809E+01 0.  1.
</event>
<event>
 5   0  0.1264013E-08  0.3802421E+04  0.7818609E-02  0.8045636E-01
        2   -1    0    0  501    0  0.00000000000E+00  0.00000000000E+00  0.11014999767E+04  0.11014999767E+04  0.25500000920E-02 0.  1.
       -2   -1    0    0    0  501  0.00000000000E+00  0.00000000000E+00 -0.32815258858E+04  0.32815258858E+04  0.25500000920E-02 0. -1.
    10030    2    1    2    0    0  0.00000000000E+00  0.00000000000E+00 -0.21800259091E+04  0.43830258624E+04  0.38024206430E+04 0.  0.
        4    1    3    3  502    0 -0.97626966463E+03  0.38586287880E+03 -0.29171709797E+04  0.31003033331E+04  0.12699999809E+01 0. -1.
       -4    1    3    3    0  502  0.97626966463E+03 -0.38586287880E+03  0.73714507060E+03  0.12827225294E+04  0.12699999809E+01 0.  1.
</event>
<event>
 5   0  0.1293993E-08  0.3801926E+04  0.7818609E-02  0.8045742E-01
       -2   -1    0    0    0  501  0.00000000000E+00  0.00000000000E+00  0.19950867957E+04  0.19950867957E+04  0.25500000920E-02 0.  1.
        2   -1    0    0  501    0  0.00000000000E+00  0.00000000000E+00 -0.18112794143E+04  0.18112794143E+04  0.25500000920E-02 0. -1.
    10030    2    1    2    0    0  0.00000000000E+00  0.00000000000E+00  0.18380738134E+03  0.38063662100E+04  0.38019256399E+04 0.  0.
        5    1    3    3  502    0 -0.12753969699E+04 -0.84398230570E+03  0.12222458339E+04  0.19577667204E+04  0.46999998093E+01 0.  1.
       -5    1    3    3    0  502  0.12753969699E+04  0.84398230570E+03 -0.10384384525E+04  0.18485994896E+04  0.46999998093E+01 0. -1.
</event>
<event>
 5   0  0.1264013E-08  0.3800411E+04  0.7818609E-02  0.8046067E-01
        2   -1    0    0  501    0  0.00000000000E+00  0.00000000000E+00  0.98514508743E+03  0.98514508743E+03  0.25500000920E-02 0. -1.
       -2   -1    0    0    0  501  0.00000000000E+00  0.00000000000E+00 -0.36652274292E+04  0.36652274292E+04  0.25500000920E-02 0.  1.
    10030    2    1    2    0    0  0.00000000000E+00  0.00000000000E+00 -0.26800823417E+04  0.46503725166E+04  0.38004109231E+04 0.  0.
        4    1    3    3  502    0 -0.56259413488E+03  0.20320979538E+03 -0.35470161103E+04  0.35971003991E+04  0.12699999809E+01 0.  1.
       -4    1    3    3    0  502  0.56259413488E+03 -0.20320979538E+03  0.86693376856E+03  0.10532721175E+04  0.12699999809E+01 0. -1.
</event>
<event>
 5   0  0.1261152E-08  0.3803671E+04  0.7818609E-02  0.8045368E-01
       -2   -1    0    0    0  501  0.00000000000E+00  0.00000000000E+00  0.18914794746E+04  0.18914794746E+04  0.25500000920E-02 0. -1.
        2   -1    0    0  501    0  0.00000000000E+00  0.00000000000E+00 -0.19122484010E+04  0.19122484010E+04  0.25500000920E-02 0.  1.
    10030    2    1    2    0    0  0.00000000000E+00  0.00000000000E+00 -0.20768926410E+02  0.38037278757E+04  0.38036711745E+04 0.  0.
        2    1    3    3  502    0  0.98059205405E+03 -0.92747930129E+03 -0.13502551631E+04  0.19091798334E+04  0.25500000920E-02 0.  1.
       -2    1    3    3    0  502 -0.98059205405E+03  0.92747930129E+03  0.13294862367E+04  0.18945480422E+04  0.25500000920E-02 0. -1.
</event>
<event>
 5   0  0.1293993E-08  0.3794017E+04  0.7818609E-02  0.8047440E-01
       -2   -1    0    0    0  501  0.00000000000E+00  0.00000000000E+00  0.12822514819E+04  0.12822514819E+04  0.25500000920E-02 0.  1.
        2   -1    0    0  501    0  0.00000000000E+00  0.00000000000E+00 -0.28065017559E+04  0.28065017559E+04  0.25500000920E-02 0. -1.
    10030    2    1    2    0    0  0.00000000000E+00  0.00000000000E+00 -0.15242502740E+04  0.40887532378E+04  0.37940168873E+04 0.  0.
        5    1    3    3  502    0 -0.12061524641E+04 -0.10579197879E+03 -0.23359221250E+04  0.26310739202E+04  0.46999998093E+01 0. -1.
       -5    1    3    3    0  502  0.12061524641E+04  0.10579197879E+03  0.81167185092E+03  0.14576793176E+04  0.46999998093E+01 0.  1.
</event>
<event>
 5   0  0.1293993E-08  0.3799831E+04  0.7818609E-02  0.8046191E-01
        2   -1    0    0  501    0  0.00000000000E+00  0.00000000000E+00  0.29811249368E+04  0.29811249368E+04  0.25500000920E-02 0.  1.
       -2   -1    0    0    0  501  0.00000000000E+00  0.00000000000E+00 -0.12108448305E+04  0.12108448305E+04  0.25500000920E-02 0. -1.
    10030    2    1    2    0    0  0.00000000000E+00  0.00000000000E+00  0.17702801064E+04  0.41919697673E+04  0.37998314272E+04 0.  0.
        5    1    3    3  502    0 -0.19495229405E+03  0.50842252392E+03 -0.11229115538E+04  0.12479792897E+04  0.46999998093E+01 0. -1.
       -5    1    3    3    0  502  0.19495229405E+03 -0.50842252392E+03  0.28931916602E+04  0.29439904776E+04  0.46999998093E+01 0.  1.
</event>
<event>
 5   0  0.4071750E-09  0.3800623E+04  0.7818609E-02  0.8046021E-01
        1   -1    0    0  501    0  0.00000000000E+00  0.00000000000E+00  0.18479267526E+04  0.18479267526E+04  0.50400001928E-02 0. -1.
       -1   -1    0    0    0  501  0.00000000000E+00  0.00000000000E+00 -0.19541810944E+04  0.19541810944E+04  0.50400001928E-02 0.  1.
    10030    2    1    2    0    0  0.00000000000E+00  0.00000000000E+00 -0.10625434178E+03  0.38021078470E+04  0.38006228562E+04 0.  0.
        2    1    3    3  502    0  0.39331337111E+03  0.15887704887E+04  0.91280508960E+03  0.18740598190E+04  0.25500000920E-02 0. -1.
       -2    1    3    3    0  502 -0.39331337111E+03 -0.15887704887E+04 -0.10190594314E+04  0.19280480280E+04  0.25500000920E-02 0.  1.
</event>
<event>
 5   0  0.4071750E-09  0.3800672E+04  0.7818609E-02  0.8046011E-01
        1   -1    0    0  501    0  0.00000000000E+00  0.00000000000E+00  0.20277711186E+04  0.20277711186E+04  0.50400001928E-02 0. -1.
       -1   -1    0    0    0  501  0.00000000000E+00  0.00000000000E+00 -0.17809093960E+04  0.17809093960E+04  0.50400001928E-02 0.  1.
    10030    2    1    2    0    0  0.00000000000E+00  0.00000000000E+00  0.24686172260E+03  0.38086805145E+04  0.38006718553E+04 0.  0.
        2    1    3    3  502    0  0.41035553467E+03  0.72112209137E+03  0.18366730613E+04  0.20153849929E+04  0.25500000920E-02 0. -1.
       -2    1    3    3    0  502 -0.41035553467E+03 -0.72112209137E+03 -0.15898113387E+04  0.17932955217E+04  0.25500000920E-02 0.  1.
</event>
<event>
 5   0  0.4071750E-09  0.3797783E+04  0.7818609E-02  0.8046631E-01
        1   -1    0    0  501    0  0.00000000000E+00  0.00000000000E+00  0.15496944237E+04  0.15496944237E+04  0.50400001928E-02 0. -1.
       -1   -1    0    0    0  501  0.00000000000E+00  0.00000000000E+00 -0.23267741656E+04  0.23267741656E+04  0.50400001928E-02 0.  1.
    10030    2    1    2    0    0  0.00000000000E+00  0.00000000000E+00 -0.77707974194E+03  0.38764685893E+04  0.37977830109E+04 0.  0.
        2    1    3    3  502    0  0.11907539120E+04 -0.83855247470E+03  0.85519828963E+03  0.16889136290E+04  0.25500000920E-02 0. -1.
       -2    1    3    3    0  502 -0.11907539120E+04  0.83855247470E+03 -0.16322780316E+04  0.21875549602E+04  0.25500000920E-02 0.  1.
</event>
<event>
 5   0  0.4071750E-09  0.3799155E+04  0.7818609E-02  0.8046336E-01
       -1   -1    0    0    0  501  0.00000000000E+00  0.00000000000E+00  0.16047584436E+04  0.16047584436E+04  0.50400001928E-02 0.  1.
        1   -1    0    0  501    0  0.00000000000E+00  0.00000000000E+00 -0.22485599728E+04  0.22485599728E+04  0.50400001928E-02 0. -1.
    10030    2    1    2    0    0  0.00000000000E+00  0.00000000000E+00 -0.64380152920E+03  0.38533184164E+04  0.37991554863E+04 0.  0.
        5    1    3    3  502    0 -0.49028977954E+03 -0.54392161822E+00  0.15394712146E+04  0.16156664490E+04  0.46999998093E+01 0.  1.
       -5    1    3    3    0  502  0.49028977954E+03  0.54392161822E+00 -0.21832727438E+04  0.22376519675E+04  0.46999998093E+01 0. -1.
</event>
<event>
 5   0  0.1305088E-08  0.3800806E+04  0.7818609E-02  0.8045982E-01
        2   -1    0    0  501    0  0.00000000000E+00  0.00000000000E+00  0.18778243117E+04  0.18778243117E+04  0.25500000920E-02 0.  1.
       -2   -1    0    0    0  501  0.00000000000E+00  0.00000000000E+00 -0.19232535097E+04  0.19232535097E+04  0.25500000920E-02 0. -1.
    10030    2    1    2    0    0  0.00000000000E+00  0.00000000000E+00 -0.45429198087E+02  0.38010778214E+04  0.38008063345E+04 0.  0.
        3    1    3    3  502    0 -0.11121419818E+04 -0.73372378936E+03  0.13324917110E+04  0.18843419427E+04  0.10100000352E+00 0.  1.
       -3    1    3    3    0  502  0.11121419818E+04  0.73372378936E+03 -0.13779209091E+04  0.19167358787E+04  0.10100000352E+00 0. -1.
</event>
<event>
 5   0  0.4071750E-09  0.3823981E+04  0.7818609E-02  0.8041028E-01
       -1   -1    0    0    0  501  0.00000000000E+00  0.00000000000E+00  0.18261198981E+04  0.18261198981E+04  0.50400001928E-02 0.  1.
        1   -1    0    0  501    0  0.00000000000E+00  0.00000000000E+00 -0.20018989885E+04  0.20018989885E+04  0.50400001928E-02 0. -1.
    10030    2    1    2    0    0  0.00000000000E+00  0.00000000000E+00 -0.17577909044E+03  0.38280188866E+04  0.38239809502E+04 0.  0.
        3    1    3    3  502    0  0.51176918921E+03 -0.14864825607E+04  0.10014550424E+04  0.18639877463E+04  0.10100000352E+00 0.  1.
       -3    1    3    3    0  502 -0.51176918921E+03  0.14864825607E+04 -0.11772341328E+04  0.19640311403E+04  0.10100000352E+00 0. -1.
</event>
<event>
 5   0  0.4071750E-09  0.3800733E+04  0.7818609E-02  0.8045998E-01
       -1   -1    0    0    0  501  0.00000000000E+00  0.00000000000E+00  0.13803030503E+04  0.13803030503E+04  0.50400001928E-02 0.  1.
        1   -1    0    0  501    0  0.00000000000E+00  0.00000000000E+00 -0.26163766681E+04  0.26163766681E+04  0.50400001928E-02 0. -1.
    10030    2    1    2    0    0  0.00000000000E+00  0.00000000000E+00 -0.12360736177E+04  0.39966797184E+04  0.38007329271E+04 0.  0.
        2    1    3    3  502    0 -0.18269471046E+03  0.49004011521E+03  0.13031389331E+04  0.14041679923E+04  0.25500000920E-02 0.  1.
       -2    1    3    3    0  502  0.18269471046E+03 -0.49004011521E+03 -0.25392125508E+04  0.25925117261E+04  0.25500000920E-02 0. -1.
</event>
<event>
 5   0  0.4071750E-09  0.3800031E+04  0.7818609E-02  0.8046148E-01
       -1   -1    0    0    0  501  0.00000000000E+00  0.00000000000E+00  0.22373671464E+04  0.22373671464E+04  0.50400001928E-02 0. -1.
        1   -1    0    0  501    0  0.00000000000E+00  0.00000000000E+00 -0.16135302376E+04  0.16135302377E+04  0.50400001928E-02 0.  1.
    10030    2    1    2    0    0  0.00000000000E+00  0.00000000000E+00  0.62383690871E+03  0.38508973840E+04  0.38000313385E+04 0.  0.
        5    1    3    3  502    0 -0.82851620735E+03  0.21743573479E+03  0.20305919200E+04  0.22038700144E+04  0.46999998093E+01 0. -1.
       -5    1    3    3    0  502  0.82851620735E+03 -0.21743573479E+03 -0.14067550113E+04  0.16470273697E+04  0.46999998093E+01 0.  1.
</event>
<event>
 5   0  0.1261152E-08  0.3798814E+04  0.7818609E-02  0.8046409E-01
        2   -1    0    0  501    0  0.00000000000E+00  0.00000000000E+00  0.19177560736E+04  0.19177560736E+04  0.25500000920E-02 0. -1.
       -2   -1    0    0    0  501  0.00000000000E+00  0.00000000000E+00 -0.18812338621E+04  0.18812338621E+04  0.25500000920E-02 0.  1.
    10030    2    1    2    0    0  0.00000000000E+00  0.00000000000E+00  0.36522211478E+02  0.37989899357E+04  0.37988143755E+04 0.  0.
        2    1    3    3  502    0  0.50506246993E+03 -0.17835071148E+04 -0.39619976551E+03  0.18955104804E+04  0.25500000920E-02 0.  1.
       -2    1    3    3    0  502 -0.50506246993E+03  0.17835071148E+04  0.43272197698E+03  0.19034794553E+04  0.25500000920E-02 0. -1.
</event>
<event>
 5   0  0.1264013E-08  0.3799587E+04  0.7818609E-02  0.8046244E-01
       -2   -1    0    0    0  501  0.00000000000E+00  0.00000000000E+00  0.23783457353E+04  0.23783457353E+04  0.25500000920E-02 0. -1.
        2   -1    0    0  501    0  0.00000000000E+00  0.00000000000E+00 -0.15175317243E+04  0.15175317243E+04  0.25500000920E-02 0.  1.
    10030    2    1    2    0    0  0.00000000000E+00  0.00000000000E+00  0.86081401092E+03  0.38958774596E+04  0.37995868748E+04 0.  0.
        4    1    3    3  502    0 -0.16417128379E+04  0.88830060200E+03  0.68017744386E+02  0.18678669728E+04  0.12699999809E+01 0.  1.
       -4    1    3    3    0  502  0.16417128379E+04 -0.88830060200E+03  0.79279626653E+03  0.20280104868E+04  0.12699999809E+01 0. -1.
</event>
<event>
 5   0  0.4071750E-09  0.3801641E+04  0.7818609E-02  0.8045803E-01
        1   -1    0    0  501    0  0.00000000000E+00  0.00000000000E+00  0.15774150282E+04  0.15774150283E+04  0.50400001928E-02 0. -1.
       -1   -1    0    0    0  501  0.00000000000E+00  0.00000000000E+00 -0.22905307722E+04  0.22905307722E+04  0.50400001928E-02 0.  1.
    10030    2    1    2    0    0  0.00000000000E+00  0.00000000000E+00 -0.71311574395E+03  0.38679458005E+04  0.38016405210E+04 0.  0.
        3    1    3    3  502    0  0.18408398227E+04  0.30196564931E+02  0.12446114713E+03  0.18452895904E+04  0.10100000352E+00 0. -1.
       -3    1    3    3    0  502 -0.18408398227E+04 -0.30196564931E+02 -0.83757689107E+03  0.20226562100E+04  0.10100000352E+00 0.  1.
</event>
<event>
 5   0  0.1261152E-08  0.3785387E+04  0.7818609E-02  0.8049298E-01
        2   -1    0    0  501    0  0.00000000000E+00  0.00000000000E+00  0.24967854349E+04  0.24967854349E+04  0.25500000920E-02 0. -1.
       -2   -1    0    0    0  501  0.00000000000E+00  0.00000000000E+00 -0.14347601841E+04  0.14347601841E+04  0.25500000920E-02 0.  1.
    10030    2    1    2    0    0  0.00000000000E+00  0.00000000000E+00  0.10620252508E+04  0.39315456189E+04  0.37853868125E+04 0.  0.
        2    1    3    3  502    0 -0.46089709739E+03 -0.19647148619E+03  0.24266593051E+04  0.24778423199E+04  0.25500000920E-02 0. -1.
       -2    1    3    3    0  502  0.46089709739E+03  0.19647148619E+03 -0.13646340543E+04  0.14537032990E+04  0.25500000920E-02 0.  1.
</event>
<event>
 5   0  0.4071750E-09  0.3800750E+04  0.7818609E-02  0.8045994E-01
        1   -1    0    0  501    0  0.00000000000E+00  0.00000000000E+00  0.23695501188E+04  0.23695501188E+04  0.50400001928E-02 0.  1.
       -1   -1    0    0    0  501  0.00000000000E+00  0.00000000000E+00 -0.15240975082E+04  0.15240975082E+04  0.50400001928E-02 0. -1.
    10030    2    1    2    0    0  0.00000000000E+00  0.00000000000E+00  0.84545261055E+03  0.38936476270E+04  0.38007501531E+04 0.  0.
        5    1    3    3  502    0 -0.12816065245E+04  0.69050343310E+03 -0.82864237205E+03  0.16751061296E+04  0.46999998093E+01 0. -1.
       -5    1    3    3    0  502  0.12816065245E+04 -0.69050343310E+03  0.16740949826E+04  0.22185414974E+04  0.46999998093E+01 0.  1.
</event>
<event>
 5   0  0.4071750E-09  0.3799937E+04  0.7818609E-02  0.8046168E-01
        1   -1    0    0  501    0  0.00000000000E+00  0.00000000000E+00  0.18758625813E+04  0.18758625814E+04  0.50400001928E-02 0.  1.
       -1   -1    0    0    0  501  0.00000000000E+00  0.00000000000E+00 -0.19243841916E+04  0.19243841916E+04  0.50400001928E-02 0. -1.
    10030    2    1    2    0    0  0.00000000000E+00  0.00000000000E+00 -0.48521610257E+02  0.38002467730E+04  0.37999369980E+04 0.  0.
        4    1    3    3  502    0 -0.34619806898E+03  0.15477796296E+04  0.10219620396E+04  0.18867651968E+04  0.12699999809E+01 0.  1.
       -4    1    3    3    0  502  0.34619806898E+03 -0.15477796296E+04 -0.10704836498E+04  0.19134815761E+04  0.12699999809E+01 0. -1.
</event>
<event>
 5   0  0.4071750E-09  0.3805958E+04  0.7818609E-02  0.8044877E-01
       -1   -1    0    0    0  501  0.00000000000E+00  0.00000000000E+00  0.21783785737E+04  0.21783785737E+04  0.50400001928E-02 0.  1.
        1   -1    0    0  501    0  0.00000000000E+00  0.00000000000E+00 -0.16623966862E+04  0.16623966862E+04  0.50400001928E-02 0. -1.
    10030    2    1    2    0    0  0.00000000000E+00  0.00000000000E+00  0.51598188751E+03  0.38407752598E+04  0.38059581301E+04 0.  0.
        2    1    3    3  502    0  0.16464720789E+04 -0.46618364840E+03  0.10981525051E+04  0.20332575895E+04  0.25500000920E-02 0.  1.
       -2    1    3    3    0  502 -0.16464720789E+04  0.46618364840E+03 -0.58217061760E+03  0.18075176704E+04  0.25500000920E-02 0. -1.
</event>
<event>
 5   0  0.4071750E-09  0.3800767E+04  0.7818609E-02  0.8045990E-01
        1   -1    0    0  501    0  0.00000000000E+00  0.00000000000E+00  0.19888589602E+04  0.19888589602E+04  0.50400001928E-02 0.  1.
       -1   -1    0    0    0  501  0.00000000000E+00  0.00000000000E+00 -0.18158434549E+04  0.18158434549E+04  0.50400001928E-02 0. -1.
    10030    2    1    2    0    0  0.00000000000E+00  0.00000000000E+00  0.17301550538E+03  0.38047024151E+04  0.38007665151E+04 0.  0.
        5    1    3    3  502    0  0.87355714217E+03  0.16751439710E+04 -0.11919234255E+03  0.18929971761E+04  0.46999998093E+01 0.  1.
       -5    1    3    3    0  502 -0.87355714217E+03 -0.16751439710E+04  0.29220784793E+03  0.19117052390E+04  0.46999998093E+01 0. -1.
</event>
<event>
 5   0  0.4071750E-09  0.3798461E+04  0.7818609E-02  0.8046485E-01
        1   -1    0    0  501    0  0.00000000000E+00  0.00000000000E+00  0.20069684748E+04  0.20069684748E+04  0.50400001928E-02 0.  1.
       -1   -1    0    0    0  501  0.00000000000E+00  0.00000000000E+00 -0.17972761671E+04  0.17972761671E+04  0.50400001928E-02 0. -1.
    10030    2    1    2    0    0  0.00000000000E+00  0.00000000000E+00  0.20969230765E+03  0.38042446419E+04  0.37984610609E+04 0.  0.
        1    1    3    3  502    0 -0.27618082967E+03  0.29271401405E+03 -0.17540832174E+04  0.17996569891E+04  0.50400001928E-02 0. -1.
       -1    1    3    3    0  502  0.27618082967E+03 -0.29271401405E+03  0.19637755251E+04  0.20045876528E+04  0.50400001928E-02 0.  1.
</event>
<event>
 5   0  0.1305088E-08  0.3818269E+04  0.7818609E-02  0.8042246E-01
       -2   -1    0    0    0  501  0.00000000000E+00  0.00000000000E+00  0.32148799248E+04  0.32148799248E+04  0.25500000920E-02 0.  1.
        2   -1    0    0  501    0  0.00000000000E+00  0.00000000000E+00 -0.11337267363E+04  0.11337267363E+04  0.25500000920E-02 0. -1.
    10030    2    1    2    0    0  0.00000000000E+00  0.00000000000E+00  0.20811531885E+04  0.43486066610E+04  0.38182694115E+04 0.  0.
        3    1    3    3  502    0 -0.18007042013E+04 -0.39393794454E+02  0.17615138499E+04  0.25193289871E+04  0.10100000352E+00 0.  1.
       -3    1    3    3    0  502  0.18007042013E+04  0.39393794454E+02  0.31963933854E+03  0.18292776739E+04  0.10100000352E+00 0. -1.
</event>
<event>
 5   0  0.1305088E-08  0.3800553E+04  0.7818609E-02  0.8046036E-01
       -2   -1    0    0    0  501  0.00000000000E+00  0.00000000000E+00  0.16733168896E+04  0.16733168896E+04  0.25500000920E-02 0. -1.
        2   -1    0    0  501    0  0.00000000000E+00  0.00000000000E+00 -0.21580193343E+04  0.21580193343E+04  0.25500000920E-02 0.  1.
    10030    2    1    2    0    0  0.00000000000E+00  0.00000000000E+00 -0.48470244470E+03  0.38313362239E+04  0.38005526967E+04 0.  0.
        3    1    3    3  502    0  0.53842336940E+03 -0.16435606269E+04  0.55133700502E+03  0.18152585938E+04  0.10100000352E+00 0. -1.
       -3    1    3    3    0  502 -0.53842336940E+03  0.16435606269E+04 -0.10360394497E+04  0.20160776301E+04  0.10100000352E+00 0.  1.
</event>
<event>
 5   0  0.4071750E-09  0.3799978E+04  0.7818609E-02  0.8046160E-01
       -1   -1    0    0    0  501  0.00000000000E+00  0.00000000000E+00  0.14371729667E+04  0.14371729667E+04  0.50400001928E-02 0. -1.
        1   -1    0    0  501    0  0.00000000000E+00  0.00000000000E+00 -0.25118472162E+04  0.25118472162E+04  0.50400001928E-02 0.  1.
    10030    2    1    2    0    0  0.00000000000E+00  0.00000000000E+00 -0.10746742496E+04  0.39490201829E+04  0.37999783766E+04 0.  0.
        5    1    3    3  502    0  0.71022762388E+03 -0.48790722521E+03 -0.22971112139E+04  0.24534096187E+04  0.46999998093E+01 0.  1.
       -5    1    3    3    0  502 -0.71022762388E+03  0.48790722521E+03  0.12224369643E+04  0.14956105642E+04  0.46999998093E+01 0. -1.
</event>
<event>
 5   0  0.4071750E-09  0.3800537E+04  0.7818609E-02  0.8046040E-01
        1   -1    0    0  501    0  0.00000000000E+00  0.00000000000E+00  0.15048002014E+04  0.15048002014E+04  0.50400001928E-02 0. -1.
       -1   -1    0    0    0  501  0.00000000000E+00  0.00000000000E+00 -0.23996682197E+04  0.23996682197E+04  0.50400001928E-02 0.  1.
    10030    2    1    2    0    0  0.00000000000E+00  0.00000000000E+00 -0.89486801835E+03  0.39044684211E+04  0.38005374464E+04 0.  0.
        3    1    3    3  502    0  0.15677579969E+04 -0.10605201268E+04 -0.27414063705E+03  0.19125169738E+04  0.10100000352E+00 0. -1.
       -3    1    3    3    0  502 -0.15677579969E+04  0.10605201268E+04 -0.62072738130E+03  0.19919514473E+04  0.10100000352E+00 0.  1.
</event>
<event>
 5   0  0.4071750E-09  0.3800109E+04  0.7818609E-02  0.8046132E-01
       -1   -1    0    0    0  501  0.00000000000E+00  0.00000000000E+00  0.15797467309E+04  0.15797467309E+04  0.50400001928E-02 0. -1.
        1   -1    0    0  501    0  0.00000000000E+00  0.00000000000E+00 -0.22853073023E+04  0.22853073024E+04  0.50400001928E-02 0.  1.
    10030    2    1    2    0    0  0.00000000000E+00  0.00000000000E+00 -0.70556057148E+03  0.38650540332E+04  0.38001088089E+04 0.  0.
        3    1    3    3  502    0 -0.14688522516E+04 -0.12198419503E+02 -0.15785876930E+04  0.21562965596E+04  0.10100000352E+00 0.  1.
       -3    1    3    3    0  502  0.14688522516E+04  0.12198419503E+02  0.87302712155E+03  0.17087574736E+04  0.10100000352E+00 0. -1.
</event>
<event>
 5   0  0.1261152E-08  0.3802675E+04  0.7818609E-02  0.8045581E-01
        2   -1    0    0  501    0  0.00000000000E+00  0.00000000000E+00  0.19109567189E+04  0.19109567189E+04  0.25500000920E-02 0. -1.
       -2   -1    0    0    0  501  0.00000000000E+00  0.00000000000E+00 -0.18917663971E+04  0.18917663971E+04  0.25500000920E-02 0.  1.
    10030    2    1    2    0    0  0.00000000000E+00  0.00000000000E+00  0.19190321764E+02  0.38027231160E+04  0.38026746940E+04 0.  0.
        2    1    3    3  502    0  0.10202830522E+04  0.23039936179E+03 -0.15781978164E+04  0.18933488110E+04  0.25500000920E-02 0.  1.
       -2    1    3    3    0  502 -0.10202830522E+04 -0.23039936179E+03  0.15973881382E+04  0.19093743050E+04  0.25500000920E-02 0. -1.
</event>
<event>
 5   0  0.1261152E-08  0.3797530E+04  0.7818609E-02  0.8046685E-01
        2   -1    0    0  501    0  0.00000000000E+00  0.00000000000E+00  0.15242556012E+04  0.15242556012E+04  0.25500000920E-02 0.  1.
       -2   -1    0    0    0  501  0.00000000000E+00  0.00000000000E+00 -0.23652917594E+04  0.23652917594E+04  0.25500000920E-02 0. -1.
    10030    2    1    2    0    0  0.00000000000E+00  0.00000000000E+00 -0.84103615816E+03  0.38895473606E+04  0.37975303621E+04 0.  0.
        2    1    3    3  502    0 -0.15833191658E+04  0.95105967995E+03 -0.87152296340E+03  0.20422943890E+04  0.25500000920E-02 0.  1.
       -2    1    3    3    0  502  0.15833191658E+04 -0.95105967995E+03  0.30486805244E+02  0.18472529716E+04  0.25500000920E-02 0. -1.
</event>
<event>
 5   0  0.4071750E-09  0.3799812E+04  0.7818609E-02  0.8046195E-01
        1   -1    0    0  501    0  0.00000000000E+00  0.00000000000E+00  0.12286949134E+04  0.12286949134E+04  0.50400001928E-02 0.  1.
       -1   -1    0    0    0  501  0.00000000000E+00  0.00000000000E+00 -0.29377867101E+04  0.29377867101E+04  0.50400001928E-02 0. -1.
    10030    2    1    2    0    0  0.00000000000E+00  0.00000000000E+00 -0.17090917968E+04  0.41664816235E+04  0.37998124098E+04 0.  0.
        4    1    3    3  502    0 -0.43342572053E+03  0.53340676673E+03  0.10876036261E+04  0.12865705944E+04  0.12699999809E+01 0.  1.
       -4    1    3    3    0  502  0.43342572053E+03 -0.53340676673E+03 -0.27966954229E+04  0.28799110291E+04  0.12699999809E+01 0. -1.
</event>
<event>
 5   0  0.1327249E-08  0.3800204E+04  0.7818609E-02  0.8046111E-01
       -2   -1    0    0    0  501  0.00000000000E+00  0.00000000000E+00  0.14632000576E+04  0.14632000576E+04  0.25500000920E-02 0. -1.
        2   -1    0    0  501    0  0.00000000000E+00  0.00000000000E+00 -0.24674601434E+04  0.24674601434E+04  0.25500000920E-02 0.  1.
    10030    2    1    2    0    0  0.00000000000E+00  0.00000000000E+00 -0.10042600858E+04  0.39306602010E+04  0.38002041124E+04 0.  0.
        1    1    3    3  502    0 -0.11040010024E+04  0.11789509832E+04  0.53304862990E+03  0.17008481637E+04  0.50400001928E-02 0. -1.
       -1    1    3    3    0  502  0.11040010024E+04 -0.11789509832E+04 -0.15373087157E+04  0.22298120373E+04  0.50400001928E-02 0.  1.
</event>
<event>
 5   0  0.1293993E-08  0.3800080E+04  0.7818609E-02  0.8046138E-01
        2   -1    0    0  501    0  0.00000000000E+00  0.00000000000E+00  0.26430005207E+04  0.26430005207E+04  0.25500000920E-02 0. -1.
       -2   -1    0    0    0  501  0.00000000000E+00  0.00000000000E+00 -0.13659293990E+04  0.13659293990E+04  0.25500000920E-02 0.  1.
    10030    2    1    2    0    0  0.00000000000E+00  0.00000000000E+00  0.12770711217E+04  0.40089299197E+04  0.38000800585E+04 0.  0.
        5    1    3    3  502    0  0.85948561708E+03  0.13773852199E+04 -0.40273893472E+03  0.16727600873E+04  0.46999998093E+01 0.  1.
       -5    1    3    3    0  502 -0.85948561708E+03 -0.13773852199E+04  0.16798100565E+04  0.23361698324E+04  0.46999998093E+01 0. -1.
</event>
<event>
 5   0  0.1293993E-08  0.3801632E+04  0.7818609E-02  0.8045805E-01
       -2   -1    0    0    0  501  0.00000000000E+00  0.00000000000E+00  0.28116924337E+04  0.28116924337E+04  0.25500000920E-02 0. -1.
        2   -1    0    0  501    0  0.00000000000E+00  0.00000000000E+00 -0.12850271513E+04  0.12850271513E+04  0.25500000920E-02 0.  1.
    10030    2    1    2    0    0  0.00000000000E+00  0.00000000000E+00  0.15266652824E+04  0.40967195850E+04  0.38016318172E+04 0.  0.
        5    1    3    3  502    0 -0.46005579229E+03 -0.13040018766E+04 -0.64212968754E+03  0.15246064580E+04  0.46999998093E+01 0.  1.
       -5    1    3    3    0  502  0.46005579229E+03  0.13040018766E+04  0.21687949700E+04  0.25721131270E+04  0.46999998093E+01 0. -1.
</event>
<event>
 5   0  0.1261152E-08  0.3798535E+04  0.7818609E-02  0.8046469E-01
        2   -1    0    0  501    0  0.00000000000E+00  0.00000000000E+00  0.19839700885E+04  0.19839700885E+04  0.25500000920E-02 0.  1.
       -2   -1    0    0    0  501  0.00000000000E+00  0.00000000000E+00 -0.18181815615E+04  0.18181815615E+04  0.25500000920E-02 0. -1.
    10030    2    1    2    0    0  0.00000000000E+00  0.00000000000E+00  0.16578852695E+03  0.38021516500E+04  0.37985354196E+04 0.  0.
        2    1    3    3  502    0  0.28659837775E+03 -0.93236741110E+03 -0.15483105802E+04  0.18299489807E+04  0.25500000920E-02 0. -1.
       -2    1    3    3    0  502 -0.28659837775E+03  0.93236741110E+03  0.17140991071E+04  0.19722026692E+04  0.25500000920E-02 0.  1.
</event>
<event>
 5   0  0.4071750E-09  0.3800538E+04  0.7818609E-02  0.8046039E-01
       -3   -1    0    0    0  501  0.00000000000E+00  0.00000000000E+00  0.20598597327E+04  0.20598597352E+04  0.10100000352E+00 0.  1.
        3   -1    0    0  501    0  0.00000000000E+00  0.00000000000E+00 -0.17530425619E+04  0.17530425648E+04  0.10100000352E+00 0. -1.
    10030    2    1    2    0    0  0.00000000000E+00  0.00000000000E+00  0.30681717078E+03  0.38129023000E+04  0.38005377479E+04 0.  0.
        1    1    3    3  502    0  0.45873117691E+03 -0.18094009274E+04 -0.20363656726E+03  0.18777203893E+04  0.50400001928E-02 0. -1.
       -1    1    3    3    0  502 -0.45873117691E+03  0.18094009274E+04  0.51045373803E+03  0.19351819107E+04  0.50400001928E-02 0.  1.
</event>
<event>
 5   0  0.1305088E-08  0.3800542E+04  0.7818609E-02  0.8046039E-01
        2   -1    0    0  501    0  0.00000000000E+00  0.00000000000E+00  0.21520074595E+04  0.21520074595E+04  0.25500000920E-02 0. -1.
       -2   -1    0    0    0  501  0.00000000000E+00  0.00000000000E+00 -0.16779823475E+04  0.16779823475E+04  0.25500000920E-02 0.  1.
    10030    2    1    2    0    0  0.00000000000E+00  0.00000000000E+00  0.47402511197E+03  0.38299898070E+04  0.38005423448E+04 0.  0.
        3    1    3    3  502    0 -0.97747436709E+02  0.16432323005E+04 -0.71969223602E+03  0.17965867304E+04  0.10100000352E+00 0. -1.
       -3    1    3    3    0  502  0.97747436709E+02 -0.16432323005E+04  0.11937173480E+04  0.20334030766E+04  0.10100000352E+00 0.  1.
</event>
<event>
 5   0  0.4071750E-09  0.3798377E+04  0.7818609E-02  0.8046503E-01
        1   -1    0    0  501    0  0.00000000000E+00  0.00000000000E+00  0.21401026119E+04  0.21401026119E+04  0.50400001928E-02 0.  1.
       -1   -1    0    0    0  501  0.00000000000E+00  0.00000000000E+00 -0.16853941291E+04  0.16853941291E+04  0.50400001928E-02 0. -1.
    10030    2    1    2    0    0  0.00000000000E+00  0.00000000000E+00  0.45470848281E+03  0.38254967410E+04  0.37983766943E+04 0.  0.
        3    1    3    3  502    0  0.67264893649E+03  0.90193571725E+03 -0.13135934234E+04  0.17295873271E+04  0.10100000352E+00 0. -1.
       -3    1    3    3    0  502 -0.67264893649E+03 -0.90193571725E+03  0.17683019062E+04  0.20959094140E+04  0.10100000352E+00 0.  1.
</event>
<event>
 5   0  0.1264013E-08  0.3800014E+04  0.7818609E-02  0.8046152E-01
        2   -1    0    0  501    0  0.00000000000E+00  0.00000000000E+00  0.15617048494E+04  0.15617048494E+04  0.25500000920E-02 0. -1.
       -2   -1    0    0    0  501  0.00000000000E+00  0.00000000000E+00 -0.23115939168E+04  0.23115939168E+04  0.25500000920E-02 0.  1.
    10030    2    1    2    0    0  0.00000000000E+00  0.00000000000E+00 -0.74988906748E+03  0.38732987662E+04  0.38000144366E+04 0.  0.
        4    1    3    3  502    0  0.45321774910E+03  0.17593266456E+04 -0.94189922816E+03  0.20464145091E+04  0.12699999809E+01 0.  1.
       -4    1    3    3    0  502 -0.45321774910E+03 -0.17593266456E+04  0.19201016068E+03  0.18268842571E+04  0.12699999809E+01 0. -1.
</event>
<event>
 5   0  0.4071750E-09  0.3800038E+04  0.7818609E-02  0.8046147E-01
        1   -1    0    0  501    0  0.00000000000E+00  0.00000000000E+00  0.20041353579E+04  0.20041353579E+04  0.50400001928E-02 0.  1.
       -1   -1    0    0    0  501  0.00000000000E+00  0.00000000000E+00 -0.18013117165E+04  0.18013117166E+04  0.50400001928E-02 0. -1.
    10030    2    1    2    0    0  0.00000000000E+00  0.00000000000E+00  0.20282364139E+03  0.38054470745E+04  0.38000381587E+04 0.  0.
        2    1    3    3  502    0  0.10005076344E+04 -0.75542942440E+03 -0.13283400099E+04  0.18265202773E+04  0.25500000920E-02 0. -1.
       -2    1    3    3    0  502 -0.10005076344E+04  0.75542942440E+03  0.15311636513E+04  0.19789267972E+04  0.25500000920E-02 0.  1.
</event>
<event>
 5   0  0.4071750E-09  0.3808124E+04  0.7818609E-02  0.8044414E-01
       -1   -1    0    0    0  501  0.00000000000E+00  0.00000000000E+00  0.14286750958E+04  0.14286750958E+04  0.50400001928E-02 0.  1.
        1   -1    0    0  501    0  0.00000000000E+00  0.00000000000E+00 -0.25376324350E+04  0.25376324350E+04  0.50400001928E-02 0. -1.
    10030    2    1    2    0    0  0.00000000000E+00  0.00000000000E+00 -0.11089573392E+04  0.39663075308E+04  0.38081240852E+04 0.  0.
        1    1    3    3  502    0 -0.70351878021E+03  0.17198885222E+03 -0.23885723497E+04  0.24959560712E+04  0.50400001928E-02 0. -1.
       -1    1    3    3    0  502  0.70351878021E+03 -0.17198885222E+03  0.12796150105E+04  0.14703514596E+04  0.50400001928E-02 0.  1.
</event>
<event>
 5   0  0.1293993E-08  0.3799542E+04  0.7818609E-02  0.8046253E-01
        2   -1    0    0  501    0  0.00000000000E+00  0.00000000000E+00  0.22369375993E+04  0.22369375993E+04  0.25500000920E-02 0. -1.
       -2   -1    0    0    0  501  0.00000000000E+00  0.00000000000E+00 -0.16134241459E+04  0.16134241459E+04  0.25500000920E-02 0.  1.
    10030    2    1    2    0    0  0.00000000000E+00  0.00000000000E+00  0.62351345341E+03  0.38503617452E+04  0.37995416227E+04 0.  0.
        5    1    3    3  502    0 -0.12308233976E+04  0.12140183974E+04 -0.48639465417E+03  0.17959311665E+04  0.46999998093E+01 0.  1.
       -5    1    3    3    0  502  0.12308233976E+04 -0.12140183974E+04  0.11099081076E+04  0.20544305787E+04  0.46999998093E+01 0. -1.
</event>
<event>
 5   0  0.4071750E-09  0.3799550E+04  0.7818609E-02  0.8046252E-01
       -1   -1    0    0    0  501  0.00000000000E+00  0.00000000000E+00  0.19087559440E+04  0.19087559440E+04  0.50400001928E-02 0.  1.
        1   -1    0    0  501    0  0.00000000000E+00  0.00000000000E+00 -0.18908358650E+04  0.18908358650E+04  0.50400001928E-02 0. -1.
    10030    2    1    2    0    0  0.00000000000E+00  0.00000000000E+00  0.17920078988E+02  0.37995918089E+04  0.37995495503E+04 0.  0.
        5    1    3    3  502    0  0.25254728789E+03  0.18663497106E+04 -0.24020278360E+03  0.18986207736E+04  0.46999998093E+01 0.  1.
       -5    1    3    3    0  502 -0.25254728789E+03 -0.18663497106E+04  0.25812286259E+03  0.19009710353E+04  0.46999998093E+01 0. -1.
</event>
<event>
 5   0  0.1305088E-08  0.3799983E+04  0.7818609E-02  0.8046159E-01
       -2   -1    0    0    0  501  0.00000000000E+00  0.00000000000E+00  0.18310463952E+04  0.18310463952E+04  0.25500000920E-02 0.  1.
        2   -1    0    0  501    0  0.00000000000E+00  0.00000000000E+00 -0.19715322430E+04  0.19715322430E+04  0.25500000920E-02 0. -1.
    10030    2    1    2    0    0  0.00000000000E+00  0.00000000000E+00 -0.14048584775E+03  0.38025786382E+04  0.37999826350E+04 0.  0.
        3    1    3    3  502    0  0.90427960799E+02 -0.15710915539E+04 -0.11356115517E+04  0.19406492454E+04  0.10100000352E+00 0.  1.
       -3    1    3    3    0  502 -0.90427960799E+02  0.15710915539E+04  0.99512570397E+03  0.18619293928E+04  0.10100000352E+00 0. -1.
</event>
<event>
 5   0  0.1327249E-08  0.3813405E+04  0.7818609E-02  0.8043284E-01
        2   -1    0    0  501    0  0.00000000000E+00  0.00000000000E+00  0.24252304444E+04  0.24252304444E+04  0.25500000920E-02 0.  1.
       -2   -1    0    0    0  501  0.00000000000E+00  0.00000000000E+00 -0.14990385229E+04  0.14990385229E+04  0.25500000920E-02 0. -1.
    10030    2    1    2    0    0  0.00000000000E+00  0.00000000000E+00  0.92619192155E+03  0.39242689673E+04  0.38134047061E+04 0.  0.
        1    1    3    3  502    0  0.54788114486E+03 -0.15586413563E+04  0.14425961196E+04  0.21933126067E+04  0.50400001928E-02 0.  1.
       -1    1    3    3    0  502 -0.54788114486E+03  0.15586413563E+04 -0.51640419806E+03  0.17309563606E+04  0.50400001928E-02 0. -1.
</event>
<event>
 5   0  0.4071750E-09  0.3797819E+04  0.7818609E-02  0.8046623E-01
        1   -1    0    0  501    0  0.00000000000E+00  0.00000000000E+00  0.19483556544E+04  0.19483556544E+04  0.50400001928E-02 0.  1.
       -1   -1    0    0    0  501  0.00000000000E+00  0.00000000000E+00 -0.18507177235E+04  0.18507177235E+04  0.50400001928E-02 0. -1.
    10030    2    1    2    0    0  0.00000000000E+00  0.00000000000E+00  0.97637930937E+02  0.37990733779E+04  0.37978185008E+04 0.  0.
        2    1    3    3  502    0 -0.82963551272E+03  0.14870004215E+04 -0.79192944689E+03  0.18779290685E+04  0.25500000920E-02 0.  1.
       -2    1    3    3    0  502  0.82963551272E+03 -0.14870004215E+04  0.88956737783E+03  0.19211443093E+04  0.25500000920E-02 0. -1.
</event>
<event>
 5   0  0.4071750E-09  0.3800130E+04  0.7818609E-02  0.8046127E-01
        1   -1    0    0  501    0  0.00000000000E+00  0.00000000000E+00  0.22884478355E+04  0.22884478355E+04  0.50400001928E-02 0. -1.
       -1   -1    0    0    0  501  0.00000000000E+00  0.00000000000E+00 -0.15775966504E+04  0.15775966504E+04  0.50400001928E-02 0.  1.
    10030    2    1    2    0    0  0.00000000000E+00  0.00000000000E+00  0.71085118512E+03  0.38660444859E+04  0.38001303345E+04 0.  0.
        2    1    3    3  502    0  0.12810454441E+03  0.16090153237E+04  0.13752636024E+04  0.21205402760E+04  0.25500000920E-02 0. -1.
       -2    1    3    3    0  502 -0.12810454441E+03 -0.16090153237E+04 -0.66441241727E+03  0.17455042098E+04  0.25500000920E-02 0.  1.
</event>
<event>
 5   0  0.1305088E-08  0.3799232E+04  0.7818609E-02  0.8046320E-01
       -2   -1    0    0    0  501  0.00000000000E+00  0.00000000000E+00  0.17926238244E+04  0.17926238244E+04  0.25500000920E-02 0.  1.
        2   -1    0    0  501    0  0.00000000000E+00  0.00000000000E+00 -0.20129940115E+04  0.20129940115E+04  0.25500000920E-02 0. -1.
    10030    2    1    2    0    0  0.00000000000E+00  0.00000000000E+00 -0.22037018714E+03  0.38056178360E+04  0.37992320400E+04 0.  0.
        3    1    3    3  502    0 -0.18359131343E+04 -0.22381392771E+03  0.32398467284E+03  0.18776676461E+04  0.10100000352E+00 0.  1.
       -3    1    3    3    0  502  0.18359131343E+04  0.22381392771E+03 -0.54435485998E+03  0.19279501899E+04  0.10100000352E+00 0. -1.
</event>
<event>
 5   0  0.1305088E-08  0.3800112E+04  0.7818609E-02  0.8046131E-01
       -2   -1    0    0    0  501  0.00000000000E+00  0.00000000000E+00  0.13590543037E+04  0.13590543037E+04  0.25500000920E-02 0. -1.
        2   -1    0    0  501    0  0.00000000000E+00  0.00000000000E+00 -0.26564160103E+04  0.26564160103E+04  0.25500000920E-02 0.  1.
    10030    2    1    2    0    0  0.00000000000E+00  0.00000000000E+00 -0.12973617066E+04  0.40154703140E+04  0.38001124253E+04 0.  0.
        3    1    3    3  502    0  0.10370063068E+04  0.11283513335E+04 -0.18355702349E+04  0.23912082531E+04  0.10100000352E+00 0. -1.
       -3    1    3    3    0  502 -0.10370063068E+04 -0.11283513335E+04  0.53820852831E+03  0.16242620609E+04  0.10100000352E+00 0.  1.
</event>
<event>
 5   0  0.4071750E-09  0.3795872E+04  0.7818609E-02  0.8047041E-01
        1   -1    0    0  501    0  0.00000000000E+00  0.00000000000E+00  0.18298463105E+04  0.18298463105E+04  0.50400001928E-02 0.  1.
       -1   -1    0    0    0  501  0.00000000000E+00  0.00000000000E+00 -0.19685596017E+04  0.19685596017E+04  0.50400001928E-02 0. -1.
    10030    2    1    2    0    0  0.00000000000E+00  0.00000000000E+00 -0.13871329114E+03  0.37984059122E+04  0.37958722445E+04 0.  0.
        4    1    3    3  502    0 -0.65427964080E+03 -0.17815317463E+04 -0.84289739471E+02  0.18997482950E+04  0.12699999809E+01 0. -1.
       -4    1    3    3    0  502  0.65427964080E+03  0.17815317463E+04 -0.54423551668E+02  0.18986576172E+04  0.12699999809E+01 0.  1.
</event>
<event>
 5   0  0.4071750E-09  0.3801865E+04  0.7818609E-02  0.8045755E-01
       -1   -1    0    0    0  501  0.00000000000E+00  0.00000000000E+00  0.21064582936E+04  0.21064582936E+04  0.50400001928E-02 0.  1.
        1   -1    0    0  501    0  0.00000000000E+00  0.00000000000E+00 -0.17154600394E+04  0.17154600394E+04  0.50400001928E-02 0. -1.
    10030    2    1    2    0    0  0.00000000000E+00  0.00000000000E+00  0.39099825414E+03  0.38219183330E+04  0.38018653460E+04 0.  0.
        4    1    3    3  502    0 -0.17338060629E+04 -0.29604529619E+02  0.97844182168E+03  0.19910574836E+04  0.12699999809E+01 0.  1.
       -4    1    3    3    0  502  0.17338060629E+04  0.29604529619E+02 -0.58744356754E+03  0.18308608494E+04  0.12699999809E+01 0. -1.
</event>
<event>
 5   0  0.4071750E-09  0.3785997E+04  0.7818609E-02  0.8049167E-01
       -1   -1    0    0    0  501  0.00000000000E+00  0.00000000000E+00  0.24194600837E+04  0.24194600837E+04  0.50400001928E-02 0. -1.
        1   -1    0    0  501    0  0.00000000000E+00  0.00000000000E+00 -0.14810917600E+04  0.14810917600E+04  0.50400001928E-02 0.  1.
    10030    2    1    2    0    0  0.00000000000E+00  0.00000000000E+00  0.93836832374E+03  0.39005518437E+04  0.37859965101E+04 0.  0.
        1    1    3    3  502    0 -0.32577802441E+03 -0.17606488735E+04 -0.16375520374E+03  0.17980076595E+04  0.50400001928E-02 0.  1.
       -1    1    3    3    0  502  0.32577802441E+03  0.17606488735E+04  0.11021235275E+04  0.21025441842E+04  0.50400001928E-02 0. -1.
</event>
<event>
 5   0  0.4071750E-09  0.3799040E+04  0.7818609E-02  0.8046361E-01
       -1   -1    0    0    0  501  0.00000000000E+00  0.00000000000E+00  0.22365890585E+04  0.22365890585E+04  0.50400001928E-02 0. -1.
        1   -1    0    0  501    0  0.00000000000E+00  0.00000000000E+00 -0.16132492769E+04  0.16132492769E+04  0.50400001928E-02 0.  1.
    10030    2    1    2    0    0  0.00000000000E+00  0.00000000000E+00  0.62333978159E+03  0.38498383353E+04  0.37990397109E+04 0.  0.
        1    1    3    3  502    0 -0.91737958670E+03  0.14626637451E+04  0.11142224154E+04  0.20548630437E+04  0.50400001928E-02 0. -1.
       -1    1    3    3    0  502  0.91737958670E+03 -0.14626637451E+04 -0.49088263385E+03  0.17949752916E+04  0.50400001928E-02 0.  1.
</event>
<event>
 5   0  0.4071750E-09  0.3802130E+04  0.7818609E-02  0.8045698E-01
        1   -1    0    0  501    0  0.00000000000E+00  0.00000000000E+00  0.15966831568E+04  0.15966831568E+04  0.50400001928E-02 0. -1.
       -1   -1    0    0    0  501  0.00000000000E+00  0.00000000000E+00 -0.22634717587E+04  0.22634717587E+04  0.50400001928E-02 0.  1.
    10030    2    1    2    0    0  0.00000000000E+00  0.00000000000E+00 -0.66678860191E+03  0.38601549154E+04  0.38021295259E+04 0.  0.
        2    1    3    3  502    0 -0.11072267466E+04  0.69512693955E+03 -0.17346368405E+04  0.21721228094E+04  0.25500000920E-02 0.  1.
       -2    1    3    3    0  502  0.11072267466E+04 -0.69512693955E+03  0.10678482386E+04  0.16880321061E+04  0.25500000920E-02 0. -1.
</event>
<event>
 5   0  0.4071750E-09  0.3794223E+04  0.7818609E-02  0.8047396E-01
        1   -1    0    0  501    0  0.00000000000E+00  0.00000000000E+00  0.18078203120E+04  0.18078203121E+04  0.50400001928E-02 0. -1.
       -1   -1    0    0    0  501  0.00000000000E+00  0.00000000000E+00 -0.19908133371E+04  0.19908133371E+04  0.50400001928E-02 0.  1.
    10030    2    1    2    0    0  0.00000000000E+00  0.00000000000E+00 -0.18299302508E+03  0.37986336492E+04  0.37942233927E+04 0.  0.
        5    1    3    3  502    0  0.19715004006E+02 -0.89077861193E+02  0.18056169134E+04  0.18079264572E+04  0.46999998093E+01 0. -1.
       -5    1    3    3    0  502 -0.19715004006E+02  0.89077861193E+02 -0.19886099385E+04  0.19907071920E+04  0.46999998093E+01 0.  1.
</event>
<event>
 5   0  0.4071750E-09  0.3800425E+04  0.7818609E-02  0.8046064E-01
        1   -1    0    0  501    0  0.00000000000E+00  0.00000000000E+00  0.21421670205E+04  0.21421670205E+04  0.50400001928E-02 0. -1.
       -1   -1    0    0    0  501  0.00000000000E+00  0.00000000000E+00 -0.16855867058E+04  0.16855867058E+04  0.50400001928E-02 0.  1.
    10030    2    1    2    0    0  0.00000000000E+00  0.00000000000E+00  0.45658031472E+03  0.38277537263E+04  0.38004253716E+04 0.  0.
        2    1    3    3  502    0  0.65408736195E+03  0.49254774831E+03  0.19553727903E+04  0.21198859192E+04  0.25500000920E-02 0. -1.
       -2    1    3    3    0  502 -0.65408736195E+03 -0.49254774831E+03 -0.14987924756E+04  0.17078678071E+04  0.25500000920E-02 0.  1.
</event>
<event>
 5   0  0.1327249E-08  0.3799627E+04  0.7818609E-02  0.8046235E-01
       -2   -1    0    0    0  501  0.00000000000E+00  0.00000000000E+00  0.16598153264E+04  0.16598153264E+04  0.25500000920E-02 0. -1.
        2   -1    0    0  501    0  0.00000000000E+00  0.00000000000E+00 -0.21745135734E+04  0.21745135734E+04  0.25500000920E-02 0.  1.
    10030    2    1    2    0    0  0.00000000000E+00  0.00000000000E+00 -0.51469824705E+03  0.38343288998E+04  0.37996268010E+04 0.  0.
        1    1    3    3  502    0 -0.16384444124E+04 -0.48116398834E+03 -0.10975831712E+04  0.20299526334E+04  0.50400001928E-02 0.  1.
       -1    1    3    3    0  502  0.16384444124E+04  0.48116398834E+03  0.58288492415E+03  0.18043762664E+04  0.50400001928E-02 0. -1.
</event>
<event>
 5   0  0.1327249E-08  0.3805001E+04  0.7818609E-02  0.8045083E-01
        2   -1    0    0  501    0  0.00000000000E+00  0.00000000000E+00  0.10908748634E+04  0.10908748634E+04  0.25500000920E-02 0. -1.
       -2   -1    0    0    0  501  0.00000000000E+00  0.00000000000E+00 -0.33179868361E+04  0.33179868361E+04  0.25500000920E-02 0.  1.
    10030    2    1    2    0    0  0.00000000000E+00  0.00000000000E+00 -0.22271119727E+04  0.44088616995E+04  0.38050011494E+04 0.  0.
        1    1    3    3  502    0 -0.14142611982E+03  0.17069830228E+04 -0.15405850170E+03  0.17197460305E+04  0.50400001928E-02 0. -1.
       -1    1    3    3    0  502  0.14142611982E+03 -0.17069830228E+04 -0.20730534710E+04  0.26891156690E+04  0.50400001928E-02 0.  1.
</event>
<event>
 5   0  0.1261152E-08  0.3799557E+04  0.7818609E-02  0.8046250E-01
       -2   -1    0    0    0  501  0.00000000000E+00  0.00000000000E+00  0.14741189018E+04  0.14741189018E+04  0.25500000920E-02 0. -1.
        2   -1    0    0  501    0  0.00000000000E+00  0.00000000000E+00 -0.24483498111E+04  0.24483498111E+04  0.25500000920E-02 0.  1.
    10030    2    1    2    0    0  0.00000000000E+00  0.00000000000E+00 -0.97423090926E+03  0.39224687129E+04  0.37995572031E+04 0.  0.
        2    1    3    3  502    0 -0.85130573144E+00 -0.14061033380E+04 -0.18059513461E+04  0.22887960998E+04  0.25500000920E-02 0.  1.
       -2    1    3    3    0  502  0.85130573144E+00  0.14061033380E+04  0.83172043688E+03  0.16336726131E+04  0.25500000920E-02 0. -1.
</event>
<event>
 5   0  0.4071750E-09  0.3800522E+04  0.7818609E-02  0.8046043E-01
        1   -1    0    0  501    0  0.00000000000E+00  0.00000000000E+00  0.19417969486E+04  0.19417969486E+04  0.50400001928E-02 0. -1.
       -1   -1    0    0    0  501  0.00000000000E+00  0.00000000000E+00 -0.18596137343E+04  0.18596137343E+04  0.50400001928E-02 0.  1.
    10030    2    1    2    0    0  0.00000000000E+00  0.00000000000E+00  0.82183214264E+02  0.38014106829E+04  0.38005222140E+04 0.  0.
        4    1    3    3  502    0 -0.56142744837E+03 -0.18109255058E+04  0.16894439220E+03  0.19034694082E+04  0.12699999809E+01 0. -1.
       -4    1    3    3    0  502  0.56142744837E+03  0.18109255058E+04 -0.86761177933E+02  0.18979412747E+04  0.12699999809E+01 0.  1.
</event>
<event>
 5   0  0.4071750E-09  0.3799990E+04  0.7818609E-02  0.8046157E-01
       -1   -1    0    0    0  501  0.00000000000E+00  0.00000000000E+00  0.15878862607E+04  0.15878862607E+04  0.50400001928E-02 0. -1.
        1   -1    0    0  501    0  0.00000000000E+00  0.00000000000E+00 -0.22734509519E+04  0.22734509519E+04  0.50400001928E-02 0.  1.
    10030    2    1    2    0    0  0.00000000000E+00  0.00000000000E+00 -0.68556469126E+03  0.38613372126E+04  0.37999902794E+04 0.  0.
        4    1    3    3  502    0  0.10510644714E+04 -0.12272702894E+04 -0.13584440580E+04  0.21109952056E+04  0.12699999809E+01 0. -1.
       -4    1    3    3    0  502 -0.10510644714E+04  0.12272702894E+04  0.67287936675E+03  0.17503420070E+04  0.12699999809E+01 0.  1.
</event>
<event>
 5   0  0.4071750E-09  0.3800890E+04  0.7818609E-02  0.8045964E-01
       -1   -1    0    0    0  501  0.00000000000E+00  0.00000000000E+00  0.15276891141E+04  0.15276891141E+04  0.50400001928E-02 0. -1.
        1   -1    0    0  501    0  0.00000000000E+00  0.00000000000E+00 -0.23641534528E+04  0.23641534528E+04  0.50400001928E-02 0.  1.
    10030    2    1    2    0    0  0.00000000000E+00  0.00000000000E+00 -0.83646433871E+03  0.38918425669E+04  0.38008901557E+04 0.  0.
        1    1    3    3  502    0  0.15093145744E+04  0.11530731260E+04 -0.48366257454E+03  0.19599840827E+04  0.50400001928E-02 0.  1.
       -1    1    3    3    0  502 -0.15093145744E+04 -0.11530731260E+04 -0.35280176417E+03  0.19318584843E+04  0.50400001928E-02 0. -1.
</event>
<event>
 5   0  0.4071750E-09  0.3799101E+04  0.7818609E-02  0.8046348E-01
        1   -1    0    0  501    0  0.00000000000E+00  0.00000000000E+00  0.13175954979E+04  0.13175954979E+04  0.50400001928E-02 0.  1.
       -1   -1    0    0    0  501  0.00000000000E+00  0.00000000000E+00 -0.27385434994E+04  0.27385434994E+04  0.50400001928E-02 0. -1.
    10030    2    1    2    0    0  0.00000000000E+00  0.00000000000E+00 -0.14209480015E+04  0.40561389974E+04  0.37991012546E+04 0.  0.
        2    1    3    3  502    0 -0.15147689311E+04  0.10304368426E+03 -0.19292646392E+04  0.24550366522E+04  0.25500000920E-02 0. -1.
       -2    1    3    3    0  502  0.15147689311E+04 -0.10304368426E+03  0.50831663769E+03  0.16011023452E+04  0.25500000920E-02 0.  1.
</event>
<event>
 5   0  0.4071750E-09  0.3799429E+04  0.7818609E-02  0.8046278E-01
        1   -1    0    0  501    0  0.00000000000E+00  0.00000000000E+00  0.27944275283E+04  0.27944275283E+04  0.50400001928E-02 0. -1.
       -1   -1    0    0    0  501  0.00000000000E+00  0.00000000000E+00 -0.12914682124E+04  0.12914682124E+04  0.50400001928E-02 0.  1.
    10030    2    1    2    0    0  0.00000000000E+00  0.00000000000E+00  0.15029593159E+04  0.40858957407E+04  0.37994285489E+04 0.  0.
        2    1    3    3  502    0 -0.53550673386E+03  0.28556016755E+03 -0.11844156344E+04  0.13308465225E+04  0.25500000920E-02 0.  1.
       -2    1    3    3    0  502  0.53550673386E+03 -0.28556016755E+03  0.26873749503E+04  0.27550492182E+04  0.25500000920E-02 0. -1.
</event>
<event>
 5   0  0.1305088E-08  0.3799246E+04  0.7818609E-02  0.8046317E-01
       -2   -1    0    0    0  501  0.00000000000E+00  0.00000000000E+00  0.14619664343E+04  0.14619664343E+04  0.25500000920E-02 0. -1.
        2   -1    0    0  501    0  0.00000000000E+00  0.00000000000E+00 -0.24682975777E+04  0.24682975777E+04  0.25500000920E-02 0.  1.
    10030    2    1    2    0    0  0.00000000000E+00  0.00000000000E+00 -0.10063311434E+04  0.39302640120E+04  0.37992463508E+04 0.  0.
        3    1    3    3  502    0  0.10330472106E+04  0.98252407275E+03 -0.18018578213E+04  0.22976578751E+04  0.10100000352E+00 0.  1.
       -3    1    3    3    0  502 -0.10330472106E+04 -0.98252407275E+03  0.79552667789E+03  0.16326061369E+04  0.10100000352E+00 0. -1.
</event>
<event>
 5   0  0.1327249E-08  0.3798978E+04  0.7818609E-02  0.8046374E-01
        2   -1    0    0  501    0  0.00000000000E+00  0.00000000000E+00  0.19571190910E+04  0.19571190910E+04  0.25500000920E-02 0.  1.
       -2   -1    0    0    0  501  0.00000000000E+00  0.00000000000E+00 -0.18435555770E+04  0.18435555770E+04  0.25500000920E-02 0. -1.
    10030    2    1    2    0    0  0.00000000000E+00  0.00000000000E+00  0.11356351408E+03  0.38006746680E+04  0.37989776599E+04 0.  0.
        1    1    3    3  502    0 -0.13504290278E+04  0.68810849492E+03 -0.10886777069E+04  0.18661111996E+04  0.50400001928E-02 0. -1.
       -1    1    3    3    0  502  0.13504290278E+04 -0.68810849492E+03  0.12022412209E+04  0.19345634684E+04  0.50400001928E-02 0.  1.
</event>
<event>
 5   0  0.1305088E-08  0.3801027E+04  0.7818609E-02  0.8045935E-01
       -2   -1    0    0    0  501  0.00000000000E+00  0.00000000000E+00  0.15905208665E+04  0.15905208665E+04  0.25500000920E-02 0.  1.
        2   -1    0    0  501    0  0.00000000000E+00  0.00000000000E+00 -0.22709236527E+04  0.22709236527E+04  0.25500000920E-02 0. -1.
    10030    2    1    2    0    0  0.00000000000E+00  0.00000000000E+00 -0.68040278625E+03  0.38614445192E+04  0.38010269432E+04 0.  0.
        3    1    3    3  502    0 -0.45559933730E+03  0.52561765702E+03  0.14565568054E+04  0.16141258982E+04  0.10100000352E+00 0.  1.
       -3    1    3    3    0  502  0.45559933730E+03 -0.52561765702E+03 -0.21369595917E+04  0.22473186210E+04  0.10100000352E+00 0. -1.
</event>
<event>
 5   0  0.4071750E-09  0.3799333E+04  0.7818609E-02  0.8046298E-01
        1   -1    0    0  501    0  0.00000000000E+00  0.00000000000E+00  0.29260603848E+04  0.29260603848E+04  0.50400001928E-02 0.  1.
       -1   -1    0    0    0  501  0.00000000000E+00  0.00000000000E+00 -0.12333076795E+04  0.12333076795E+04  0.50400001928E-02 0. -1.
    10030    2    1    2    0    0  0.00000000000E+00  0.00000000000E+00  0.16927527053E+04  0.41593680643E+04  0.37993329642E+04 0.  0.
        1    1    3    3  502    0  0.13330595996E+04  0.55378710215E+03 -0.50555794920E+03  0.15294825565E+04  0.50400001928E-02 0. -1.
       -1    1    3    3    0  502 -0.13330595996E+04 -0.55378710215E+03  0.21983106545E+04  0.26298855078E+04  0.50400001928E-02 0.  1.
</event>
<event>
 5   0  0.1261152E-08  0.3797157E+04  0.7818609E-02  0.8046765E-01
       -2   -1    0    0    0  501  0.00000000000E+00  0.00000000000E+00  0.13030794307E+04  0.13030794307E+04  0.25500000920E-02 0.  1.
        2   -1    0    0  501    0  0.00000000000E+00  0.00000000000E+00 -0.27662163914E+04  0.27662163914E+04  0.25500000920E-02 0. -1.
    10030    2    1    2    0    0  0.00000000000E+00  0.00000000000E+00 -0.14631369607E+04  0.40692958221E+04  0.37971566628E+04 0.  0.
        2    1    3    3  502    0  0.18213857206E+04 -0.53537336521E+03 -0.70691782537E+03  0.20257846369E+04  0.25500000920E-02 0. -1.
       -2    1    3    3    0  502 -0.18213857206E+04  0.53537336521E+03 -0.75621913534E+03  0.20435111852E+04  0.25500000920E-02 0.  1.
</event>
<event>
 5   0  0.1261152E-08  0.3800949E+04  0.7818609E-02  0.8045951E-01
       -2   -1    0    0    0  501  0.00000000000E+00  0.00000000000E+00  0.15976207373E+04  0.15976207373E+04  0.25500000920E-02 0.  1.
        2   -1    0    0  501    0  0.00000000000E+00  0.00000000000E+00 -0.22607385131E+04  0.22607385131E+04  0.25500000920E-02 0. -1.
    10030    2    1    2    0    0  0.00000000000E+00  0.00000000000E+00 -0.66311777581E+03  0.38583592505E+04  0.38009486870E+04 0.  0.
        2    1    3    3  502    0 -0.54627464027E+03 -0.17959339283E+04 -0.63270129058E+03  0.19809355316E+04  0.25500000920E-02 0. -1.
       -2    1    3    3    0  502  0.54627464027E+03  0.17959339283E+04 -0.30416485235E+02  0.18774237188E+04  0.25500000920E-02 0.  1.
</event>
<event>
 5   0  0.4071750E-09  0.3799559E+04  0.7818609E-02  0.8046249E-01
       -1   -1    0    0    0  501  0.00000000000E+00  0.00000000000E+00  0.16171965258E+04  0.16171965259E+04  0.50400001928E-02 0.  1.
        1   -1    0    0  501    0  0.00000000000E+00  0.00000000000E+00 -0.22317404949E+04  0.22317404949E+04  0.50400001928E-02 0. -1.
    10030    2    1    2    0    0  0.00000000000E+00  0.00000000000E+00 -0.61454396905E+03  0.38489370207E+04  0.37995594350E+04 0.  0.
        1    1    3    3  502    0  0.14118814858E+04 -0.12694355455E+04 -0.24094559255E+03  0.19138784477E+04  0.50400001928E-02 0.  1.
       -1    1    3    3    0  502 -0.14118814858E+04  0.12694355455E+04 -0.37359837650E+03  0.19350585730E+04  0.50400001928E-02 0. -1.
</event>
<event>
 5   0  0.4071750E-09  0.3795541E+04  0.7818609E-02  0.8047112E-01
       -1   -1    0    0    0  501  0.00000000000E+00  0.00000000000E+00  0.22266306798E+04  0.22266306798E+04  0.50400001928E-02 0.  1.
        1   -1    0    0  501    0  0.00000000000E+00  0.00000000000E+00 -0.16174813754E+04  0.16174813754E+04  0.50400001928E-02 0. -1.
    10030    2    1    2    0    0  0.00000000000E+00  0.00000000000E+00  0.60914930433E+03  0.38441120552E+04  0.37955414130E+04 0.  0.
        4    1    3    3  502    0  0.13959828493E+04 -0.11934102118E+04  0.78874658291E+03  0.19987793360E+04  0.12699999809E+01 0. -1.
       -4    1    3    3    0  502 -0.13959828493E+04  0.11934102118E+04 -0.17959727858E+03  0.18453327192E+04  0.12699999809E+01 0.  1.
</event>
<event>
 5   0  0.4071750E-09  0.3800778E+04  0.7818609E-02  0.8045988E-01
        1   -1    0    0  501    0  0.00000000000E+00  0.00000000000E+00  0.19190919455E+04  0.19190919455E+04  0.50400001928E-02 0.  1.
       -1   -1    0    0    0  501  0.00000000000E+00  0.00000000000E+00 -0.18818679339E+04  0.18818679339E+04  0.50400001928E-02 0. -1.
    10030    2    1    2    0    0  0.00000000000E+00  0.00000000000E+00  0.37224011548E+02  0.38009598794E+04  0.38007776017E+04 0.  0.
        5    1    3    3  502    0 -0.13318809610E+04  0.41020977394E+03 -0.12734548136E+04  0.18878263175E+04  0.46999998093E+01 0. -1.
       -5    1    3    3    0  502  0.13318809610E+04 -0.41020977394E+03  0.13106788251E+04  0.19131335619E+04  0.46999998093E+01 0.  1.
</event>
<event>
 5   0  0.1264013E-08  0.3799611E+04  0.7818609E-02  0.8046238E-01
       -2   -1    0    0    0  501  0.00000000000E+00  0.00000000000E+00  0.16155890163E+04  0.16155890163E+04  0.25500000920E-02 0. -1.
        2   -1    0    0  501    0  0.00000000000E+00  0.00000000000E+00 -0.22340222941E+04  0.22340222941E+04  0.25500000920E-02 0.  1.
    10030    2    1    2    0    0  0.00000000000E+00  0.00000000000E+00 -0.61843327779E+03  0.38496113104E+04  0.37996114962E+04 0.  0.
        4    1    3    3  502    0 -0.23846696761E+03 -0.91955451952E+03 -0.19761062359E+04  0.21925885335E+04  0.12699999809E+01 0.  1.
       -4    1    3    3    0  502  0.23846696761E+03  0.91955451952E+03  0.13576729581E+04  0.16570227769E+04  0.12699999809E+01 0. -1.
</event>
<event>
 5   0  0.4071750E-09  0.3799954E+04  0.7818609E-02  0.8046165E-01
       -1   -1    0    0    0  501  0.00000000000E+00  0.00000000000E+00  0.16591201437E+04  0.16591201437E+04  0.50400001928E-02 0. -1.
        1   -1    0    0  501    0  0.00000000000E+00  0.00000000000E+00 -0.21757997844E+04  0.21757997844E+04  0.50400001928E-02 0.  1.
    10030    2    1    2    0    0  0.00000000000E+00  0.00000000000E+00 -0.51667964073E+03  0.38349199282E+04  0.37999543424E+04 0.  0.
        5    1    3    3  502    0 -0.11287945421E+04 -0.14697841154E+04  0.16438037408E+03  0.18605067754E+04  0.46999998093E+01 0.  1.
       -5    1    3    3    0  502  0.11287945421E+04  0.14697841154E+04 -0.68106001481E+03  0.19744131528E+04  0.46999998093E+01 0. -1.
</event>
<event>
 5   0  0.1327249E-08  0.3799368E+04  0.7818609E-02  0.8046291E-01
        2   -1    0    0  501    0  0.00000000000E+00  0.00000000000E+00  0.12211606351E+04  0.12211606351E+04  0.25500000920E-02 0.  1.
       -2   -1    0    0    0  501  0.00000000000E+00  0.00000000000E+00 -0.29552201654E+04  0.29552201654E+04  0.25500000920E-02 0. -1.
    10030    2    1    2    0    0  0.00000000000E+00  0.00000000000E+00 -0.17340595303E+04  0.41763808005E+04  0.37993675969E+04 0.  0.
        1    1    3    3  502    0 -0.26607034830E+03  0.27465157270E+03  0.11784168938E+04  0.12389081049E+04  0.50400001928E-02 0.  1.
       -1    1    3    3    0  502  0.26607034830E+03 -0.27465157270E+03 -0.29124764241E+04  0.29374726956E+04  0.50400001928E-02 0. -1.
</event>
<event>
 5   0  0.4071750E-09  0.3799714E+04  0.7818609E-02  0.8046216E-01
       -1   -1    0    0    0  501  0.00000000000E+00  0.00000000000E+00  0.13960133849E+04  0.13960133849E+04  0.50400001928E-02 0. -1.
        1   -1    0    0  501    0  0.00000000000E+00  0.00000000000E+00 -0.25855455365E+04  0.25855455365E+04  0.50400001928E-02 0.  1.
    10030    2    1    2    0    0  0.00000000000E+00  0.00000000000E+00 -0.11895321516E+04  0.39815589214E+04  0.37997137662E+04 0.  0.
        5    1    3    3  502    0  0.18496845852E+04 -0.16293901700E+03 -0.17359523357E+03  0.18649502897E+04  0.46999998093E+01 0.  1.
       -5    1    3    3    0  502 -0.18496845852E+04  0.16293901700E+03 -0.10159369180E+04  0.21166086316E+04  0.46999998093E+01 0. -1.
</event>
<event>
 5   0  0.4071750E-09  0.3800527E+04  0.7818609E-02  0.8046042E-01
       -1   -1    0    0    0  501  0.00000000000E+00  0.00000000000E+00  0.21668059425E+04  0.21668059425E+04  0.50400001928E-02 0.  1.
        1   -1    0    0  501    0  0.00000000000E+00  0.00000000000E+00 -0.16665084895E+04  0.16665084895E+04  0.50400001928E-02 0. -1.
    10030    2    1    2    0    0  0.00000000000E+00  0.00000000000E+00  0.50029745295E+03  0.38333144320E+04  0.38005265416E+04 0.  0.
        3    1    3    3  502    0  0.17401858920E+04 -0.27634732696E+03  0.96789573768E+03  0.20103325479E+04  0.10100000352E+00 0.  1.
       -3    1    3    3    0  502 -0.17401858920E+04  0.27634732696E+03 -0.46759828473E+03  0.18229818841E+04  0.10100000352E+00 0. -1.
</event>
<event>
 5   0  0.4071750E-09  0.3798707E+04  0.7818609E-02  0.8046432E-01
        1   -1    0    0  501    0  0.00000000000E+00  0.00000000000E+00  0.25960016918E+04  0.25960016918E+04  0.50400001928E-02 0. -1.
       -1   -1    0    0    0  501  0.00000000000E+00  0.00000000000E+00 -0.13896538466E+04  0.13896538466E+04  0.50400001928E-02 0.  1.
    10030    2    1    2    0    0  0.00000000000E+00  0.00000000000E+00  0.12063478451E+04  0.39856555384E+04  0.37987070099E+04 0.  0.
        3    1    3    3  502    0 -0.74402335455E+03 -0.91350689882E+03 -0.95993556021E+03  0.15197177028E+04  0.10100000352E+00 0.  1.
       -3    1    3    3    0  502  0.74402335455E+03  0.91350689882E+03  0.21662834054E+04  0.24659378356E+04  0.10100000352E+00 0. -1.
</event>
<event>
 5   0  0.4071750E-09  0.3799744E+04  0.7818609E-02  0.8046210E-01
        3   -1    0    0  501    0  0.00000000000E+00  0.00000000000E+00  0.16409488355E+04  0.16409488386E+04  0.10100000352E+00 0.  1.
       -3   -1    0    0    0  501  0.00000000000E+00  0.00000000000E+00 -0.21996506329E+04  0.21996506352E+04  0.10100000352E+00 0. -1.
    10030    2    1    2    0    0  0.00000000000E+00  0.00000000000E+00 -0.55870179741E+03  0.38405994738E+04  0.37997442834E+04 0.  0.
        4    1    3    3  502    0 -0.17898554243E+04  0.40163962531E+03 -0.77925514241E+03  0.19930220818E+04  0.12699999809E+01 0.  1.
       -4    1    3    3    0  502  0.17898554243E+04 -0.40163962531E+03  0.22055334500E+03  0.18475773920E+04  0.12699999809E+01 0. -1.
</event>
<event>
 5   0  0.1264013E-08  0.3798485E+04  0.7818609E-02  0.8046480E-01
       -2   -1    0    0    0  501  0.00000000000E+00  0.00000000000E+00  0.20597508861E+04  0.20597508861E+04  0.25500000920E-02 0.  1.
        2   -1    0    0  501    0  0.00000000000E+00  0.00000000000E+00 -0.17512416625E+04  0.17512416625E+04  0.25500000920E-02 0. -1.
    10030    2    1    2    0    0  0.00000000000E+00  0.00000000000E+00  0.30850922367E+03  0.38109925486E+04  0.37984847327E+04 0.  0.
        4    1    3    3  502    0 -0.21170167419E+03 -0.14395782922E+03  0.20423596476E+04  0.20583430226E+04  0.12699999809E+01 0.  1.
       -4    1    3    3    0  502  0.21170167419E+03  0.14395782922E+03 -0.17338504240E+04  0.17526495260E+04  0.12699999809E+01 0. -1.
</event>
<event>
 5   0  0.1305088E-08  0.3799201E+04  0.7818609E-02  0.8046326E-01
        2   -1    0    0  501    0  0.00000000000E+00  0.00000000000E+00  0.17791668471E+04  0.17791668471E+04  0.25500000920E-02 0. -1.
       -2   -1    0    0    0  501  0.00000000000E+00  0.00000000000E+00 -0.20281864161E+04  0.20281864161E+04  0.25500000920E-02 0.  1.
    10030    2    1    2    0    0  0.00000000000E+00  0.00000000000E+00 -0.24901956896E+03  0.38073532632E+04  0.37992009851E+04 0.  0.
        3    1    3    3  502    0  0.16635690061E+04 -0.60199276610E+03 -0.81782151152E+03  0.19490226175E+04  0.10100000352E+00 0.  1.
       -3    1    3    3    0  502 -0.16635690061E+04  0.60199276610E+03  0.56880194256E+03  0.18583306457E+04  0.10100000352E+00 0. -1.
</event>
<event>
 5   0  0.1261152E-08  0.3802839E+04  0.7818609E-02  0.8045546E-01
       -2   -1    0    0    0  501  0.00000000000E+00  0.00000000000E+00  0.18346047495E+04  0.18346047495E+04  0.25500000920E-02 0. -1.
        2   -1    0    0  501    0  0.00000000000E+00  0.00000000000E+00 -0.19706673194E+04  0.19706673194E+04  0.25500000920E-02 0.  1.
    10030    2    1    2    0    0  0.00000000000E+00  0.00000000000E+00 -0.13606256994E+03  0.38052720689E+04  0.38028387417E+04 0.  0.
        2    1    3    3  502    0 -0.17174892029E+04  0.76224635342E+03  0.22302758917E+03  0.18922288368E+04  0.25500000920E-02 0.  1.
       -2    1    3    3    0  502  0.17174892029E+04 -0.76224635342E+03 -0.35909015911E+03  0.19130432320E+04  0.25500000920E-02 0. -1.
</event>
<event>
 5   0  0.1327249E-08  0.3800901E+04  0.7818609E-02  0.8045962E-01
       -2   -1    0    0    0  501  0.00000000000E+00  0.00000000000E+00  0.30620587507E+04  0.30620587507E+04  0.25500000920E-02 0.  1.
        2   -1    0    0  501    0  0.00000000000E+00  0.00000000000E+00 -0.11795042117E+04  0.11795042117E+04  0.25500000920E-02 0. -1.
    10030    2    1    2    0    0  0.00000000000E+00  0.00000000000E+00  0.18825545391E+04  0.42415629624E+04  0.38009005211E+04 0.  0.
        1    1    3    3  502    0  0.15724920950E+04  0.61882954374E+03  0.19115836160E+04  0.25514374995E+04  0.50400001928E-02 0.  1.
       -1    1    3    3    0  502 -0.15724920950E+04 -0.61882954374E+03 -0.29029076934E+02  0.16901254629E+04  0.50400001928E-02 0. -1.
</event>
<event>
 5   0  0.1293993E-08  0.3799280E+04  0.7818609E-02  0.8046309E-01
        2   -1    0    0  501    0  0.00000000000E+00  0.00000000000E+00  0.22250950936E+04  0.22250950936E+04  0.25500000920E-02 0.  1.
       -2   -1    0    0    0  501  0.00000000000E+00  0.00000000000E+00 -0.16217875167E+04  0.16217875167E+04  0.25500000920E-02 0. -1.
    10030    2    1    2    0    0  0.00000000000E+00  0.00000000000E+00  0.60330757697E+03  0.38468826103E+04  0.37992796403E+04 0.  0.
        5    1    3    3  502    0 -0.18721879268E+03  0.15157852873E+04 -0.84208035856E+03  0.17440691883E+04  0.46999998093E+01 0. -1.
       -5    1    3    3    0  502  0.18721879268E+03 -0.15157852873E+04  0.14453879355E+04  0.21028134220E+04  0.46999998093E+01 0.  1.
</event>
<event>
 5   0  0.1305088E-08  0.3800899E+04  0.7818609E-02  0.8045962E-01
       -2   -1    0    0    0  501  0.00000000000E+00  0.00000000000E+00  0.15392816249E+04  0.15392816249E+04  0.25500000920E-02 0. -1.
        2   -1    0    0  501    0  0.00000000000E+00  0.00000000000E+00 -0.23463597072E+04  0.23463597072E+04  0.25500000920E-02 0.  1.
    10030    2    1    2    0    0  0.00000000000E+00  0.00000000000E+00 -0.80707808228E+03  0.38856413322E+04  0.38008990425E+04 0.  0.
        3    1    3    3  502    0  0.18341528410E+04 -0.49567887837E+03 -0.44803153944E+03  0.19520621058E+04  0.10100000352E+00 0.  1.
       -3    1    3    3    0  502 -0.18341528410E+04  0.49567887837E+03 -0.35904654284E+03  0.19335792264E+04  0.10100000352E+00 0. -1.
</event>
<event>
 5   0  0.4071750E-09  0.3816364E+04  0.7818609E-02  0.8042652E-01
       -1   -1    0    0    0  501  0.00000000000E+00  0.00000000000E+00  0.30933821566E+04  0.30933821566E+04  0.50400001928E-02 0.  1.
        1   -1    0    0  501    0  0.00000000000E+00  0.00000000000E+00 -0.11770800108E+04  0.11770800108E+04  0.50400001928E-02 0. -1.
    10030    2    1    2    0    0  0.00000000000E+00  0.00000000000E+00  0.19163021458E+04  0.42704621675E+04  0.38163638728E+04 0.  0.
        3    1    3    3  502    0 -0.69871011563E+03 -0.16890560528E+04  0.34520332953E+03  0.18601805085E+04  0.10100000352E+00 0. -1.
       -3    1    3    3    0  502  0.69871011563E+03  0.16890560528E+04  0.15710988163E+04  0.24102816590E+04  0.10100000352E+00 0.  1.
</event>
<event>
 5   0  0.4071750E-09  0.3792768E+04  0.7818609E-02  0.8047709E-01
       -1   -1    0    0    0  501  0.00000000000E+00  0.00000000000E+00  0.23083504928E+04  0.23083504928E+04  0.50400001928E-02 0. -1.
        1   -1    0    0  501    0  0.00000000000E+00  0.00000000000E+00 -0.15579406935E+04  0.15579406935E+04  0.50400001928E-02 0.  1.
    10030    2    1    2    0    0  0.00000000000E+00  0.00000000000E+00  0.75040979934E+03  0.38662911863E+04  0.37927684704E+04 0.  0.
        3    1    3    3  502    0 -0.14606702941E+04 -0.12057686728E+04  0.27937535371E+03  0.19145460033E+04  0.10100000352E+00 0. -1.
       -3    1    3    3    0  502  0.14606702941E+04  0.12057686728E+04  0.47103444562E+03  0.19517451830E+04  0.10100000352E+00 0.  1.
</event>
<event>
 5   0  0.4071750E-09  0.3800566E+04  0.7818609E-02  0.8046033E-01
        1   -1    0    0  501    0  0.00000000000E+00  0.00000000000E+00  0.13896111737E+04  0.13896111737E+04  0.50400001928E-02 0. -1.
       -1   -1    0    0    0  501  0.00000000000E+00  0.00000000000E+00 -0.25986227604E+04  0.25986227604E+04  0.50400001928E-02 0.  1.
    10030    2    1    2    0    0  0.00000000000E+00  0.00000000000E+00 -0.12090115867E+04  0.39882339341E+04  0.38005658653E+04 0.  0.
        5    1    3    3  502    0 -0.46147576919E+03  0.72928581976E+03  0.11720886192E+04  0.14555519618E+04  0.46999998093E+01 0. -1.
       -5    1    3    3    0  502  0.46147576919E+03 -0.72928581976E+03 -0.23811002059E+04  0.25326819723E+04  0.46999998093E+01 0.  1.
</event>
<event>
 5   0  0.4071750E-09  0.3794654E+04  0.7818609E-02  0.8047303E-01
       -1   -1    0    0    0  501  0.00000000000E+00  0.00000000000E+00  0.14458149169E+04  0.14458149169E+04  0.50400001928E-02 0.  1.
        1   -1    0    0  501    0  0.00000000000E+00  0.00000000000E+00 -0.24898416202E+04  0.24898416202E+04  0.50400001928E-02 0. -1.
    10030    2    1    2    0    0  0.00000000000E+00  0.00000000000E+00 -0.10440267033E+04  0.39356565372E+04  0.37946542163E+04 0.  0.
        3    1    3    3  502    0 -0.27419032597E+03 -0.48367294039E+03 -0.24034566230E+04  0.24669259407E+04  0.10100000352E+00 0. -1.
       -3    1    3    3    0  502  0.27419032597E+03  0.48367294039E+03  0.13594299197E+04  0.14687305964E+04  0.10100000352E+00 0.  1.
</event>
<event>
 5   0  0.1261152E-08  0.3800911E+04  0.7818609E-02  0.8045959E-01
       -2   -1    0    0    0  501  0.00000000000E+00  0.00000000000E+00  0.12347748562E+04  0.12347748562E+04  0.25500000920E-02 0.  1.
        2   -1    0    0  501    0  0.00000000000E+00  0.00000000000E+00 -0.29250122042E+04  0.29250122042E+04  0.25500000920E-02 0. -1.
    10030    2    1    2    0    0  0.00000000000E+00  0.00000000000E+00 -0.16902373480E+04  0.41597870603E+04  0.38009112190E+04 0.  0.
        2    1    3    3  502    0  0.32416171654E+03  0.59534442306E+03  0.10979642697E+04  0.12903648081E+04  0.25500000920E-02 0.  1.
       -2    1    3    3    0  502 -0.32416171654E+03 -0.59534442306E+03 -0.27882016177E+04  0.28694222522E+04  0.25500000920E-02 0. -1.
</event>
<event>
 5   0  0.1305088E-08  0.3794532E+04  0.7818609E-02  0.8047329E-01
        2   -1    0    0  501    0  0.00000000000E+00  0.00000000000E+00  0.16789918357E+04  0.16789918357E+04  0.25500000920E-02 0. -1.
       -2   -1    0    0    0  501  0.00000000000E+00  0.00000000000E+00 -0.21439163711E+04  0.21439163711E+04  0.25500000920E-02 0.  1.
    10030    2    1    2    0    0  0.00000000000E+00  0.00000000000E+00 -0.46492453538E+03  0.38229082069E+04  0.37945318993E+04 0.  0.
        3    1    3    3  502    0  0.18456962161E+04 -0.41504018121E+03 -0.37764123819E+03  0.19291101029E+04  0.10100000352E+00 0. -1.
       -3    1    3    3    0  502 -0.18456962161E+04  0.41504018121E+03 -0.87283297184E+02  0.18937981039E+04  0.10100000352E+00 0.  1.
</event>
<event>
 5   0  0.4071750E-09  0.3800069E+04  0.7818609E-02  0.8046140E-01
       -1   -1    0    0    0  501  0.00000000000E+00  0.00000000000E+00  0.21851814738E+04  0.21851814738E+04  0.50400001928E-02 0.  1.
        1   -1    0    0  501    0  0.00000000000E+00  0.00000000000E+00 -0.16520968442E+04  0.16520968442E+04  0.50400001928E-02 0. -1.
    10030    2    1    2    0    0  0.00000000000E+00  0.00000000000E+00  0.53308462965E+03  0.38372783180E+04  0.38000691662E+04 0.  0.
        3    1    3    3  502    0 -0.10588272515E+04  0.10573819589E+04 -0.91580245601E+03  0.17543847651E+04  0.10100000352E+00 0. -1.
       -3    1    3    3    0  502  0.10588272515E+04 -0.10573819589E+04  0.14488870857E+04  0.20828935529E+04  0.10100000352E+00 0.  1.
</event>
<event>
 5   0  0.4071750E-09  0.3797628E+04  0.7818609E-02  0.8046664E-01
       -1   -1    0    0    0  501  0.00000000000E+00  0.00000000000E+00  0.30772582219E+04  0.30772582219E+04  0.50400001928E-02 0.  1.
        1   -1    0    0  501    0  0.00000000000E+00  0.00000000000E+00 -0.11716580491E+04  0.11716580491E+04  0.50400001928E-02 0. -1.
    10030    2    1    2    0    0  0.00000000000E+00  0.00000000000E+00  0.19056001728E+04  0.42489162711E+04  0.37976278727E+04 0.  0.
        2    1    3    3  502    0  0.14103534804E+04 -0.82297187234E+03 -0.13143907977E+03  0.16381867641E+04  0.25500000920E-02 0. -1.
       -2    1    3    3    0  502 -0.14103534804E+04  0.82297187234E+03  0.20370392526E+04  0.26107295070E+04  0.25500000920E-02 0.  1.
</event>
<event>
 5   0  0.1261152E-08  0.3804842E+04  0.7818609E-02  0.8045117E-01
       -2   -1    0    0    0  501  0.00000000000E+00  0.00000000000E+00  0.15314096460E+04  0.15314096460E+04  0.25500000920E-02 0.  1.
        2   -1    0    0  501    0  0.00000000000E+00  0.00000000000E+00 -0.23633167437E+04  0.23633167437E+04  0.25500000920E-02 0. -1.
    10030    2    1    2    0    0  0.00000000000E+00  0.00000000000E+00 -0.83190709775E+03  0.38947263897E+04  0.38048422085E+04 0.  0.
        2    1    3    3  502    0  0.15595342054E+04 -0.10148438929E+04 -0.82174123824E+03  0.20340387723E+04  0.25500000920E-02 0.  1.
       -2    1    3    3    0  502 -0.15595342054E+04  0.10148438929E+04 -0.10165859511E+02  0.18606876174E+04  0.25500000920E-02 0. -1.
</event>
<event>
 5   0  0.4071750E-09  0.3800476E+04  0.7818609E-02  0.8046053E-01
        1   -1    0    0  501    0  0.00000000000E+00  0.00000000000E+00  0.16449017478E+04  0.16449017478E+04  0.50400001928E-02 0. -1.
       -1   -1    0    0    0  501  0.00000000000E+00  0.00000000000E+00 -0.21952101864E+04  0.21952101864E+04  0.50400001928E-02 0.  1.
    10030    2    1    2    0    0  0.00000000000E+00  0.00000000000E+00 -0.55030843857E+03  0.38401119342E+04  0.38004763241E+04 0.  0.
        4    1    3    3  502    0 -0.14894497986E+04  0.11799884325E+04 -0.26669697544E+03  0.19188439992E+04  0.12699999809E+01 0.  1.
       -4    1    3    3    0  502  0.14894497986E+04 -0.11799884325E+04 -0.28361146312E+03  0.19212679351E+04  0.12699999809E+01 0. -1.
</event>
<event>
 5   0  0.1327249E-08  0.3803306E+04  0.7818609E-02  0.8045446E-01
       -2   -1    0    0    0  501  0.00000000000E+00  0.00000000000E+00  0.17602750919E+04  0.17602750919E+04  0.25500000920E-02 0.  1.
        2   -1    0    0  501    0  0.00000000000E+00  0.00000000000E+00 -0.20543854878E+04  0.20543854878E+04  0.25500000920E-02 0. -1.
    10030    2    1    2    0    0  0.00000000000E+00  0.00000000000E+00 -0.29411039590E+03  0.38146605798E+04  0.38033057219E+04 0.  0.
        1    1    3    3  502    0  0.20615617506E+03  0.17827398876E+04 -0.77791772682E+03  0.19559698017E+04  0.50400001928E-02 0. -1.
       -1    1    3    3    0  502 -0.20615617506E+03 -0.17827398876E+04  0.48380733092E+03  0.18586907781E+04  0.50400001928E-02 0.  1.
</event>
<event>
 5   0  0.4071750E-09  0.3799922E+04  0.7818609E-02  0.8046172E-01
       -1   -1    0    0    0  501  0.00000000000E+00  0.00000000000E+00  0.22446563279E+04  0.22446563279E+04  0.50400001928E-02 0.  1.
        1   -1    0    0  501    0  0.00000000000E+00  0.00000000000E+00 -0.16081983521E+04  0.16081983521E+04  0.50400001928E-02 0. -1.
    10030    2    1    2    0    0  0.00000000000E+00  0.00000000000E+00  0.63645797584E+03  0.38528546800E+04  0.37999224243E+04 0.  0.
        4    1    3    3  502    0  0.57050782505E+03  0.15585575639E+03 -0.15124916620E+04  0.16240082622E+04  0.12699999809E+01 0. -1.
       -4    1    3    3    0  502 -0.57050782505E+03 -0.15585575639E+03  0.21489496378E+04  0.22288464178E+04  0.12699999809E+01 0.  1.
</event>
<event>
 5   0  0.4071750E-09  0.3798335E+04  0.7818609E-02  0.8046512E-01
        1   -1    0    0  501    0  0.00000000000E+00  0.00000000000E+00  0.24368270173E+04  0.24368270173E+04  0.50400001928E-02 0. -1.
       -1   -1    0    0    0  501  0.00000000000E+00  0.00000000000E+00 -0.14801368561E+04  0.14801368561E+04  0.50400001928E-02 0.  1.
    10030    2    1    2    0    0  0.00000000000E+00  0.00000000000E+00  0.95669016124E+03  0.39169638734E+04  0.37983351512E+04 0.  0.
        3    1    3    3  502    0 -0.12145697628E+04  0.45952953214E+03 -0.95075403453E+03  0.16094347902E+04  0.10100000352E+00 0.  1.
       -3    1    3    3    0  502  0.12145697628E+04 -0.45952953214E+03  0.19074441958E+04  0.23075290832E+04  0.10100000352E+00 0. -1.
</event>
<event>
 5   0  0.4071750E-09  0.3799239E+04  0.7818609E-02  0.8046318E-01
        1   -1    0    0  501    0  0.00000000000E+00  0.00000000000E+00  0.23240629794E+04  0.23240629794E+04  0.50400001928E-02 0. -1.
       -1   -1    0    0    0  501  0.00000000000E+00  0.00000000000E+00 -0.15526922150E+04  0.15526922150E+04  0.50400001928E-02 0.  1.
    10030    2    1    2    0    0  0.00000000000E+00  0.00000000000E+00  0.77137076433E+03  0.38767551944E+04  0.37992391319E+04 0.  0.
        2    1    3    3  502    0  0.25269911212E+03  0.19109979672E+02  0.23067367327E+04  0.23206155189E+04  0.25500000920E-02 0. -1.
       -2    1    3    3    0  502 -0.25269911212E+03 -0.19109979672E+02 -0.15353659684E+04  0.15561396755E+04  0.25500000920E-02 0.  1.
</event>
<event>
 5   0  0.1327249E-08  0.3801817E+04  0.7818609E-02  0.8045765E-01
       -2   -1    0    0    0  501  0.00000000000E+00  0.00000000000E+00  0.18923238706E+04  0.18923238706E+04  0.25500000920E-02 0. -1.
        2   -1    0    0  501    0  0.00000000000E+00  0.00000000000E+00 -0.19095319191E+04  0.19095319191E+04  0.25500000920E-02 0.  1.
    10030    2    1    2    0    0  0.00000000000E+00  0.00000000000E+00 -0.17208048579E+02  0.38018557897E+04  0.38018168458E+04 0.  0.
        1    1    3    3  502    0 -0.17545728065E+04 -0.32695348031E+03 -0.66284961260E+03  0.19038891565E+04  0.50400001928E-02 0.  1.
       -1    1    3    3    0  502  0.17545728065E+04  0.32695348031E+03  0.64564156402E+03  0.18979666332E+04  0.50400001928E-02 0. -1.
</event>
<event>
 5   0  0.1293993E-08  0.3800367E+04  0.7818609E-02  0.8046076E-01
       -2   -1    0    0    0  501  0.00000000000E+00  0.00000000000E+00  0.16835202294E+04  0.16835202294E+04  0.25500000920E-02 0.  1.
        2   -1    0    0  501    0  0.00000000000E+00  0.00000000000E+00 -0.21447308001E+04  0.21447308001E+04  0.25500000920E-02 0. -1.
    10030    2    1    2    0    0  0.00000000000E+00  0.00000000000E+00 -0.46121057069E+03  0.38282510295E+04  0.38003671868E+04 0.  0.
        5    1    3    3  502    0  0.39651046709E+01 -0.18162841566E+04  0.33185675898E+03  0.18463626020E+04  0.46999998093E+01 0.  1.
       -5    1    3    3    0  502 -0.39651046709E+01  0.18162841566E+04 -0.79306732968E+03  0.19818884275E+04  0.46999998093E+01 0. -1.
</event>
<event>
 5   0  0.4071750E-09  0.3792295E+04  0.7818609E-02  0.8047810E-01
       -1   -1    0    0    0  501  0.00000000000E+00  0.00000000000E+00  0.20911988500E+04  0.20911988501E+04  0.50400001928E-02 0. -1.
        1   -1    0    0  501    0  0.00000000000E+00  0.00000000000E+00 -0.17192894792E+04  0.17192894792E+04  0.50400001928E-02 0.  1.
    10030    2    1    2    0    0  0.00000000000E+00  0.00000000000E+00  0.37190937081E+03  0.38104883293E+04  0.37922954431E+04 0.  0.
        5    1    3    3  502    0  0.19854204819E+03 -0.18854276374E+04  0.15266310801E+03  0.19019948568E+04  0.46999998093E+01 0. -1.
       -5    1    3    3    0  502 -0.19854204819E+03  0.18854276374E+04  0.21924626280E+03  0.19084934725E+04  0.46999998093E+01 0.  1.
</event>
<event>
 5   0  0.1264013E-08  0.3793747E+04  0.7818609E-02  0.8047498E-01
        2   -1    0    0  501    0  0.00000000000E+00  0.00000000000E+00  0.21130521248E+04  0.21130521248E+04  0.25500000920E-02 0. -1.
       -2   -1    0    0    0  501  0.00000000000E+00  0.00000000000E+00 -0.17028112357E+04  0.17028112357E+04  0.25500000920E-02 0.  1.
    10030    2    1    2    0    0  0.00000000000E+00  0.00000000000E+00  0.41024088912E+03  0.38158633605E+04  0.37937469076E+04 0.  0.
        4    1    3    3  502    0 -0.10372876081E+03  0.21877666504E+03 -0.16872043897E+04  0.17044891171E+04  0.12699999809E+01 0.  1.
       -4    1    3    3    0  502  0.10372876081E+03 -0.21877666504E+03  0.20974452788E+04  0.21113742433E+04  0.12699999809E+01 0. -1.
</event>
<event>
 5   0  0.4071750E-09  0.3799575E+04  0.7818609E-02  0.8046246E-01
        1   -1    0    0  501    0  0.00000000000E+00  0.00000000000E+00  0.11574301879E+04  0.11574301879E+04  0.50400001928E-02 0.  1.
       -1   -1    0    0    0  501  0.00000000000E+00  0.00000000000E+00 -0.31182808637E+04  0.31182808637E+04  0.50400001928E-02 0. -1.
    10030    2    1    2    0    0  0.00000000000E+00  0.00000000000E+00 -0.19608506758E+04  0.42757110516E+04  0.37995749268E+04 0.  0.
        1    1    3    3  502    0 -0.90184160953E+03 -0.50736852350E+03  0.81248162175E+03  0.13156243738E+04  0.50400001928E-02 0.  1.
       -1    1    3    3    0  502  0.90184160953E+03  0.50736852350E+03 -0.27733322976E+04  0.29600866778E+04  0.50400001928E-02 0. -1.
</event>
<event>
 5   0  0.4071750E-09  0.3801409E+04  0.7818609E-02  0.8045853E-01
        1   -1    0    0  501    0  0.00000000000E+00  0.00000000000E+00  0.22512584778E+04  0.22512584778E+04  0.50400001928E-02 0. -1.
       -1   -1    0    0    0  501  0.00000000000E+00  0.00000000000E+00 -0.16047366323E+04  0.16047366323E+04  0.50400001928E-02 0.  1.
    10030    2    1    2    0    0  0.00000000000E+00  0.00000000000E+00  0.64652184548E+03  0.38559951101E+04  0.38014086590E+04 0.  0.
        5    1    3    3  502    0  0.14728640050E+04 -0.62745909940E+03  0.13624828131E+04  0.21022404250E+04  0.46999998093E+01 0. -1.
       -5    1    3    3    0  502 -0.14728640050E+04  0.62745909940E+03 -0.71596096759E+03  0.17537546851E+04  0.46999998093E+01 0.  1.
</event>
<event>
 5   0  0.4071750E-09  0.3807136E+04  0.7818609E-02  0.8044625E-01
        1   -1    0    0  501    0  0.00000000000E+00  0.00000000000E+00  0.27714063150E+04  0.27714063150E+04  0.50400001928E-02 0.  1.
       -1   -1    0    0    0  501  0.00000000000E+00  0.00000000000E+00 -0.13074843021E+04  0.13074843021E+04  0.50400001928E-02 0. -1.
    10030    2    1    2    0    0  0.00000000000E+00  0.00000000000E+00  0.14639220129E+04  0.40788906171E+04  0.38071355382E+04 0.  0.
        2    1    3    3  502    0  0.34547106028E+03  0.90851114580E+03 -0.10215806797E+04  0.14100956849E+04  0.25500000920E-02 0. -1.
       -2    1    3    3    0  502 -0.34547106028E+03 -0.90851114580E+03  0.24855026925E+04  0.26687949322E+04  0.25500000920E-02 0.  1.
</event>
<event>
 5   0  0.4071750E-09  0.3799293E+04  0.7818609E-02  0.8046307E-01
        1   -1    0    0  501    0  0.00000000000E+00  0.00000000000E+00  0.25023093215E+04  0.25023093215E+04  0.50400001928E-02 0.  1.
       -1   -1    0    0    0  501  0.00000000000E+00  0.00000000000E+00 -0.14421306916E+04  0.14421306917E+04  0.50400001928E-02 0. -1.
    10030    2    1    2    0    0  0.00000000000E+00  0.00000000000E+00  0.10601786298E+04  0.39444400132E+04  0.37992931303E+04 0.  0.
        2    1    3    3  502    0 -0.57915669831E+03  0.16996431394E+04 -0.11363696248E+03  0.17992005563E+04  0.25500000920E-02 0. -1.
       -2    1    3    3    0  502  0.57915669831E+03 -0.16996431394E+04  0.11738155923E+04  0.21452394569E+04  0.25500000920E-02 0.  1.
</event>
<event>
 5   0  0.4071750E-09  0.3803842E+04  0.7818609E-02  0.8045331E-01
       -3   -1    0    0    0  501  0.00000000000E+00  0.00000000000E+00  0.17188819533E+04  0.17188819563E+04  0.10100000352E+00 0.  1.
        3   -1    0    0  501    0  0.00000000000E+00  0.00000000000E+00 -0.21044517200E+04  0.21044517225E+04  0.10100000352E+00 0. -1.
    10030    2    1    2    0    0  0.00000000000E+00  0.00000000000E+00 -0.38556976670E+03  0.38233336788E+04  0.38038423172E+04 0.  0.
        4    1    3    3  502    0 -0.54464933240E+03  0.30337710157E+03  0.16132589737E+04  0.17295336626E+04  0.12699999809E+01 0.  1.
       -4    1    3    3    0  502  0.54464933240E+03 -0.30337710157E+03 -0.19988287404E+04  0.20938000161E+04  0.12699999809E+01 0. -1.
</event>
<event>
 5   0  0.4071750E-09  0.3804207E+04  0.7818609E-02  0.8045253E-01
       -3   -1    0    0    0  501  0.00000000000E+00  0.00000000000E+00  0.23005820917E+04  0.23005820939E+04  0.10100000352E+00 0.  1.
        3   -1    0    0  501    0  0.00000000000E+00  0.00000000000E+00 -0.15726445402E+04  0.15726445434E+04  0.10100000352E+00 0. -1.
    10030    2    1    2    0    0  0.00000000000E+00  0.00000000000E+00  0.72793755151E+03  0.38732266374E+04  0.38042070797E+04 0.  0.
        2    1    3    3  502    0 -0.17066811963E+04 -0.60204635934E+03 -0.23212531989E+03  0.18245828807E+04  0.25500000920E-02 0. -1.
       -2    1    3    3    0  502  0.17066811963E+04  0.60204635934E+03  0.96006287140E+03  0.20486437566E+04  0.25500000920E-02 0.  1.
</event>
<event>
 5   0  0.4071750E-09  0.3811104E+04  0.7818609E-02  0.8043776E-01
        1   -1    0    0  501    0  0.00000000000E+00  0.00000000000E+00  0.23698218033E+04  0.23698218033E+04  0.50400001928E-02 0. -1.
       -1   -1    0    0    0  501  0.00000000000E+00  0.00000000000E+00 -0.15322370383E+04  0.15322370383E+04  0.50400001928E-02 0.  1.
    10030    2    1    2    0    0  0.00000000000E+00  0.00000000000E+00  0.83758476508E+03  0.39020588416E+04  0.38111041661E+04 0.  0.
        2    1    3    3  502    0  0.14409654881E+04 -0.49247000665E+01  0.16954354750E+04  0.22250634239E+04  0.25500000920E-02 0. -1.
       -2    1    3    3    0  502 -0.14409654881E+04  0.49247000665E+01 -0.85785070989E+03  0.16769954177E+04  0.25500000920E-02 0.  1.
</event>
<event>
 5   0  0.4071750E-09  0.3800481E+04  0.7818609E-02  0.8046052E-01
        1   -1    0    0  501    0  0.00000000000E+00  0.00000000000E+00  0.22845634705E+04  0.22845634705E+04  0.50400001928E-02 0.  1.
       -1   -1    0    0    0  501  0.00000000000E+00  0.00000000000E+00 -0.15805703385E+04  0.15805703385E+04  0.50400001928E-02 0. -1.
    10030    2    1    2    0    0  0.00000000000E+00  0.00000000000E+00  0.70399313193E+03  0.38651338090E+04  0.38004806317E+04 0.  0.
        2    1    3    3  502    0 -0.48214764262E+03  0.32397510205E+03  0.21920537632E+04  0.22677138084E+04  0.25500000920E-02 0.  1.
       -2    1    3    3    0  502  0.48214764262E+03 -0.32397510205E+03 -0.14880606313E+04  0.15974200006E+04  0.25500000920E-02 0. -1.
</event>
<event>
 5   0  0.4071750E-09  0.3800320E+04  0.7818609E-02  0.8046086E-01
        1   -1    0    0  501    0  0.00000000000E+00  0.00000000000E+00  0.28275017183E+04  0.28275017183E+04  0.50400001928E-02 0.  1.
       -1   -1    0    0    0  501  0.00000000000E+00  0.00000000000E+00 -0.12769603259E+04  0.12769603259E+04  0.50400001928E-02 0. -1.
    10030    2    1    2    0    0  0.00000000000E+00  0.00000000000E+00  0.15505413925E+04  0.41044620442E+04  0.38003197316E+04 0.  0.
        2    1    3    3  502    0 -0.41801016209E+02  0.14508090079E+04 -0.54925980013E+03  0.15518635347E+04  0.25500000920E-02 0. -1.
       -2    1    3    3    0  502  0.41801016209E+02 -0.14508090079E+04  0.20998011926E+04  0.25525985095E+04  0.25500000920E-02 0.  1.
</event>
<event>
 5   0  0.1327249E-08  0.3800882E+04  0.7818609E-02  0.8045966E-01
        2   -1    0    0  501    0  0.00000000000E+00  0.00000000000E+00  0.15374728147E+04  0.15374728147E+04  0.25500000920E-02 0. -1.
       -2   -1    0    0    0  501  0.00000000000E+00  0.00000000000E+00 -0.23490988456E+04  0.23490988456E+04  0.25500000920E-02 0.  1.
    10030    2    1    2    0    0  0.00000000000E+00  0.00000000000E+00 -0.81162603087E+03  0.38865716603E+04  0.38008817999E+04 0.  0.
        1    1    3    3  502    0 -0.63576468538E+03 -0.32858806899E+03 -0.22060461443E+04  0.23192253976E+04  0.50400001928E-02 0.  1.
       -1    1    3    3    0  502  0.63576468538E+03  0.32858806899E+03  0.13944201134E+04  0.15673462626E+04  0.50400001928E-02 0. -1.
</event>
<event>
 5   0  0.4071750E-09  0.3801823E+04  0.7818609E-02  0.8045764E-01
        1   -1    0    0  501    0  0.00000000000E+00  0.00000000000E+00  0.16901503534E+04  0.16901503534E+04  0.50400001928E-02 0.  1.
       -1   -1    0    0    0  501  0.00000000000E+00  0.00000000000E+00 -0.21379540359E+04  0.21379540359E+04  0.50400001928E-02 0. -1.
    10030    2    1    2    0    0  0.00000000000E+00  0.00000000000E+00 -0.44780368253E+03  0.38281043892E+04  0.38018225993E+04 0.  0.
        5    1    3    3  502    0 -0.10394840543E+04  0.15875804714E+04 -0.11131282324E+03  0.19008817657E+04  0.46999998093E+01 0.  1.
       -5    1    3    3    0  502  0.10394840543E+04 -0.15875804714E+04 -0.33649085929E+03  0.19272226236E+04  0.46999998093E+01 0. -1.
</event>
<event>
 5   0  0.4071750E-09  0.3799767E+04  0.7818609E-02  0.8046205E-01
       -1   -1    0    0    0  501  0.00000000000E+00  0.00000000000E+00  0.32472536049E+04  0.32472536049E+04  0.50400001928E-02 0.  1.
        1   -1    0    0  501    0  0.00000000000E+00  0.00000000000E+00 -0.11115722656E+04  0.11115722656E+04  0.50400001928E-02 0. -1.
    10030    2    1    2    0    0  0.00000000000E+00  0.00000000000E+00  0.21356813393E+04  0.43588258705E+04  0.37997668595E+04 0.  0.
        2    1    3    3  502    0  0.76907085767E+03  0.17243263365E+03 -0.91518617846E+03  0.12077949903E+04  0.25500000920E-02 0. -1.
       -2    1    3    3    0  502 -0.76907085767E+03 -0.17243263365E+03  0.30508675177E+04  0.31510308802E+04  0.25500000920E-02 0.  1.
</event>
<event>
 5   0  0.4071750E-09  0.3798938E+04  0.7818609E-02  0.8046383E-01
       -1   -1    0    0    0  501  0.00000000000E+00  0.00000000000E+00  0.12984396438E+04  0.12984396438E+04  0.50400001928E-02 0.  1.
        1   -1    0    0  501    0  0.00000000000E+00  0.00000000000E+00 -0.27787066762E+04  0.27787066762E+04  0.50400001928E-02 0. -1.
    10030    2    1    2    0    0  0.00000000000E+00  0.00000000000E+00 -0.14802670324E+04  0.40771463200E+04  0.37989382237E+04 0.  0.
        1    1    3    3  502    0 -0.11951499466E+04  0.27433163690E+03 -0.22970029542E+04  0.26038171621E+04  0.50400001928E-02 0. -1.
       -1    1    3    3    0  502  0.11951499466E+04 -0.27433163690E+03  0.81673592177E+03  0.14733291580E+04  0.50400001928E-02 0.  1.
</event>
<event>
 5   0  0.1293993E-08  0.3795655E+04  0.7818609E-02  0.8047088E-01
       -2   -1    0    0    0  501  0.00000000000E+00  0.00000000000E+00  0.22629346397E+04  0.22629346397E+04  0.25500000920E-02 0. -1.
        2   -1    0    0  501    0  0.00000000000E+00  0.00000000000E+00 -0.15916278780E+04  0.15916278780E+04  0.25500000920E-02 0.  1.
    10030    2    1    2    0    0  0.00000000000E+00  0.00000000000E+00  0.67130676177E+03  0.38545625177E+04  0.37956553366E+04 0.  0.
        5    1    3    3  502    0 -0.74340069423E+03 -0.14822745696E+04 -0.60168019525E+03  0.17640361786E+04  0.46999998093E+01 0.  1.
       -5    1    3    3    0  502  0.74340069423E+03  0.14822745696E+04  0.12729869570E+04  0.20905263391E+04  0.46999998093E+01 0. -1.
</event>
<event>
 5   0  0.1293993E-08  0.3800087E+04  0.7818609E-02  0.8046136E-01
        2   -1    0    0  501    0  0.00000000000E+00  0.00000000000E+00  0.16393140915E+04  0.16393140915E+04  0.25500000920E-02 0.  1.
       -2   -1    0    0    0  501  0.00000000000E+00  0.00000000000E+00 -0.22022418735E+04  0.22022418735E+04  0.25500000920E-02 0. -1.
    10030    2    1    2    0    0  0.00000000000E+00  0.00000000000E+00 -0.56292778203E+03  0.38415559650E+04  0.38000874390E+04 0.  0.
        5    1    3    3  502    0 -0.68051769370E+03 -0.14515589566E+04 -0.13124045071E+04  0.20718483091E+04  0.46999998093E+01 0. -1.
       -5    1    3    3    0  502  0.68051769370E+03  0.14515589566E+04  0.74947672506E+03  0.17697076559E+04  0.46999998093E+01 0.  1.
</event>
<event>
 5   0  0.1264013E-08  0.3805750E+04  0.7818609E-02  0.8044922E-01
        2   -1    0    0  501    0  0.00000000000E+00  0.00000000000E+00  0.13632153668E+04  0.13632153668E+04  0.25500000920E-02 0. -1.
       -2   -1    0    0    0  501  0.00000000000E+00  0.00000000000E+00 -0.26561706641E+04  0.26561706641E+04  0.25500000920E-02 0.  1.
    10030    2    1    2    0    0  0.00000000000E+00  0.00000000000E+00 -0.12929552972E+04  0.40193860309E+04  0.38057496850E+04 0.  0.
        4    1    3    3  502    0 -0.99152840334E+03 -0.70925380636E+03 -0.21895780397E+04  0.25060772417E+04  0.12699999809E+01 0.  1.
       -4    1    3    3    0  502  0.99152840334E+03  0.70925380636E+03  0.89662274245E+03  0.15133087893E+04  0.12699999809E+01 0. -1.
</event>
<event>
 5   0  0.4071750E-09  0.3799488E+04  0.7818609E-02  0.8046265E-01
        1   -1    0    0  501    0  0.00000000000E+00  0.00000000000E+00  0.16846951574E+04  0.16846951574E+04  0.50400001928E-02 0.  1.
       -1   -1    0    0    0  501  0.00000000000E+00  0.00000000000E+00 -0.21422431847E+04  0.21422431847E+04  0.50400001928E-02 0. -1.
    10030    2    1    2    0    0  0.00000000000E+00  0.00000000000E+00 -0.45754802726E+03  0.38269383421E+04  0.37994877124E+04 0.  0.
        5    1    3    3  502    0 -0.36371736650E+03  0.11899984428E+04  0.12170824030E+04  0.17406028503E+04  0.46999998093E+01 0.  1.
       -5    1    3    3    0  502  0.36371736650E+03 -0.11899984428E+04 -0.16746304303E+04  0.20863354918E+04  0.46999998093E+01 0. -1.
</event>
<event>
 5   0  0.1261152E-08  0.3800617E+04  0.7818609E-02  0.8046022E-01
        2   -1    0    0  501    0  0.00000000000E+00  0.00000000000E+00  0.30737581896E+04  0.30737581896E+04  0.25500000920E-02 0.  1.
       -2   -1    0    0    0  501  0.00000000000E+00  0.00000000000E+00 -0.11748396408E+04  0.11748396408E+04  0.25500000920E-02 0. -1.
    10030    2    1    2    0    0  0.00000000000E+00  0.00000000000E+00  0.18989185488E+04  0.42485978305E+04  0.38006173012E+04 0.  0.
        2    1    3    3  502    0  0.13118316719E+04 -0.13745393508E+04  0.91569652755E+03  0.21092085939E+04  0.25500000920E-02 0.  1.
       -2    1    3    3    0  502 -0.13118316719E+04  0.13745393508E+04  0.98322202125E+03  0.21393892365E+04  0.25500000920E-02 0. -1.
</event>
<event>
 5   0  0.4071750E-09  0.3799613E+04  0.7818609E-02  0.8046238E-01
       -1   -1    0    0    0  501  0.00000000000E+00  0.00000000000E+00  0.18975520204E+04  0.18975520204E+04  0.50400001928E-02 0.  1.
        1   -1    0    0  501    0  0.00000000000E+00  0.00000000000E+00 -0.19020633821E+04  0.19020633821E+04  0.50400001928E-02 0. -1.
    10030    2    1    2    0    0  0.00000000000E+00  0.00000000000E+00 -0.45113617014E+01  0.37996154026E+04  0.37996127244E+04 0.  0.
        2    1    3    3  502    0 -0.51450472603E+03 -0.24218763248E+03  0.18104491720E+04  0.18976554394E+04  0.25500000920E-02 0.  1.
       -2    1    3    3    0  502  0.51450472603E+03  0.24218763248E+03 -0.18149605337E+04  0.19019599631E+04  0.25500000920E-02 0. -1.
</event>
<event>
 5   0  0.1261152E-08  0.3801433E+04  0.7818609E-02  0.8045847E-01
        2   -1    0    0  501    0  0.00000000000E+00  0.00000000000E+00  0.23424559233E+04  0.23424559233E+04  0.25500000920E-02 0.  1.
       -2   -1    0    0    0  501  0.00000000000E+00  0.00000000000E+00 -0.15422799275E+04  0.15422799275E+04  0.25500000920E-02 0. -1.
    10030    2    1    2    0    0  0.00000000000E+00  0.00000000000E+00  0.80017599579E+03  0.38847358509E+04  0.38014327571E+04 0.  0.
        2    1    3    3  502    0 -0.16050042525E+04 -0.10126095604E+04  0.29142835470E+03  0.19199862651E+04  0.25500000920E-02 0. -1.
       -2    1    3    3    0  502  0.16050042525E+04  0.10126095604E+04  0.50874764109E+03  0.19647495857E+04  0.25500000920E-02 0.  1.
</event>
<event>
 5   0  0.4071750E-09  0.3799671E+04  0.7818609E-02  0.8046226E-01
       -1   -1    0    0    0  501  0.00000000000E+00  0.00000000000E+00  0.12185679085E+04  0.12185679085E+04  0.50400001928E-02 0. -1.
        1   -1    0    0  501    0  0.00000000000E+00  0.00000000000E+00 -0.29619805815E+04  0.29619805815E+04  0.50400001928E-02 0.  1.
    10030    2    1    2    0    0  0.00000000000E+00  0.00000000000E+00 -0.17434126730E+04  0.41805484900E+04  0.37996707659E+04 0.  0.
        5    1    3    3  502    0  0.23834575649E+03 -0.17095963195E+04  0.14599138067E+01  0.17261380294E+04  0.46999998093E+01 0. -1.
       -5    1    3    3    0  502 -0.23834575649E+03  0.17095963195E+04 -0.17448725868E+04  0.24544104606E+04  0.46999998093E+01 0.  1.
</event>
<event>
 5   0  0.1264013E-08  0.3799787E+04  0.7818609E-02  0.8046201E-01
       -2   -1    0    0    0  501  0.00000000000E+00  0.00000000000E+00  0.14794210530E+04  0.14794210530E+04  0.25500000920E-02 0. -1.
        2   -1    0    0  501    0  0.00000000000E+00  0.00000000000E+00 -0.24398700901E+04  0.24398700901E+04  0.25500000920E-02 0.  1.
    10030    2    1    2    0    0  0.00000000000E+00  0.00000000000E+00 -0.96044903705E+03  0.39192911431E+04  0.37997869298E+04 0.  0.
        4    1    3    3  502    0 -0.62939773206E+03 -0.92913396950E+03  0.11010133011E+04  0.15721524546E+04  0.12699999809E+01 0. -1.
       -4    1    3    3    0  502  0.62939773206E+03  0.92913396950E+03 -0.20614623382E+04  0.23471386885E+04  0.12699999809E+01 0.  1.
</event>
<event>
 5   0  0.4071750E-09  0.3799344E+04  0.7818609E-02  0.8046296E-01
       -1   -1    0    0    0  501  0.00000000000E+00  0.00000000000E+00  0.14124082754E+04  0.14124082754E+04  0.50400001928E-02 0. -1.
        1   -1    0    0  501    0  0.00000000000E+00  0.00000000000E+00 -0.25550355658E+04  0.25550355658E+04  0.50400001928E-02 0.  1.
    10030    2    1    2    0    0  0.00000000000E+00  0.00000000000E+00 -0.11426272904E+04  0.39674438411E+04  0.37993438259E+04 0.  0.
        1    1    3    3  502    0 -0.17024405665E+04  0.61514455051E+03  0.30416486601E+02  0.18104231172E+04  0.50400001928E-02 0.  1.
       -1    1    3    3    0  502  0.17024405665E+04 -0.61514455051E+03 -0.11730437770E+04  0.21570207239E+04  0.50400001928E-02 0. -1.
</event>
<event>
 5   0  0.4071750E-09  0.3808187E+04  0.7818609E-02  0.8044400E-01
       -1   -1    0    0    0  501  0.00000000000E+00  0.00000000000E+00  0.24517410788E+04  0.24517410788E+04  0.50400001928E-02 0.  1.
        1   -1    0    0  501    0  0.00000000000E+00  0.00000000000E+00 -0.14787744259E+04  0.14787744259E+04  0.50400001928E-02 0. -1.
    10030    2    1    2    0    0  0.00000000000E+00  0.00000000000E+00  0.97296665289E+03  0.39305155047E+04  0.38081869735E+04 0.  0.
        5    1    3    3  502    0 -0.10200694945E+04 -0.60201869506E+03 -0.10522384895E+04  0.15843598744E+04  0.46999998093E+01 0. -1.
       -5    1    3    3    0  502  0.10200694945E+04  0.60201869506E+03  0.20252051424E+04  0.23461556303E+04  0.46999998093E+01 0.  1.
</event>
<event>
 5   0  0.4071750E-09  0.3799967E+04  0.7818609E-02  0.8046162E-01
       -1   -1    0    0    0  501  0.00000000000E+00  0.00000000000E+00  0.31584379042E+04  0.31584379042E+04  0.50400001928E-02 0. -1.
        1   -1    0    0  501    0  0.00000000000E+00  0.00000000000E+00 -0.11429501734E+04  0.11429501734E+04  0.50400001928E-02 0.  1.
    10030    2    1    2    0    0  0.00000000000E+00  0.00000000000E+00  0.20154877309E+04  0.43013880776E+04  0.37999669211E+04 0.  0.
        1    1    3    3  502    0 -0.87852989262E+03 -0.15572590003E+04  0.28023389840E+03  0.18098070074E+04  0.50400001928E-02 0.  1.
       -1    1    3    3    0  502  0.87852989262E+03  0.15572590003E+04  0.17352538325E+04  0.24915810702E+04  0.50400001928E-02 0. -1.
</event>
<event>
 5   0  0.1261152E-08  0.3801055E+04  0.7818609E-02  0.8045929E-01
        2   -1    0    0  501    0  0.00000000000E+00  0.00000000000E+00  0.23972524279E+04  0.23972524279E+04  0.25500000920E-02 0.  1.
       -2   -1    0    0    0  501  0.00000000000E+00  0.00000000000E+00 -0.15067268056E+04  0.15067268056E+04  0.25500000920E-02 0. -1.
    10030    2    1    2    0    0  0.00000000000E+00  0.00000000000E+00  0.89052562224E+03  0.39039792335E+04  0.38010548499E+04 0.  0.
        2    1    3    3  502    0 -0.34583991627E+03 -0.11833886485E+04 -0.10402733285E+04  0.16131281843E+04  0.25500000920E-02 0. -1.
       -2    1    3    3    0  502  0.34583991627E+03  0.11833886485E+04  0.19307989508E+04  0.22908510492E+04  0.25500000920E-02 0.  1.
</event>
<event>
 5   0  0.1305088E-08  0.3799600E+04  0.7818609E-02  0.8046241E-01
        2   -1    0    0  501    0  0.00000000000E+00  0.00000000000E+00  0.18782104651E+04  0.18782104651E+04  0.25500000920E-02 0.  1.
       -2   -1    0    0    0  501  0.00000000000E+00  0.00000000000E+00 -0.19216373266E+04  0.19216373266E+04  0.25500000920E-02 0. -1.
    10030    2    1    2    0    0  0.00000000000E+00  0.00000000000E+00 -0.43426861528E+02  0.37998477918E+04  0.37995996300E+04 0.  0.
        3    1    3    3  502    0 -0.49443961334E+03  0.16186983825E+04 -0.88466279583E+03  0.19097861811E+04  0.10100000352E+00 0. -1.
       -3    1    3    3    0  502  0.49443961334E+03 -0.16186983825E+04  0.84123593431E+03  0.18900616107E+04  0.10100000352E+00 0.  1.
</event>
<event>
 5   0  0.4071750E-09  0.3801702E+04  0.7818609E-02  0.8045790E-01
       -1   -1    0    0    0  501  0.00000000000E+00  0.00000000000E+00  0.17905713918E+04  0.17905713918E+04  0.50400001928E-02 0.  1.
        1   -1    0    0  501    0  0.00000000000E+00  0.00000000000E+00 -0.20179222574E+04  0.20179222574E+04  0.50400001928E-02 0. -1.
    10030    2    1    2    0    0  0.00000000000E+00  0.00000000000E+00 -0.22735086559E+03  0.38084936492E+04  0.38017016532E+04 0.  0.
        5    1    3    3  502    0  0.18889097396E+04  0.10352560181E+03  0.72436508170E+02  0.18931367336E+04  0.46999998093E+01 0.  1.
       -5    1    3    3    0  502 -0.18889097396E+04 -0.10352560181E+03 -0.29978737376E+03  0.19153569156E+04  0.46999998093E+01 0. -1.
</event>
<event>
 5   0  0.1293993E-08  0.3788853E+04  0.7818609E-02  0.8048551E-01
        2   -1    0    0  501    0  0.00000000000E+00  0.00000000000E+00  0.28470643014E+04  0.28470643014E+04  0.25500000920E-02 0. -1.
       -2   -1    0    0    0  501  0.00000000000E+00  0.00000000000E+00 -0.12605443759E+04  0.12605443759E+04  0.25500000920E-02 0.  1.
    10030    2    1    2    0    0  0.00000000000E+00  0.00000000000E+00  0.15865199256E+04  0.41076086773E+04  0.37888525402E+04 0.  0.
        5    1    3    3  502    0 -0.77560881530E+02  0.15279182171E+04  0.20045194666E+04  0.25216403690E+04  0.46999998093E+01 0. -1.
       -5    1    3    3    0  502  0.77560881530E+02 -0.15279182171E+04 -0.41799954102E+03  0.15859683083E+04  0.46999998093E+01 0.  1.
</event>
<event>
 5   0  0.1293993E-08  0.3801041E+04  0.7818609E-02  0.8045932E-01
       -2   -1    0    0    0  501  0.00000000000E+00  0.00000000000E+00  0.16217529606E+04  0.16217529606E+04  0.25500000920E-02 0. -1.
        2   -1    0    0  501    0  0.00000000000E+00  0.00000000000E+00 -0.22272059507E+04  0.22272059507E+04  0.25500000920E-02 0.  1.
    10030    2    1    2    0    0  0.00000000000E+00  0.00000000000E+00 -0.60545299007E+03  0.38489589113E+04  0.38010408282E+04 0.  0.
        5    1    3    3  502    0 -0.77550834626E+03  0.13475244310E+04  0.80408558954E+03  0.17503745350E+04  0.46999998093E+01 0. -1.
       -5    1    3    3    0  502  0.77550834626E+03 -0.13475244310E+04 -0.14095385796E+04  0.20985843764E+04  0.46999998093E+01 0.  1.
</event>
<event>
 5   0  0.1293993E-08  0.3815223E+04  0.7818609E-02  0.8042896E-01
       -2   -1    0    0    0  501  0.00000000000E+00  0.00000000000E+00  0.14548454483E+04  0.14548454483E+04  0.25500000920E-02 0.  1.
        2   -1    0    0  501    0  0.00000000000E+00  0.00000000000E+00 -0.25012833910E+04  0.25012833910E+04  0.25500000920E-02 0. -1.
    10030    2    1    2    0    0  0.00000000000E+00  0.00000000000E+00 -0.10464379427E+04  0.39561288394E+04  0.38152225395E+04 0.  0.
        5    1    3    3  502    0 -0.85620511625E+02  0.91913612563E+03  0.12078116254E+04  0.15201885087E+04  0.46999998093E+01 0.  1.
       -5    1    3    3    0  502  0.85620511625E+02 -0.91913612563E+03 -0.22542495681E+04  0.24359403307E+04  0.46999998093E+01 0. -1.
</event>
<event>
 5   0  0.4071750E-09  0.3802733E+04  0.7818609E-02  0.8045569E-01
        1   -1    0    0  501    0  0.00000000000E+00  0.00000000000E+00  0.10301593676E+04  0.10301593676E+04  0.50400001928E-02 0.  1.
       -1   -1    0    0    0  501  0.00000000000E+00  0.00000000000E+00 -0.35093542063E+04  0.35093542063E+04  0.50400001928E-02 0. -1.
    10030    2    1    2    0    0  0.00000000000E+00  0.00000000000E+00 -0.24791948387E+04  0.45395135739E+04  0.38027327593E+04 0.  0.
        1    1    3    3  502    0  0.18263124341E+04 -0.36984423471E+03 -0.78818889590E+03  0.20232260379E+04  0.50400001928E-02 0. -1.
       -1    1    3    3    0  502 -0.18263124341E+04  0.36984423471E+03 -0.16910059428E+04  0.25162875359E+04  0.50400001928E-02 0.  1.
</event>
<event>
 5   0  0.1264013E-08  0.3797643E+04  0.7818609E-02  0.8046661E-01
        2   -1    0    0  501    0  0.00000000000E+00  0.00000000000E+00  0.19941299069E+04  0.19941299069E+04  0.25500000920E-02 0. -1.
       -2   -1    0    0    0  501  0.00000000000E+00  0.00000000000E+00 -0.18080684254E+04  0.18080684254E+04  0.25500000920E-02 0.  1.
    10030    2    1    2    0    0  0.00000000000E+00  0.00000000000E+00  0.18606148150E+03  0.38021983323E+04  0.37976431222E+04 0.  0.
        4    1    3    3  502    0  0.13810171173E+02 -0.12667101328E+04  0.15092154397E+04  0.19704005019E+04  0.12699999809E+01 0. -1.
       -4    1    3    3    0  502 -0.13810171173E+02  0.12667101328E+04 -0.13231539582E+04  0.18317978304E+04  0.12699999809E+01 0.  1.
</event>
<event>
 5   0  0.4071750E-09  0.3798449E+04  0.7818609E-02  0.8046488E-01
        1   -1    0    0  501    0  0.00000000000E+00  0.00000000000E+00  0.27538622903E+04  0.27538622903E+04  0.50400001928E-02 0.  1.
       -1   -1    0    0    0  501  0.00000000000E+00  0.00000000000E+00 -0.13098164150E+04  0.13098164150E+04  0.50400001928E-02 0. -1.
    10030    2    1    2    0    0  0.00000000000E+00  0.00000000000E+00  0.14440458753E+04  0.40636787054E+04  0.37984491744E+04 0.  0.
        1    1    3    3  502    0 -0.63124327736E+03 -0.74450842356E+03 -0.10209373330E+04  0.14124708514E+04  0.50400001928E-02 0. -1.
       -1    1    3    3    0  502  0.63124327736E+03  0.74450842356E+03  0.24649832083E+04  0.26512078540E+04  0.50400001928E-02 0.  1.
</event>
<event>
 5   0  0.4071750E-09  0.3802425E+04  0.7818609E-02  0.8045635E-01
       -1   -1    0    0    0  501  0.00000000000E+00  0.00000000000E+00  0.15107883428E+04  0.15107883428E+04  0.50400001928E-02 0. -1.
        1   -1    0    0  501    0  0.00000000000E+00  0.00000000000E+00 -0.23925316625E+04  0.23925316625E+04  0.50400001928E-02 0.  1.
    10030    2    1    2    0    0  0.00000000000E+00  0.00000000000E+00 -0.88174331967E+03  0.39033200052E+04  0.38024249870E+04 0.  0.
        3    1    3    3  502    0 -0.11768285986E+03  0.18524310214E+04 -0.18544146283E+02  0.18562580209E+04  0.10100000352E+00 0. -1.
       -3    1    3    3    0  502  0.11768285986E+03 -0.18524310214E+04 -0.86319917338E+03  0.20470619843E+04  0.10100000352E+00 0.  1.
</event>
<event>
 5   0  0.4071750E-09  0.3803812E+04  0.7818609E-02  0.8045337E-01
        1   -1    0    0  501    0  0.00000000000E+00  0.00000000000E+00  0.13497156445E+04  0.13497156445E+04  0.50400001928E-02 0. -1.
       -1   -1    0    0    0  501  0.00000000000E+00  0.00000000000E+00 -0.26800064864E+04  0.26800064864E+04  0.50400001928E-02 0.  1.
    10030    2    1    2    0    0  0.00000000000E+00  0.00000000000E+00 -0.13302908419E+04  0.40297221308E+04  0.38038121310E+04 0.  0.
        2    1    3    3  502    0  0.52287886178E+03 -0.11045022013E+04 -0.22090663108E+04  0.25245398357E+04  0.25500000920E-02 0.  1.
       -2    1    3    3    0  502 -0.52287886178E+03  0.11045022013E+04  0.87877546889E+03  0.15051822951E+04  0.25500000920E-02 0. -1.
</event>
<event>
 5   0  0.1264013E-08  0.3796192E+04  0.7818609E-02  0.8046973E-01
        2   -1    0    0  501    0  0.00000000000E+00  0.00000000000E+00  0.18054495296E+04  0.18054495296E+04  0.25500000920E-02 0. -1.
       -2   -1    0    0    0  501  0.00000000000E+00  0.00000000000E+00 -0.19954963876E+04  0.19954963876E+04  0.25500000920E-02 0.  1.
    10030    2    1    2    0    0  0.00000000000E+00  0.00000000000E+00 -0.19004685799E+03  0.38009459172E+04  0.37961917835E+04 0.  0.
        4    1    3    3  502    0  0.12803652031E+04  0.12943169520E+04 -0.63251502478E+03  0.19273474765E+04  0.12699999809E+01 0.  1.
       -4    1    3    3    0  502 -0.12803652031E+04 -0.12943169520E+04  0.44246816680E+03  0.18735984407E+04  0.12699999809E+01 0. -1.
</event>
<event>
 5   0  0.4071750E-09  0.3801393E+04  0.7818609E-02  0.8045856E-01
        1   -1    0    0  501    0  0.00000000000E+00  0.00000000000E+00  0.19765230237E+04  0.19765230237E+04  0.50400001928E-02 0.  1.
       -1   -1    0    0    0  501  0.00000000000E+00  0.00000000000E+00 -0.18277790826E+04  0.18277790826E+04  0.50400001928E-02 0. -1.
    10030    2    1    2    0    0  0.00000000000E+00  0.00000000000E+00  0.14874394119E+03  0.38043021063E+04  0.38013931336E+04 0.  0.
        4    1    3    3  502    0  0.16038415304E+04  0.61379576808E+02  0.10932722474E+04  0.19419889100E+04  0.12699999809E+01 0.  1.
       -4    1    3    3    0  502 -0.16038415304E+04 -0.61379576808E+02 -0.94452830616E+03  0.18623131963E+04  0.12699999809E+01 0. -1.
</event>
<event>
 5   0  0.4071750E-09  0.3804828E+04  0.7818609E-02  0.8045120E-01
        1   -1    0    0  501    0  0.00000000000E+00  0.00000000000E+00  0.12416022907E+04  0.12416022907E+04  0.50400001928E-02 0. -1.
       -1   -1    0    0    0  501  0.00000000000E+00  0.00000000000E+00 -0.29149255063E+04  0.29149255063E+04  0.50400001928E-02 0.  1.
    10030    2    1    2    0    0  0.00000000000E+00  0.00000000000E+00 -0.16733232156E+04  0.41565277969E+04  0.38048275576E+04 0.  0.
        3    1    3    3  502    0  0.14752788612E+04 -0.11104687285E+04 -0.13367889954E+04  0.22796037690E+04  0.10100000352E+00 0. -1.
       -3    1    3    3    0  502 -0.14752788612E+04  0.11104687285E+04 -0.33653422016E+03  0.18769240279E+04  0.10100000352E+00 0.  1.
</event>
<event>
 5   0  0.1327249E-08  0.3795944E+04  0.7818609E-02  0.8047026E-01
        2   -1    0    0  501    0  0.00000000000E+00  0.00000000000E+00  0.14915909875E+04  0.14915909875E+04  0.25500000920E-02 0. -1.
       -2   -1    0    0    0  501  0.00000000000E+00  0.00000000000E+00 -0.24150711151E+04  0.24150711151E+04  0.25500000920E-02 0.  1.
    10030    2    1    2    0    0  0.00000000000E+00  0.00000000000E+00 -0.92348012758E+03  0.39066621025E+04  0.37959443143E+04 0.  0.
        1    1    3    3  502    0  0.42512002432E+03 -0.16893659678E+04 -0.12371163743E+04  0.21366191359E+04  0.50400001928E-02 0.  1.
       -1    1    3    3    0  502 -0.42512002432E+03  0.16893659678E+04  0.31363624670E+03  0.17700429666E+04  0.50400001928E-02 0. -1.
</event>
<event>
 5   0  0.1293993E-08  0.3799696E+04  0.7818609E-02  0.8046220E-01
        2   -1    0    0  501    0  0.00000000000E+00  0.00000000000E+00  0.22803250419E+04  0.22803250419E+04  0.25500000920E-02 0. -1.
       -2   -1    0    0    0  501  0.00000000000E+00  0.00000000000E+00 -0.15828542652E+04  0.15828542652E+04  0.25500000920E-02 0.  1.
    10030    2    1    2    0    0  0.00000000000E+00  0.00000000000E+00  0.69747077663E+03  0.38631793071E+04  0.37996958924E+04 0.  0.
        5    1    3    3  502    0  0.10838035396E+04 -0.13744145532E+04 -0.40235940252E+03  0.17959845921E+04  0.46999998093E+01 0.  1.
       -5    1    3    3    0  502 -0.10838035396E+04  0.13744145532E+04  0.10998301792E+04  0.20671947149E+04  0.46999998093E+01 0. -1.
</event>
<event>
 5   0  0.4071750E-09  0.3800962E+04  0.7818609E-02  0.8045948E-01
        1   -1    0    0  501    0  0.00000000000E+00  0.00000000000E+00  0.16675292834E+04  0.16675292834E+04  0.50400001928E-02 0.  1.
       -1   -1    0    0    0  501  0.00000000000E+00  0.00000000000E+00 -0.21659762572E+04  0.21659762572E+04  0.50400001928E-02 0. -1.
    10030    2    1    2    0    0  0.00000000000E+00  0.00000000000E+00 -0.49844697380E+03  0.38335055406E+04  0.38009624234E+04 0.  0.
        4    1    3    3  502    0 -0.12816475983E+03  0.15962016772E+04 -0.12814810662E+04  0.20509708277E+04  0.12699999809E+01 0. -1.
       -4    1    3    3    0  502  0.12816475983E+03 -0.15962016772E+04  0.78303409242E+03  0.17825347129E+04  0.12699999809E+01 0.  1.
</event>
<event>
 5   0  0.1264013E-08  0.3801279E+04  0.7818609E-02  0.8045880E-01
       -2   -1    0    0    0  501  0.00000000000E+00  0.00000000000E+00  0.12302312575E+04  0.12302312575E+04  0.25500000920E-02 0. -1.
        2   -1    0    0  501    0  0.00000000000E+00  0.00000000000E+00 -0.29363837915E+04  0.29363837915E+04  0.25500000920E-02 0.  1.
    10030    2    1    2    0    0  0.00000000000E+00  0.00000000000E+00 -0.17061525339E+04  0.41666150490E+04  0.38012793238E+04 0.  0.
        4    1    3    3  502    0 -0.12454039138E+04 -0.31926449899E+03 -0.23874203722E+04  0.27115933278E+04  0.12699999809E+01 0.  1.
       -4    1    3    3    0  502  0.12454039138E+04  0.31926449899E+03  0.68126783824E+03  0.14550217212E+04  0.12699999809E+01 0. -1.
</event>
<event>
 5   0  0.1261152E-08  0.3800077E+04  0.7818609E-02  0.8046138E-01
        2   -1    0    0  501    0  0.00000000000E+00  0.00000000000E+00  0.13849986940E+04  0.13849986940E+04  0.25500000920E-02 0.  1.
       -2   -1    0    0    0  501  0.00000000000E+00  0.00000000000E+00 -0.26066059882E+04  0.26066059882E+04  0.25500000920E-02 0. -1.
    10030    2    1    2    0    0  0.00000000000E+00  0.00000000000E+00 -0.12216072942E+04  0.39916046823E+04  0.38000767832E+04 0.  0.
        2    1    3    3  502    0  0.83008093875E+03 -0.60459173527E+03  0.10683866738E+04  0.14818959532E+04  0.25500000920E-02 0. -1.
       -2    1    3    3    0  502 -0.83008093875E+03  0.60459173527E+03 -0.22899939680E+04  0.25097087291E+04  0.25500000920E-02 0.  1.
</event>
<event>
 5   0  0.4071750E-09  0.3815335E+04  0.7818609E-02  0.8042872E-01
        1   -1    0    0  501    0  0.00000000000E+00  0.00000000000E+00  0.21830721528E+04  0.21830721528E+04  0.50400001928E-02 0.  1.
       -1   -1    0    0    0  501  0.00000000000E+00  0.00000000000E+00 -0.16670062841E+04  0.16670062841E+04  0.50400001928E-02 0. -1.
    10030    2    1    2    0    0  0.00000000000E+00  0.00000000000E+00  0.51606586863E+03  0.38500784369E+04  0.38153348463E+04 0.  0.
        1    1    3    3  502    0 -0.15017242387E+04  0.10594120547E+04  0.77422351310E+03  0.19942295853E+04  0.50400001928E-02 0.  1.
       -1    1    3    3    0  502  0.15017242387E+04 -0.10594120547E+04 -0.25815764446E+03  0.18558488516E+04  0.50400001928E-02 0. -1.
</event>
<event>
 5   0  0.1261152E-08  0.3800612E+04  0.7818609E-02  0.8046024E-01
       -2   -1    0    0    0  501  0.00000000000E+00  0.00000000000E+00  0.16499282392E+04  0.16499282392E+04  0.25500000920E-02 0. -1.
        2   -1    0    0  501    0  0.00000000000E+00  0.00000000000E+00 -0.21886786638E+04  0.21886786638E+04  0.25500000920E-02 0.  1.
    10030    2    1    2    0    0  0.00000000000E+00  0.00000000000E+00 -0.53875042453E+03  0.38386069030E+04  0.38006119160E+04 0.  0.
        2    1    3    3  502    0 -0.47237515250E+02 -0.18108524040E+04 -0.84935007710E+03  0.20007032177E+04  0.25500000920E-02 0.  1.
       -2    1    3    3    0  502  0.47237515250E+02  0.18108524040E+04  0.31059965258E+03  0.18379036852E+04  0.25500000920E-02 0. -1.
</event>
<event>
 5   0  0.4071750E-09  0.3802112E+04  0.7818609E-02  0.8045702E-01
       -1   -1    0    0    0  501  0.00000000000E+00  0.00000000000E+00  0.20915493491E+04  0.20915493491E+04  0.50400001928E-02 0.  1.
        1   -1    0    0  501    0  0.00000000000E+00  0.00000000000E+00 -0.17279122189E+04  0.17279122189E+04  0.50400001928E-02 0. -1.
    10030    2    1    2    0    0  0.00000000000E+00  0.00000000000E+00  0.36363713023E+03  0.38194615679E+04  0.38021118745E+04 0.  0.
        2    1    3    3  502    0  0.34923478676E+03 -0.20979310950E+03 -0.16835434246E+04  0.17321364114E+04  0.25500000920E-02 0. -1.
       -2    1    3    3    0  502 -0.34923478676E+03  0.20979310950E+03  0.20471805548E+04  0.20873251566E+04  0.25500000920E-02 0.  1.
</event>
<event>
 5   0  0.4071750E-09  0.3800506E+04  0.7818609E-02  0.8046046E-01
        1   -1    0    0  501    0  0.00000000000E+00  0.00000000000E+00  0.19349559284E+04  0.19349559284E+04  0.50400001928E-02 0.  1.
       -1   -1    0    0    0  501  0.00000000000E+00  0.00000000000E+00 -0.18661727464E+04  0.18661727464E+04  0.50400001928E-02 0. -1.
    10030    2    1    2    0    0  0.00000000000E+00  0.00000000000E+00  0.68783181936E+02  0.38011286748E+04  0.38005062921E+04 0.  0.
        1    1    3    3  502    0 -0.53782924686E+03 -0.49635919004E+03  0.17883404523E+04  0.19323028535E+04  0.50400001928E-02 0.  1.
       -1    1    3    3    0  502  0.53782924686E+03  0.49635919004E+03 -0.17195572704E+04  0.18688258213E+04  0.50400001928E-02 0. -1.
</event>
<event>
 5   0  0.1327249E-08  0.3800390E+04  0.7818609E-02  0.8046071E-01
       -2   -1    0    0    0  501  0.00000000000E+00  0.00000000000E+00  0.28502305157E+04  0.28502305157E+04  0.25500000920E-02 0.  1.
        2   -1    0    0  501    0  0.00000000000E+00  0.00000000000E+00 -0.12668243900E+04  0.12668243900E+04  0.25500000920E-02 0. -1.
    10030    2    1    2    0    0  0.00000000000E+00  0.00000000000E+00  0.15834061257E+04  0.41170549057E+04  0.38003902613E+04 0.  0.
        1    1    3    3  502    0 -0.69323420648E+03 -0.11166777313E+04 -0.69493941176E+03  0.14867695203E+04  0.50400001928E-02 0. -1.
       -1    1    3    3    0  502  0.69323420648E+03  0.11166777313E+04  0.22783455374E+04  0.26302853854E+04  0.50400001928E-02 0.  1.
</event>
<event>
 5   0  0.1261152E-08  0.3800004E+04  0.7818609E-02  0.8046154E-01
       -2   -1    0    0    0  501  0.00000000000E+00  0.00000000000E+00  0.18222561575E+04  0.18222561575E+04  0.25500000920E-02 0. -1.
        2   -1    0    0  501    0  0.00000000000E+00  0.00000000000E+00 -0.19810644105E+04  0.19810644105E+04  0.25500000920E-02 0.  1.
    10030    2    1    2    0    0  0.00000000000E+00  0.00000000000E+00 -0.15880825302E+03  0.38033205680E+04  0.38000035897E+04 0.  0.
        2    1    3    3  502    0  0.12072719331E+04  0.53062782654E+03 -0.14484194917E+04  0.19588237375E+04  0.25500000920E-02 0.  1.
       -2    1    3    3    0  502 -0.12072719331E+04 -0.53062782654E+03  0.12896112387E+04  0.18444968305E+04  0.25500000920E-02 0. -1.
</event>
<event>
 5   0  0.4071750E-09  0.3800844E+04  0.7818609E-02  0.8045974E-01
       -1   -1    0    0    0  501  0.00000000000E+00  0.00000000000E+00  0.26420822423E+04  0.26420822423E+04  0.50400001928E-02 0. -1.
        1   -1    0    0  501    0  0.00000000000E+00  0.00000000000E+00 -0.13669533896E+04  0.13669533896E+04  0.50400001928E-02 0.  1.
    10030    2    1    2    0    0  0.00000000000E+00  0.00000000000E+00  0.12751288527E+04  0.40090356318E+04  0.38008437361E+04 0.  0.
        1    1    3    3  502    0  0.63751266363E+03  0.13510755147E+04  0.18765440629E+04  0.23985923085E+04  0.50400001928E-02 0. -1.
       -1    1    3    3    0  502 -0.63751266363E+03 -0.13510755147E+04 -0.60141521014E+03  0.16104433233E+04  0.50400001928E-02 0.  1.
</event>
<event>
 5   0  0.4071750E-09  0.3799044E+04  0.7818609E-02  0.8046360E-01
       -1   -1    0    0    0  501  0.00000000000E+00  0.00000000000E+00  0.29951912069E+04  0.29951912069E+04  0.50400001928E-02 0. -1.
        1   -1    0    0  501    0  0.00000000000E+00  0.00000000000E+00 -0.12046586247E+04  0.12046586247E+04  0.50400001928E-02 0.  1.
    10030    2    1    2    0    0  0.00000000000E+00  0.00000000000E+00  0.17905325821E+04  0.41998498316E+04  0.37990435218E+04 0.  0.
        2    1    3    3  502    0 -0.65946217037E+03 -0.98889760360E+03  0.25332657767E+04  0.27982573720E+04  0.25500000920E-02 0. -1.
       -2    1    3    3    0  502  0.65946217037E+03  0.98889760360E+03 -0.74273319453E+03  0.14015924596E+04  0.25500000920E-02 0.  1.
</event>
<event>
 5   0  0.1327249E-08  0.3797023E+04  0.7818609E-02  0.8046794E-01
        2   -1    0    0  501    0  0.00000000000E+00  0.00000000000E+00  0.24046737664E+04  0.24046737664E+04  0.25500000920E-02 0. -1.
       -2   -1    0    0    0  501  0.00000000000E+00  0.00000000000E+00 -0.14988921628E+04  0.14988921628E+04  0.25500000920E-02 0.  1.
    10030    2    1    2    0    0  0.00000000000E+00  0.00000000000E+00  0.90578160361E+03  0.39035659292E+04  0.37970233935E+04 0.  0.
        1    1    3    3  502    0  0.55160251174E+03  0.38284238629E+03 -0.13727509588E+04  0.15281619085E+04  0.50400001928E-02 0.  1.
       -1    1    3    3    0  502 -0.55160251174E+03 -0.38284238629E+03  0.22785325624E+04  0.23754040207E+04  0.50400001928E-02 0. -1.
</event>
<event>
 5   0  0.4071750E-09  0.3800347E+04  0.7818609E-02  0.8046081E-01
       -1   -1    0    0    0  501  0.00000000000E+00  0.00000000000E+00  0.15307011996E+04  0.15307011996E+04  0.50400001928E-02 0. -1.
        1   -1    0    0  501    0  0.00000000000E+00  0.00000000000E+00 -0.23588264343E+04  0.23588264343E+04  0.50400001928E-02 0.  1.
    10030    2    1    2    0    0  0.00000000000E+00  0.00000000000E+00 -0.82812523467E+03  0.38895276339E+04  0.38003465383E+04 0.  0.
        2    1    3    3  502    0 -0.18116090548E+04  0.20041009208E+03  0.13572746774E+03  0.18277071751E+04  0.25500000920E-02 0. -1.
       -2    1    3    3    0  502  0.18116090548E+04 -0.20041009208E+03 -0.96385270242E+03  0.20618204588E+04  0.25500000920E-02 0.  1.
</event>
<event>
 5   0  0.4071750E-09  0.3799392E+04  0.7818609E-02  0.8046285E-01
        1   -1    0    0  501    0  0.00000000000E+00  0.00000000000E+00  0.18616472383E+04  0.18616472383E+04  0.50400001928E-02 0. -1.
       -1   -1    0    0    0  501  0.00000000000E+00  0.00000000000E+00 -0.19385223481E+04  0.19385223481E+04  0.50400001928E-02 0.  1.
    10030    2    1    2    0    0  0.00000000000E+00  0.00000000000E+00 -0.76875109739E+02  0.38001695864E+04  0.37993919386E+04 0.  0.
        3    1    3    3  502    0  0.86802190669E+03  0.16628575876E+04 -0.33897763821E+03  0.19061645355E+04  0.10100000352E+00 0.  1.
       -3    1    3    3    0  502 -0.86802190669E+03 -0.16628575876E+04  0.26210252847E+03  0.18940050509E+04  0.10100000352E+00 0. -1.
</event>
<event>
 5   0  0.1264013E-08  0.3779148E+04  0.7818609E-02  0.8050645E-01
       -2   -1    0    0    0  501  0.00000000000E+00  0.00000000000E+00  0.27462575033E+04  0.27462575033E+04  0.25500000920E-02 0.  1.
        2   -1    0    0  501    0  0.00000000000E+00  0.00000000000E+00 -0.13001290266E+04  0.13001290266E+04  0.25500000920E-02 0. -1.
    10030    2    1    2    0    0  0.00000000000E+00  0.00000000000E+00  0.14461284767E+04  0.40463865299E+04  0.37791475730E+04 0.  0.
        4    1    3    3  502    0  0.34675928218E+03 -0.13739510606E+04  0.20614585409E+04  0.25015188277E+04  0.12699999809E+01 0.  1.
       -4    1    3    3    0  502 -0.34675928218E+03  0.13739510606E+04 -0.61533006416E+03  0.15448677022E+04  0.12699999809E+01 0. -1.
</event>
<event>
 5   0  0.1264013E-08  0.3799673E+04  0.7818609E-02  0.8046225E-01
       -2   -1    0    0    0  501  0.00000000000E+00  0.00000000000E+00  0.16952390128E+04  0.16952390128E+04  0.25500000920E-02 0. -1.
        2   -1    0    0  501    0  0.00000000000E+00  0.00000000000E+00 -0.21291265958E+04  0.21291265958E+04  0.25500000920E-02 0.  1.
    10030    2    1    2    0    0  0.00000000000E+00  0.00000000000E+00 -0.43388758298E+03  0.38243656086E+04  0.37996728641E+04 0.  0.
        4    1    3    3  502    0  0.18708714514E+04 -0.27532620218E+03 -0.40092213779E+03  0.19330557878E+04  0.12699999809E+01 0. -1.
       -4    1    3    3    0  502 -0.18708714514E+04  0.27532620218E+03 -0.32965445187E+02  0.18913098209E+04  0.12699999809E+01 0.  1.
</event>
<event>
 5   0  0.1264013E-08  0.3798619E+04  0.7818609E-02  0.8046451E-01
       -2   -1    0    0    0  501  0.00000000000E+00  0.00000000000E+00  0.25198731461E+04  0.25198731461E+04  0.25500000920E-02 0.  1.
        2   -1    0    0  501    0  0.00000000000E+00  0.00000000000E+00 -0.14315704672E+04  0.14315704672E+04  0.25500000920E-02 0. -1.
    10030    2    1    2    0    0  0.00000000000E+00  0.00000000000E+00  0.10883026788E+04  0.39514436133E+04  0.37986186843E+04 0.  0.
        4    1    3    3  502    0 -0.80605609496E+01 -0.15125037047E+04 -0.65082179862E+03  0.16466034908E+04  0.12699999809E+01 0. -1.
       -4    1    3    3    0  502  0.80605609496E+01  0.15125037047E+04  0.17391244774E+04  0.23048401225E+04  0.12699999809E+01 0.  1.
</event>
<event>
 5   0  0.1305088E-08  0.3800324E+04  0.7818609E-02  0.8046085E-01
        2   -1    0    0  501    0  0.00000000000E+00  0.00000000000E+00  0.12944760238E+04  0.12944760238E+04  0.25500000920E-02 0.  1.
       -2   -1    0    0    0  501  0.00000000000E+00  0.00000000000E+00 -0.27892487598E+04  0.27892487598E+04  0.25500000920E-02 0. -1.
    10030    2    1    2    0    0  0.00000000000E+00  0.00000000000E+00 -0.14947727360E+04  0.40837247836E+04  0.38003240094E+04 0.  0.
        3    1    3    3  502    0  0.83564141829E+03  0.55052670691E+03  0.98838613465E+03  0.14065146271E+04  0.10100000352E+00 0.  1.
       -3    1    3    3    0  502 -0.83564141829E+03 -0.55052670691E+03 -0.24831588706E+04  0.26772101565E+04  0.10100000352E+00 0. -1.
</event>
<event>
 5   0  0.4071750E-09  0.3799740E+04  0.7818609E-02  0.8046211E-01
        1   -1    0    0  501    0  0.00000000000E+00  0.00000000000E+00  0.20040157464E+04  0.20040157464E+04  0.50400001928E-02 0.  1.
       -1   -1    0    0    0  501  0.00000000000E+00  0.00000000000E+00 -0.18011364928E+04  0.18011364928E+04  0.50400001928E-02 0. -1.
    10030    2    1    2    0    0  0.00000000000E+00  0.00000000000E+00  0.20287925362E+03  0.38051522392E+04  0.37997399348E+04 0.  0.
        1    1    3    3  502    0  0.18000553559E+04  0.60382112239E+03  0.32736799179E+02  0.18989130918E+04  0.50400001928E-02 0. -1.
       -1    1    3    3    0  502 -0.18000553559E+04 -0.60382112239E+03  0.17014245444E+03  0.19062391474E+04  0.50400001928E-02 0.  1.
</event>
<event>
 5   0  0.1261152E-08  0.3800212E+04  0.7818609E-02  0.8046109E-01
        2   -1    0    0  501    0  0.00000000000E+00  0.00000000000E+00  0.18338108683E+04  0.18338108683E+04  0.25500000920E-02 0.  1.
       -2   -1    0    0    0  501  0.00000000000E+00  0.00000000000E+00 -0.19687978486E+04  0.19687978486E+04  0.25500000920E-02 0. -1.
    10030    2    1    2    0    0  0.00000000000E+00  0.00000000000E+00 -0.13498698028E+03  0.38026087169E+04  0.38002120426E+04 0.  0.
        2    1    3    3  502    0 -0.25887316174E+03 -0.87549958060E+03  0.15999571865E+04  0.18421123278E+04  0.25500000920E-02 0.  1.
       -2    1    3    3    0  502  0.25887316174E+03  0.87549958060E+03 -0.17349441668E+04  0.19604963891E+04  0.25500000920E-02 0. -1.
</event>
<event>
 5   0  0.1327249E-08  0.3800082E+04  0.7818609E-02  0.8046137E-01
        2   -1    0    0  501    0  0.00000000000E+00  0.00000000000E+00  0.12544247647E+04  0.12544247647E+04  0.25500000920E-02 0.  1.
       -2   -1    0    0    0  501  0.00000000000E+00  0.00000000000E+00 -0.28779372555E+04  0.28779372555E+04  0.25500000920E-02 0. -1.
    10030    2    1    2    0    0  0.00000000000E+00  0.00000000000E+00 -0.16235124908E+04  0.41323620202E+04  0.38000819805E+04 0.  0.
        1    1    3    3  502    0 -0.11625931575E+04  0.14326105438E+04 -0.31800575511E+03  0.18721975003E+04  0.50400001928E-02 0.  1.
       -1    1    3    3    0  502  0.11625931575E+04 -0.14326105438E+04 -0.13055067357E+04  0.22601645199E+04  0.50400001928E-02 0. -1.
</event>
<event>
 5   0  0.4071750E-09  0.3803505E+04  0.7818609E-02  0.8045403E-01
       -1   -1    0    0    0  501  0.00000000000E+00  0.00000000000E+00  0.17341633009E+04  0.17341633009E+04  0.50400001928E-02 0.  1.
        1   -1    0    0  501    0  0.00000000000E+00  0.00000000000E+00 -0.20855376072E+04  0.20855376072E+04  0.50400001928E-02 0. -1.
    10030    2    1    2    0    0  0.00000000000E+00  0.00000000000E+00 -0.35137430626E+03  0.38197009081E+04  0.38035051103E+04 0.  0.
        2    1    3    3  502    0  0.66112227563E+03 -0.12768989035E+04  0.10742448435E+04  0.17948692032E+04  0.25500000920E-02 0.  1.
       -2    1    3    3    0  502 -0.66112227563E+03  0.12768989035E+04 -0.14256191497E+04  0.20248317049E+04  0.25500000920E-02 0. -1.
</event>
<event>
 5   0  0.4071750E-09  0.3799688E+04  0.7818609E-02  0.8046222E-01
        1   -1    0    0  501    0  0.00000000000E+00  0.00000000000E+00  0.19909784948E+04  0.19909784948E+04  0.50400001928E-02 0. -1.
       -1   -1    0    0    0  501  0.00000000000E+00  0.00000000000E+00 -0.18128815188E+04  0.18128815188E+04  0.50400001928E-02 0.  1.
    10030    2    1    2    0    0  0.00000000000E+00  0.00000000000E+00  0.17809697604E+03  0.38038600136E+04  0.37996884702E+04 0.  0.
        2    1    3    3  502    0 -0.14729363241E+04 -0.38346407049E+03  0.12273200965E+04  0.19552239584E+04  0.25500000920E-02 0. -1.
       -2    1    3    3    0  502  0.14729363241E+04  0.38346407049E+03 -0.10492231205E+04  0.18486360552E+04  0.25500000920E-02 0.  1.
</event>
<event>
 5   0  0.1264013E-08  0.3800981E+04  0.7818609E-02  0.8045944E-01
        2   -1    0    0  501    0  0.00000000000E+00  0.00000000000E+00  0.20837315456E+04  0.20837315456E+04  0.25500000920E-02 0. -1.
       -2   -1    0    0    0  501  0.00000000000E+00  0.00000000000E+00 -0.17333637503E+04  0.17333637503E+04  0.25500000920E-02 0.  1.
    10030    2    1    2    0    0  0.00000000000E+00  0.00000000000E+00  0.35036779525E+03  0.38170952959E+04  0.38009813083E+04 0.  0.
        4    1    3    3  502    0  0.14346862627E+04 -0.11657942626E+04 -0.26766425967E+03  0.18678990080E+04  0.12699999809E+01 0.  1.
       -4    1    3    3    0  502 -0.14346862627E+04  0.11657942626E+04  0.61803205491E+03  0.19491962879E+04  0.12699999809E+01 0. -1.
</event>
<event>
 5   0  0.1264013E-08  0.3800753E+04  0.7818609E-02  0.8045993E-01
        2   -1    0    0  501    0  0.00000000000E+00  0.00000000000E+00  0.19047656693E+04  0.19047656693E+04  0.25500000920E-02 0.  1.
       -2   -1    0    0    0  501  0.00000000000E+00  0.00000000000E+00 -0.18959972728E+04  0.18959972728E+04  0.25500000920E-02 0. -1.
    10030    2    1    2    0    0  0.00000000000E+00  0.00000000000E+00  0.87683965453E+01  0.38007629421E+04  0.38007528277E+04 0.  0.
        4    1    3    3  502    0 -0.70107013861E+03  0.11243545025E+04  0.13666493676E+04  0.19035242299E+04  0.12699999809E+01 0.  1.
       -4    1    3    3    0  502  0.70107013861E+03 -0.11243545025E+04 -0.13578809711E+04  0.18972387122E+04  0.12699999809E+01 0. -1.
</event>
<event>
 5   0  0.1264013E-08  0.3799585E+04  0.7818609E-02  0.8046244E-01
       -2   -1    0    0    0  501  0.00000000000E+00  0.00000000000E+00  0.22691909950E+04  0.22691909950E+04  0.25500000920E-02 0. -1.
        2   -1    0    0  501    0  0.00000000000E+00  0.00000000000E+00 -0.15905274889E+04  0.15905274889E+04  0.25500000920E-02 0.  1.
    10030    2    1    2    0    0  0.00000000000E+00  0.00000000000E+00  0.67866350610E+03  0.38597184839E+04  0.37995845326E+04 0.  0.
        4    1    3    3  502    0  0.51297708762E+02 -0.69005242267E+02 -0.15885494631E+04  0.15908752899E+04  0.12699999809E+01 0.  1.
       -4    1    3    3    0  502 -0.51297708762E+02  0.69005242267E+02  0.22672129692E+04  0.22688431940E+04  0.12699999809E+01 0. -1.
</event>
<event>
 5   0  0.4071750E-09  0.3807911E+04  0.7818609E-02  0.8044459E-01
        1   -1    0    0  501    0  0.00000000000E+00  0.00000000000E+00  0.22440707597E+04  0.22440707597E+04  0.50400001928E-02 0. -1.
       -1   -1    0    0    0  501  0.00000000000E+00  0.00000000000E+00 -0.16153887962E+04  0.16153887962E+04  0.50400001928E-02 0.  1.
    10030    2    1    2    0    0  0.00000000000E+00  0.00000000000E+00  0.62868196353E+03  0.38594595559E+04  0.38079111141E+04 0.  0.
        3    1    3    3  502    0 -0.11073096915E+04 -0.41611829635E+03 -0.11977524288E+04  0.16834191636E+04  0.10100000352E+00 0.  1.
       -3    1    3    3    0  502  0.11073096915E+04  0.41611829635E+03  0.18264343923E+04  0.21760403923E+04  0.10100000352E+00 0. -1.
</event>
<event>
 5   0  0.4071750E-09  0.3799994E+04  0.7818609E-02  0.8046156E-01
       -1   -1    0    0    0  501  0.00000000000E+00  0.00000000000E+00  0.17526824445E+04  0.17526824445E+04  0.50400001928E-02 0. -1.
        1   -1    0    0  501    0  0.00000000000E+00  0.00000000000E+00 -0.20596936438E+04  0.20596936438E+04  0.50400001928E-02 0.  1.
    10030    2    1    2    0    0  0.00000000000E+00  0.00000000000E+00 -0.30701119936E+03  0.38123760883E+04  0.37999941529E+04 0.  0.
        5    1    3    3  502    0 -0.71923357155E+03 -0.10831302099E+04 -0.15434797804E+04  0.20181228666E+04  0.46999998093E+01 0.  1.
       -5    1    3    3    0  502  0.71923357155E+03  0.10831302099E+04  0.12364685811E+04  0.17942532218E+04  0.46999998093E+01 0. -1.
</event>
<event>
 5   0  0.1261152E-08  0.3801701E+04  0.7818609E-02  0.8045790E-01
       -2   -1    0    0    0  501  0.00000000000E+00  0.00000000000E+00  0.13955209325E+04  0.13955209325E+04  0.25500000920E-02 0.  1.
        2   -1    0    0  501    0  0.00000000000E+00  0.00000000000E+00 -0.25891638847E+04  0.25891638847E+04  0.25500000920E-02 0. -1.
    10030    2    1    2    0    0  0.00000000000E+00  0.00000000000E+00 -0.11936429522E+04  0.39846848172E+04  0.38017008818E+04 0.  0.
        2    1    3    3  502    0  0.34057728675E+03 -0.12532265417E+04 -0.20516736972E+04  0.24281545694E+04  0.25500000920E-02 0. -1.
       -2    1    3    3    0  502 -0.34057728675E+03  0.12532265417E+04  0.85803074493E+03  0.15565302478E+04  0.25500000920E-02 0.  1.
</event>
<event>
 5   0  0.4071750E-09  0.3804110E+04  0.7818609E-02  0.8045273E-01
       -1   -1    0    0    0  501  0.00000000000E+00  0.00000000000E+00  0.15000535055E+04  0.15000535055E+04  0.50400001928E-02 0. -1.
        1   -1    0    0  501    0  0.00000000000E+00  0.00000000000E+00 -0.24117897993E+04  0.24117897993E+04  0.50400001928E-02 0.  1.
    10030    2    1    2    0    0  0.00000000000E+00  0.00000000000E+00 -0.91173629377E+03  0.39118433048E+04  0.38041102734E+04 0.  0.
        2    1    3    3  502    0 -0.10761768299E+04 -0.31848424215E+02  0.11565440538E+04  0.15801155147E+04  0.25500000920E-02 0. -1.
       -2    1    3    3    0  502  0.10761768299E+04  0.31848424215E+02 -0.20682803476E+04  0.23317277902E+04  0.25500000920E-02 0.  1.
</event>
<event>
 5   0  0.4071750E-09  0.3799128E+04  0.7818609E-02  0.8046342E-01
       -1   -1    0    0    0  501  0.00000000000E+00  0.00000000000E+00  0.16258544716E+04  0.16258544716E+04  0.50400001928E-02 0.  1.
        1   -1    0    0  501    0  0.00000000000E+00  0.00000000000E+00 -0.22193519333E+04  0.22193519334E+04  0.50400001928E-02 0. -1.
    10030    2    1    2    0    0  0.00000000000E+00  0.00000000000E+00 -0.59349746171E+03  0.38452064050E+04  0.37991279341E+04 0.  0.
        2    1    3    3  502    0 -0.34406673710E+03 -0.48061444548E+03  0.15304088039E+04  0.16405862586E+04  0.25500000920E-02 0.  1.
       -2    1    3    3    0  502  0.34406673710E+03  0.48061444548E+03 -0.21239062656E+04  0.22046201464E+04  0.25500000920E-02 0. -1.
</event>
<event>
 5   0  0.4071750E-09  0.3800630E+04  0.7818609E-02  0.8046020E-01
       -1   -1    0    0    0  501  0.00000000000E+00  0.00000000000E+00  0.13597830108E+04  0.13597830108E+04  0.50400001928E-02 0.  1.
        1   -1    0    0  501    0  0.00000000000E+00  0.00000000000E+00 -0.26557160929E+04  0.26557160929E+04  0.50400001928E-02 0. -1.
    10030    2    1    2    0    0  0.00000000000E+00  0.00000000000E+00 -0.12959330821E+04  0.40154991037E+04  0.38006302765E+04 0.  0.
        1    1    3    3  502    0  0.51789884130E+03 -0.28974489410E+02 -0.25794729648E+04  0.26311099383E+04  0.50400001928E-02 0. -1.
       -1    1    3    3    0  502 -0.51789884130E+03  0.28974489410E+02  0.12835398828E+04  0.13843891655E+04  0.50400001928E-02 0.  1.
</event>
<event>
 5   0  0.1261152E-08  0.3803343E+04  0.7818609E-02  0.8045438E-01
        2   -1    0    0  501    0  0.00000000000E+00  0.00000000000E+00  0.17991617701E+04  0.17991617701E+04  0.25500000920E-02 0. -1.
       -2   -1    0    0    0  501  0.00000000000E+00  0.00000000000E+00 -0.20100218377E+04  0.20100218377E+04  0.25500000920E-02 0.  1.
    10030    2    1    2    0    0  0.00000000000E+00  0.00000000000E+00 -0.21086006770E+03  0.38091836078E+04  0.38033429756E+04 0.  0.
        2    1    3    3  502    0  0.71643235954E+03 -0.10732283508E+04  0.12935901821E+04  0.18271480449E+04  0.25500000920E-02 0. -1.
       -2    1    3    3    0  502 -0.71643235954E+03  0.10732283508E+04 -0.15044502498E+04  0.19820355629E+04  0.25500000920E-02 0.  1.
</event>
<event>
 5   0  0.1264013E-08  0.3807595E+04  0.7818609E-02  0.8044527E-01
       -2   -1    0    0    0  501  0.00000000000E+00  0.00000000000E+00  0.26830359334E+04  0.26830359334E+04  0.25500000920E-02 0. -1.
        2   -1    0    0  501    0  0.00000000000E+00  0.00000000000E+00 -0.13508744212E+04  0.13508744212E+04  0.25500000920E-02 0.  1.
    10030    2    1    2    0    0  0.00000000000E+00  0.00000000000E+00  0.13321615122E+04  0.40339103546E+04  0.38075948385E+04 0.  0.
        4    1    3    3  502    0  0.17609637676E+04  0.42553299714E+03  0.12859843804E+04  0.22216726046E+04  0.12699999809E+01 0.  1.
       -4    1    3    3    0  502 -0.17609637676E+04 -0.42553299714E+03  0.46177131854E+02  0.18122377500E+04  0.12699999809E+01 0. -1.
</event>
<event>
 5   0  0.4071750E-09  0.3799800E+04  0.7818609E-02  0.8046198E-01
       -1   -1    0    0    0  501  0.00000000000E+00  0.00000000000E+00  0.18937811737E+04  0.18937811737E+04  0.50400001928E-02 0. -1.
        1   -1    0    0  501    0  0.00000000000E+00  0.00000000000E+00 -0.19060381545E+04  0.19060381545E+04  0.50400001928E-02 0.  1.
    10030    2    1    2    0    0  0.00000000000E+00  0.00000000000E+00 -0.12256980881E+02  0.37998193282E+04  0.37997995596E+04 0.  0.
        3    1    3    3  502    0  0.14877034378E+03 -0.16524641260E+04  0.91953763507E+03  0.18969237664E+04  0.10100000352E+00 0. -1.
       -3    1    3    3    0  502 -0.14877034378E+03  0.16524641260E+04 -0.93179461595E+03  0.19028955619E+04  0.10100000352E+00 0.  1.
</event>
<event>
 5   0  0.1327249E-08  0.3800504E+04  0.7818609E-02  0.8046047E-01
        2   -1    0    0  501    0  0.00000000000E+00  0.00000000000E+00  0.17897287756E+04  0.17897287756E+04  0.25500000920E-02 0. -1.
       -2   -1    0    0    0  501  0.00000000000E+00  0.00000000000E+00 -0.20176005310E+04  0.20176005310E+04  0.25500000920E-02 0.  1.
    10030    2    1    2    0    0  0.00000000000E+00  0.00000000000E+00 -0.22787175541E+03  0.38073293066E+04  0.38005040339E+04 0.  0.
        1    1    3    3  502    0 -0.30912070604E+02  0.18480819790E+04 -0.55585752227E+03  0.19301140231E+04  0.50400001928E-02 0.  1.
       -1    1    3    3    0  502  0.30912070604E+02 -0.18480819790E+04  0.32798576685E+03  0.18772152834E+04  0.50400001928E-02 0. -1.
</event>
<event>
 5   0  0.4071750E-09  0.3801700E+04  0.7818609E-02  0.8045790E-01
       -1   -1    0    0    0  501  0.00000000000E+00  0.00000000000E+00  0.15054668426E+04  0.15054668426E+04  0.50400001928E-02 0.  1.
        1   -1    0    0  501    0  0.00000000000E+00  0.00000000000E+00 -0.24000732194E+04  0.24000732194E+04  0.50400001928E-02 0. -1.
    10030    2    1    2    0    0  0.00000000000E+00  0.00000000000E+00 -0.89460637680E+03  0.39055400620E+04  0.38016999627E+04 0.  0.
        2    1    3    3  502    0  0.13411665222E+04  0.10949785499E+04 -0.12532865978E+04  0.21373892863E+04  0.25500000920E-02 0. -1.
       -2    1    3    3    0  502 -0.13411665222E+04 -0.10949785499E+04  0.35868022098E+03  0.17681507758E+04  0.25500000920E-02 0.  1.
</event>
<event>
 5   0  0.4071750E-09  0.3799054E+04  0.7818609E-02  0.8046358E-01
       -1   -1    0    0    0  501  0.00000000000E+00  0.00000000000E+00  0.26374491314E+04  0.26374491314E+04  0.50400001928E-02 0.  1.
        1   -1    0    0  501    0  0.00000000000E+00  0.00000000000E+00 -0.13680656731E+04  0.13680656731E+04  0.50400001928E-02 0. -1.
    10030    2    1    2    0    0  0.00000000000E+00  0.00000000000E+00  0.12693834583E+04  0.40055148045E+04  0.37990544198E+04 0.  0.
        1    1    3    3  502    0 -0.16846520205E+04  0.60920131104E+03  0.13007049564E+04  0.22138229494E+04  0.50400001928E-02 0. -1.
       -1    1    3    3    0  502  0.16846520205E+04 -0.60920131104E+03 -0.31321498066E+02  0.17916918551E+04  0.50400001928E-02 0.  1.
</event>
<event>
 5   0  0.4071750E-09  0.3799839E+04  0.7818609E-02  0.8046189E-01
        1   -1    0    0  501    0  0.00000000000E+00  0.00000000000E+00  0.13390444666E+04  0.13390444666E+04  0.50400001928E-02 0.  1.
       -1   -1    0    0    0  501  0.00000000000E+00  0.00000000000E+00 -0.26957240854E+04  0.26957240854E+04  0.50400001928E-02 0. -1.
    10030    2    1    2    0    0  0.00000000000E+00  0.00000000000E+00 -0.13566796189E+04  0.40347685520E+04  0.37998391651E+04 0.  0.
        3    1    3    3  502    0 -0.18219391264E+04 -0.11461634323E+03 -0.12372834388E+04  0.22053275050E+04  0.10100000352E+00 0.  1.
       -3    1    3    3    0  502  0.18219391264E+04  0.11461634323E+03 -0.11939618009E+03  0.18294410470E+04  0.10100000352E+00 0. -1.
</event>
<event>
 5   0  0.4071750E-09  0.3803685E+04  0.7818609E-02  0.8045365E-01
        1   -1    0    0  501    0  0.00000000000E+00  0.00000000000E+00  0.18174094531E+04  0.18174094531E+04  0.50400001928E-02 0.  1.
       -1   -1    0    0    0  501  0.00000000000E+00  0.00000000000E+00 -0.19901983499E+04  0.19901983499E+04  0.50400001928E-02 0. -1.
    10030    2    1    2    0    0  0.00000000000E+00  0.00000000000E+00 -0.17278889679E+03  0.38076078031E+04  0.38036852103E+04 0.  0.
        1    1    3    3  502    0 -0.30711974419E+03 -0.18761644839E+04 -0.34479738193E+02  0.19014480167E+04  0.50400001928E-02 0. -1.
       -1    1    3    3    0  502  0.30711974419E+03  0.18761644839E+04 -0.13830915860E+03  0.19061597864E+04  0.50400001928E-02 0.  1.
</event>
<event>
 5   0  0.4071750E-09  0.3800879E+04  0.7818609E-02  0.8045966E-01
       -1   -1    0    0    0  501  0.00000000000E+00  0.00000000000E+00  0.20710591744E+04  0.20710591744E+04  0.50400001928E-02 0. -1.
        1   -1    0    0  501    0  0.00000000000E+00  0.00000000000E+00 -0.17438755523E+04  0.17438755523E+04  0.50400001928E-02 0.  1.
    10030    2    1    2    0    0  0.00000000000E+00  0.00000000000E+00  0.32718362207E+03  0.38149347267E+04  0.38008785625E+04 0.  0.
        1    1    3    3  502    0 -0.16631890747E+04 -0.76507087499E+03  0.67551536924E+03  0.19513719164E+04  0.50400001928E-02 0. -1.
       -1    1    3    3    0  502  0.16631890747E+04  0.76507087499E+03 -0.34833174717E+03  0.18635628103E+04  0.50400001928E-02 0.  1.
</event>
<event>
 5   0  0.4071750E-09  0.3800057E+04  0.7818609E-02  0.8046143E-01
        1   -1    0    0  501    0  0.00000000000E+00  0.00000000000E+00  0.12403258921E+04  0.12403258921E+04  0.50400001928E-02 0.  1.
       -1   -1    0    0    0  501  0.00000000000E+00  0.00000000000E+00 -0.29106123433E+04  0.29106123433E+04  0.50400001928E-02 0. -1.
    10030    2    1    2    0    0  0.00000000000E+00  0.00000000000E+00 -0.16702864512E+04  0.41509382355E+04  0.38000567635E+04 0.  0.
        2    1    3    3  502    0 -0.59466690347E+03  0.12573726464E+04 -0.22490719457E+04  0.26444166304E+04  0.25500000920E-02 0. -1.
       -2    1    3    3    0  502  0.59466690347E+03 -0.12573726464E+04  0.57878549455E+03  0.15065216051E+04  0.25500000920E-02 0.  1.
</event>
<event>
 5   0  0.4071750E-09  0.3803268E+04  0.7818609E-02  0.8045454E-01
        1   -1    0    0  501    0  0.00000000000E+00  0.00000000000E+00  0.18918013569E+04  0.18918013569E+04  0.50400001928E-02 0.  1.
       -1   -1    0    0    0  501  0.00000000000E+00  0.00000000000E+00 -0.19115176379E+04  0.19115176379E+04  0.50400001928E-02 0. -1.
    10030    2    1    2    0    0  0.00000000000E+00  0.00000000000E+00 -0.19716281003E+02  0.38033189948E+04  0.38032678901E+04 0.  0.
        1    1    3    3  502    0  0.11489419144E+00  0.17903275108E+04 -0.65091203496E+03  0.19049826998E+04  0.50400001928E-02 0. -1.
       -1    1    3    3    0  502 -0.11489419144E+00 -0.17903275108E+04  0.63119575396E+03  0.18983362950E+04  0.50400001928E-02 0.  1.
</event>
<event>
 5   0  0.1261152E-08  0.3798817E+04  0.7818609E-02  0.8046409E-01
       -2   -1    0    0    0  501  0.00000000000E+00  0.00000000000E+00  0.17539723155E+04  0.17539723155E+04  0.25500000920E-02 0. -1.
        2   -1    0    0  501    0  0.00000000000E+00  0.00000000000E+00 -0.20569036417E+04  0.20569036417E+04  0.25500000920E-02 0.  1.
    10030    2    1    2    0    0  0.00000000000E+00  0.00000000000E+00 -0.30293132617E+03  0.38108759572E+04  0.37988166806E+04 0.  0.
        2    1    3    3  502    0  0.15361309511E+04 -0.89923649664E+03 -0.81646326092E+03  0.19582994746E+04  0.25500000920E-02 0.  1.
       -2    1    3    3    0  502 -0.15361309511E+04  0.89923649664E+03  0.51353193475E+03  0.18525764826E+04  0.25500000920E-02 0. -1.
</event>
<event>
 5   0  0.4071750E-09  0.3799638E+04  0.7818609E-02  0.8046233E-01
        1   -1    0    0  501    0  0.00000000000E+00  0.00000000000E+00  0.20141744685E+04  0.20141744685E+04  0.50400001928E-02 0.  1.
       -1   -1    0    0    0  501  0.00000000000E+00  0.00000000000E+00 -0.17919562091E+04  0.17919562091E+04  0.50400001928E-02 0. -1.
    10030    2    1    2    0    0  0.00000000000E+00  0.00000000000E+00  0.22221825943E+03  0.38061306776E+04  0.37996381118E+04 0.  0.
        2    1    3    3  502    0  0.10992658086E+04 -0.15462910568E+04  0.11384536017E+02  0.18972429886E+04  0.25500000920E-02 0. -1.
       -2    1    3    3    0  502 -0.10992658086E+04  0.15462910568E+04  0.21083372342E+03  0.19088876890E+04  0.25500000920E-02 0.  1.
</event>
<event>
 5   0  0.4071750E-09  0.3798379E+04  0.7818609E-02  0.8046503E-01
       -1   -1    0    0    0  501  0.00000000000E+00  0.00000000000E+00  0.13476455625E+04  0.13476455625E+04  0.50400001928E-02 0. -1.
        1   -1    0    0  501    0  0.00000000000E+00  0.00000000000E+00 -0.26764615325E+04  0.26764615325E+04  0.50400001928E-02 0.  1.
    10030    2    1    2    0    0  0.00000000000E+00  0.00000000000E+00 -0.13288159700E+04  0.40241070950E+04  0.37983793952E+04 0.  0.
        5    1    3    3  502    0  0.99458005554E+03  0.14974118536E+04 -0.13135765228E+04  0.22264180015E+04  0.46999998093E+01 0.  1.
       -5    1    3    3    0  502 -0.99458005554E+03 -0.14974118536E+04 -0.15239447176E+02  0.17976890935E+04  0.46999998093E+01 0. -1.
</event>
<event>
 5   0  0.1327249E-08  0.3805409E+04  0.7818609E-02  0.8044995E-01
       -2   -1    0    0    0  501  0.00000000000E+00  0.00000000000E+00  0.16082172097E+04  0.16082172097E+04  0.25500000920E-02 0.  1.
        2   -1    0    0  501    0  0.00000000000E+00  0.00000000000E+00 -0.22511168383E+04  0.22511168383E+04  0.25500000920E-02 0. -1.
    10030    2    1    2    0    0  0.00000000000E+00  0.00000000000E+00 -0.64289962863E+03  0.38593340480E+04  0.38054092239E+04 0.  0.
        1    1    3    3  502    0 -0.80970560407E+03 -0.15434331999E+04  0.45256609126E+03  0.18007290953E+04  0.50400001928E-02 0. -1.
       -1    1    3    3    0  502  0.80970560407E+03  0.15434331999E+04 -0.10954657199E+04  0.20586049527E+04  0.50400001928E-02 0.  1.
</event>
<event>
 5   0  0.1327249E-08  0.3787816E+04  0.7818609E-02  0.8048775E-01
       -2   -1    0    0    0  501  0.00000000000E+00  0.00000000000E+00  0.16459682011E+04  0.16459682011E+04  0.25500000920E-02 0. -1.
        2   -1    0    0  501    0  0.00000000000E+00  0.00000000000E+00 -0.21791960810E+04  0.21791960810E+04  0.25500000920E-02 0.  1.
    10030    2    1    2    0    0  0.00000000000E+00  0.00000000000E+00 -0.53322787982E+03  0.38251642821E+04  0.37878159688E+04 0.  0.
        1    1    3    3  502    0 -0.10427565731E+04 -0.95478426360E+03 -0.15391712048E+04  0.20899766168E+04  0.50400001928E-02 0.  1.
       -1    1    3    3    0  502  0.10427565731E+04  0.95478426360E+03  0.10059433250E+04  0.17351876653E+04  0.50400001928E-02 0. -1.
</event>
<event>
 5   0  0.1261152E-08  0.3787254E+04  0.7818609E-02  0.8048896E-01
        2   -1    0    0  501    0  0.00000000000E+00  0.00000000000E+00  0.22574689307E+04  0.22574689307E+04  0.25500000920E-02 0.  1.
       -2   -1    0    0    0  501  0.00000000000E+00  0.00000000000E+00 -0.15884260934E+04  0.15884260934E+04  0.25500000920E-02 0. -1.
    10030    2    1    2    0    0  0.00000000000E+00  0.00000000000E+00  0.66904283727E+03  0.38458950241E+04  0.37872536512E+04 0.  0.
        2    1    3    3  502    0 -0.85802323459E+03 -0.82748546132E+03 -0.11596161933E+04  0.16630230833E+04  0.25500000920E-02 0. -1.
       -2    1    3    3    0  502  0.85802323459E+03  0.82748546132E+03  0.18286590306E+04  0.21828719408E+04  0.25500000920E-02 0.  1.
</event>
<event>
 5   0  0.1293993E-08  0.3808860E+04  0.7818609E-02  0.8044256E-01
        2   -1    0    0  501    0  0.00000000000E+00  0.00000000000E+00  0.12598222428E+04  0.12598222428E+04  0.25500000920E-02 0. -1.
       -2   -1    0    0    0  501  0.00000000000E+00  0.00000000000E+00 -0.28788617523E+04  0.28788617523E+04  0.25500000920E-02 0.  1.
    10030    2    1    2    0    0  0.00000000000E+00  0.00000000000E+00 -0.16190395096E+04  0.41386839951E+04  0.38088602334E+04 0.  0.
        5    1    3    3  502    0  0.24023241807E+03 -0.93782802631E+03  0.97249376656E+03  0.13722241936E+04  0.46999998093E+01 0. -1.
       -5    1    3    3    0  502 -0.24023241807E+03  0.93782802631E+03 -0.25915332761E+04  0.27664598014E+04  0.46999998093E+01 0.  1.
</event>
<event>
 5   0  0.4071750E-09  0.3799323E+04  0.7818609E-02  0.8046300E-01
       -1   -1    0    0    0  501  0.00000000000E+00  0.00000000000E+00  0.15931196289E+04  0.15931196289E+04  0.50400001928E-02 0.  1.
        1   -1    0    0  501    0  0.00000000000E+00  0.00000000000E+00 -0.22651868283E+04  0.22651868283E+04  0.50400001928E-02 0. -1.
    10030    2    1    2    0    0  0.00000000000E+00  0.00000000000E+00 -0.67206719947E+03  0.38583064572E+04  0.37993228866E+04 0.  0.
        4    1    3    3  502    0 -0.18259474747E+03 -0.53560777363E+03  0.15055402490E+04  0.16083748268E+04  0.12699999809E+01 0.  1.
       -4    1    3    3    0  502  0.18259474747E+03  0.53560777363E+03 -0.21776074485E+04  0.22499316304E+04  0.12699999809E+01 0. -1.
</event>
<event>
 5   0  0.1327249E-08  0.3801034E+04  0.7818609E-02  0.8045933E-01
       -2   -1    0    0    0  501  0.00000000000E+00  0.00000000000E+00  0.18257312319E+04  0.18257312319E+04  0.25500000920E-02 0.  1.
        2   -1    0    0  501    0  0.00000000000E+00  0.00000000000E+00 -0.19783659882E+04  0.19783659882E+04  0.25500000920E-02 0. -1.
    10030    2    1    2    0    0  0.00000000000E+00  0.00000000000E+00 -0.15263475627E+03  0.38040972201E+04  0.38010338450E+04 0.  0.
        1    1    3    3  502    0  0.37299003058E+03 -0.73950777156E+03 -0.17882430290E+04  0.19707375366E+04  0.50400001928E-02 0. -1.
       -1    1    3    3    0  502 -0.37299003058E+03  0.73950777156E+03  0.16356082728E+04  0.18333596835E+04  0.50400001928E-02 0.  1.
</event>
<event>
 5   0  0.4071750E-09  0.3796745E+04  0.7818609E-02  0.8046854E-01
       -1   -1    0    0    0  501  0.00000000000E+00  0.00000000000E+00  0.16573686016E+04  0.16573686016E+04  0.50400001928E-02 0.  1.
        1   -1    0    0  501    0  0.00000000000E+00  0.00000000000E+00 -0.21744220831E+04  0.21744220831E+04  0.50400001928E-02 0. -1.
    10030    2    1    2    0    0  0.00000000000E+00  0.00000000000E+00 -0.51705348151E+03  0.38317906847E+04  0.37967453889E+04 0.  0.
        1    1    3    3  502    0 -0.12321589569E+04 -0.78467389623E+03 -0.14821077586E+04  0.20810026974E+04  0.50400001928E-02 0. -1.
       -1    1    3    3    0  502  0.12321589569E+04  0.78467389623E+03  0.96505427707E+03  0.17507879872E+04  0.50400001928E-02 0.  1.
</event>
<event>
 5   0  0.4071750E-09  0.3802385E+04  0.7818609E-02  0.8045643E-01
       -1   -1    0    0    0  501  0.00000000000E+00  0.00000000000E+00  0.15618133627E+04  0.15618133627E+04  0.50400001928E-02 0.  1.
        1   -1    0    0  501    0  0.00000000000E+00  0.00000000000E+00 -0.23143178845E+04  0.23143178845E+04  0.50400001928E-02 0. -1.
    10030    2    1    2    0    0  0.00000000000E+00  0.00000000000E+00 -0.75250452179E+03  0.38761312472E+04  0.38023848293E+04 0.  0.
        2    1    3    3  502    0 -0.12332917263E+04  0.13490032120E+04  0.15707191093E+03  0.18345271144E+04  0.25500000920E-02 0.  1.
       -2    1    3    3    0  502  0.12332917263E+04 -0.13490032120E+04 -0.90957643272E+03  0.20416041328E+04  0.25500000920E-02 0. -1.
</event>
<event>
 5   0  0.4071750E-09  0.3801712E+04  0.7818609E-02  0.8045788E-01
        1   -1    0    0  501    0  0.00000000000E+00  0.00000000000E+00  0.23114820221E+04  0.23114820221E+04  0.50400001928E-02 0. -1.
       -1   -1    0    0    0  501  0.00000000000E+00  0.00000000000E+00 -0.15631759080E+04  0.15631759080E+04  0.50400001928E-02 0.  1.
    10030    2    1    2    0    0  0.00000000000E+00  0.00000000000E+00  0.74830611412E+03  0.38746579301E+04  0.38017117243E+04 0.  0.
        3    1    3    3  502    0  0.99771191185E+03 -0.49278339679E+03 -0.11965169017E+04  0.16339881400E+04  0.10100000352E+00 0.  1.
       -3    1    3    3    0  502 -0.99771191185E+03  0.49278339679E+03  0.19448230158E+04  0.22406697901E+04  0.10100000352E+00 0. -1.
</event>
<event>
 5   0  0.4071750E-09  0.3800580E+04  0.7818609E-02  0.8046030E-01
        1   -1    0    0  501    0  0.00000000000E+00  0.00000000000E+00  0.17478113824E+04  0.17478113824E+04  0.50400001928E-02 0. -1.
       -1   -1    0    0    0  501  0.00000000000E+00  0.00000000000E+00 -0.20660711161E+04  0.20660711161E+04  0.50400001928E-02 0.  1.
    10030    2    1    2    0    0  0.00000000000E+00  0.00000000000E+00 -0.31825973368E+03  0.38138824985E+04  0.38005802787E+04 0.  0.
        5    1    3    3  502    0  0.26784715160E+03 -0.82164239114E+03  0.15392008655E+04  0.17652194509E+04  0.46999998093E+01 0. -1.
       -5    1    3    3    0  502 -0.26784715160E+03  0.82164239114E+03 -0.18574605991E+04  0.20486630477E+04  0.46999998093E+01 0.  1.
</event>
<event>
 5   0  0.4071750E-09  0.3800793E+04  0.7818609E-02  0.8045985E-01
       -1   -1    0    0    0  501  0.00000000000E+00  0.00000000000E+00  0.16821680913E+04  0.16821680913E+04  0.50400001928E-02 0.  1.
        1   -1    0    0  501    0  0.00000000000E+00  0.00000000000E+00 -0.21469353132E+04  0.21469353132E+04  0.50400001928E-02 0. -1.
    10030    2    1    2    0    0  0.00000000000E+00  0.00000000000E+00 -0.46476722198E+03  0.38291034045E+04  0.38007925900E+04 0.  0.
        2    1    3    3  502    0  0.34333845354E+03  0.10447278117E+03  0.16477191803E+04  0.16863494160E+04  0.25500000920E-02 0.  1.
       -2    1    3    3    0  502 -0.34333845354E+03 -0.10447278117E+03 -0.21124864023E+04  0.21427539885E+04  0.25500000920E-02 0. -1.
</event>
<event>
 5   0  0.1327249E-08  0.3800603E+04  0.7818609E-02  0.8046025E-01
       -2   -1    0    0    0  501  0.00000000000E+00  0.00000000000E+00  0.16281173146E+04  0.16281173146E+04  0.25500000920E-02 0. -1.
        2   -1    0    0  501    0  0.00000000000E+00  0.00000000000E+00 -0.22179890063E+04  0.22179890063E+04  0.25500000920E-02 0.  1.
    10030    2    1    2    0    0  0.00000000000E+00  0.00000000000E+00 -0.58987169163E+03  0.38461063209E+04  0.38006032704E+04 0.  0.
        1    1    3    3  502    0 -0.11258272488E+04  0.25731101744E+03  0.12322546297E+04  0.16888301947E+04  0.50400001928E-02 0. -1.
       -1    1    3    3    0  502  0.11258272488E+04 -0.25731101744E+03 -0.18221263214E+04  0.21572761262E+04  0.50400001928E-02 0.  1.
</event>
<event>
 5   0  0.1305088E-08  0.3800413E+04  0.7818609E-02  0.8046066E-01
        2   -1    0    0  501    0  0.00000000000E+00  0.00000000000E+00  0.23678697394E+04  0.23678697394E+04  0.25500000920E-02 0. -1.
       -2   -1    0    0    0  501  0.00000000000E+00  0.00000000000E+00 -0.15249082411E+04  0.15249082411E+04  0.25500000920E-02 0.  1.
    10030    2    1    2    0    0  0.00000000000E+00  0.00000000000E+00  0.84296149829E+03  0.38927779806E+04  0.38004126511E+04 0.  0.
        3    1    3    3  502    0  0.11861099474E+04 -0.11327298324E+04  0.14044126218E+04  0.21592379450E+04  0.10100000352E+00 0. -1.
       -3    1    3    3    0  502 -0.11861099474E+04  0.11327298324E+04 -0.56145112349E+03  0.17335400356E+04  0.10100000352E+00 0.  1.
</event>
<event>
 5   0  0.4071750E-09  0.3796164E+04  0.7818609E-02  0.8046979E-01
        1   -1    0    0  501    0  0.00000000000E+00  0.00000000000E+00  0.21387365960E+04  0.21387365960E+04  0.50400001928E-02 0.  1.
       -1   -1    0    0    0  501  0.00000000000E+00  0.00000000000E+00 -0.16845066092E+04  0.16845066092E+04  0.50400001928E-02 0. -1.
    10030    2    1    2    0    0  0.00000000000E+00  0.00000000000E+00  0.45422998672E+03  0.38232432052E+04  0.37961643438E+04 0.  0.
        1    1    3    3  502    0  0.42589767626E+03  0.91564923898E+03 -0.13914936561E+04  0.17193187472E+04  0.50400001928E-02 0. -1.
       -1    1    3    3    0  502 -0.42589767626E+03 -0.91564923898E+03  0.18457236428E+04  0.21039244580E+04  0.50400001928E-02 0.  1.
</event>
<event>
 5   0  0.4071750E-09  0.3798413E+04  0.7818609E-02  0.8046496E-01
       -1   -1    0    0    0  501  0.00000000000E+00  0.00000000000E+00  0.13703945995E+04  0.13703945996E+04  0.50400001928E-02 0. -1.
        1   -1    0    0  501    0  0.00000000000E+00  0.00000000000E+00 -0.26320772445E+04  0.26320772445E+04  0.50400001928E-02 0.  1.
    10030    2    1    2    0    0  0.00000000000E+00  0.00000000000E+00 -0.12616826449E+04  0.40024718440E+04  0.37984125323E+04 0.  0.
        2    1    3    3  502    0  0.11943211711E+04 -0.10924915644E+04 -0.16777150858E+04  0.23312376085E+04  0.25500000920E-02 0.  1.
       -2    1    3    3    0  502 -0.11943211711E+04  0.10924915644E+04  0.41603244085E+03  0.16712342355E+04  0.25500000920E-02 0. -1.
</event>
<event>
 5   0  0.4071750E-09  0.3801226E+04  0.7818609E-02  0.8045892E-01
       -1   -1    0    0    0  501  0.00000000000E+00  0.00000000000E+00  0.19641357612E+04  0.19641357612E+04  0.50400001928E-02 0.  1.
        1   -1    0    0  501    0  0.00000000000E+00  0.00000000000E+00 -0.18391446922E+04  0.18391446922E+04  0.50400001928E-02 0. -1.
    10030    2    1    2    0    0  0.00000000000E+00  0.00000000000E+00  0.12499106902E+03  0.38032804535E+04  0.38012260444E+04 0.  0.
        1    1    3    3  502    0  0.51940752731E+03  0.75614614203E+03 -0.16029727181E+04  0.18469062517E+04  0.50400001928E-02 0. -1.
       -1    1    3    3    0  502 -0.51940752731E+03 -0.75614614203E+03  0.17279637872E+04  0.19563742017E+04  0.50400001928E-02 0.  1.
</event>
<event>
 5   0  0.4071750E-09  0.3796583E+04  0.7818609E-02  0.8046889E-01
        1   -1    0    0  501    0  0.00000000000E+00  0.00000000000E+00  0.20735892376E+04  0.20735892376E+04  0.50400001928E-02 0. -1.
       -1   -1    0    0    0  501  0.00000000000E+00  0.00000000000E+00 -0.17378129773E+04  0.17378129773E+04  0.50400001928E-02 0.  1.
    10030    2    1    2    0    0  0.00000000000E+00  0.00000000000E+00  0.33577626022E+03  0.38114022149E+04  0.37965828250E+04 0.  0.
        4    1    3    3  502    0  0.17665660405E+04  0.45018043495E+03 -0.36341359722E+03  0.18588945788E+04  0.12699999809E+01 0.  1.
       -4    1    3    3    0  502 -0.17665660405E+04 -0.45018043495E+03  0.69918985744E+03  0.19525076361E+04  0.12699999809E+01 0. -1.
</event>
<event>
 5   0  0.4071750E-09  0.3798523E+04  0.7818609E-02  0.8046472E-01
       -1   -1    0    0    0  501  0.00000000000E+00  0.00000000000E+00  0.21865733881E+04  0.21865733881E+04  0.50400001928E-02 0. -1.
        1   -1    0    0  501    0  0.00000000000E+00  0.00000000000E+00 -0.16497016983E+04  0.16497016983E+04  0.50400001928E-02 0.  1.
    10030    2    1    2    0    0  0.00000000000E+00  0.00000000000E+00  0.53687168980E+03  0.38362750865E+04  0.37985227823E+04 0.  0.
        5    1    3    3  502    0  0.16858107897E+04  0.31956697848E+03 -0.55396105469E+03  0.18030463146E+04  0.46999998093E+01 0. -1.
       -5    1    3    3    0  502 -0.16858107897E+04 -0.31956697848E+03  0.10908327445E+04  0.20332287719E+04  0.46999998093E+01 0.  1.
</event>
<event>
 5   0  0.1327249E-08  0.3802112E+04  0.7818609E-02  0.8045702E-01
       -2   -1    0    0    0  501  0.00000000000E+00  0.00000000000E+00  0.13342430014E+04  0.13342430014E+04  0.25500000920E-02 0.  1.
        2   -1    0    0  501    0  0.00000000000E+00  0.00000000000E+00 -0.27086629986E+04  0.27086629986E+04  0.25500000920E-02 0. -1.
    10030    2    1    2    0    0  0.00000000000E+00  0.00000000000E+00 -0.13744199973E+04  0.40429060000E+04  0.38021123860E+04 0.  0.
        1    1    3    3  502    0  0.69190521996E+03  0.15015864609E+04 -0.16849980195E+04  0.23606594542E+04  0.50400001928E-02 0. -1.
       -1    1    3    3    0  502 -0.69190521996E+03 -0.15015864609E+04  0.31057802221E+03  0.16822465458E+04  0.50400001928E-02 0.  1.
</event>
<event>
 5   0  0.4071750E-09  0.3804329E+04  0.7818609E-02  0.8045227E-01
       -1   -1    0    0    0  501  0.00000000000E+00  0.00000000000E+00  0.30197780421E+04  0.30197780421E+04  0.50400001928E-02 0.  1.
        1   -1    0    0  501    0  0.00000000000E+00  0.00000000000E+00 -0.11981772792E+04  0.11981772792E+04  0.50400001928E-02 0. -1.
    10030    2    1    2    0    0  0.00000000000E+00  0.00000000000E+00  0.18216007629E+04  0.42179553213E+04  0.38043288177E+04 0.  0.
        5    1    3    3  502    0 -0.69830229144E+01 -0.18604195534E+04  0.13501098188E+04  0.22987014356E+04  0.46999998093E+01 0.  1.
       -5    1    3    3    0  502  0.69830229144E+01  0.18604195534E+04  0.47149094407E+03  0.19192538857E+04  0.46999998093E+01 0. -1.
</event>
<event>
 5   0  0.1261152E-08  0.3800273E+04  0.7818609E-02  0.8046096E-01
        2   -1    0    0  501    0  0.00000000000E+00  0.00000000000E+00  0.31880329898E+04  0.31880329898E+04  0.25500000920E-02 0. -1.
       -2   -1    0    0    0  501  0.00000000000E+00  0.00000000000E+00 -0.11325221445E+04  0.11325221445E+04  0.25500000920E-02 0.  1.
    10030    2    1    2    0    0  0.00000000000E+00  0.00000000000E+00  0.20555108454E+04  0.43205551343E+04  0.38002725999E+04 0.  0.
        2    1    3    3  502    0 -0.85253573136E+03 -0.79723896259E+03 -0.67688843995E+03  0.13492905902E+04  0.25500000920E-02 0.  1.
       -2    1    3    3    0  502  0.85253573136E+03  0.79723896259E+03  0.27323992853E+04  0.29712645441E+04  0.25500000920E-02 0. -1.
</event>
<event>
 5   0  0.4071750E-09  0.3800263E+04  0.7818609E-02  0.8046099E-01
        1   -1    0    0  501    0  0.00000000000E+00  0.00000000000E+00  0.17584142770E+04  0.17584142770E+04  0.50400001928E-02 0.  1.
       -1   -1    0    0    0  501  0.00000000000E+00  0.00000000000E+00 -0.20532697613E+04  0.20532697613E+04  0.50400001928E-02 0. -1.
    10030    2    1    2    0    0  0.00000000000E+00  0.00000000000E+00 -0.29485548426E+03  0.38116840383E+04  0.38002625503E+04 0.  0.
        4    1    3    3  502    0 -0.14826326082E+04  0.19179913337E+03  0.10289188762E+04  0.18148449039E+04  0.12699999809E+01 0.  1.
       -4    1    3    3    0  502  0.14826326082E+04 -0.19179913337E+03 -0.13237743604E+04  0.19968391344E+04  0.12699999809E+01 0. -1.
</event>
<event>
 5   0  0.1305088E-08  0.3799255E+04  0.7818609E-02  0.8046315E-01
       -2   -1    0    0    0  501  0.00000000000E+00  0.00000000000E+00  0.17540390335E+04  0.17540390335E+04  0.25500000920E-02 0. -1.
        2   -1    0    0  501    0  0.00000000000E+00  0.00000000000E+00 -0.20573003048E+04  0.20573003048E+04  0.25500000920E-02 0.  1.
    10030    2    1    2    0    0  0.00000000000E+00  0.00000000000E+00 -0.30326127128E+03  0.38113393384E+04  0.37992552104E+04 0.  0.
        3    1    3    3  502    0 -0.25036460502E+03  0.15709880682E+04  0.88989077165E+03  0.18227977237E+04  0.10100000352E+00 0. -1.
       -3    1    3    3    0  502  0.25036460502E+03 -0.15709880682E+04 -0.11931520429E+04  0.19885416147E+04  0.10100000352E+00 0.  1.
</event>
<event>
 5   0  0.4071750E-09  0.3798188E+04  0.7818609E-02  0.8046544E-01
        1   -1    0    0  501    0  0.00000000000E+00  0.00000000000E+00  0.15292973386E+04  0.15292973386E+04  0.50400001928E-02 0. -1.
       -1   -1    0    0    0  501  0.00000000000E+00  0.00000000000E+00 -0.23583107601E+04  0.23583107601E+04  0.50400001928E-02 0.  1.
    10030    2    1    2    0    0  0.00000000000E+00  0.00000000000E+00 -0.82901342153E+03  0.38876080988E+04  0.37981881834E+04 0.  0.
        1    1    3    3  502    0 -0.12077478271E+04  0.27498890148E+03  0.10589273529E+04  0.16296014385E+04  0.50400001928E-02 0. -1.
       -1    1    3    3    0  502  0.12077478271E+04 -0.27498890148E+03 -0.18879407745E+04  0.22580066602E+04  0.50400001928E-02 0.  1.
</event>
<event>
 5   0  0.1305088E-08  0.3798791E+04  0.7818609E-02  0.8046414E-01
       -2   -1    0    0    0  501  0.00000000000E+00  0.00000000000E+00  0.11746102168E+04  0.11746102168E+04  0.25500000920E-02 0. -1.
        2   -1    0    0  501    0  0.00000000000E+00  0.00000000000E+00 -0.30714048765E+04  0.30714048765E+04  0.25500000920E-02 0.  1.
    10030    2    1    2    0    0  0.00000000000E+00  0.00000000000E+00 -0.18967946598E+04  0.42460150933E+04  0.37987911487E+04 0.  0.
        3    1    3    3  502    0  0.69905461183E+03 -0.62324329337E+03  0.89859325152E+03  0.12979134774E+04  0.10100000352E+00 0. -1.
       -3    1    3    3    0  502 -0.69905461183E+03  0.62324329337E+03 -0.27953879113E+04  0.29481016159E+04  0.10100000352E+00 0.  1.
</event>
<event>
 5   0  0.4071750E-09  0.3781821E+04  0.7818609E-02  0.8050067E-01
       -1   -1    0    0    0  501  0.00000000000E+00  0.00000000000E+00  0.29938192332E+04  0.29938192333E+04  0.50400001928E-02 0.  1.
        1   -1    0    0  501    0  0.00000000000E+00  0.00000000000E+00 -0.11943083016E+04  0.11943083016E+04  0.50400001928E-02 0. -1.
    10030    2    1    2    0    0  0.00000000000E+00  0.00000000000E+00  0.17995109317E+04  0.41881275348E+04  0.37818213409E+04 0.  0.
        5    1    3    3  502    0 -0.89897253844E+03 -0.73955494475E+03 -0.75044699682E+03  0.13850219948E+04  0.46999998093E+01 0. -1.
       -5    1    3    3    0  502  0.89897253844E+03  0.73955494475E+03  0.25499579285E+04  0.28031055400E+04  0.46999998093E+01 0.  1.
</event>
<event>
 5   0  0.4071750E-09  0.3800729E+04  0.7818609E-02  0.8045999E-01
       -1   -1    0    0    0  501  0.00000000000E+00  0.00000000000E+00  0.18873485877E+04  0.18873485877E+04  0.50400001928E-02 0.  1.
        1   -1    0    0  501    0  0.00000000000E+00  0.00000000000E+00 -0.19134698571E+04  0.19134698571E+04  0.50400001928E-02 0. -1.
    10030    2    1    2    0    0  0.00000000000E+00  0.00000000000E+00 -0.26121269443E+02  0.38008184448E+04  0.38007286840E+04 0.  0.
        5    1    3    3  502    0  0.45490033241E+03  0.43972373979E+03 -0.18050491766E+04  0.19127247319E+04  0.46999998093E+01 0. -1.
       -5    1    3    3    0  502 -0.45490033241E+03 -0.43972373979E+03  0.17789279072E+04  0.18880937129E+04  0.46999998093E+01 0.  1.
</event>
<event>
 5   0  0.4071750E-09  0.3800582E+04  0.7818609E-02  0.8046030E-01
       -1   -1    0    0    0  501  0.00000000000E+00  0.00000000000E+00  0.17098775859E+04  0.17098775859E+04  0.50400001928E-02 0. -1.
        1   -1    0    0  501    0  0.00000000000E+00  0.00000000000E+00 -0.21119094128E+04  0.21119094128E+04  0.50400001928E-02 0.  1.
    10030    2    1    2    0    0  0.00000000000E+00  0.00000000000E+00 -0.40203182687E+03  0.38217869987E+04  0.38005823598E+04 0.  0.
        3    1    3    3  502    0  0.17396336821E+04 -0.51084571744E+02  0.56624280047E+03  0.18301819310E+04  0.10100000352E+00 0. -1.
       -3    1    3    3    0  502 -0.17396336821E+04  0.51084571744E+02 -0.96827462734E+03  0.19916050677E+04  0.10100000352E+00 0.  1.
</event>
<event>
 5   0  0.1293993E-08  0.3796802E+04  0.7818609E-02  0.8046842E-01
        2   -1    0    0  501    0  0.00000000000E+00  0.00000000000E+00  0.20760486247E+04  0.20760486247E+04  0.25500000920E-02 0. -1.
       -2   -1    0    0    0  501  0.00000000000E+00  0.00000000000E+00 -0.17359545710E+04  0.17359545710E+04  0.25500000920E-02 0.  1.
    10030    2    1    2    0    0  0.00000000000E+00  0.00000000000E+00  0.34009405378E+03  0.38120031957E+04  0.37968018645E+04 0.  0.
        5    1    3    3  502    0  0.13071317269E+04 -0.13591853100E+04  0.38984348644E+03  0.19256110958E+04  0.46999998093E+01 0. -1.
       -5    1    3    3    0  502 -0.13071317269E+04  0.13591853100E+04 -0.49749432654E+02  0.18863920999E+04  0.46999998093E+01 0.  1.
</event>
<event>
 5   0  0.1327249E-08  0.3798379E+04  0.7818609E-02  0.8046503E-01
        2   -1    0    0  501    0  0.00000000000E+00  0.00000000000E+00  0.19098942869E+04  0.19098942869E+04  0.25500000920E-02 0. -1.
       -2   -1    0    0    0  501  0.00000000000E+00  0.00000000000E+00 -0.18885446455E+04  0.18885446455E+04  0.25500000920E-02 0.  1.
    10030    2    1    2    0    0  0.00000000000E+00  0.00000000000E+00  0.21349641419E+02  0.37984389324E+04  0.37983789326E+04 0.  0.
        1    1    3    3  502    0  0.18178748019E+04  0.11185341995E+03 -0.52760930471E+03  0.18961939672E+04  0.50400001928E-02 0.  1.
       -1    1    3    3    0  502 -0.18178748019E+04 -0.11185341995E+03  0.54895894613E+03  0.19022449652E+04  0.50400001928E-02 0. -1.
</event>
<event>
 5   0  0.1327249E-08  0.3799802E+04  0.7818609E-02  0.8046197E-01
       -2   -1    0    0    0  501  0.00000000000E+00  0.00000000000E+00  0.13905718713E+04  0.13905718713E+04  0.25500000920E-02 0.  1.
        2   -1    0    0  501    0  0.00000000000E+00  0.00000000000E+00 -0.25957834731E+04  0.25957834731E+04  0.25500000920E-02 0. -1.
    10030    2    1    2    0    0  0.00000000000E+00  0.00000000000E+00 -0.12052116018E+04  0.39863553445E+04  0.37998018274E+04 0.  0.
        1    1    3    3  502    0 -0.95046990330E+03  0.15335631529E+04 -0.12271609643E+04  0.21820020654E+04  0.50400001928E-02 0.  1.
       -1    1    3    3    0  502  0.95046990330E+03 -0.15335631529E+04  0.21949362470E+02  0.18043532791E+04  0.50400001928E-02 0. -1.
</event>
<event>
 5   0  0.4071750E-09  0.3798732E+04  0.7818609E-02  0.8046427E-01
       -1   -1    0    0    0  501  0.00000000000E+00  0.00000000000E+00  0.19434732747E+04  0.19434732747E+04  0.50400001928E-02 0. -1.
        1   -1    0    0  501    0  0.00000000000E+00  0.00000000000E+00 -0.18562601258E+04  0.18562601258E+04  0.50400001928E-02 0.  1.
    10030    2    1    2    0    0  0.00000000000E+00  0.00000000000E+00  0.87213148958E+02  0.37997334005E+04  0.37987323914E+04 0.  0.
        2    1    3    3  502    0  0.16178662690E+04 -0.27122202104E+03 -0.91400628937E+03  0.18778871494E+04  0.25500000920E-02 0.  1.
       -2    1    3    3    0  502 -0.16178662690E+04  0.27122202104E+03  0.10012194383E+04  0.19218462511E+04  0.25500000920E-02 0. -1.
</event>
<event>
 5   0  0.4071750E-09  0.3799576E+04  0.7818609E-02  0.8046246E-01
       -1   -1    0    0    0  501  0.00000000000E+00  0.00000000000E+00  0.18839636770E+04  0.18839636770E+04  0.50400001928E-02 0. -1.
        1   -1    0    0  501    0  0.00000000000E+00  0.00000000000E+00 -0.19157451860E+04  0.19157451860E+04  0.50400001928E-02 0.  1.
    10030    2    1    2    0    0  0.00000000000E+00  0.00000000000E+00 -0.31781508951E+02  0.37997088630E+04  0.37995759473E+04 0.  0.
        2    1    3    3  502    0 -0.17568166918E+04  0.33138765101E+03  0.62676045295E+03  0.18944791710E+04  0.25500000920E-02 0.  1.
       -2    1    3    3    0  502  0.17568166918E+04 -0.33138765101E+03 -0.65854196190E+03  0.19052296920E+04  0.25500000920E-02 0. -1.
</event>
<event>
 5   0  0.1261152E-08  0.3806822E+04  0.7818609E-02  0.8044693E-01
        2   -1    0    0  501    0  0.00000000000E+00  0.00000000000E+00  0.22989174355E+04  0.22989174355E+04  0.25500000920E-02 0. -1.
       -2   -1    0    0    0  501  0.00000000000E+00  0.00000000000E+00 -0.15759473713E+04  0.15759473713E+04  0.25500000920E-02 0.  1.
    10030    2    1    2    0    0  0.00000000000E+00  0.00000000000E+00  0.72297006420E+03  0.38748648068E+04  0.38068217134E+04 0.  0.
        2    1    3    3  502    0  0.24207669517E+01  0.90569034509E+03  0.20655325695E+04  0.22553726204E+04  0.25500000920E-02 0. -1.
       -2    1    3    3    0  502 -0.24207669517E+01 -0.90569034509E+03 -0.13425625053E+04  0.16194921864E+04  0.25500000920E-02 0.  1.
</event>
<event>
 5   0  0.4071750E-09  0.3799259E+04  0.7818609E-02  0.8046314E-01
       -1   -1    0    0    0  501  0.00000000000E+00  0.00000000000E+00  0.15817587148E+04  0.15817587148E+04  0.50400001928E-02 0. -1.
        1   -1    0    0  501    0  0.00000000000E+00  0.00000000000E+00 -0.22813796999E+04  0.22813796999E+04  0.50400001928E-02 0.  1.
    10030    2    1    2    0    0  0.00000000000E+00  0.00000000000E+00 -0.69962098506E+03  0.38631384147E+04  0.37992589920E+04 0.  0.
        5    1    3    3  502    0  0.49824005600E+03  0.16001734899E+04  0.55952555426E+03  0.17668868914E+04  0.46999998093E+01 0. -1.
       -5    1    3    3    0  502 -0.49824005600E+03 -0.16001734899E+04 -0.12591465393E+04  0.20962515233E+04  0.46999998093E+01 0.  1.
</event>
<event>
 5   0  0.4071750E-09  0.3802837E+04  0.7818609E-02  0.8045546E-01
       -1   -1    0    0    0  501  0.00000000000E+00  0.00000000000E+00  0.13534390857E+04  0.13534390857E+04  0.50400001928E-02 0. -1.
        1   -1    0    0  501    0  0.00000000000E+00  0.00000000000E+00 -0.26712630125E+04  0.26712630125E+04  0.50400001928E-02 0.  1.
    10030    2    1    2    0    0  0.00000000000E+00  0.00000000000E+00 -0.13178239268E+04  0.40247020983E+04  0.38028367146E+04 0.  0.
        4    1    3    3  502    0  0.20183725103E+03  0.12347153135E+04  0.85645131823E+03  0.15161697315E+04  0.12699999809E+01 0. -1.
       -4    1    3    3    0  502 -0.20183725103E+03 -0.12347153135E+04 -0.21742752450E+04  0.25085323668E+04  0.12699999809E+01 0.  1.
</event>
<event>
 5   0  0.4071750E-09  0.3795976E+04  0.7818609E-02  0.8047019E-01
        1   -1    0    0  501    0  0.00000000000E+00  0.00000000000E+00  0.20188476991E+04  0.20188476991E+04  0.50400001928E-02 0. -1.
       -1   -1    0    0    0  501  0.00000000000E+00  0.00000000000E+00 -0.17843640395E+04  0.17843640395E+04  0.50400001928E-02 0.  1.
    10030    2    1    2    0    0  0.00000000000E+00  0.00000000000E+00  0.23448365966E+03  0.38032117386E+04  0.37959764148E+04 0.  0.
        3    1    3    3  502    0  0.26362933443E+03 -0.16918665909E+04  0.93761033401E+03  0.19521849646E+04  0.10100000352E+00 0. -1.
       -3    1    3    3    0  502 -0.26362933443E+03  0.16918665909E+04 -0.70312667435E+03  0.18510267739E+04  0.10100000352E+00 0.  1.
</event>
<event>
 5   0  0.4071750E-09  0.3798093E+04  0.7818609E-02  0.8046564E-01
        1   -1    0    0  501    0  0.00000000000E+00  0.00000000000E+00  0.15924828960E+04  0.15924828960E+04  0.50400001928E-02 0. -1.
       -1   -1    0    0    0  501  0.00000000000E+00  0.00000000000E+00 -0.22646258628E+04  0.22646258628E+04  0.50400001928E-02 0.  1.
    10030    2    1    2    0    0  0.00000000000E+00  0.00000000000E+00 -0.67214296677E+03  0.38571087588E+04  0.37980931807E+04 0.  0.
        5    1    3    3  502    0  0.25377115515E+02  0.14708263969E+04  0.88358169671E+03  0.17160166061E+04  0.46999998093E+01 0. -1.
       -5    1    3    3    0  502 -0.25377115515E+02 -0.14708263969E+04 -0.15557246635E+04  0.21410921527E+04  0.46999998093E+01 0.  1.
</event>
<event>
 5   0  0.1261152E-08  0.3800196E+04  0.7818609E-02  0.8046113E-01
        2   -1    0    0  501    0  0.00000000000E+00  0.00000000000E+00  0.14965778797E+04  0.14965778797E+04  0.25500000920E-02 0. -1.
       -2   -1    0    0    0  501  0.00000000000E+00  0.00000000000E+00 -0.24124188195E+04  0.24124188195E+04  0.25500000920E-02 0.  1.
    10030    2    1    2    0    0  0.00000000000E+00  0.00000000000E+00 -0.91584093984E+03  0.39089966992E+04  0.38001961222E+04 0.  0.
        2    1    3    3  502    0  0.15922712977E+04 -0.31988978488E+03  0.55657979019E+03  0.17168105378E+04  0.25500000920E-02 0. -1.
       -2    1    3    3    0  502 -0.15922712977E+04  0.31988978488E+03 -0.14724207300E+04  0.21921861614E+04  0.25500000920E-02 0.  1.
</event>
<event>
 5   0  0.1261152E-08  0.3800787E+04  0.7818609E-02  0.8045986E-01
        2   -1    0    0  501    0  0.00000000000E+00  0.00000000000E+00  0.25795354894E+04  0.25795354894E+04  0.25500000920E-02 0. -1.
       -2   -1    0    0    0  501  0.00000000000E+00  0.00000000000E+00 -0.14000562572E+04  0.14000562572E+04  0.25500000920E-02 0.  1.
    10030    2    1    2    0    0  0.00000000000E+00  0.00000000000E+00  0.11794792322E+04  0.39795917466E+04  0.38007866568E+04 0.  0.
        2    1    3    3  502    0 -0.79720187147E+03  0.17007021323E+04  0.28704379016E+03  0.19000822888E+04  0.25500000920E-02 0.  1.
       -2    1    3    3    0  502  0.79720187147E+03 -0.17007021323E+04  0.89243544208E+03  0.20795094578E+04  0.25500000920E-02 0. -1.
</event>
<event>
 5   0  0.4071750E-09  0.3802403E+04  0.7818609E-02  0.8045639E-01
       -1   -1    0    0    0  501  0.00000000000E+00  0.00000000000E+00  0.25946671413E+04  0.25946671413E+04  0.50400001928E-02 0. -1.
        1   -1    0    0  501    0  0.00000000000E+00  0.00000000000E+00 -0.13930751731E+04  0.13930751731E+04  0.50400001928E-02 0.  1.
    10030    2    1    2    0    0  0.00000000000E+00  0.00000000000E+00  0.12015919682E+04  0.39877423144E+04  0.38024025968E+04 0.  0.
        4    1    3    3  502    0  0.17870872260E+04 -0.40277659827E+03  0.67424924997E+02  0.18331550602E+04  0.12699999809E+01 0. -1.
       -4    1    3    3    0  502 -0.17870872260E+04  0.40277659827E+03  0.11341670432E+04  0.21545872542E+04  0.12699999809E+01 0.  1.
</event>
<event>
 5   0  0.4071750E-09  0.3799581E+04  0.7818609E-02  0.8046245E-01
       -1   -1    0    0    0  501  0.00000000000E+00  0.00000000000E+00  0.14118872596E+04  0.14118872596E+04  0.50400001928E-02 0.  1.
        1   -1    0    0  501    0  0.00000000000E+00  0.00000000000E+00 -0.25562971281E+04  0.25562971281E+04  0.50400001928E-02 0. -1.
    10030    2    1    2    0    0  0.00000000000E+00  0.00000000000E+00 -0.11444098685E+04  0.39681843877E+04  0.37995806857E+04 0.  0.
        1    1    3    3  502    0 -0.17331728466E+04 -0.26379964629E+03 -0.13366162726E+04  0.22045456289E+04  0.50400001928E-02 0. -1.
       -1    1    3    3    0  502  0.17331728466E+04  0.26379964629E+03  0.19220640411E+03  0.17636387588E+04  0.50400001928E-02 0.  1.
</event>
<event>
 5   0  0.4071750E-09  0.3799903E+04  0.7818609E-02  0.8046176E-01
        1   -1    0    0  501    0  0.00000000000E+00  0.00000000000E+00  0.28302599143E+04  0.28302599143E+04  0.50400001928E-02 0. -1.
       -1   -1    0    0    0  501  0.00000000000E+00  0.00000000000E+00 -0.12754360777E+04  0.12754360777E+04  0.50400001928E-02 0.  1.
    10030    2    1    2    0    0  0.00000000000E+00  0.00000000000E+00  0.15548238366E+04  0.41056959920E+04  0.37999029482E+04 0.  0.
        1    1    3    3  502    0 -0.47023659292E+03  0.68342286171E+03  0.26242406395E+04  0.27522405773E+04  0.50400001928E-02 0. -1.
       -1    1    3    3    0  502  0.47023659292E+03 -0.68342286171E+03 -0.10694168029E+04  0.13534554147E+04  0.50400001928E-02 0.  1.
</event>
<event>
 5   0  0.4071750E-09  0.3800710E+04  0.7818609E-02  0.8046002E-01
        1   -1    0    0  501    0  0.00000000000E+00  0.00000000000E+00  0.26762926748E+04  0.26762926748E+04  0.50400001928E-02 0. -1.
       -1   -1    0    0    0  501  0.00000000000E+00  0.00000000000E+00 -0.13493853164E+04  0.13493853164E+04  0.50400001928E-02 0.  1.
    10030    2    1    2    0    0  0.00000000000E+00  0.00000000000E+00  0.13269073584E+04  0.40256779913E+04  0.38007104798E+04 0.  0.
        5    1    3    3  502    0  0.15218940995E+04 -0.10686368357E+04  0.10780042921E+04  0.21494793976E+04  0.46999998093E+01 0.  1.
       -5    1    3    3    0  502 -0.15218940995E+04  0.10686368357E+04  0.24890306629E+03  0.18761985937E+04  0.46999998093E+01 0. -1.
</event>
<event>
 5   0  0.1264013E-08  0.3792813E+04  0.7818609E-02  0.8047699E-01
       -2   -1    0    0    0  501  0.00000000000E+00  0.00000000000E+00  0.21664562199E+04  0.21664562199E+04  0.25500000920E-02 0.  1.
        2   -1    0    0  501    0  0.00000000000E+00  0.00000000000E+00 -0.16600187552E+04  0.16600187552E+04  0.25500000920E-02 0. -1.
    10030    2    1    2    0    0  0.00000000000E+00  0.00000000000E+00  0.50643746474E+03  0.38264749751E+04  0.37928131815E+04 0.  0.
        4    1    3    3  502    0  0.67678388502E+03  0.23288498116E+03 -0.15185235934E+04  0.16787457693E+04  0.12699999809E+01 0. -1.
       -4    1    3    3    0  502 -0.67678388502E+03 -0.23288498116E+03  0.20249610581E+04  0.21477292058E+04  0.12699999809E+01 0.  1.
</event>
<event>
 5   0  0.1305088E-08  0.3800353E+04  0.7818609E-02  0.8046079E-01
       -2   -1    0    0    0  501  0.00000000000E+00  0.00000000000E+00  0.13617779787E+04  0.13617779787E+04  0.25500000920E-02 0. -1.
        2   -1    0    0  501    0  0.00000000000E+00  0.00000000000E+00 -0.26514392058E+04  0.26514392058E+04  0.25500000920E-02 0.  1.
    10030    2    1    2    0    0  0.00000000000E+00  0.00000000000E+00 -0.12896612271E+04  0.40132171844E+04  0.38003534163E+04 0.  0.
        3    1    3    3  502    0 -0.17731992083E+04 -0.62129155494E+03 -0.94432279966E+03  0.21028514424E+04  0.10100000352E+00 0.  1.
       -3    1    3    3    0  502  0.17731992083E+04  0.62129155494E+03 -0.34533842744E+03  0.19103657420E+04  0.10100000352E+00 0. -1.
</event>
<event>
 5   0  0.1327249E-08  0.3800706E+04  0.7818609E-02  0.8046003E-01
       -2   -1    0    0    0  501  0.00000000000E+00  0.00000000000E+00  0.17625290415E+04  0.17625290415E+04  0.25500000920E-02 0. -1.
        2   -1    0    0  501    0  0.00000000000E+00  0.00000000000E+00 -0.20489547594E+04  0.20489547594E+04  0.25500000920E-02 0.  1.
    10030    2    1    2    0    0  0.00000000000E+00  0.00000000000E+00 -0.28642571782E+03  0.38114838009E+04  0.38007063913E+04 0.  0.
        1    1    3    3  502    0  0.29689395082E+03 -0.12955118015E+04  0.12188895112E+04  0.18033825125E+04  0.50400001928E-02 0. -1.
       -1    1    3    3    0  502 -0.29689395082E+03  0.12955118015E+04 -0.15053152290E+04  0.20081012884E+04  0.50400001928E-02 0.  1.
</event>
<event>
 5   0  0.1305088E-08  0.3795296E+04  0.7818609E-02  0.8047165E-01
       -2   -1    0    0    0  501  0.00000000000E+00  0.00000000000E+00  0.25182302885E+04  0.25182302885E+04  0.25500000920E-02 0. -1.
        2   -1    0    0  501    0  0.00000000000E+00  0.00000000000E+00 -0.14299995466E+04  0.14299995466E+04  0.25500000920E-02 0.  1.
    10030    2    1    2    0    0  0.00000000000E+00  0.00000000000E+00  0.10882307418E+04  0.39482298351E+04  0.37952961259E+04 0.  0.
        3    1    3    3  502    0 -0.14488180467E+04 -0.10764942348E+04 -0.65283528375E+02  0.18061493624E+04  0.10100000352E+00 0. -1.
       -3    1    3    3    0  502  0.14488180467E+04  0.10764942348E+04  0.11535142702E+04  0.21420804727E+04  0.10100000352E+00 0.  1.
</event>
<event>
 5   0  0.1293993E-08  0.3801380E+04  0.7818609E-02  0.8045859E-01
       -2   -1    0    0    0  501  0.00000000000E+00  0.00000000000E+00  0.21246131646E+04  0.21246131646E+04  0.25500000920E-02 0. -1.
        2   -1    0    0  501    0  0.00000000000E+00  0.00000000000E+00 -0.17003675695E+04  0.17003675695E+04  0.25500000920E-02 0.  1.
    10030    2    1    2    0    0  0.00000000000E+00  0.00000000000E+00  0.42424559510E+03  0.38249807341E+04  0.38013804455E+04 0.  0.
        5    1    3    3  502    0  0.13229811102E+04 -0.13623823741E+04  0.13266111792E+03  0.19036769194E+04  0.46999998093E+01 0.  1.
       -5    1    3    3    0  502 -0.13229811102E+04  0.13623823741E+04  0.29158447719E+03  0.19213038147E+04  0.46999998093E+01 0. -1.
</event>
<event>
 5   0  0.4071750E-09  0.3799177E+04  0.7818609E-02  0.8046331E-01
        4   -1    0    0  501    0  0.00000000000E+00  0.00000000000E+00  0.20188108652E+04  0.20188112647E+04  0.12699999809E+01 0.  1.
       -4   -1    0    0    0  501  0.00000000000E+00  0.00000000000E+00 -0.17874064901E+04  0.17874069412E+04  0.12699999809E+01 0. -1.
    10030    2    1    2    0    0  0.00000000000E+00  0.00000000000E+00  0.23140437517E+03  0.38062182059E+04  0.37991774171E+04 0.  0.
        1    1    3    3  502    0  0.43631088780E+03  0.13779751846E+04 -0.11191624878E+04  0.18280337728E+04  0.50400001928E-02 0. -1.
       -1    1    3    3    0  502 -0.43631088780E+03 -0.13779751846E+04  0.13505668630E+04  0.19781844332E+04  0.50400001928E-02 0.  1.
</event>
<event>
 5   0  0.4071750E-09  0.3798503E+04  0.7818609E-02  0.8046476E-01
        1   -1    0    0  501    0  0.00000000000E+00  0.00000000000E+00  0.12322493361E+04  0.12322493361E+04  0.50400001928E-02 0. -1.
       -1   -1    0    0    0  501  0.00000000000E+00  0.00000000000E+00 -0.29272947231E+04  0.29272947232E+04  0.50400001928E-02 0.  1.
    10030    2    1    2    0    0  0.00000000000E+00  0.00000000000E+00 -0.16950453870E+04  0.41595440593E+04  0.37985033786E+04 0.  0.
        3    1    3    3  502    0 -0.14345637595E+03  0.32493444996E+03 -0.28906004786E+04  0.29123415434E+04  0.10100000352E+00 0.  1.
       -3    1    3    3    0  502  0.14345637595E+03 -0.32493444996E+03  0.11955550915E+04  0.12472025159E+04  0.10100000352E+00 0. -1.
</event>
<event>
 5   0  0.1264013E-08  0.3799874E+04  0.7818609E-02  0.8046182E-01
       -2   -1    0    0    0  501  0.00000000000E+00  0.00000000000E+00  0.15786451899E+04  0.15786451899E+04  0.25500000920E-02 0.  1.
        2   -1    0    0  501    0  0.00000000000E+00  0.00000000000E+00 -0.22866193145E+04  0.22866193145E+04  0.25500000920E-02 0. -1.
    10030    2    1    2    0    0  0.00000000000E+00  0.00000000000E+00 -0.70797412456E+03  0.38652645044E+04  0.37998739884E+04 0.  0.
        4    1    3    3  502    0  0.18358436167E+04  0.20836070731E+03 -0.80435092892E+03  0.20151223286E+04  0.12699999809E+01 0. -1.
       -4    1    3    3    0  502 -0.18358436167E+04 -0.20836070731E+03  0.96376804364E+02  0.18501421758E+04  0.12699999809E+01 0.  1.
</event>
<event>
 5   0  0.4071750E-09  0.3788900E+04  0.7818609E-02  0.8048541E-01
       -1   -1    0    0    0  501  0.00000000000E+00  0.00000000000E+00  0.17652085024E+04  0.17652085024E+04  0.50400001928E-02 0.  1.
        1   -1    0    0  501    0  0.00000000000E+00  0.00000000000E+00 -0.20331543917E+04  0.20331543917E+04  0.50400001928E-02 0. -1.
    10030    2    1    2    0    0  0.00000000000E+00  0.00000000000E+00 -0.26794588928E+03  0.37983628941E+04  0.37889003254E+04 0.  0.
        3    1    3    3  502    0  0.12093863816E+04 -0.44878671673E+03  0.12569056346E+04  0.18010654407E+04  0.10100000352E+00 0.  1.
       -3    1    3    3    0  502 -0.12093863816E+04  0.44878671673E+03 -0.15248515239E+04  0.19972974534E+04  0.10100000352E+00 0. -1.
</event>
<event>
 5   0  0.4071750E-09  0.3797411E+04  0.7818609E-02  0.8046711E-01
       -1   -1    0    0    0  501  0.00000000000E+00  0.00000000000E+00  0.30830324240E+04  0.30830324240E+04  0.50400001928E-02 0.  1.
        1   -1    0    0  501    0  0.00000000000E+00  0.00000000000E+00 -0.11693303668E+04  0.11693303668E+04  0.50400001928E-02 0. -1.
    10030    2    1    2    0    0  0.00000000000E+00  0.00000000000E+00  0.19137020571E+04  0.42523627908E+04  0.37974114527E+04 0.  0.
        2    1    3    3  502    0 -0.86215944919E+03 -0.82789535088E+03  0.26088409873E+04  0.28696307994E+04  0.25500000920E-02 0.  1.
       -2    1    3    3    0  502  0.86215944919E+03  0.82789535088E+03 -0.69513893017E+03  0.13827319914E+04  0.25500000920E-02 0. -1.
</event>
<event>
 5   0  0.4071750E-09  0.3799828E+04  0.7818609E-02  0.8046192E-01
       -1   -1    0    0    0  501  0.00000000000E+00  0.00000000000E+00  0.32367039249E+04  0.32367039249E+04  0.50400001928E-02 0. -1.
        1   -1    0    0  501    0  0.00000000000E+00  0.00000000000E+00 -0.11152310300E+04  0.11152310300E+04  0.50400001928E-02 0.  1.
    10030    2    1    2    0    0  0.00000000000E+00  0.00000000000E+00  0.21214728949E+04  0.43519349550E+04  0.37998277078E+04 0.  0.
        4    1    3    3  502    0  0.19813276889E+03  0.12010470544E+04 -0.60994688701E+03  0.13615459738E+04  0.12699999809E+01 0.  1.
       -4    1    3    3    0  502 -0.19813276889E+03 -0.12010470544E+04  0.27314197819E+04  0.29903889812E+04  0.12699999809E+01 0. -1.
</event>
<event>
 5   0  0.1264013E-08  0.3800899E+04  0.7818609E-02  0.8045962E-01
        2   -1    0    0  501    0  0.00000000000E+00  0.00000000000E+00  0.22137487312E+04  0.22137487312E+04  0.25500000920E-02 0. -1.
       -2   -1    0    0    0  501  0.00000000000E+00  0.00000000000E+00 -0.16314895901E+04  0.16314895901E+04  0.25500000920E-02 0.  1.
    10030    2    1    2    0    0  0.00000000000E+00  0.00000000000E+00  0.58225914111E+03  0.38452383213E+04  0.38008988464E+04 0.  0.
        4    1    3    3  502    0  0.79744780509E+03 -0.35514817427E+03 -0.14166544777E+04  0.16640206578E+04  0.12699999809E+01 0.  1.
       -4    1    3    3    0  502 -0.79744780509E+03  0.35514817427E+03  0.19989136188E+04  0.21812176635E+04  0.12699999809E+01 0. -1.
</event>
<event>
 5   0  0.4071750E-09  0.3800938E+04  0.7818609E-02  0.8045954E-01
        3   -1    0    0  501    0  0.00000000000E+00  0.00000000000E+00  0.28499679189E+04  0.28499679207E+04  0.10100000352E+00 0. -1.
       -3   -1    0    0    0  501  0.00000000000E+00  0.00000000000E+00 -0.12673066544E+04  0.12673066584E+04  0.10100000352E+00 0.  1.
    10030    2    1    2    0    0  0.00000000000E+00  0.00000000000E+00  0.15826612645E+04  0.41172745792E+04  0.38009384739E+04 0.  0.
        4    1    3    3  502    0  0.10045645944E+04 -0.93746036563E+03  0.22135362749E+04  0.26053265466E+04  0.12699999809E+01 0. -1.
       -4    1    3    3    0  502 -0.10045645944E+04  0.93746036563E+03 -0.63087501034E+03  0.15119480325E+04  0.12699999809E+01 0.  1.
</event>
<event>
 5   0  0.4071750E-09  0.3801236E+04  0.7818609E-02  0.8045890E-01
       -1   -1    0    0    0  501  0.00000000000E+00  0.00000000000E+00  0.16913946805E+04  0.16913946805E+04  0.50400001928E-02 0. -1.
        1   -1    0    0  501    0  0.00000000000E+00  0.00000000000E+00 -0.21357216066E+04  0.21357216066E+04  0.50400001928E-02 0.  1.
    10030    2    1    2    0    0  0.00000000000E+00  0.00000000000E+00 -0.44432692612E+03  0.38271162871E+04  0.38012356751E+04 0.  0.
        5    1    3    3  502    0 -0.47916078014E+03 -0.13356504209E+04 -0.14951966276E+04  0.20613568699E+04  0.46999998093E+01 0.  1.
       -5    1    3    3    0  502  0.47916078014E+03  0.13356504209E+04  0.10508697014E+04  0.17657594172E+04  0.46999998093E+01 0. -1.
</event>
<event>
 5   0  0.4071750E-09  0.3802915E+04  0.7818609E-02  0.8045530E-01
        1   -1    0    0  501    0  0.00000000000E+00  0.00000000000E+00  0.22194922734E+04  0.22194922734E+04  0.50400001928E-02 0. -1.
       -1   -1    0    0    0  501  0.00000000000E+00  0.00000000000E+00 -0.16289945254E+04  0.16289945254E+04  0.50400001928E-02 0.  1.
    10030    2    1    2    0    0  0.00000000000E+00  0.00000000000E+00  0.59049774805E+03  0.38484867988E+04  0.38029150727E+04 0.  0.
        5    1    3    3  502    0  0.17495543988E+04  0.64109212782E+03  0.67870773583E+03  0.19830799256E+04  0.46999998093E+01 0. -1.
       -5    1    3    3    0  502 -0.17495543988E+04 -0.64109212782E+03 -0.88209987775E+02  0.18654068732E+04  0.46999998093E+01 0.  1.
</event>
<event>
 5   0  0.1293993E-08  0.3801680E+04  0.7818609E-02  0.8045794E-01
        2   -1    0    0  501    0  0.00000000000E+00  0.00000000000E+00  0.21854570182E+04  0.21854570182E+04  0.25500000920E-02 0.  1.
       -2   -1    0    0    0  501  0.00000000000E+00  0.00000000000E+00 -0.16532895496E+04  0.16532895496E+04  0.25500000920E-02 0. -1.
    10030    2    1    2    0    0  0.00000000000E+00  0.00000000000E+00  0.53216746858E+03  0.38387465678E+04  0.38016802860E+04 0.  0.
        5    1    3    3  502    0  0.14854314492E+04  0.10775573255E+03 -0.92655592311E+03  0.17540370169E+04  0.46999998093E+01 0. -1.
       -5    1    3    3    0  502 -0.14854314492E+04 -0.10775573255E+03  0.14587233917E+04  0.20847095509E+04  0.46999998093E+01 0.  1.
</event>
<event>
 5   0  0.1327249E-08  0.3800430E+04  0.7818609E-02  0.8046063E-01
        2   -1    0    0  501    0  0.00000000000E+00  0.00000000000E+00  0.20245249417E+04  0.20245249417E+04  0.25500000920E-02 0.  1.
       -2   -1    0    0    0  501  0.00000000000E+00  0.00000000000E+00 -0.17835376138E+04  0.17835376138E+04  0.25500000920E-02 0. -1.
    10030    2    1    2    0    0  0.00000000000E+00  0.00000000000E+00  0.24098732793E+03  0.38080625554E+04  0.38004296512E+04 0.  0.
        1    1    3    3  502    0 -0.87843348767E+03 -0.27751040180E+03 -0.15448187171E+04  0.17986445686E+04  0.50400001928E-02 0. -1.
       -1    1    3    3    0  502  0.87843348767E+03  0.27751040180E+03  0.17858060450E+04  0.20094179869E+04  0.50400001928E-02 0.  1.
</event>
<event>
 5   0  0.4071750E-09  0.3802295E+04  0.7818609E-02  0.8045663E-01
       -1   -1    0    0    0  501  0.00000000000E+00  0.00000000000E+00  0.25742387626E+04  0.25742387626E+04  0.50400001928E-02 0.  1.
        1   -1    0    0  501    0  0.00000000000E+00  0.00000000000E+00 -0.14040507937E+04  0.14040507937E+04  0.50400001928E-02 0. -1.
    10030    2    1    2    0    0  0.00000000000E+00  0.00000000000E+00  0.11701879689E+04  0.39782895564E+04  0.38022950848E+04 0.  0.
        2    1    3    3  502    0 -0.80244733612E+03 -0.16501549601E+04  0.64647897975E+02  0.18360589507E+04  0.25500000920E-02 0. -1.
       -2    1    3    3    0  502  0.80244733612E+03  0.16501549601E+04  0.11055400709E+04  0.21422306057E+04  0.25500000920E-02 0.  1.
</event>
<event>
 5   0  0.1293993E-08  0.3799938E+04  0.7818609E-02  0.8046168E-01
        2   -1    0    0  501    0  0.00000000000E+00  0.00000000000E+00  0.27402582940E+04  0.27402582940E+04  0.25500000920E-02 0.  1.
       -2   -1    0    0    0  501  0.00000000000E+00  0.00000000000E+00 -0.13173512485E+04  0.13173512485E+04  0.25500000920E-02 0. -1.
    10030    2    1    2    0    0  0.00000000000E+00  0.00000000000E+00  0.14229070455E+04  0.40576095425E+04  0.37999382546E+04 0.  0.
        5    1    3    3  502    0 -0.12973727883E+04 -0.13781255167E+04  0.88838312789E+03  0.20908497707E+04  0.46999998093E+01 0. -1.
       -5    1    3    3    0  502  0.12973727883E+04  0.13781255167E+04  0.53452391760E+03  0.19667597718E+04  0.46999998093E+01 0.  1.
</event>
<event>
 5   0  0.1327249E-08  0.3801062E+04  0.7818609E-02  0.8045927E-01
       -2   -1    0    0    0  501  0.00000000000E+00  0.00000000000E+00  0.18739788334E+04  0.18739788334E+04  0.25500000920E-02 0. -1.
        2   -1    0    0  501    0  0.00000000000E+00  0.00000000000E+00 -0.19274595656E+04  0.19274595656E+04  0.25500000920E-02 0.  1.
    10030    2    1    2    0    0  0.00000000000E+00  0.00000000000E+00 -0.53480732199E+02  0.38014383990E+04  0.38010621821E+04 0.  0.
        1    1    3    3  502    0  0.10185789376E+04  0.16044823534E+04 -0.39060419207E+02  0.19008925248E+04  0.50400001928E-02 0.  1.
       -1    1    3    3    0  502 -0.10185789376E+04 -0.16044823534E+04 -0.14420312993E+02  0.19005458742E+04  0.50400001928E-02 0. -1.
</event>
<event>
 5   0  0.1327249E-08  0.3796596E+04  0.7818609E-02  0.8046886E-01
       -2   -1    0    0    0  501  0.00000000000E+00  0.00000000000E+00  0.17958128281E+04  0.17958128281E+04  0.25500000920E-02 0.  1.
        2   -1    0    0  501    0  0.00000000000E+00  0.00000000000E+00 -0.20066321062E+04  0.20066321062E+04  0.25500000920E-02 0. -1.
    10030    2    1    2    0    0  0.00000000000E+00  0.00000000000E+00 -0.21081927807E+03  0.38024449344E+04  0.37965962006E+04 0.  0.
        1    1    3    3  502    0 -0.12373927485E+04  0.88418874181E+03  0.10323884987E+04  0.18381394282E+04  0.50400001928E-02 0.  1.
       -1    1    3    3    0  502  0.12373927485E+04 -0.88418874181E+03 -0.12432077768E+04  0.19643055061E+04  0.50400001928E-02 0. -1.
</event>
<event>
 5   0  0.1305088E-08  0.3801757E+04  0.7818609E-02  0.8045778E-01
       -2   -1    0    0    0  501  0.00000000000E+00  0.00000000000E+00  0.11924584755E+04  0.11924584755E+04  0.25500000920E-02 0.  1.
        2   -1    0    0  501    0  0.00000000000E+00  0.00000000000E+00 -0.30301586709E+04  0.30301586709E+04  0.25500000920E-02 0. -1.
    10030    2    1    2    0    0  0.00000000000E+00  0.00000000000E+00 -0.18377001954E+04  0.42226171463E+04  0.38017566409E+04 0.  0.
        3    1    3    3  502    0  0.75036769729E+03  0.14289961810E+04 -0.20341275782E+04  0.25966818791E+04  0.10100000352E+00 0. -1.
       -3    1    3    3    0  502 -0.75036769729E+03 -0.14289961810E+04  0.19642738281E+03  0.16259352673E+04  0.10100000352E+00 0.  1.
</event>
<event>
 5   0  0.4071750E-09  0.3798256E+04  0.7818609E-02  0.8046529E-01
        1   -1    0    0  501    0  0.00000000000E+00  0.00000000000E+00  0.20555480815E+04  0.20555480815E+04  0.50400001928E-02 0.  1.
       -1   -1    0    0    0  501  0.00000000000E+00  0.00000000000E+00 -0.17546105610E+04  0.17546105610E+04  0.50400001928E-02 0. -1.
    10030    2    1    2    0    0  0.00000000000E+00  0.00000000000E+00  0.30093752052E+03  0.38101586426E+04  0.37982555852E+04 0.  0.
        4    1    3    3  502    0 -0.12584754661E+04  0.50441709008E+03  0.14844812338E+04  0.20104435446E+04  0.12699999809E+01 0.  1.
       -4    1    3    3    0  502  0.12584754661E+04 -0.50441709008E+03 -0.11835437133E+04  0.17997150979E+04  0.12699999809E+01 0. -1.
</event>
<event>
 5   0  0.4071750E-09  0.3804329E+04  0.7818609E-02  0.8045227E-01
        1   -1    0    0  501    0  0.00000000000E+00  0.00000000000E+00  0.13792740698E+04  0.13792740698E+04  0.50400001928E-02 0. -1.
       -1   -1    0    0    0  501  0.00000000000E+00  0.00000000000E+00 -0.26232854070E+04  0.26232854070E+04  0.50400001928E-02 0.  1.
    10030    2    1    2    0    0  0.00000000000E+00  0.00000000000E+00 -0.12440113372E+04  0.40025594767E+04  0.38043288709E+04 0.  0.
        4    1    3    3  502    0 -0.15861765113E+04  0.65959020356E+03  0.23738753385E+03  0.17341769275E+04  0.12699999809E+01 0. -1.
       -4    1    3    3    0  502  0.15861765113E+04 -0.65959020356E+03 -0.14813988710E+04  0.22683825492E+04  0.12699999809E+01 0.  1.
</event>
<event>
 5   0  0.4071750E-09  0.3818306E+04  0.7818609E-02  0.8042238E-01
       -1   -1    0    0    0  501  0.00000000000E+00  0.00000000000E+00  0.17757924164E+04  0.17757924164E+04  0.50400001928E-02 0.  1.
        1   -1    0    0  501    0  0.00000000000E+00  0.00000000000E+00 -0.20525283420E+04  0.20525283420E+04  0.50400001928E-02 0. -1.
    10030    2    1    2    0    0  0.00000000000E+00  0.00000000000E+00 -0.27673592565E+03  0.38283207584E+04  0.38183055217E+04 0.  0.
        1    1    3    3  502    0  0.12293605152E+04 -0.14566516794E+04 -0.24683152941E+03  0.19220008313E+04  0.50400001928E-02 0. -1.
       -1    1    3    3    0  502 -0.12293605152E+04  0.14566516794E+04 -0.29904396243E+02  0.19063199271E+04  0.50400001928E-02 0.  1.
</event>
<event>
 5   0  0.1293993E-08  0.3796831E+04  0.7818609E-02  0.8046835E-01
       -2   -1    0    0    0  501  0.00000000000E+00  0.00000000000E+00  0.21092815345E+04  0.21092815345E+04  0.25500000920E-02 0.  1.
        2   -1    0    0  501    0  0.00000000000E+00  0.00000000000E+00 -0.17086301641E+04  0.17086301641E+04  0.25500000920E-02 0. -1.
    10030    2    1    2    0    0  0.00000000000E+00  0.00000000000E+00  0.40065137034E+03  0.38179116986E+04  0.37968313391E+04 0.  0.
        5    1    3    3  502    0 -0.42940696555E+03 -0.12600899470E+04 -0.11606076070E+04  0.17661396106E+04  0.46999998093E+01 0.  1.
       -5    1    3    3    0  502  0.42940696555E+03  0.12600899470E+04  0.15612589773E+04  0.20517720880E+04  0.46999998093E+01 0. -1.
</event>
<event>
 5   0  0.4071750E-09  0.3796057E+04  0.7818609E-02  0.8047002E-01
        1   -1    0    0  501    0  0.00000000000E+00  0.00000000000E+00  0.15588872786E+04  0.15588872786E+04  0.50400001928E-02 0. -1.
       -1   -1    0    0    0  501  0.00000000000E+00  0.00000000000E+00 -0.23109508856E+04  0.23109508856E+04  0.50400001928E-02 0.  1.
    10030    2    1    2    0    0  0.00000000000E+00  0.00000000000E+00 -0.75206360701E+03  0.38698381643E+04  0.37960568685E+04 0.  0.
        3    1    3    3  502    0  0.55774602813E+03  0.17064478724E+04  0.25195002060E+03  0.18128772148E+04  0.10100000352E+00 0.  1.
       -3    1    3    3    0  502 -0.55774602813E+03 -0.17064478724E+04 -0.10040136276E+04  0.20569609495E+04  0.10100000352E+00 0. -1.
</event>
<event>
 5   0  0.1293993E-08  0.3800338E+04  0.7818609E-02  0.8046082E-01
        2   -1    0    0  501    0  0.00000000000E+00  0.00000000000E+00  0.22657690413E+04  0.22657690413E+04  0.25500000920E-02 0. -1.
       -2   -1    0    0    0  501  0.00000000000E+00  0.00000000000E+00 -0.15935617805E+04  0.15935617805E+04  0.25500000920E-02 0.  1.
    10030    2    1    2    0    0  0.00000000000E+00  0.00000000000E+00  0.67220726084E+03  0.38593308218E+04  0.38003383784E+04 0.  0.
        5    1    3    3  502    0 -0.68530655792E+03  0.81419408973E+03  0.19347263429E+04  0.22081089661E+04  0.46999998093E+01 0. -1.
       -5    1    3    3    0  502  0.68530655792E+03 -0.81419408973E+03 -0.12625190821E+04  0.16512218557E+04  0.46999998093E+01 0.  1.
</event>
<event>
 5   0  0.1327249E-08  0.3799135E+04  0.7818609E-02  0.8046341E-01
       -2   -1    0    0    0  501  0.00000000000E+00  0.00000000000E+00  0.11541019659E+04  0.11541019659E+04  0.25500000920E-02 0. -1.
        2   -1    0    0  501    0  0.00000000000E+00  0.00000000000E+00 -0.31265491221E+04  0.31265491221E+04  0.25500000920E-02 0.  1.
    10030    2    1    2    0    0  0.00000000000E+00  0.00000000000E+00 -0.19724471562E+04  0.42806510880E+04  0.37991348953E+04 0.  0.
        1    1    3    3  502    0  0.12222279184E+04 -0.12541474232E+04 -0.18154561052E+04  0.25224210024E+04  0.50400001928E-02 0.  1.
       -1    1    3    3    0  502 -0.12222279184E+04  0.12541474232E+04 -0.15699105107E+03  0.17582300856E+04  0.50400001928E-02 0. -1.
</event>
<event>
 5   0  0.1264013E-08  0.3800752E+04  0.7818609E-02  0.8045994E-01
        2   -1    0    0  501    0  0.00000000000E+00  0.00000000000E+00  0.23634046991E+04  0.23634046991E+04  0.25500000920E-02 0. -1.
       -2   -1    0    0    0  501  0.00000000000E+00  0.00000000000E+00 -0.15280618624E+04  0.15280618624E+04  0.25500000920E-02 0.  1.
    10030    2    1    2    0    0  0.00000000000E+00  0.00000000000E+00  0.83534283672E+03  0.38914665615E+04  0.38007518130E+04 0.  0.
        4    1    3    3  502    0  0.13407408714E+03  0.10576237926E+04  0.20283954198E+04  0.22914915534E+04  0.12699999809E+01 0. -1.
       -4    1    3    3    0  502 -0.13407408714E+03 -0.10576237926E+04 -0.11930525831E+04  0.15999750080E+04  0.12699999809E+01 0.  1.
</event>
<event>
 5   0  0.1293993E-08  0.3801960E+04  0.7818609E-02  0.8045734E-01
       -2   -1    0    0    0  501  0.00000000000E+00  0.00000000000E+00  0.18302991368E+04  0.18302991368E+04  0.25500000920E-02 0. -1.
        2   -1    0    0  501    0  0.00000000000E+00  0.00000000000E+00 -0.19743903433E+04  0.19743903433E+04  0.25500000920E-02 0.  1.
    10030    2    1    2    0    0  0.00000000000E+00  0.00000000000E+00 -0.14409120649E+03  0.38046894800E+04  0.38019599897E+04 0.  0.
        5    1    3    3  502    0 -0.54968672926E+03 -0.18081970211E+04  0.13296944062E+03  0.18945804099E+04  0.46999998093E+01 0.  1.
       -5    1    3    3    0  502  0.54968672926E+03  0.18081970211E+04 -0.27706064711E+03  0.19101090701E+04  0.46999998093E+01 0. -1.
</event>
<event>
 5   0  0.4071750E-09  0.3798839E+04  0.7818609E-02  0.8046404E-01
        1   -1    0    0  501    0  0.00000000000E+00  0.00000000000E+00  0.22239123700E+04  0.22239123700E+04  0.50400001928E-02 0.  1.
       -1   -1    0    0    0  501  0.00000000000E+00  0.00000000000E+00 -0.16222734972E+04  0.16222734972E+04  0.50400001928E-02 0. -1.
    10030    2    1    2    0    0  0.00000000000E+00  0.00000000000E+00  0.60163887282E+03  0.38461858671E+04  0.37988388214E+04 0.  0.
        4    1    3    3  502    0  0.77031770957E+03  0.17150319055E+04  0.57450066730E+03  0.19659034666E+04  0.12699999809E+01 0.  1.
       -4    1    3    3    0  502 -0.77031770957E+03 -0.17150319055E+04  0.27138205519E+02  0.18802824005E+04  0.12699999809E+01 0. -1.
</event>
<event>
 5   0  0.1327249E-08  0.3797442E+04  0.7818609E-02  0.8046704E-01
       -2   -1    0    0    0  501  0.00000000000E+00  0.00000000000E+00  0.13802278288E+04  0.13802278288E+04  0.25500000920E-02 0.  1.
        2   -1    0    0  501    0  0.00000000000E+00  0.00000000000E+00 -0.26119902737E+04  0.26119902737E+04  0.25500000920E-02 0. -1.
    10030    2    1    2    0    0  0.00000000000E+00  0.00000000000E+00 -0.12317624449E+04  0.39922181025E+04  0.37974421204E+04 0.  0.
        1    1    3    3  502    0  0.14074345633E+03 -0.13827709130E+04 -0.19757815802E+04  0.24156938902E+04  0.50400001928E-02 0. -1.
       -1    1    3    3    0  502 -0.14074345633E+03  0.13827709130E+04  0.74401913528E+03  0.15765242123E+04  0.50400001928E-02 0.  1.
</event>
<event>
 5   0  0.4071750E-09  0.3801029E+04  0.7818609E-02  0.8045934E-01
        1   -1    0    0  501    0  0.00000000000E+00  0.00000000000E+00  0.23822635878E+04  0.23822635878E+04  0.50400001928E-02 0.  1.
       -1   -1    0    0    0  501  0.00000000000E+00  0.00000000000E+00 -0.15161866196E+04  0.15161866196E+04  0.50400001928E-02 0. -1.
    10030    2    1    2    0    0  0.00000000000E+00  0.00000000000E+00  0.86607696824E+03  0.38984502074E+04  0.38010294270E+04 0.  0.
        1    1    3    3  502    0 -0.62752618540E+03 -0.17852490564E+04  0.25230374878E+03  0.19090732014E+04  0.50400001928E-02 0. -1.
       -1    1    3    3    0  502  0.62752618540E+03  0.17852490564E+04  0.61377321947E+03  0.19893770059E+04  0.50400001928E-02 0.  1.
</event>
<event>
 5   0  0.4071750E-09  0.3797757E+04  0.7818609E-02  0.8046636E-01
       -1   -1    0    0    0  501  0.00000000000E+00  0.00000000000E+00  0.15142573499E+04  0.15142573500E+04  0.50400001928E-02 0.  1.
        1   -1    0    0  501    0  0.00000000000E+00  0.00000000000E+00 -0.23811931733E+04  0.23811931733E+04  0.50400001928E-02 0. -1.
    10030    2    1    2    0    0  0.00000000000E+00  0.00000000000E+00 -0.86693582338E+03  0.38954505233E+04  0.37977568455E+04 0.  0.
        2    1    3    3  502    0 -0.76307852694E+02 -0.16995158672E+04  0.43177284794E+03  0.17551651955E+04  0.25500000920E-02 0.  1.
       -2    1    3    3    0  502  0.76307852694E+02  0.16995158672E+04 -0.12987086713E+04  0.21402853278E+04  0.25500000920E-02 0. -1.
</event>
<event>
 5   0  0.4071750E-09  0.3800407E+04  0.7818609E-02  0.8046068E-01
       -1   -1    0    0    0  501  0.00000000000E+00  0.00000000000E+00  0.20292606411E+04  0.20292606411E+04  0.50400001928E-02 0.  1.
        1   -1    0    0  501    0  0.00000000000E+00  0.00000000000E+00 -0.17793542955E+04  0.17793542955E+04  0.50400001928E-02 0. -1.
    10030    2    1    2    0    0  0.00000000000E+00  0.00000000000E+00  0.24990634566E+03  0.38086149366E+04  0.38004071563E+04 0.  0.
        2    1    3    3  502    0  0.15506261804E+04 -0.73570984611E+03  0.94222846261E+03  0.19579338612E+04  0.25500000920E-02 0.  1.
       -2    1    3    3    0  502 -0.15506261804E+04  0.73570984611E+03 -0.69232211695E+03  0.18506810754E+04  0.25500000920E-02 0. -1.
</event>
<event>
 5   0  0.4071750E-09  0.3800035E+04  0.7818609E-02  0.8046147E-01
        1   -1    0    0  501    0  0.00000000000E+00  0.00000000000E+00  0.25061381347E+04  0.25061381347E+04  0.50400001928E-02 0. -1.
       -1   -1    0    0    0  501  0.00000000000E+00  0.00000000000E+00 -0.14404898591E+04  0.14404898591E+04  0.50400001928E-02 0.  1.
    10030    2    1    2    0    0  0.00000000000E+00  0.00000000000E+00  0.10656482756E+04  0.39466279939E+04  0.38000350360E+04 0.  0.
        1    1    3    3  502    0  0.14087464817E+04 -0.11403507555E+04  0.11249951238E+04  0.21332089734E+04  0.50400001928E-02 0. -1.
       -1    1    3    3    0  502 -0.14087464817E+04  0.11403507555E+04 -0.59346848172E+02  0.18134190205E+04  0.50400001928E-02 0.  1.
</event>
<event>
 5   0  0.4071750E-09  0.3798750E+04  0.7818609E-02  0.8046423E-01
       -1   -1    0    0    0  501  0.00000000000E+00  0.00000000000E+00  0.17469575669E+04  0.17469575669E+04  0.50400001928E-02 0.  1.
        1   -1    0    0  501    0  0.00000000000E+00  0.00000000000E+00 -0.20650909835E+04  0.20650909835E+04  0.50400001928E-02 0. -1.
    10030    2    1    2    0    0  0.00000000000E+00  0.00000000000E+00 -0.31813341660E+03  0.38120485505E+04  0.37987504893E+04 0.  0.
        4    1    3    3  502    0  0.40476650693E+03 -0.10009040599E+04  0.14090872251E+04  0.17751544392E+04  0.12699999809E+01 0.  1.
       -4    1    3    3    0  502 -0.40476650693E+03  0.10009040599E+04 -0.17272206417E+04  0.20368941112E+04  0.12699999809E+01 0. -1.
</event>
<event>
 5   0  0.1264013E-08  0.3800109E+04  0.7818609E-02  0.8046131E-01
        2   -1    0    0  501    0  0.00000000000E+00  0.00000000000E+00  0.18677907596E+04  0.18677907596E+04  0.25500000920E-02 0. -1.
       -2   -1    0    0    0  501  0.00000000000E+00  0.00000000000E+00 -0.19328756125E+04  0.19328756125E+04  0.25500000920E-02 0.  1.
    10030    2    1    2    0    0  0.00000000000E+00  0.00000000000E+00 -0.65084852867E+02  0.38006663721E+04  0.38001090555E+04 0.  0.
        4    1    3    3  502    0  0.17992312603E+04  0.24842677732E+03 -0.59052800605E+03  0.19098884602E+04  0.12699999809E+01 0.  1.
       -4    1    3    3    0  502 -0.17992312603E+04 -0.24842677732E+03  0.52544315319E+03  0.18907779118E+04  0.12699999809E+01 0. -1.
</event>
<event>
 5   0  0.1261152E-08  0.3800459E+04  0.7818609E-02  0.8046056E-01
        2   -1    0    0  501    0  0.00000000000E+00  0.00000000000E+00  0.18857301444E+04  0.18857301444E+04  0.25500000920E-02 0. -1.
       -2   -1    0    0    0  501  0.00000000000E+00  0.00000000000E+00 -0.19148400153E+04  0.19148400153E+04  0.25500000920E-02 0.  1.
    10030    2    1    2    0    0  0.00000000000E+00  0.00000000000E+00 -0.29109870934E+02  0.38005701597E+04  0.38004586768E+04 0.  0.
        2    1    3    3  502    0  0.75084872363E+03  0.10565699600E+04 -0.14041127529E+04  0.19109281800E+04  0.25500000920E-02 0.  1.
       -2    1    3    3    0  502 -0.75084872363E+03 -0.10565699600E+04  0.13750028820E+04  0.18896419797E+04  0.25500000920E-02 0. -1.
</event>
<event>
 5   0  0.4071750E-09  0.3800244E+04  0.7818609E-02  0.8046103E-01
        1   -1    0    0  501    0  0.00000000000E+00  0.00000000000E+00  0.19409294422E+04  0.19409294422E+04  0.50400001928E-02 0.  1.
       -1   -1    0    0    0  501  0.00000000000E+00  0.00000000000E+00 -0.18601721341E+04  0.18601721342E+04  0.50400001928E-02 0. -1.
    10030    2    1    2    0    0  0.00000000000E+00  0.00000000000E+00  0.80757308019E+02  0.38011015763E+04  0.38002436041E+04 0.  0.
        5    1    3    3  502    0  0.60703916059E+03  0.12606766329E+04 -0.12454615252E+04  0.18732321308E+04  0.46999998093E+01 0. -1.
       -5    1    3    3    0  502 -0.60703916059E+03 -0.12606766329E+04  0.13262188333E+04  0.19278694455E+04  0.46999998093E+01 0.  1.
</event>
<event>
 5   0  0.1261152E-08  0.3799654E+04  0.7818609E-02  0.8046229E-01
        2   -1    0    0  501    0  0.00000000000E+00  0.00000000000E+00  0.19554571118E+04  0.19554571118E+04  0.25500000920E-02 0.  1.
       -2   -1    0    0    0  501  0.00000000000E+00  0.00000000000E+00 -0.18457799405E+04  0.18457799405E+04  0.25500000920E-02 0. -1.
    10030    2    1    2    0    0  0.00000000000E+00  0.00000000000E+00  0.10967717124E+03  0.38012370523E+04  0.37996544640E+04 0.  0.
        2    1    3    3  502    0 -0.14774666633E+04 -0.51923899674E+03  0.11308453196E+04  0.19316645707E+04  0.25500000920E-02 0.  1.
       -2    1    3    3    0  502  0.14774666633E+04  0.51923899674E+03 -0.10211681483E+04  0.18695724816E+04  0.25500000920E-02 0. -1.
</event>
<event>
 5   0  0.4071750E-09  0.3799571E+04  0.7818609E-02  0.8046247E-01
        3   -1    0    0  501    0  0.00000000000E+00  0.00000000000E+00  0.18002902087E+04  0.18002902115E+04  0.10100000352E+00 0. -1.
       -3   -1    0    0    0  501  0.00000000000E+00  0.00000000000E+00 -0.20047792903E+04  0.20047792929E+04  0.10100000352E+00 0.  1.
    10030    2    1    2    0    0  0.00000000000E+00  0.00000000000E+00 -0.20448908163E+03  0.38050695044E+04  0.37995707848E+04 0.  0.
        4    1    3    3  502    0  0.14615548577E+04  0.37633147331E+03  0.10532948859E+04  0.18404346523E+04  0.12699999809E+01 0. -1.
       -4    1    3    3    0  502 -0.14615548577E+04 -0.37633147331E+03 -0.12577839675E+04  0.19646348520E+04  0.12699999809E+01 0.  1.
</event>
<event>
 5   0  0.1327249E-08  0.3798238E+04  0.7818609E-02  0.8046533E-01
        2   -1    0    0  501    0  0.00000000000E+00  0.00000000000E+00  0.15930836140E+04  0.15930836140E+04  0.25500000920E-02 0.  1.
       -2   -1    0    0    0  501  0.00000000000E+00  0.00000000000E+00 -0.22639449740E+04  0.22639449740E+04  0.25500000920E-02 0. -1.
    10030    2    1    2    0    0  0.00000000000E+00  0.00000000000E+00 -0.67086136006E+03  0.38570285880E+04  0.37982383501E+04 0.  0.
        1    1    3    3  502    0  0.18785229439E+04 -0.12499197747E+03 -0.58865398362E+03  0.19725579732E+04  0.50400001928E-02 0. -1.
       -1    1    3    3    0  502 -0.18785229439E+04  0.12499197747E+03 -0.82207376443E+02  0.18844706148E+04  0.50400001928E-02 0.  1.
</event>
<event>
 5   0  0.1264013E-08  0.3798069E+04  0.7818609E-02  0.8046569E-01
       -2   -1    0    0    0  501  0.00000000000E+00  0.00000000000E+00  0.26789195053E+04  0.26789195053E+04  0.25500000920E-02 0. -1.
        2   -1    0    0  501    0  0.00000000000E+00  0.00000000000E+00 -0.13461889494E+04  0.13461889494E+04  0.25500000920E-02 0.  1.
    10030    2    1    2    0    0  0.00000000000E+00  0.00000000000E+00  0.13327305559E+04  0.40251084548E+04  0.37980688959E+04 0.  0.
        4    1    3    3  502    0 -0.30288771453E+03 -0.18527330548E+04  0.96978292938E+03  0.21130171043E+04  0.12699999809E+01 0. -1.
       -4    1    3    3    0  502  0.30288771453E+03  0.18527330548E+04  0.36294762656E+03  0.19120913505E+04  0.12699999809E+01 0.  1.
</event>
<event>
 5   0  0.4071750E-09  0.3800052E+04  0.7818609E-02  0.8046144E-01
        1   -1    0    0  501    0  0.00000000000E+00  0.00000000000E+00  0.26526874567E+04  0.26526874567E+04  0.50400001928E-02 0. -1.
       -1   -1    0    0    0  501  0.00000000000E+00  0.00000000000E+00 -0.13609211803E+04  0.13609211803E+04  0.50400001928E-02 0.  1.
    10030    2    1    2    0    0  0.00000000000E+00  0.00000000000E+00  0.12917662764E+04  0.40136086370E+04  0.38000518652E+04 0.  0.
        5    1    3    3  502    0 -0.10573147373E+04  0.15538735084E+04  0.94018011638E+03  0.21015227991E+04  0.46999998093E+01 0. -1.
       -5    1    3    3    0  502  0.10573147373E+04 -0.15538735084E+04  0.35158615998E+03  0.19120858380E+04  0.46999998093E+01 0.  1.
</event>
<event>
 5   0  0.1264013E-08  0.3799769E+04  0.7818609E-02  0.8046204E-01
        2   -1    0    0  501    0  0.00000000000E+00  0.00000000000E+00  0.18024717483E+04  0.18024717483E+04  0.25500000920E-02 0. -1.
       -2   -1    0    0    0  501  0.00000000000E+00  0.00000000000E+00 -0.20025616686E+04  0.20025616686E+04  0.25500000920E-02 0.  1.
    10030    2    1    2    0    0  0.00000000000E+00  0.00000000000E+00 -0.20008992027E+03  0.38050334169E+04  0.37997688519E+04 0.  0.
        4    1    3    3  502    0  0.96263342536E+03 -0.95309571470E+03  0.12339060176E+04  0.18323701117E+04  0.12699999809E+01 0. -1.
       -4    1    3    3    0  502 -0.96263342536E+03  0.95309571470E+03 -0.14339959379E+04  0.19726633052E+04  0.12699999809E+01 0.  1.
</event>
<event>
 5   0  0.1293993E-08  0.3800030E+04  0.7818609E-02  0.8046148E-01
        2   -1    0    0  501    0  0.00000000000E+00  0.00000000000E+00  0.17613170994E+04  0.17613170994E+04  0.25500000920E-02 0. -1.
       -2   -1    0    0    0  501  0.00000000000E+00  0.00000000000E+00 -0.20496352511E+04  0.20496352511E+04  0.25500000920E-02 0.  1.
    10030    2    1    2    0    0  0.00000000000E+00  0.00000000000E+00 -0.28831815168E+03  0.38109523505E+04  0.38000303238E+04 0.  0.
        5    1    3    3  502    0  0.63714531873E+03  0.65725036910E+03 -0.18139079641E+04  0.20318012691E+04  0.46999998093E+01 0.  1.
       -5    1    3    3    0  502 -0.63714531873E+03 -0.65725036910E+03  0.15255898124E+04  0.17791510814E+04  0.46999998093E+01 0. -1.
</event>
<event>
 5   0  0.1327249E-08  0.3801412E+04  0.7818609E-02  0.8045852E-01
        2   -1    0    0  501    0  0.00000000000E+00  0.00000000000E+00  0.25122284086E+04  0.25122284086E+04  0.25500000920E-02 0.  1.
       -2   -1    0    0    0  501  0.00000000000E+00  0.00000000000E+00 -0.14380392313E+04  0.14380392313E+04  0.25500000920E-02 0. -1.
    10030    2    1    2    0    0  0.00000000000E+00  0.00000000000E+00  0.10741891773E+04  0.39502676399E+04  0.38014118480E+04 0.  0.
        1    1    3    3  502    0  0.55304743304E+02 -0.14133173839E+04 -0.78233265730E+03  0.16163443411E+04  0.50400001928E-02 0. -1.
       -1    1    3    3    0  502 -0.55304743304E+02  0.14133173839E+04  0.18565218346E+04  0.23339232988E+04  0.50400001928E-02 0.  1.
</event>
<event>
 5   0  0.4071750E-09  0.3801699E+04  0.7818609E-02  0.8045790E-01
        1   -1    0    0  501    0  0.00000000000E+00  0.00000000000E+00  0.15533251134E+04  0.15533251134E+04  0.50400001928E-02 0. -1.
       -1   -1    0    0    0  501  0.00000000000E+00  0.00000000000E+00 -0.23261249871E+04  0.23261249871E+04  0.50400001928E-02 0.  1.
    10030    2    1    2    0    0  0.00000000000E+00  0.00000000000E+00 -0.77279987366E+03  0.38794501005E+04  0.38016987568E+04 0.  0.
        4    1    3    3  502    0 -0.23143292981E+03 -0.18539848837E+04 -0.29379475599E+02  0.18686053399E+04  0.12699999809E+01 0. -1.
       -4    1    3    3    0  502  0.23143292981E+03  0.18539848837E+04 -0.74342039806E+03  0.20108447606E+04  0.12699999809E+01 0.  1.
</event>
<event>
 5   0  0.1327249E-08  0.3802049E+04  0.7818609E-02  0.8045715E-01
        2   -1    0    0  501    0  0.00000000000E+00  0.00000000000E+00  0.23592243571E+04  0.23592243571E+04  0.25500000920E-02 0. -1.
       -2   -1    0    0    0  501  0.00000000000E+00  0.00000000000E+00 -0.15318148983E+04  0.15318148983E+04  0.25500000920E-02 0.  1.
    10030    2    1    2    0    0  0.00000000000E+00  0.00000000000E+00  0.82740945882E+03  0.38910392555E+04  0.38020494572E+04 0.  0.
        1    1    3    3  502    0  0.92026194381E+03  0.13310118439E+04 -0.60735495453E+03  0.17283965444E+04  0.50400001928E-02 0.  1.
       -1    1    3    3    0  502 -0.92026194381E+03 -0.13310118439E+04  0.14347644133E+04  0.21626427111E+04  0.50400001928E-02 0. -1.
</event>
<event>
 5   0  0.4071750E-09  0.3801622E+04  0.7818609E-02  0.8045807E-01
       -1   -1    0    0    0  501  0.00000000000E+00  0.00000000000E+00  0.20512094448E+04  0.20512094448E+04  0.50400001928E-02 0. -1.
        1   -1    0    0  501    0  0.00000000000E+00  0.00000000000E+00 -0.17614398254E+04  0.17614398254E+04  0.50400001928E-02 0.  1.
    10030    2    1    2    0    0  0.00000000000E+00  0.00000000000E+00  0.28976961942E+03  0.38126492702E+04  0.38016217626E+04 0.  0.
        2    1    3    3  502    0  0.51149036351E+03 -0.48522750951E+03 -0.16254591048E+04  0.17717746553E+04  0.25500000920E-02 0.  1.
       -2    1    3    3    0  502 -0.51149036351E+03  0.48522750951E+03  0.19152287242E+04  0.20408746149E+04  0.25500000920E-02 0. -1.
</event>
<event>
 5   0  0.1305088E-08  0.3796096E+04  0.7818609E-02  0.8046993E-01
       -2   -1    0    0    0  501  0.00000000000E+00  0.00000000000E+00  0.21388605356E+04  0.21388605356E+04  0.25500000920E-02 0. -1.
        2   -1    0    0  501    0  0.00000000000E+00  0.00000000000E+00 -0.16843482545E+04  0.16843482545E+04  0.25500000920E-02 0.  1.
    10030    2    1    2    0    0  0.00000000000E+00  0.00000000000E+00  0.45451228107E+03  0.38232087900E+04  0.37960958943E+04 0.  0.
        3    1    3    3  502    0  0.16473924167E+04  0.33579322341E+03 -0.65990255061E+03  0.18061368303E+04  0.10100000352E+00 0.  1.
       -3    1    3    3    0  502 -0.16473924167E+04 -0.33579322341E+03  0.11144148317E+04  0.20170719597E+04  0.10100000352E+00 0. -1.
</event>
<event>
 5   0  0.4071750E-09  0.3800767E+04  0.7818609E-02  0.8045990E-01
       -1   -1    0    0    0  501  0.00000000000E+00  0.00000000000E+00  0.15603720969E+04  0.15603720969E+04  0.50400001928E-02 0.  1.
        1   -1    0    0  501    0  0.00000000000E+00  0.00000000000E+00 -0.23144842311E+04  0.23144842311E+04  0.50400001928E-02 0. -1.
    10030    2    1    2    0    0  0.00000000000E+00  0.00000000000E+00 -0.75411213412E+03  0.38748563280E+04  0.38007665611E+04 0.  0.
        4    1    3    3  502    0 -0.57135537598E+03 -0.44873463698E+03 -0.21673181498E+04  0.22858432394E+04  0.12699999809E+01 0. -1.
       -4    1    3    3    0  502  0.57135537598E+03  0.44873463698E+03  0.14132060157E+04  0.15890130886E+04  0.12699999809E+01 0.  1.
</event>
<event>
 5   0  0.4071750E-09  0.3801126E+04  0.7818609E-02  0.8045913E-01
       -1   -1    0    0    0  501  0.00000000000E+00  0.00000000000E+00  0.13653834186E+04  0.13653834186E+04  0.50400001928E-02 0.  1.
        1   -1    0    0  501    0  0.00000000000E+00  0.00000000000E+00 -0.26455130884E+04  0.26455130884E+04  0.50400001928E-02 0. -1.
    10030    2    1    2    0    0  0.00000000000E+00  0.00000000000E+00 -0.12801296698E+04  0.40108965071E+04  0.38011259935E+04 0.  0.
        1    1    3    3  502    0  0.48508657610E+03  0.18030990835E+04 -0.26600993744E+03  0.18860637789E+04  0.50400001928E-02 0. -1.
       -1    1    3    3    0  502 -0.48508657610E+03 -0.18030990835E+04 -0.10141197324E+04  0.21248327282E+04  0.50400001928E-02 0.  1.
</event>
<event>
 5   0  0.1327249E-08  0.3800410E+04  0.7818609E-02  0.8046067E-01
       -2   -1    0    0    0  501  0.00000000000E+00  0.00000000000E+00  0.17075021421E+04  0.17075021421E+04  0.25500000920E-02 0. -1.
        2   -1    0    0  501    0  0.00000000000E+00  0.00000000000E+00 -0.21146558579E+04  0.21146558579E+04  0.25500000920E-02 0.  1.
    10030    2    1    2    0    0  0.00000000000E+00  0.00000000000E+00 -0.40715371574E+03  0.38221580000E+04  0.38004101921E+04 0.  0.
        1    1    3    3  502    0 -0.16239188865E+04  0.27588131854E+03  0.74923910606E+03  0.18095806945E+04  0.50400001928E-02 0. -1.
       -1    1    3    3    0  502  0.16239188865E+04 -0.27588131854E+03 -0.11563928218E+04  0.20125773054E+04  0.50400001928E-02 0.  1.
</event>
<event>
 5   0  0.1264013E-08  0.3800177E+04  0.7818609E-02  0.8046117E-01
       -2   -1    0    0    0  501  0.00000000000E+00  0.00000000000E+00  0.19540889953E+04  0.19540889953E+04  0.25500000920E-02 0. -1.
        2   -1    0    0  501    0  0.00000000000E+00  0.00000000000E+00 -0.18475806542E+04  0.18475806542E+04  0.25500000920E-02 0.  1.
    10030    2    1    2    0    0  0.00000000000E+00  0.00000000000E+00  0.10650834107E+03  0.38016696495E+04  0.38001773770E+04 0.  0.
        4    1    3    3  502    0  0.56380570827E+03  0.15281411247E+04 -0.92551810908E+03  0.18734133438E+04  0.12699999809E+01 0.  1.
       -4    1    3    3    0  502 -0.56380570827E+03 -0.15281411247E+04  0.10320264502E+04  0.19282563057E+04  0.12699999809E+01 0. -1.
</event>
<event>
 5   0  0.4071750E-09  0.3801115E+04  0.7818609E-02  0.8045916E-01
       -3   -1    0    0    0  501  0.00000000000E+00  0.00000000000E+00  0.23638495200E+04  0.23638495221E+04  0.10100000352E+00 0.  1.
        3   -1    0    0  501    0  0.00000000000E+00  0.00000000000E+00 -0.15280661375E+04  0.15280661408E+04  0.10100000352E+00 0. -1.
    10030    2    1    2    0    0  0.00000000000E+00  0.00000000000E+00  0.83578338248E+03  0.38919156629E+04  0.38011147924E+04 0.  0.
        4    1    3    3  502    0 -0.10166994343E+04  0.12598953731E+04  0.14372145596E+04  0.21648559754E+04  0.12699999809E+01 0.  1.
       -4    1    3    3    0  502  0.10166994343E+04 -0.12598953731E+04 -0.60143117713E+03  0.17270596876E+04  0.12699999809E+01 0. -1.
</event>
<event>
 5   0  0.1327249E-08  0.3800883E+04  0.7818609E-02  0.8045965E-01
        2   -1    0    0  501    0  0.00000000000E+00  0.00000000000E+00  0.18219968106E+04  0.18219968106E+04  0.25500000920E-02 0. -1.
       -2   -1    0    0    0  501  0.00000000000E+00  0.00000000000E+00 -0.19822634005E+04  0.19822634005E+04  0.25500000920E-02 0.  1.
    10030    2    1    2    0    0  0.00000000000E+00  0.00000000000E+00 -0.16026658991E+03  0.38042602111E+04  0.38008828414E+04 0.  0.
        1    1    3    3  502    0 -0.58852506472E+03 -0.32028435575E+03 -0.18601211946E+04  0.19771177707E+04  0.50400001928E-02 0.  1.
       -1    1    3    3    0  502  0.58852506472E+03  0.32028435575E+03  0.16998546047E+04  0.18271424404E+04  0.50400001928E-02 0. -1.
</event>
<event>
 5   0  0.1305088E-08  0.3800619E+04  0.7818609E-02  0.8046022E-01
        2   -1    0    0  501    0  0.00000000000E+00  0.00000000000E+00  0.17653729064E+04  0.17653729064E+04  0.25500000920E-02 0.  1.
       -2   -1    0    0    0  501  0.00000000000E+00  0.00000000000E+00 -0.20455600952E+04  0.20455600952E+04  0.25500000920E-02 0. -1.
    10030    2    1    2    0    0  0.00000000000E+00  0.00000000000E+00 -0.28018718877E+03  0.38109330017E+04  0.38006190920E+04 0.  0.
        3    1    3    3  502    0  0.13230675482E+04 -0.78142668608E+03 -0.12611800082E+04  0.19878909493E+04  0.10100000352E+00 0. -1.
       -3    1    3    3    0  502 -0.13230675482E+04  0.78142668608E+03  0.98099281941E+03  0.18230420524E+04  0.10100000352E+00 0.  1.
</event>
<event>
 5   0  0.4071750E-09  0.3795171E+04  0.7818609E-02  0.8047192E-01
       -1   -1    0    0    0  501  0.00000000000E+00  0.00000000000E+00  0.17414512308E+04  0.17414512308E+04  0.50400001928E-02 0. -1.
        1   -1    0    0  501    0  0.00000000000E+00  0.00000000000E+00 -0.20677187419E+04  0.20677187419E+04  0.50400001928E-02 0.  1.
    10030    2    1    2    0    0  0.00000000000E+00  0.00000000000E+00 -0.32626751108E+03  0.38091699727E+04  0.37951713258E+04 0.  0.
        1    1    3    3  502    0  0.23439492436E+03 -0.13921204532E+04 -0.14358373473E+04  0.20135960928E+04  0.50400001928E-02 0.  1.
       -1    1    3    3    0  502 -0.23439492436E+03  0.13921204532E+04  0.11095698362E+04  0.17955738799E+04  0.50400001928E-02 0. -1.
</event>
<event>
 5   0  0.4071750E-09  0.3800368E+04  0.7818609E-02  0.8046076E-01
       -1   -1    0    0    0  501  0.00000000000E+00  0.00000000000E+00  0.10780325944E+04  0.10780325944E+04  0.50400001928E-02 0.  1.
        1   -1    0    0  501    0  0.00000000000E+00  0.00000000000E+00 -0.33493409051E+04  0.33493409051E+04  0.50400001928E-02 0. -1.
    10030    2    1    2    0    0  0.00000000000E+00  0.00000000000E+00 -0.22713083107E+04  0.44273734995E+04  0.38003677008E+04 0.  0.
        1    1    3    3  502    0 -0.51720017751E+03 -0.16840666860E+04 -0.19652695173E+04  0.26392917425E+04  0.50400001928E-02 0. -1.
       -1    1    3    3    0  502  0.51720017751E+03  0.16840666860E+04 -0.30603879340E+03  0.17880817570E+04  0.50400001928E-02 0.  1.
</event>
<event>
 5   0  0.4071750E-09  0.3798287E+04  0.7818609E-02  0.8046523E-01
       -1   -1    0    0    0  501  0.00000000000E+00  0.00000000000E+00  0.18717393373E+04  0.18717393373E+04  0.50400001928E-02 0.  1.
        1   -1    0    0  501    0  0.00000000000E+00  0.00000000000E+00 -0.19269486425E+04  0.19269486425E+04  0.50400001928E-02 0. -1.
    10030    2    1    2    0    0  0.00000000000E+00  0.00000000000E+00 -0.55209305148E+02  0.37986879798E+04  0.37982867586E+04 0.  0.
        3    1    3    3  502    0  0.62777781095E+03  0.90047332254E+02 -0.18179144308E+04  0.19253639630E+04  0.10100000352E+00 0. -1.
       -3    1    3    3    0  502 -0.62777781095E+03 -0.90047332254E+02  0.17627051257E+04  0.18733240169E+04  0.10100000352E+00 0.  1.
</event>
<event>
 5   0  0.4071750E-09  0.3801726E+04  0.7818609E-02  0.8045785E-01
       -1   -1    0    0    0  501  0.00000000000E+00  0.00000000000E+00  0.16335845459E+04  0.16335845459E+04  0.50400001928E-02 0. -1.
        1   -1    0    0  501    0  0.00000000000E+00  0.00000000000E+00 -0.22118718753E+04  0.22118718753E+04  0.50400001928E-02 0.  1.
    10030    2    1    2    0    0  0.00000000000E+00  0.00000000000E+00 -0.57828732940E+03  0.38454564212E+04  0.38017257728E+04 0.  0.
        5    1    3    3  502    0 -0.17915964780E+04  0.61356286926E+03 -0.45528985986E+03  0.19477136035E+04  0.46999998093E+01 0.  1.
       -5    1    3    3    0  502  0.17915964780E+04 -0.61356286926E+03 -0.12299746954E+03  0.18977428177E+04  0.46999998093E+01 0. -1.
</event>
<event>
 5   0  0.4071750E-09  0.3799355E+04  0.7818609E-02  0.8046293E-01
        1   -1    0    0  501    0  0.00000000000E+00  0.00000000000E+00  0.33188305191E+04  0.33188305191E+04  0.50400001928E-02 0.  1.
       -1   -1    0    0    0  501  0.00000000000E+00  0.00000000000E+00 -0.10873632735E+04  0.10873632735E+04  0.50400001928E-02 0. -1.
    10030    2    1    2    0    0  0.00000000000E+00  0.00000000000E+00  0.22314672456E+04  0.44061937926E+04  0.37993549017E+04 0.  0.
        5    1    3    3  502    0 -0.12886394277E+04  0.13659655414E+04  0.14484320334E+04  0.23715882611E+04  0.46999998093E+01 0. -1.
       -5    1    3    3    0  502  0.12886394277E+04 -0.13659655414E+04  0.78303521220E+03  0.20346055314E+04  0.46999998093E+01 0.  1.
</event>
<event>
 5   0  0.1264013E-08  0.3801918E+04  0.7818609E-02  0.8045743E-01
       -2   -1    0    0    0  501  0.00000000000E+00  0.00000000000E+00  0.20131004899E+04  0.20131004899E+04  0.25500000920E-02 0. -1.
        2   -1    0    0  501    0  0.00000000000E+00  0.00000000000E+00 -0.17950644386E+04  0.17950644386E+04  0.25500000920E-02 0.  1.
    10030    2    1    2    0    0  0.00000000000E+00  0.00000000000E+00  0.21803605122E+03  0.38081649285E+04  0.38019179900E+04 0.  0.
        4    1    3    3  502    0 -0.89852602727E+03 -0.71266512567E+03 -0.14095214405E+04  0.18171386593E+04  0.12699999809E+01 0.  1.
       -4    1    3    3    0  502  0.89852602727E+03  0.71266512567E+03  0.16275574917E+04  0.19910262692E+04  0.12699999809E+01 0. -1.
</event>
<event>
 5   0  0.1327249E-08  0.3800290E+04  0.7818609E-02  0.8046093E-01
       -2   -1    0    0    0  501  0.00000000000E+00  0.00000000000E+00  0.14156664092E+04  0.14156664092E+04  0.25500000920E-02 0.  1.
        2   -1    0    0  501    0  0.00000000000E+00  0.00000000000E+00 -0.25504245019E+04  0.25504245019E+04  0.25500000920E-02 0. -1.
    10030    2    1    2    0    0  0.00000000000E+00  0.00000000000E+00 -0.11347580927E+04  0.39660909111E+04  0.38002896187E+04 0.  0.
        1    1    3    3  502    0 -0.17198648104E+04 -0.42867044066E+03 -0.12819842335E+04  0.21875047171E+04  0.50400001928E-02 0. -1.
       -1    1    3    3    0  502  0.17198648104E+04  0.42867044066E+03  0.14722614083E+03  0.17785861939E+04  0.50400001928E-02 0.  1.
</event>
<event>
 5   0  0.4071750E-09  0.3802169E+04  0.7818609E-02  0.8045690E-01
        1   -1    0    0  501    0  0.00000000000E+00  0.00000000000E+00  0.20452725807E+04  0.20452725807E+04  0.50400001928E-02 0. -1.
       -1   -1    0    0    0  501  0.00000000000E+00  0.00000000000E+00 -0.17670609598E+04  0.17670609598E+04  0.50400001928E-02 0.  1.
    10030    2    1    2    0    0  0.00000000000E+00  0.00000000000E+00  0.27821162090E+03  0.38123335405E+04  0.38021685020E+04 0.  0.
        2    1    3    3  502    0 -0.16872502455E+04 -0.84618847362E+03  0.36614661549E+03  0.19227354649E+04  0.25500000920E-02 0.  1.
       -2    1    3    3    0  502  0.16872502455E+04  0.84618847362E+03 -0.87934994588E+02  0.18895980756E+04  0.25500000920E-02 0. -1.
</event>
<event>
 5   0  0.1293993E-08  0.3799480E+04  0.7818609E-02  0.8046267E-01
        2   -1    0    0  501    0  0.00000000000E+00  0.00000000000E+00  0.25412697391E+04  0.25412697391E+04  0.25500000920E-02 0.  1.
       -2   -1    0    0    0  501  0.00000000000E+00  0.00000000000E+00 -0.14201607007E+04  0.14201607007E+04  0.25500000920E-02 0. -1.
    10030    2    1    2    0    0  0.00000000000E+00  0.00000000000E+00  0.11211090384E+04  0.39614304398E+04  0.37994796556E+04 0.  0.
        5    1    3    3  502    0  0.61161206250E+03  0.17590212377E+04  0.16937675166E+03  0.18700095196E+04  0.46999998093E+01 0.  1.
       -5    1    3    3    0  502 -0.61161206250E+03 -0.17590212377E+04  0.95173228677E+03  0.20914209201E+04  0.46999998093E+01 0. -1.
</event>
<event>
 5   0  0.4071750E-09  0.3800891E+04  0.7818609E-02  0.8045964E-01
       -1   -1    0    0    0  501  0.00000000000E+00  0.00000000000E+00  0.19678379137E+04  0.19678379137E+04  0.50400001928E-02 0.  1.
        1   -1    0    0  501    0  0.00000000000E+00  0.00000000000E+00 -0.18353607505E+04  0.18353607505E+04  0.50400001928E-02 0. -1.
    10030    2    1    2    0    0  0.00000000000E+00  0.00000000000E+00  0.13247716320E+03  0.38031986643E+04  0.38008906695E+04 0.  0.
        2    1    3    3  502    0 -0.52846944748E+03  0.13341272238E+04 -0.11805184476E+04  0.18581709317E+04  0.25500000920E-02 0. -1.
       -2    1    3    3    0  502  0.52846944748E+03 -0.13341272238E+04  0.13129956108E+04  0.19450277326E+04  0.25500000920E-02 0.  1.
</event>
<event>
 5   0  0.1261152E-08  0.3800026E+04  0.7818609E-02  0.8046149E-01
       -2   -1    0    0    0  501  0.00000000000E+00  0.00000000000E+00  0.18810531072E+04  0.18810531072E+04  0.25500000920E-02 0. -1.
        2   -1    0    0  501    0  0.00000000000E+00  0.00000000000E+00 -0.19191644799E+04  0.19191644799E+04  0.25500000920E-02 0.  1.
    10030    2    1    2    0    0  0.00000000000E+00  0.00000000000E+00 -0.38111372708E+02  0.38002175870E+04  0.38000264778E+04 0.  0.
        2    1    3    3  502    0  0.57330301776E+03 -0.11041574391E+04 -0.14551677072E+04  0.19145111795E+04  0.25500000920E-02 0.  1.
       -2    1    3    3    0  502 -0.57330301776E+03  0.11041574391E+04  0.14170563344E+04  0.18857064075E+04  0.25500000920E-02 0. -1.
</event>
<event>
 5   0  0.1305088E-08  0.3792912E+04  0.7818609E-02  0.8047678E-01
       -2   -1    0    0    0  501  0.00000000000E+00  0.00000000000E+00  0.27073083734E+04  0.27073083734E+04  0.25500000920E-02 0. -1.
        2   -1    0    0  501    0  0.00000000000E+00  0.00000000000E+00 -0.13284578712E+04  0.13284578712E+04  0.25500000920E-02 0.  1.
    10030    2    1    2    0    0  0.00000000000E+00  0.00000000000E+00  0.13788505022E+04  0.40357662446E+04  0.37929118727E+04 0.  0.
        3    1    3    3  502    0 -0.56801521884E+03  0.13619415838E+04  0.19569234410E+04  0.24509336039E+04  0.10100000352E+00 0. -1.
       -3    1    3    3    0  502  0.56801521884E+03 -0.13619415838E+04 -0.57807293876E+03  0.15848326408E+04  0.10100000352E+00 0.  1.
</event>
<event>
 5   0  0.1327249E-08  0.3800385E+04  0.7818609E-02  0.8046072E-01
       -2   -1    0    0    0  501  0.00000000000E+00  0.00000000000E+00  0.19726840894E+04  0.19726840894E+04  0.25500000920E-02 0.  1.
        2   -1    0    0  501    0  0.00000000000E+00  0.00000000000E+00 -0.18303650406E+04  0.18303650406E+04  0.25500000920E-02 0. -1.
    10030    2    1    2    0    0  0.00000000000E+00  0.00000000000E+00  0.14231904876E+03  0.38030491300E+04  0.38003852402E+04 0.  0.
        1    1    3    3  502    0  0.81388382302E+03 -0.26273826781E+03 -0.16268780577E+04  0.18379800024E+04  0.50400001928E-02 0. -1.
       -1    1    3    3    0  502 -0.81388382302E+03  0.26273826781E+03  0.17691971064E+04  0.19650691276E+04  0.50400001928E-02 0.  1.
</event>
<event>
 5   0  0.1264013E-08  0.3799208E+04  0.7818609E-02  0.8046325E-01
        2   -1    0    0  501    0  0.00000000000E+00  0.00000000000E+00  0.25893208476E+04  0.25893208476E+04  0.25500000920E-02 0. -1.
       -2   -1    0    0    0  501  0.00000000000E+00  0.00000000000E+00 -0.13936065517E+04  0.13936065517E+04  0.25500000920E-02 0.  1.
    10030    2    1    2    0    0  0.00000000000E+00  0.00000000000E+00  0.11957142959E+04  0.39829273993E+04  0.37992075477E+04 0.  0.
        4    1    3    3  502    0 -0.35625302267E+03 -0.16731471129E+04 -0.26800954443E+03  0.17315219335E+04  0.12699999809E+01 0. -1.
       -4    1    3    3    0  502  0.35625302267E+03  0.16731471129E+04  0.14637238403E+04  0.22514054657E+04  0.12699999809E+01 0.  1.
</event>
<event>
 5   0  0.4071750E-09  0.3801596E+04  0.7818609E-02  0.8045812E-01
       -1   -1    0    0    0  501  0.00000000000E+00  0.00000000000E+00  0.17259314216E+04  0.17259314217E+04  0.50400001928E-02 0.  1.
        1   -1    0    0  501    0  0.00000000000E+00  0.00000000000E+00 -0.20933819605E+04  0.20933819605E+04  0.50400001928E-02 0. -1.
    10030    2    1    2    0    0  0.00000000000E+00  0.00000000000E+00 -0.36745053886E+03  0.38193133822E+04  0.38015963506E+04 0.  0.
        5    1    3    3  502    0  0.42802938555E+03  0.81862193500E+03  0.14852393417E+04  0.17490880537E+04  0.46999998093E+01 0.  1.
       -5    1    3    3    0  502 -0.42802938555E+03 -0.81862193500E+03 -0.18526898805E+04  0.20702253285E+04  0.46999998093E+01 0. -1.
</event>
<event>
 5   0  0.4071750E-09  0.3799385E+04  0.7818609E-02  0.8046287E-01
       -1   -1    0    0    0  501  0.00000000000E+00  0.00000000000E+00  0.19684275068E+04  0.19684275068E+04  0.50400001928E-02 0. -1.
        1   -1    0    0  501    0  0.00000000000E+00  0.00000000000E+00 -0.18333576654E+04  0.18333576655E+04  0.50400001928E-02 0.  1.
    10030    2    1    2    0    0  0.00000000000E+00  0.00000000000E+00  0.13506984138E+03  0.38017851723E+04  0.37993850337E+04 0.  0.
        4    1    3    3  502    0  0.14287122719E+04  0.83084139079E+03 -0.86970712512E+03  0.18675942464E+04  0.12699999809E+01 0.  1.
       -4    1    3    3    0  502 -0.14287122719E+04 -0.83084139079E+03  0.10047769665E+04  0.19341909259E+04  0.12699999809E+01 0. -1.
</event>
<event>
 5   0  0.4071750E-09  0.3799276E+04  0.7818609E-02  0.8046310E-01
       -3   -1    0    0    0  501  0.00000000000E+00  0.00000000000E+00  0.20556847681E+04  0.20556847706E+04  0.10100000352E+00 0. -1.
        3   -1    0    0  501    0  0.00000000000E+00  0.00000000000E+00 -0.17554362791E+04  0.17554362820E+04  0.10100000352E+00 0.  1.
    10030    2    1    2    0    0  0.00000000000E+00  0.00000000000E+00  0.30024848906E+03  0.38111210526E+04  0.37992755260E+04 0.  0.
        3    1    3    3  502    0 -0.86733128573E+03  0.25600840217E+03 -0.15256590165E+04  0.17735386395E+04  0.10100000352E+00 0.  1.
       -3    1    3    3    0  502  0.86733128573E+03 -0.25600840217E+03  0.18259075055E+04  0.20375824131E+04  0.10100000352E+00 0. -1.
</event>
<event>
 5   0  0.1305088E-08  0.3798657E+04  0.7818609E-02  0.8046443E-01
       -2   -1    0    0    0  501  0.00000000000E+00  0.00000000000E+00  0.14247859932E+04  0.14247859932E+04  0.25500000920E-02 0.  1.
        2   -1    0    0  501    0  0.00000000000E+00  0.00000000000E+00 -0.25319228306E+04  0.25319228306E+04  0.25500000920E-02 0. -1.
    10030    2    1    2    0    0  0.00000000000E+00  0.00000000000E+00 -0.11071368374E+04  0.39567088238E+04  0.37986567020E+04 0.  0.
        3    1    3    3  502    0  0.45547728534E+02 -0.55631886274E+03 -0.24445614640E+04  0.25074780227E+04  0.10100000352E+00 0. -1.
       -3    1    3    3    0  502 -0.45547728534E+02  0.55631886274E+03  0.13374246267E+04  0.14492308011E+04  0.10100000352E+00 0.  1.
</event>
<event>
 5   0  0.1261152E-08  0.3801448E+04  0.7818609E-02  0.8045844E-01
       -2   -1    0    0    0  501  0.00000000000E+00  0.00000000000E+00  0.27928939474E+04  0.27928939474E+04  0.25500000920E-02 0. -1.
        2   -1    0    0  501    0  0.00000000000E+00  0.00000000000E+00 -0.12935514279E+04  0.12935514279E+04  0.25500000920E-02 0.  1.
    10030    2    1    2    0    0  0.00000000000E+00  0.00000000000E+00  0.14993425195E+04  0.40864453753E+04  0.38014481207E+04 0.  0.
        2    1    3    3  502    0 -0.16673957395E+04 -0.63905338832E+03  0.49573803511E+02  0.17863525260E+04  0.25500000920E-02 0.  1.
       -2    1    3    3    0  502  0.16673957395E+04  0.63905338832E+03  0.14497687160E+04  0.23000928493E+04  0.25500000920E-02 0. -1.
</event>
<event>
 5   0  0.1293993E-08  0.3797818E+04  0.7818609E-02  0.8046623E-01
        2   -1    0    0  501    0  0.00000000000E+00  0.00000000000E+00  0.19215271385E+04  0.19215271385E+04  0.25500000920E-02 0.  1.
       -2   -1    0    0    0  501  0.00000000000E+00  0.00000000000E+00 -0.18765571727E+04  0.18765571727E+04  0.25500000920E-02 0. -1.
    10030    2    1    2    0    0  0.00000000000E+00  0.00000000000E+00  0.44969965795E+02  0.37980843111E+04  0.37978180758E+04 0.  0.
        5    1    3    3  502    0  0.63739973112E+03  0.15185155444E+04  0.96789011748E+03  0.19102359136E+04  0.46999998093E+01 0.  1.
       -5    1    3    3    0  502 -0.63739973112E+03 -0.15185155444E+04 -0.92292015168E+03  0.18878483976E+04  0.46999998093E+01 0. -1.
</event>
<event>
 5   0  0.4071750E-09  0.3800572E+04  0.7818609E-02  0.8046032E-01
       -1   -1    0    0    0  501  0.00000000000E+00  0.00000000000E+00  0.25442941589E+04  0.25442941589E+04  0.50400001928E-02 0. -1.
        1   -1    0    0  501    0  0.00000000000E+00  0.00000000000E+00 -0.14192884152E+04  0.14192884152E+04  0.50400001928E-02 0.  1.
    10030    2    1    2    0    0  0.00000000000E+00  0.00000000000E+00  0.11250057438E+04  0.39635825741E+04  0.38005721804E+04 0.  0.
        4    1    3    3  502    0 -0.34609250996E+03  0.11289061276E+04  0.21152819800E+04  0.24225252399E+04  0.12699999809E+01 0. -1.
       -4    1    3    3    0  502  0.34609250996E+03 -0.11289061276E+04 -0.99027623623E+03  0.15410573342E+04  0.12699999809E+01 0.  1.
</event>
<event>
 5   0  0.4071750E-09  0.3801571E+04  0.7818609E-02  0.8045818E-01
        1   -1    0    0  501    0  0.00000000000E+00  0.00000000000E+00  0.23661801723E+04  0.23661801723E+04  0.50400001928E-02 0.  1.
       -1   -1    0    0    0  501  0.00000000000E+00  0.00000000000E+00 -0.15269271459E+04  0.15269271459E+04  0.50400001928E-02 0. -1.
    10030    2    1    2    0    0  0.00000000000E+00  0.00000000000E+00  0.83925302639E+03  0.38931073182E+04  0.38015705898E+04 0.  0.
        1    1    3    3  502    0 -0.86304229014E+03  0.13904557219E+04  0.14097446296E+04  0.21599974606E+04  0.50400001928E-02 0.  1.
       -1    1    3    3    0  502  0.86304229014E+03 -0.13904557219E+04 -0.57049160326E+03  0.17331098576E+04  0.50400001928E-02 0. -1.
</event>
<event>
 5   0  0.1261152E-08  0.3798784E+04  0.7818609E-02  0.8046416E-01
       -2   -1    0    0    0  501  0.00000000000E+00  0.00000000000E+00  0.16805972400E+04  0.16805972400E+04  0.25500000920E-02 0. -1.
        2   -1    0    0  501    0  0.00000000000E+00  0.00000000000E+00 -0.21466718472E+04  0.21466718472E+04  0.25500000920E-02 0.  1.
    10030    2    1    2    0    0  0.00000000000E+00  0.00000000000E+00 -0.46607460719E+03  0.38272690871E+04  0.37987844274E+04 0.  0.
        2    1    3    3  502    0 -0.14376138868E+03  0.18119517497E+04  0.32232582511E+03  0.18460039051E+04  0.25500000920E-02 0.  1.
       -2    1    3    3    0  502  0.14376138868E+03 -0.18119517497E+04 -0.78840043230E+03  0.19812651821E+04  0.25500000920E-02 0. -1.
</event>
<event>
 5   0  0.4071750E-09  0.3801727E+04  0.7818609E-02  0.8045784E-01
        1   -1    0    0  501    0  0.00000000000E+00  0.00000000000E+00  0.11202871845E+04  0.11202871845E+04  0.50400001928E-02 0. -1.
       -1   -1    0    0    0  501  0.00000000000E+00  0.00000000000E+00 -0.32253181466E+04  0.32253181466E+04  0.50400001928E-02 0.  1.
    10030    2    1    2    0    0  0.00000000000E+00  0.00000000000E+00 -0.21050309621E+04  0.43456053311E+04  0.38017272841E+04 0.  0.
        4    1    3    3  502    0  0.57465162040E+03  0.69502184408E+03  0.86019141758E+03  0.12462787555E+04  0.12699999809E+01 0. -1.
       -4    1    3    3    0  502 -0.57465162040E+03 -0.69502184408E+03 -0.29652223797E+04  0.30993265757E+04  0.12699999809E+01 0.  1.
</event>
<event>
 5   0  0.1264013E-08  0.3796959E+04  0.7818609E-02  0.8046808E-01
       -2   -1    0    0    0  501  0.00000000000E+00  0.00000000000E+00  0.21141313812E+04  0.21141313813E+04  0.25500000920E-02 0. -1.
        2   -1    0    0  501    0  0.00000000000E+00  0.00000000000E+00 -0.17048248811E+04  0.17048248811E+04  0.25500000920E-02 0.  1.
    10030    2    1    2    0    0  0.00000000000E+00  0.00000000000E+00  0.40930650019E+03  0.38189562623E+04  0.37969586675E+04 0.  0.
        4    1    3    3  502    0 -0.13440892912E+04 -0.16505719973E+03  0.15429264883E+04  0.20529110217E+04  0.12699999809E+01 0. -1.
       -4    1    3    3    0  502  0.13440892912E+04  0.16505719973E+03 -0.11336199881E+04  0.17660452407E+04  0.12699999809E+01 0.  1.
</event>
<event>
 5   0  0.4071750E-09  0.3798905E+04  0.7818609E-02  0.8046390E-01
       -1   -1    0    0    0  501  0.00000000000E+00  0.00000000000E+00  0.18189816262E+04  0.18189816262E+04  0.50400001928E-02 0.  1.
        1   -1    0    0  501    0  0.00000000000E+00  0.00000000000E+00 -0.19834830315E+04  0.19834830315E+04  0.50400001928E-02 0. -1.
    10030    2    1    2    0    0  0.00000000000E+00  0.00000000000E+00 -0.16450140527E+03  0.38024646577E+04  0.37989046791E+04 0.  0.
        5    1    3    3  502    0  0.39292187752E+01  0.31795014762E+03  0.17921465113E+04  0.18201425612E+04  0.46999998093E+01 0.  1.
       -5    1    3    3    0  502 -0.39292187752E+01 -0.31795014762E+03 -0.19566479165E+04  0.19823220965E+04  0.46999998093E+01 0. -1.
</event>
<event>
 5   0  0.1305088E-08  0.3801093E+04  0.7818609E-02  0.8045920E-01
       -2   -1    0    0    0  501  0.00000000000E+00  0.00000000000E+00  0.16199536527E+04  0.16199536527E+04  0.25500000920E-02 0.  1.
        2   -1    0    0  501    0  0.00000000000E+00  0.00000000000E+00 -0.22297413608E+04  0.22297413608E+04  0.25500000920E-02 0. -1.
    10030    2    1    2    0    0  0.00000000000E+00  0.00000000000E+00 -0.60978770812E+03  0.38496950136E+04  0.38010933491E+04 0.  0.
        3    1    3    3  502    0  0.13329464658E+04  0.13415875992E+04 -0.49564773811E+03  0.19550627247E+04  0.10100000352E+00 0. -1.
       -3    1    3    3    0  502 -0.13329464658E+04 -0.13415875992E+04 -0.11413997001E+03  0.18946322889E+04  0.10100000352E+00 0.  1.
</event>
<event>
 5   0  0.1327249E-08  0.3797485E+04  0.7818609E-02  0.8046695E-01
        2   -1    0    0  501    0  0.00000000000E+00  0.00000000000E+00  0.15153648467E+04  0.15153648467E+04  0.25500000920E-02 0. -1.
       -2   -1    0    0    0  501  0.00000000000E+00  0.00000000000E+00 -0.23791120958E+04  0.23791120958E+04  0.25500000920E-02 0.  1.
    10030    2    1    2    0    0  0.00000000000E+00  0.00000000000E+00 -0.86374724913E+03  0.38944769425E+04  0.37974848710E+04 0.  0.
        1    1    3    3  502    0 -0.17102875015E+04 -0.36112508194E+03  0.32850006707E+03  0.17785969068E+04  0.50400001928E-02 0. -1.
       -1    1    3    3    0  502  0.17102875015E+04  0.36112508194E+03 -0.11922473162E+04  0.21158800358E+04  0.50400001928E-02 0.  1.
</event>
<event>
 5   0  0.4071750E-09  0.3801670E+04  0.7818609E-02  0.8045797E-01
        1   -1    0    0  501    0  0.00000000000E+00  0.00000000000E+00  0.23117771310E+04  0.23117771310E+04  0.50400001928E-02 0. -1.
       -1   -1    0    0    0  501  0.00000000000E+00  0.00000000000E+00 -0.15629416540E+04  0.15629416540E+04  0.50400001928E-02 0.  1.
    10030    2    1    2    0    0  0.00000000000E+00  0.00000000000E+00  0.74883547702E+03  0.38747187850E+04  0.38016695136E+04 0.  0.
        3    1    3    3  502    0 -0.56596171444E+03 -0.18128907034E+04  0.29360100457E+03  0.19217405977E+04  0.10100000352E+00 0. -1.
       -3    1    3    3    0  502  0.56596171444E+03  0.18128907034E+04  0.45523447245E+03  0.19529781873E+04  0.10100000352E+00 0.  1.
</event>
<event>
 5   0  0.4071750E-09  0.3798835E+04  0.7818609E-02  0.8046405E-01
       -1   -1    0    0    0  501  0.00000000000E+00  0.00000000000E+00  0.12164616132E+04  0.12164616132E+04  0.50400001928E-02 0.  1.
        1   -1    0    0  501    0  0.00000000000E+00  0.00000000000E+00 -0.29658044964E+04  0.29658044964E+04  0.50400001928E-02 0. -1.
    10030    2    1    2    0    0  0.00000000000E+00  0.00000000000E+00 -0.17493428832E+04  0.41822661097E+04  0.37988352543E+04 0.  0.
        4    1    3    3  502    0 -0.16638663726E+04 -0.34733660967E+03  0.58652727900E+02  0.17007456546E+04  0.12699999809E+01 0.  1.
       -4    1    3    3    0  502  0.16638663726E+04  0.34733660967E+03 -0.18079956111E+04  0.24815204551E+04  0.12699999809E+01 0. -1.
</event>
<event>
 5   0  0.4071750E-09  0.3798008E+04  0.7818609E-02  0.8046582E-01
       -1   -1    0    0    0  501  0.00000000000E+00  0.00000000000E+00  0.22727418613E+04  0.22727418613E+04  0.50400001928E-02 0.  1.
        1   -1    0    0  501    0  0.00000000000E+00  0.00000000000E+00 -0.15867250294E+04  0.15867250294E+04  0.50400001928E-02 0. -1.
    10030    2    1    2    0    0  0.00000000000E+00  0.00000000000E+00  0.68601683189E+03  0.38594668907E+04  0.37980081078E+04 0.  0.
        4    1    3    3  502    0 -0.10057114589E+04 -0.39258395031E+03  0.19305424159E+04  0.22119162120E+04  0.12699999809E+01 0.  1.
       -4    1    3    3    0  502  0.10057114589E+04  0.39258395031E+03 -0.12445255840E+04  0.16475506786E+04  0.12699999809E+01 0. -1.
</event>
<event>
 5   0  0.4071750E-09  0.3798707E+04  0.7818609E-02  0.8046433E-01
       -1   -1    0    0    0  501  0.00000000000E+00  0.00000000000E+00  0.28666223214E+04  0.28666223214E+04  0.50400001928E-02 0.  1.
        1   -1    0    0  501    0  0.00000000000E+00  0.00000000000E+00 -0.12584646271E+04  0.12584646271E+04  0.50400001928E-02 0. -1.
    10030    2    1    2    0    0  0.00000000000E+00  0.00000000000E+00  0.16081576944E+04  0.41250869485E+04  0.37987065118E+04 0.  0.
        4    1    3    3  502    0 -0.12020253695E+04  0.28582004330E+03 -0.76242563388E+03  0.14518445324E+04  0.12699999809E+01 0. -1.
       -4    1    3    3    0  502  0.12020253695E+04 -0.28582004330E+03  0.23705833283E+04  0.26732424161E+04  0.12699999809E+01 0.  1.
</event>
<event>
 5   0  0.4071750E-09  0.3799050E+04  0.7818609E-02  0.8046359E-01
       -1   -1    0    0    0  501  0.00000000000E+00  0.00000000000E+00  0.19010941173E+04  0.19010941173E+04  0.50400001928E-02 0. -1.
        1   -1    0    0  501    0  0.00000000000E+00  0.00000000000E+00 -0.18979575084E+04  0.18979575084E+04  0.50400001928E-02 0.  1.
    10030    2    1    2    0    0  0.00000000000E+00  0.00000000000E+00  0.31366089247E+01  0.37990516257E+04  0.37990503308E+04 0.  0.
        3    1    3    3  502    0 -0.72769780729E+03  0.58835341544E+03 -0.16514573657E+04  0.18981610262E+04  0.10100000352E+00 0.  1.
       -3    1    3    3    0  502  0.72769780729E+03 -0.58835341544E+03  0.16545939747E+04  0.19008905995E+04  0.10100000352E+00 0. -1.
</event>
<event>
 5   0  0.1293993E-08  0.3798276E+04  0.7818609E-02  0.8046525E-01
        2   -1    0    0  501    0  0.00000000000E+00  0.00000000000E+00  0.28093351104E+04  0.28093351104E+04  0.25500000920E-02 0. -1.
       -2   -1    0    0    0  501  0.00000000000E+00  0.00000000000E+00 -0.12838358480E+04  0.12838358480E+04  0.25500000920E-02 0.  1.
    10030    2    1    2    0    0  0.00000000000E+00  0.00000000000E+00  0.15254992624E+04  0.40931709584E+04  0.37982759898E+04 0.  0.
        5    1    3    3  502    0  0.60757241582E+03 -0.11651518312E+02 -0.11762293092E+04  0.13239401332E+04  0.46999998093E+01 0.  1.
       -5    1    3    3    0  502 -0.60757241582E+03  0.11651518312E+02  0.27017285717E+04  0.27692308252E+04  0.46999998093E+01 0. -1.
</event>
<event>
 5   0  0.1261152E-08  0.3801828E+04  0.7818609E-02  0.8045763E-01
       -2   -1    0    0    0  501  0.00000000000E+00  0.00000000000E+00  0.27812910051E+04  0.27812910051E+04  0.25500000920E-02 0.  1.
        2   -1    0    0  501    0  0.00000000000E+00  0.00000000000E+00 -0.12992072310E+04  0.12992072310E+04  0.25500000920E-02 0. -1.
    10030    2    1    2    0    0  0.00000000000E+00  0.00000000000E+00  0.14820837742E+04  0.40804982361E+04  0.38018276581E+04 0.  0.
        2    1    3    3  502    0  0.11431927729E+04  0.11213693742E+04 -0.35829852199E+03  0.16409560690E+04  0.25500000920E-02 0. -1.
       -2    1    3    3    0  502 -0.11431927729E+04 -0.11213693742E+04  0.18403822961E+04  0.24395421672E+04  0.25500000920E-02 0.  1.
</event>
<event>
 5   0  0.4071750E-09  0.3798661E+04  0.7818609E-02  0.8046442E-01
       -1   -1    0    0    0  501  0.00000000000E+00  0.00000000000E+00  0.23976928833E+04  0.23976928833E+04  0.50400001928E-02 0. -1.
        1   -1    0    0  501    0  0.00000000000E+00  0.00000000000E+00 -0.15045534564E+04  0.15045534564E+04  0.50400001928E-02 0.  1.
    10030    2    1    2    0    0  0.00000000000E+00  0.00000000000E+00  0.89313942689E+03  0.39022463398E+04  0.37986614037E+04 0.  0.
        2    1    3    3  502    0  0.82202777099E+03  0.44792827718E+02  0.22048869537E+04  0.23535637939E+04  0.25500000920E-02 0. -1.
       -2    1    3    3    0  502 -0.82202777099E+03 -0.44792827718E+02 -0.13117475268E+04  0.15486825458E+04  0.25500000920E-02 0.  1.
</event>
<event>
 5   0  0.4071750E-09  0.3799965E+04  0.7818609E-02  0.8046162E-01
        1   -1    0    0  501    0  0.00000000000E+00  0.00000000000E+00  0.21756173276E+04  0.21756173276E+04  0.50400001928E-02 0.  1.
       -1   -1    0    0    0  501  0.00000000000E+00  0.00000000000E+00 -0.16592683837E+04  0.16592683837E+04  0.50400001928E-02 0. -1.
    10030    2    1    2    0    0  0.00000000000E+00  0.00000000000E+00  0.51634894391E+03  0.38348857114E+04  0.37999647613E+04 0.  0.
        1    1    3    3  502    0  0.85115650388E+03 -0.93979275272E+03  0.16861888333E+04  0.21097181314E+04  0.50400001928E-02 0.  1.
       -1    1    3    3    0  502 -0.85115650388E+03  0.93979275272E+03 -0.11698398894E+04  0.17251675800E+04  0.50400001928E-02 0. -1.
</event>
<event>
 5   0  0.4071750E-09  0.3799998E+04  0.7818609E-02  0.8046155E-01
       -1   -1    0    0    0  501  0.00000000000E+00  0.00000000000E+00  0.18458149740E+04  0.18458149740E+04  0.50400001928E-02 0.  1.
        1   -1    0    0  501    0  0.00000000000E+00  0.00000000000E+00 -0.19557738529E+04  0.19557738529E+04  0.50400001928E-02 0. -1.
    10030    2    1    2    0    0  0.00000000000E+00  0.00000000000E+00 -0.10995887888E+03  0.38015888269E+04  0.37999982439E+04 0.  0.
        3    1    3    3  502    0 -0.14214906651E+03 -0.73320512685E+03  0.16928066517E+04  0.18502406561E+04  0.10100000352E+00 0.  1.
       -3    1    3    3    0  502  0.14214906651E+03  0.73320512685E+03 -0.18027655306E+04  0.19513481708E+04  0.10100000352E+00 0. -1.
</event>
<event>
 5   0  0.4071750E-09  0.3800948E+04  0.7818609E-02  0.8045952E-01
        1   -1    0    0  501    0  0.00000000000E+00  0.00000000000E+00  0.23848297131E+04  0.23848297131E+04  0.50400001928E-02 0. -1.
       -1   -1    0    0    0  501  0.00000000000E+00  0.00000000000E+00 -0.15144900462E+04  0.15144900462E+04  0.50400001928E-02 0.  1.
    10030    2    1    2    0    0  0.00000000000E+00  0.00000000000E+00  0.87033966694E+03  0.38993197593E+04  0.38009477041E+04 0.  0.
        1    1    3    3  502    0 -0.53308989686E+03  0.42445332122E+03  0.22551922988E+04  0.23558942600E+04  0.50400001928E-02 0. -1.
       -1    1    3    3    0  502  0.53308989686E+03 -0.42445332122E+03 -0.13848526318E+04  0.15434254993E+04  0.50400001928E-02 0.  1.
</event>
<event>
 5   0  0.4071750E-09  0.3801372E+04  0.7818609E-02  0.8045861E-01
       -1   -1    0    0    0  501  0.00000000000E+00  0.00000000000E+00  0.28115474585E+04  0.28115474585E+04  0.50400001928E-02 0. -1.
        1   -1    0    0  501    0  0.00000000000E+00  0.00000000000E+00 -0.12849176786E+04  0.12849176786E+04  0.50400001928E-02 0.  1.
    10030    2    1    2    0    0  0.00000000000E+00  0.00000000000E+00  0.15266297799E+04  0.40964651371E+04  0.38013718753E+04 0.  0.
        4    1    3    3  502    0  0.65912779711E+03  0.53559515132E+03 -0.10690628975E+04  0.13653602860E+04  0.12699999809E+01 0.  1.
       -4    1    3    3    0  502 -0.65912779711E+03 -0.53559515132E+03  0.25956926774E+04  0.27311048511E+04  0.12699999809E+01 0. -1.
</event>
<event>
 5   0  0.4071750E-09  0.3798789E+04  0.7818609E-02  0.8046415E-01
        1   -1    0    0  501    0  0.00000000000E+00  0.00000000000E+00  0.17412806557E+04  0.17412806557E+04  0.50400001928E-02 0.  1.
       -1   -1    0    0    0  501  0.00000000000E+00  0.00000000000E+00 -0.20718660259E+04  0.20718660259E+04  0.50400001928E-02 0. -1.
    10030    2    1    2    0    0  0.00000000000E+00  0.00000000000E+00 -0.33058537023E+03  0.38131466816E+04  0.37987894030E+04 0.  0.
        4    1    3    3  502    0 -0.87417295226E+03 -0.11454717994E+03 -0.18540301612E+04  0.20529804818E+04  0.12699999809E+01 0. -1.
       -4    1    3    3    0  502  0.87417295226E+03  0.11454717994E+03  0.15234447910E+04  0.17601661998E+04  0.12699999809E+01 0.  1.
</event>
<event>
 5   0  0.4071750E-09  0.3778900E+04  0.7818609E-02  0.8050698E-01
        1   -1    0    0  501    0  0.00000000000E+00  0.00000000000E+00  0.17174139838E+04  0.17174139838E+04  0.50400001928E-02 0. -1.
       -1   -1    0    0    0  501  0.00000000000E+00  0.00000000000E+00 -0.20787193121E+04  0.20787193122E+04  0.50400001928E-02 0.  1.
    10030    2    1    2    0    0  0.00000000000E+00  0.00000000000E+00 -0.36130532838E+03  0.37961332959E+04  0.37789001654E+04 0.  0.
        3    1    3    3  502    0 -0.13054697296E+04 -0.40056369363E+03  0.11311812840E+04  0.17732099692E+04  0.10100000352E+00 0. -1.
       -3    1    3    3    0  502  0.13054697296E+04  0.40056369363E+03 -0.14924866124E+04  0.20229233267E+04  0.10100000352E+00 0.  1.
</event>
<event>
 5   0  0.1261152E-08  0.3801584E+04  0.7818609E-02  0.8045815E-01
        2   -1    0    0  501    0  0.00000000000E+00  0.00000000000E+00  0.14306357652E+04  0.14306357652E+04  0.25500000920E-02 0. -1.
       -2   -1    0    0    0  501  0.00000000000E+00  0.00000000000E+00 -0.25254571214E+04  0.25254571214E+04  0.25500000920E-02 0.  1.
    10030    2    1    2    0    0  0.00000000000E+00  0.00000000000E+00 -0.10948213562E+04  0.39560928866E+04  0.38015835023E+04 0.  0.
        2    1    3    3  502    0 -0.16196579659E+04 -0.98783493846E+03 -0.42472288236E+03  0.19440934440E+04  0.25500000920E-02 0.  1.
       -2    1    3    3    0  502  0.16196579659E+04  0.98783493846E+03 -0.67009847387E+03  0.20119994426E+04  0.25500000920E-02 0. -1.
</event>
<event>
 5   0  0.4071750E-09  0.3799762E+04  0.7818609E-02  0.8046206E-01
        3   -1    0    0  501    0  0.00000000000E+00  0.00000000000E+00  0.15485775674E+04  0.15485775707E+04  0.10100000352E+00 0.  1.
       -3   -1    0    0    0  501  0.00000000000E+00  0.00000000000E+00 -0.23308796705E+04  0.23308796727E+04  0.10100000352E+00 0. -1.
    10030    2    1    2    0    0  0.00000000000E+00  0.00000000000E+00 -0.78230210314E+03  0.38794572434E+04  0.37997620876E+04 0.  0.
        1    1    3    3  502    0 -0.12665931156E+04 -0.81235076267E+03 -0.15753820322E+04  0.21785317141E+04  0.50400001928E-02 0. -1.
       -1    1    3    3    0  502  0.12665931156E+04  0.81235076267E+03  0.79307992904E+03  0.17009255292E+04  0.50400001928E-02 0.  1.
</event>
<event>
 5   0  0.1327249E-08  0.3798219E+04  0.7818609E-02  0.8046537E-01
        2   -1    0    0  501    0  0.00000000000E+00  0.00000000000E+00  0.23491693112E+04  0.23491693112E+04  0.25500000920E-02 0. -1.
       -2   -1    0    0    0  501  0.00000000000E+00  0.00000000000E+00 -0.15352729858E+04  0.15352729858E+04  0.25500000920E-02 0.  1.
    10030    2    1    2    0    0  0.00000000000E+00  0.00000000000E+00  0.81389632540E+03  0.38844422969E+04  0.37982186258E+04 0.  0.
        1    1    3    3  502    0 -0.29081655394E+03 -0.40732156684E+03  0.22805106013E+04  0.23347834438E+04  0.50400001928E-02 0. -1.
       -1    1    3    3    0  502  0.29081655394E+03  0.40732156684E+03 -0.14666142759E+04  0.15496588531E+04  0.50400001928E-02 0.  1.
</event>
<event>
 5   0  0.4071750E-09  0.3796083E+04  0.7818609E-02  0.8046996E-01
       -1   -1    0    0    0  501  0.00000000000E+00  0.00000000000E+00  0.18598722837E+04  0.18598722837E+04  0.50400001928E-02 0.  1.
        1   -1    0    0  501    0  0.00000000000E+00  0.00000000000E+00 -0.19369941781E+04  0.19369941781E+04  0.50400001928E-02 0. -1.
    10030    2    1    2    0    0  0.00000000000E+00  0.00000000000E+00 -0.77121894366E+02  0.37968664618E+04  0.37960831316E+04 0.  0.
        3    1    3    3  502    0  0.67065660026E+03 -0.15308043519E+04 -0.93842405977E+03  0.19167112369E+04  0.10100000352E+00 0. -1.
       -3    1    3    3    0  502 -0.67065660026E+03  0.15308043519E+04  0.86130216540E+03  0.18801552249E+04  0.10100000352E+00 0.  1.
</event>
<event>
 5   0  0.1327249E-08  0.3800922E+04  0.7818609E-02  0.8045957E-01
       -2   -1    0    0    0  501  0.00000000000E+00  0.00000000000E+00  0.18051599832E+04  0.18051599832E+04  0.25500000920E-02 0.  1.
        2   -1    0    0  501    0  0.00000000000E+00  0.00000000000E+00 -0.20007932281E+04  0.20007932281E+04  0.25500000920E-02 0. -1.
    10030    2    1    2    0    0  0.00000000000E+00  0.00000000000E+00 -0.19563324496E+03  0.38059532113E+04  0.38009219250E+04 0.  0.
        1    1    3    3  502    0 -0.11342508091E+04  0.51723628747E+03  0.13385484930E+04  0.18291447026E+04  0.50400001928E-02 0.  1.
       -1    1    3    3    0  502  0.11342508091E+04 -0.51723628747E+03 -0.15341817379E+04  0.19768085087E+04  0.50400001928E-02 0. -1.
</event>
<event>
 5   0  0.4071750E-09  0.3799966E+04  0.7818609E-02  0.8046162E-01
       -1   -1    0    0    0  501  0.00000000000E+00  0.00000000000E+00  0.17749318976E+04  0.17749318976E+04  0.50400001928E-02 0. -1.
        1   -1    0    0  501    0  0.00000000000E+00  0.00000000000E+00 -0.20338446379E+04  0.20338446379E+04  0.50400001928E-02 0.  1.
    10030    2    1    2    0    0  0.00000000000E+00  0.00000000000E+00 -0.25891274032E+03  0.38087765355E+04  0.37999661696E+04 0.  0.
        1    1    3    3  502    0 -0.26152757323E+03  0.18322131407E+02  0.17567152062E+04  0.17761702305E+04  0.50400001928E-02 0. -1.
       -1    1    3    3    0  502  0.26152757323E+03 -0.18322131407E+02 -0.20156279465E+04  0.20326063050E+04  0.50400001928E-02 0.  1.
</event>
<event>
 5   0  0.1293993E-08  0.3801167E+04  0.7818609E-02  0.8045904E-01
       -2   -1    0    0    0  501  0.00000000000E+00  0.00000000000E+00  0.17154465344E+04  0.17154465345E+04  0.25500000920E-02 0. -1.
        2   -1    0    0  501    0  0.00000000000E+00  0.00000000000E+00 -0.21057011045E+04  0.21057011045E+04  0.25500000920E-02 0.  1.
    10030    2    1    2    0    0  0.00000000000E+00  0.00000000000E+00 -0.39025457006E+03  0.38211476390E+04  0.38011670115E+04 0.  0.
        5    1    3    3  502    0  0.24130974262E+03  0.48439526159E+03 -0.20266058795E+04  0.20976230934E+04  0.46999998093E+01 0.  1.
       -5    1    3    3    0  502 -0.24130974262E+03 -0.48439526159E+03  0.16363513094E+04  0.17235245456E+04  0.46999998093E+01 0. -1.
</event>
<event>
 5   0  0.4071750E-09  0.3807500E+04  0.7818609E-02  0.8044547E-01
        1   -1    0    0  501    0  0.00000000000E+00  0.00000000000E+00  0.15393873880E+04  0.15393873880E+04  0.50400001928E-02 0. -1.
       -1   -1    0    0    0  501  0.00000000000E+00  0.00000000000E+00 -0.23543549198E+04  0.23543549198E+04  0.50400001928E-02 0.  1.
    10030    2    1    2    0    0  0.00000000000E+00  0.00000000000E+00 -0.81496753172E+03  0.38937423078E+04  0.38075001092E+04 0.  0.
        2    1    3    3  502    0 -0.12100594426E+04 -0.58687810579E+03  0.97047655306E+03  0.16584614875E+04  0.25500000920E-02 0. -1.
       -2    1    3    3    0  502  0.12100594426E+04  0.58687810579E+03 -0.17854440848E+04  0.22352808203E+04  0.25500000920E-02 0.  1.
</event>
<event>
 5   0  0.1305088E-08  0.3802080E+04  0.7818609E-02  0.8045709E-01
        2   -1    0    0  501    0  0.00000000000E+00  0.00000000000E+00  0.14129700599E+04  0.14129700599E+04  0.25500000920E-02 0.  1.
       -2   -1    0    0    0  501  0.00000000000E+00  0.00000000000E+00 -0.25576991811E+04  0.25576991811E+04  0.25500000920E-02 0. -1.
    10030    2    1    2    0    0  0.00000000000E+00  0.00000000000E+00 -0.11447291212E+04  0.39706692411E+04  0.38020796232E+04 0.  0.
        3    1    3    3  502    0  0.79025573686E+03 -0.90288385105E+03 -0.21122809498E+04  0.24292867676E+04  0.10100000352E+00 0. -1.
       -3    1    3    3    0  502 -0.79025573686E+03  0.90288385105E+03  0.96755182864E+03  0.15413824734E+04  0.10100000352E+00 0.  1.
</event>
<event>
 5   0  0.1261152E-08  0.3800824E+04  0.7818609E-02  0.8045978E-01
       -2   -1    0    0    0  501  0.00000000000E+00  0.00000000000E+00  0.28228741291E+04  0.28228741291E+04  0.25500000920E-02 0. -1.
        2   -1    0    0  501    0  0.00000000000E+00  0.00000000000E+00 -0.12793932552E+04  0.12793932552E+04  0.25500000920E-02 0.  1.
    10030    2    1    2    0    0  0.00000000000E+00  0.00000000000E+00  0.15434808740E+04  0.41022673843E+04  0.38008241848E+04 0.  0.
        2    1    3    3  502    0 -0.88677721588E+03  0.12791031897E+04 -0.40519613239E+03  0.16083105130E+04  0.25500000920E-02 0.  1.
       -2    1    3    3    0  502  0.88677721588E+03 -0.12791031897E+04  0.19486770064E+04  0.24939568713E+04  0.25500000920E-02 0. -1.
</event>
<event>
 5   0  0.4071750E-09  0.3800828E+04  0.7818609E-02  0.8045977E-01
       -1   -1    0    0    0  501  0.00000000000E+00  0.00000000000E+00  0.15439245415E+04  0.15439245415E+04  0.50400001928E-02 0. -1.
        1   -1    0    0  501    0  0.00000000000E+00  0.00000000000E+00 -0.23392165049E+04  0.23392165049E+04  0.50400001928E-02 0.  1.
    10030    2    1    2    0    0  0.00000000000E+00  0.00000000000E+00 -0.79529196345E+03  0.38831410464E+04  0.38008282097E+04 0.  0.
        2    1    3    3  502    0 -0.18379707467E+04  0.24303889710E+03  0.28972886872E+02  0.18541962678E+04  0.25500000920E-02 0. -1.
       -2    1    3    3    0  502  0.18379707467E+04 -0.24303889710E+03 -0.82426485032E+03  0.20289447786E+04  0.25500000920E-02 0.  1.
</event>
<event>
 5   0  0.1293993E-08  0.3800048E+04  0.7818609E-02  0.8046144E-01
       -2   -1    0    0    0  501  0.00000000000E+00  0.00000000000E+00  0.16114055374E+04  0.16114055375E+04  0.25500000920E-02 0. -1.
        2   -1    0    0  501    0  0.00000000000E+00  0.00000000000E+00 -0.22403373529E+04  0.22403373529E+04  0.25500000920E-02 0.  1.
    10030    2    1    2    0    0  0.00000000000E+00  0.00000000000E+00 -0.62893181549E+03  0.38517428904E+04  0.38000484293E+04 0.  0.
        5    1    3    3  502    0  0.15406262158E+04 -0.97966035551E+03 -0.84774702210E+03  0.20129482489E+04  0.46999998093E+01 0.  1.
       -5    1    3    3    0  502 -0.15406262158E+04  0.97966035551E+03  0.21881520662E+03  0.18387946415E+04  0.46999998093E+01 0. -1.
</event>
<event>
 5   0  0.1293993E-08  0.3799478E+04  0.7818609E-02  0.8046267E-01
        2   -1    0    0  501    0  0.00000000000E+00  0.00000000000E+00  0.28151933705E+04  0.28151933705E+04  0.25500000920E-02 0. -1.
       -2   -1    0    0    0  501  0.00000000000E+00  0.00000000000E+00 -0.12819753209E+04  0.12819753209E+04  0.25500000920E-02 0.  1.
    10030    2    1    2    0    0  0.00000000000E+00  0.00000000000E+00  0.15332180495E+04  0.40971686914E+04  0.37994780824E+04 0.  0.
        5    1    3    3  502    0 -0.10336710918E+04 -0.14993678291E+04  0.18349507783E+03  0.18303749197E+04  0.46999998093E+01 0.  1.
       -5    1    3    3    0  502  0.10336710918E+04  0.14993678291E+04  0.13497229717E+04  0.22667937717E+04  0.46999998093E+01 0. -1.
</event>
<event>
 5   0  0.1305088E-08  0.3801376E+04  0.7818609E-02  0.8045860E-01
        2   -1    0    0  501    0  0.00000000000E+00  0.00000000000E+00  0.27359977984E+04  0.27359977984E+04  0.25500000920E-02 0.  1.
       -2   -1    0    0    0  501  0.00000000000E+00  0.00000000000E+00 -0.13204010902E+04  0.13204010902E+04  0.25500000920E-02 0. -1.
    10030    2    1    2    0    0  0.00000000000E+00  0.00000000000E+00  0.14155967082E+04  0.40563988886E+04  0.38013757908E+04 0.  0.
        3    1    3    3  502    0  0.13527674951E+04  0.12034796864E+04  0.13247474608E+04  0.22435015259E+04  0.10100000352E+00 0.  1.
       -3    1    3    3    0  502 -0.13527674951E+04 -0.12034796864E+04  0.90849247369E+02  0.18128973627E+04  0.10100000352E+00 0. -1.
</event>
<event>
 5   0  0.1327249E-08  0.3799186E+04  0.7818609E-02  0.8046330E-01
       -2   -1    0    0    0  501  0.00000000000E+00  0.00000000000E+00  0.14941687557E+04  0.14941687557E+04  0.25500000920E-02 0. -1.
        2   -1    0    0  501    0  0.00000000000E+00  0.00000000000E+00 -0.24150245552E+04  0.24150245552E+04  0.25500000920E-02 0.  1.
    10030    2    1    2    0    0  0.00000000000E+00  0.00000000000E+00 -0.92085579955E+03  0.39091933109E+04  0.37991863522E+04 0.  0.
        1    1    3    3  502    0 -0.13130028794E+04  0.10025370885E+04 -0.14253428939E+04  0.21818935676E+04  0.50400001928E-02 0.  1.
       -1    1    3    3    0  502  0.13130028794E+04 -0.10025370885E+04  0.50448709432E+03  0.17272997434E+04  0.50400001928E-02 0. -1.
</event>
<event>
 5   0  0.4071750E-09  0.3800979E+04  0.7818609E-02  0.8045945E-01
       -1   -1    0    0    0  501  0.00000000000E+00  0.00000000000E+00  0.28012474726E+04  0.28012474726E+04  0.50400001928E-02 0. -1.
        1   -1    0    0  501    0  0.00000000000E+00  0.00000000000E+00 -0.12893753463E+04  0.12893753463E+04  0.50400001928E-02 0.  1.
    10030    2    1    2    0    0  0.00000000000E+00  0.00000000000E+00  0.15118721262E+04  0.40906228189E+04  0.38009785215E+04 0.  0.
        5    1    3    3  502    0  0.14377403335E+04 -0.12305534344E+04  0.56805218105E+03  0.19758705402E+04  0.46999998093E+01 0.  1.
       -5    1    3    3    0  502 -0.14377403335E+04  0.12305534344E+04  0.94381994520E+03  0.21147522787E+04  0.46999998093E+01 0. -1.
</event>
<event>
 5   0  0.4071750E-09  0.3800836E+04  0.7818609E-02  0.8045976E-01
       -1   -1    0    0    0  501  0.00000000000E+00  0.00000000000E+00  0.13329729178E+04  0.13329729178E+04  0.50400001928E-02 0.  1.
        1   -1    0    0  501    0  0.00000000000E+00  0.00000000000E+00 -0.27094235031E+04  0.27094235031E+04  0.50400001928E-02 0. -1.
    10030    2    1    2    0    0  0.00000000000E+00  0.00000000000E+00 -0.13764505853E+04  0.40423964209E+04  0.38008357779E+04 0.  0.
        1    1    3    3  502    0 -0.18222085800E+04  0.31967872646E+03 -0.22591588345E+03  0.18637801865E+04  0.50400001928E-02 0.  1.
       -1    1    3    3    0  502  0.18222085800E+04 -0.31967872646E+03 -0.11505347019E+04  0.21786162345E+04  0.50400001928E-02 0. -1.
</event>
<event>
 5   0  0.1261152E-08  0.3798087E+04  0.7818609E-02  0.8046566E-01
       -2   -1    0    0    0  501  0.00000000000E+00  0.00000000000E+00  0.18394487284E+04  0.18394487284E+04  0.25500000920E-02 0. -1.
        2   -1    0    0  501    0  0.00000000000E+00  0.00000000000E+00 -0.19605691518E+04  0.19605691518E+04  0.25500000920E-02 0.  1.
    10030    2    1    2    0    0  0.00000000000E+00  0.00000000000E+00 -0.12112042334E+03  0.38000178802E+04  0.37980871150E+04 0.  0.
        2    1    3    3  502    0  0.34917641592E+03 -0.90574309180E+02 -0.19259753833E+04  0.19594665223E+04  0.25500000920E-02 0.  1.
       -2    1    3    3    0  502 -0.34917641592E+03  0.90574309180E+02  0.18048549599E+04  0.18405513580E+04  0.25500000920E-02 0. -1.
</event>
<event>
 5   0  0.4071750E-09  0.3802979E+04  0.7818609E-02  0.8045516E-01
        1   -1    0    0  501    0  0.00000000000E+00  0.00000000000E+00  0.14684608756E+04  0.14684608756E+04  0.50400001928E-02 0. -1.
       -1   -1    0    0    0  501  0.00000000000E+00  0.00000000000E+00 -0.24622122550E+04  0.24622122550E+04  0.50400001928E-02 0.  1.
    10030    2    1    2    0    0  0.00000000000E+00  0.00000000000E+00 -0.99375137937E+03  0.39306731306E+04  0.38029790238E+04 0.  0.
        2    1    3    3  502    0 -0.34241739245E+03 -0.17614866209E+04  0.15319237810E+03  0.18009865882E+04  0.25500000920E-02 0. -1.
       -2    1    3    3    0  502  0.34241739245E+03  0.17614866209E+04 -0.11469437575E+04  0.21296865424E+04  0.25500000920E-02 0.  1.
</event>
<event>
 5   0  0.1327249E-08  0.3814222E+04  0.7818609E-02  0.8043110E-01
        2   -1    0    0  501    0  0.00000000000E+00  0.00000000000E+00  0.25670827652E+04  0.25670827652E+04  0.25500000920E-02 0. -1.
       -2   -1    0    0    0  501  0.00000000000E+00  0.00000000000E+00 -0.14168113082E+04  0.14168113082E+04  0.25500000920E-02 0.  1.
    10030    2    1    2    0    0  0.00000000000E+00  0.00000000000E+00  0.11502714570E+04  0.39838940734E+04  0.38142217507E+04 0.  0.
        1    1    3    3  502    0 -0.12973189085E+04 -0.76941070394E+03  0.17941174882E+04  0.23439041668E+04  0.50400001928E-02 0. -1.
       -1    1    3    3    0  502  0.12973189085E+04  0.76941070394E+03 -0.64384603119E+03  0.16399899066E+04  0.50400001928E-02 0.  1.
</event>
<event>
 5   0  0.1293993E-08  0.3801593E+04  0.7818609E-02  0.8045813E-01
        2   -1    0    0  501    0  0.00000000000E+00  0.00000000000E+00  0.31326259784E+04  0.31326259784E+04  0.25500000920E-02 0. -1.
       -2   -1    0    0    0  501  0.00000000000E+00  0.00000000000E+00 -0.11533542171E+04  0.11533542171E+04  0.25500000920E-02 0.  1.
    10030    2    1    2    0    0  0.00000000000E+00  0.00000000000E+00  0.19792717613E+04  0.42859801955E+04  0.38015930255E+04 0.  0.
        5    1    3    3  502    0  0.14819841962E+04  0.60564248197E+03  0.21448533353E+04  0.26764711644E+04  0.46999998093E+01 0. -1.
       -5    1    3    3    0  502 -0.14819841962E+04 -0.60564248197E+03 -0.16558157402E+03  0.16095090312E+04  0.46999998093E+01 0.  1.
</event>
<event>
 5   0  0.4071750E-09  0.3800113E+04  0.7818609E-02  0.8046131E-01
       -1   -1    0    0    0  501  0.00000000000E+00  0.00000000000E+00  0.21298823009E+04  0.21298823009E+04  0.50400001928E-02 0. -1.
        1   -1    0    0  501    0  0.00000000000E+00  0.00000000000E+00 -0.16950302226E+04  0.16950302226E+04  0.50400001928E-02 0.  1.
    10030    2    1    2    0    0  0.00000000000E+00  0.00000000000E+00  0.43485207833E+03  0.38249125236E+04  0.38001130882E+04 0.  0.
        5    1    3    3  502    0  0.80093509258E+03 -0.81612446482E+03  0.17447729448E+04  0.20860994424E+04  0.46999998093E+01 0. -1.
       -5    1    3    3    0  502 -0.80093509258E+03  0.81612446482E+03 -0.13099208665E+04  0.17388130811E+04  0.46999998093E+01 0.  1.
</event>
<event>
 5   0  0.4071750E-09  0.3799593E+04  0.7818609E-02  0.8046242E-01
       -1   -1    0    0    0  501  0.00000000000E+00  0.00000000000E+00  0.16670636731E+04  0.16670636731E+04  0.50400001928E-02 0. -1.
        1   -1    0    0  501    0  0.00000000000E+00  0.00000000000E+00 -0.21650201533E+04  0.21650201533E+04  0.50400001928E-02 0.  1.
    10030    2    1    2    0    0  0.00000000000E+00  0.00000000000E+00 -0.49795648013E+03  0.38320838264E+04  0.37995928461E+04 0.  0.
        5    1    3    3  502    0  0.15791539158E+04 -0.34985670204E+03  0.75607605298E+03  0.17854410911E+04  0.46999998093E+01 0. -1.
       -5    1    3    3    0  502 -0.15791539158E+04  0.34985670204E+03 -0.12540325331E+04  0.20466427353E+04  0.46999998093E+01 0.  1.
</event>
<event>
 5   0  0.1327249E-08  0.3799958E+04  0.7818609E-02  0.8046164E-01
       -2   -1    0    0    0  501  0.00000000000E+00  0.00000000000E+00  0.29653106745E+04  0.29653106745E+04  0.25500000920E-02 0.  1.
        2   -1    0    0  501    0  0.00000000000E+00  0.00000000000E+00 -0.12173836466E+04  0.12173836466E+04  0.25500000920E-02 0. -1.
    10030    2    1    2    0    0  0.00000000000E+00  0.00000000000E+00  0.17479270279E+04  0.41826943210E+04  0.37999582746E+04 0.  0.
        1    1    3    3  502    0 -0.66024323449E+03 -0.17268098603E+04  0.39149182041E+03  0.18897246539E+04  0.50400001928E-02 0. -1.
       -1    1    3    3    0  502  0.66024323449E+03  0.17268098603E+04  0.13564352075E+04  0.22929696671E+04  0.50400001928E-02 0.  1.
</event>
<event>
 5   0  0.1264013E-08  0.3800413E+04  0.7818609E-02  0.8046066E-01
       -2   -1    0    0    0  501  0.00000000000E+00  0.00000000000E+00  0.13358100095E+04  0.13358100096E+04  0.25500000920E-02 0.  1.
        2   -1    0    0  501    0  0.00000000000E+00  0.00000000000E+00 -0.27030678140E+04  0.27030678140E+04  0.25500000920E-02 0. -1.
    10030    2    1    2    0    0  0.00000000000E+00  0.00000000000E+00 -0.13672578044E+04  0.40388778235E+04  0.38004131578E+04 0.  0.
        4    1    3    3  502    0  0.15865833258E+04  0.34305704462E+03  0.36620630788E+03  0.16640443078E+04  0.12699999809E+01 0.  1.
       -4    1    3    3    0  502 -0.15865833258E+04 -0.34305704462E+03 -0.17334641123E+04  0.23748335157E+04  0.12699999809E+01 0. -1.
</event>
<event>
 5   0  0.4071750E-09  0.3799955E+04  0.7818609E-02  0.8046165E-01
        1   -1    0    0  501    0  0.00000000000E+00  0.00000000000E+00  0.27453488159E+04  0.27453488159E+04  0.50400001928E-02 0.  1.
       -1   -1    0    0    0  501  0.00000000000E+00  0.00000000000E+00 -0.13149202433E+04  0.13149202433E+04  0.50400001928E-02 0. -1.
    10030    2    1    2    0    0  0.00000000000E+00  0.00000000000E+00  0.14304285726E+04  0.40602690592E+04  0.37999551224E+04 0.  0.
        2    1    3    3  502    0  0.51569429774E+03  0.59635642977E+03 -0.11318875968E+04  0.13794024546E+04  0.25500000920E-02 0. -1.
       -2    1    3    3    0  502 -0.51569429774E+03 -0.59635642977E+03  0.25623161693E+04  0.26808666046E+04  0.25500000920E-02 0.  1.
</event>
<event>
 5   0  0.4071750E-09  0.3801195E+04  0.7818609E-02  0.8045899E-01
        1   -1    0    0  501    0  0.00000000000E+00  0.00000000000E+00  0.17237478777E+04  0.17237478777E+04  0.50400001928E-02 0.  1.
       -1   -1    0    0    0  501  0.00000000000E+00  0.00000000000E+00 -0.20955906341E+04  0.20955906341E+04  0.50400001928E-02 0. -1.
    10030    2    1    2    0    0  0.00000000000E+00  0.00000000000E+00 -0.37184275638E+03  0.38193385118E+04  0.38011945007E+04 0.  0.
        4    1    3    3  502    0 -0.13496700238E+04 -0.12327650200E+04  0.33709135049E+03  0.18587498377E+04  0.12699999809E+01 0.  1.
       -4    1    3    3    0  502  0.13496700238E+04  0.12327650200E+04 -0.70893410686E+03  0.19605886740E+04  0.12699999809E+01 0. -1.
</event>
<event>
 5   0  0.1305088E-08  0.3802160E+04  0.7818609E-02  0.8045691E-01
        2   -1    0    0  501    0  0.00000000000E+00  0.00000000000E+00  0.13304186781E+04  0.13304186781E+04  0.25500000920E-02 0. -1.
       -2   -1    0    0    0  501  0.00000000000E+00  0.00000000000E+00 -0.27165175145E+04  0.27165175145E+04  0.25500000920E-02 0.  1.
    10030    2    1    2    0    0  0.00000000000E+00  0.00000000000E+00 -0.13860988364E+04  0.40469361926E+04  0.38021602494E+04 0.  0.
        3    1    3    3  502    0  0.15697654017E+04  0.98638051760E+03 -0.11408424012E+04  0.21768397590E+04  0.10100000352E+00 0. -1.
       -3    1    3    3    0  502 -0.15697654017E+04 -0.98638051760E+03 -0.24525643529E+03  0.18700964336E+04  0.10100000352E+00 0.  1.
</event>
<event>
 5   0  0.4071750E-09  0.3800869E+04  0.7818609E-02  0.8045968E-01
       -1   -1    0    0    0  501  0.00000000000E+00  0.00000000000E+00  0.16599406060E+04  0.16599406060E+04  0.50400001928E-02 0. -1.
        1   -1    0    0  501    0  0.00000000000E+00  0.00000000000E+00 -0.21757715160E+04  0.21757715160E+04  0.50400001928E-02 0.  1.
    10030    2    1    2    0    0  0.00000000000E+00  0.00000000000E+00 -0.51583090998E+03  0.38357121220E+04  0.38008691053E+04 0.  0.
        1    1    3    3  502    0  0.17766126429E+04 -0.22601239991E+03 -0.89952467202E+03  0.20041403951E+04  0.50400001928E-02 0.  1.
       -1    1    3    3    0  502 -0.17766126429E+04  0.22601239991E+03  0.38369376204E+03  0.18315717269E+04  0.50400001928E-02 0. -1.
</event>
<event>
 5   0  0.1293993E-08  0.3800499E+04  0.7818609E-02  0.8046048E-01
        2   -1    0    0  501    0  0.00000000000E+00  0.00000000000E+00  0.17680552665E+04  0.17680552665E+04  0.25500000920E-02 0.  1.
       -2   -1    0    0    0  501  0.00000000000E+00  0.00000000000E+00 -0.20423271354E+04  0.20423271354E+04  0.25500000920E-02 0. -1.
    10030    2    1    2    0    0  0.00000000000E+00  0.00000000000E+00 -0.27427186895E+03  0.38103824019E+04  0.38004985187E+04 0.  0.
        5    1    3    3  502    0  0.16545064417E+04 -0.81724377990E+03  0.31752572792E+03  0.18724645896E+04  0.46999998093E+01 0.  1.
       -5    1    3    3    0  502 -0.16545064417E+04  0.81724377990E+03 -0.59179759687E+03  0.19379178123E+04  0.46999998093E+01 0. -1.
</event>
<event>
 5   0  0.4071750E-09  0.3799065E+04  0.7818609E-02  0.8046355E-01
        1   -1    0    0  501    0  0.00000000000E+00  0.00000000000E+00  0.12356612296E+04  0.12356612297E+04  0.50400001928E-02 0. -1.
       -1   -1    0    0    0  501  0.00000000000E+00  0.00000000000E+00 -0.29200758157E+04  0.29200758158E+04  0.50400001928E-02 0.  1.
    10030    2    1    2    0    0  0.00000000000E+00  0.00000000000E+00 -0.16844145861E+04  0.41557370454E+04  0.37990653973E+04 0.  0.
        2    1    3    3  502    0  0.28900199270E+03 -0.17738055815E+04 -0.16938760573E+03  0.18051594262E+04  0.25500000920E-02 0.  1.
       -2    1    3    3    0  502 -0.28900199270E+03  0.17738055815E+04 -0.15150269804E+04  0.23505776193E+04  0.25500000920E-02 0. -1.
</event>
<event>
 5   0  0.1327249E-08  0.3796401E+04  0.7818609E-02  0.8046928E-01
        2   -1    0    0  501    0  0.00000000000E+00  0.00000000000E+00  0.26003716402E+04  0.26003716402E+04  0.25500000920E-02 0. -1.
       -2   -1    0    0    0  501  0.00000000000E+00  0.00000000000E+00 -0.13856349604E+04  0.13856349605E+04  0.25500000920E-02 0.  1.
    10030    2    1    2    0    0  0.00000000000E+00  0.00000000000E+00  0.12147366798E+04  0.39860066007E+04  0.37964013775E+04 0.  0.
        1    1    3    3  502    0  0.10122177334E+04 -0.13271514694E+04 -0.34180029882E+03  0.17037438795E+04  0.50400001928E-02 0. -1.
       -1    1    3    3    0  502 -0.10122177334E+04  0.13271514694E+04  0.15565369786E+04  0.22822627211E+04  0.50400001928E-02 0.  1.
</event>
<event>
 5   0  0.1261152E-08  0.3781888E+04  0.7818609E-02  0.8050053E-01
       -2   -1    0    0    0  501  0.00000000000E+00  0.00000000000E+00  0.19868586846E+04  0.19868586846E+04  0.25500000920E-02 0.  1.
        2   -1    0    0  501    0  0.00000000000E+00  0.00000000000E+00 -0.17996597070E+04  0.17996597070E+04  0.25500000920E-02 0. -1.
    10030    2    1    2    0    0  0.00000000000E+00  0.00000000000E+00  0.18719897762E+03  0.37865183915E+04  0.37818881623E+04 0.  0.
        2    1    3    3  502    0 -0.13777088468E+04  0.10070683944E+04 -0.72189209362E+03  0.18529426900E+04  0.25500000920E-02 0. -1.
       -2    1    3    3    0  502  0.13777088468E+04 -0.10070683944E+04  0.90909107124E+03  0.19335757015E+04  0.25500000920E-02 0.  1.
</event>
<event>
 5   0  0.4071750E-09  0.3800336E+04  0.7818609E-02  0.8046083E-01
        1   -1    0    0  501    0  0.00000000000E+00  0.00000000000E+00  0.15621668645E+04  0.15621668645E+04  0.50400001928E-02 0.  1.
       -1   -1    0    0    0  501  0.00000000000E+00  0.00000000000E+00 -0.23113014220E+04  0.23113014220E+04  0.50400001928E-02 0. -1.
    10030    2    1    2    0    0  0.00000000000E+00  0.00000000000E+00 -0.74913455753E+03  0.38734682865E+04  0.38003360353E+04 0.  0.
        4    1    3    3  502    0 -0.13797193667E+04  0.11087942762E+04  0.32980794827E+03  0.18005069213E+04  0.12699999809E+01 0.  1.
       -4    1    3    3    0  502  0.13797193667E+04 -0.11087942762E+04 -0.10789425058E+04  0.20729613652E+04  0.12699999809E+01 0. -1.
</event>
<event>
 5   0  0.1264013E-08  0.3789537E+04  0.7818609E-02  0.8048404E-01
       -2   -1    0    0    0  501  0.00000000000E+00  0.00000000000E+00  0.18088881411E+04  0.18088881411E+04  0.25500000920E-02 0. -1.
        2   -1    0    0  501    0  0.00000000000E+00  0.00000000000E+00 -0.19847258906E+04  0.19847258906E+04  0.25500000920E-02 0.  1.
    10030    2    1    2    0    0  0.00000000000E+00  0.00000000000E+00 -0.17583774952E+03  0.37936140316E+04  0.37895367140E+04 0.  0.
        4    1    3    3  502    0 -0.12499459726E+04  0.14068141763E+04  0.13289599759E+03  0.18865720288E+04  0.12699999809E+01 0.  1.
       -4    1    3    3    0  502  0.12499459726E+04 -0.14068141763E+04 -0.30873374710E+03  0.19070420028E+04  0.12699999809E+01 0. -1.
</event>
<event>
 5   0  0.1293993E-08  0.3803613E+04  0.7818609E-02  0.8045380E-01
        2   -1    0    0  501    0  0.00000000000E+00  0.00000000000E+00  0.15562226931E+04  0.15562226931E+04  0.25500000920E-02 0.  1.
       -2   -1    0    0    0  501  0.00000000000E+00  0.00000000000E+00 -0.23241325799E+04  0.23241325799E+04  0.25500000920E-02 0. -1.
    10030    2    1    2    0    0  0.00000000000E+00  0.00000000000E+00 -0.76790988688E+03  0.38803552730E+04  0.38036129470E+04 0.  0.
        5    1    3    3  502    0 -0.26550518445E+02 -0.11490262785E+04 -0.19297421684E+04  0.22460839800E+04  0.46999998093E+01 0. -1.
       -5    1    3    3    0  502  0.26550518445E+02  0.11490262785E+04  0.11618322815E+04  0.16342712930E+04  0.46999998093E+01 0.  1.
</event>
<event>
 5   0  0.4071750E-09  0.3800540E+04  0.7818609E-02  0.8046039E-01
       -1   -1    0    0    0  501  0.00000000000E+00  0.00000000000E+00  0.23470748268E+04  0.23470748268E+04  0.50400001928E-02 0. -1.
        1   -1    0    0  501    0  0.00000000000E+00  0.00000000000E+00 -0.15385220884E+04  0.15385220884E+04  0.50400001928E-02 0.  1.
    10030    2    1    2    0    0  0.00000000000E+00  0.00000000000E+00  0.80855273845E+03  0.38855969152E+04  0.38005402059E+04 0.  0.
        1    1    3    3  502    0 -0.17300542669E+04 -0.25401578027E+03 -0.35629111121E+03  0.17845321905E+04  0.50400001928E-02 0.  1.
       -1    1    3    3    0  502  0.17300542669E+04  0.25401578027E+03  0.11648438497E+04  0.21010647246E+04  0.50400001928E-02 0. -1.
</event>
<event>
 5   0  0.1264013E-08  0.3799353E+04  0.7818609E-02  0.8046294E-01
        2   -1    0    0  501    0  0.00000000000E+00  0.00000000000E+00  0.15126380373E+04  0.15126380373E+04  0.25500000920E-02 0. -1.
       -2   -1    0    0    0  501  0.00000000000E+00  0.00000000000E+00 -0.23857467447E+04  0.23857467447E+04  0.25500000920E-02 0.  1.
    10030    2    1    2    0    0  0.00000000000E+00  0.00000000000E+00 -0.87310870746E+03  0.38983847820E+04  0.37993532468E+04 0.  0.
        4    1    3    3  502    0 -0.10624540275E+04  0.15733227046E+04 -0.50627220898E+03  0.19648068749E+04  0.12699999809E+01 0. -1.
       -4    1    3    3    0  502  0.10624540275E+04 -0.15733227046E+04 -0.36683649849E+03  0.19335779071E+04  0.12699999809E+01 0.  1.
</event>
<event>
 5   0  0.4071750E-09  0.3799103E+04  0.7818609E-02  0.8046347E-01
       -1   -1    0    0    0  501  0.00000000000E+00  0.00000000000E+00  0.28276055677E+04  0.28276055677E+04  0.50400001928E-02 0.  1.
        1   -1    0    0  501    0  0.00000000000E+00  0.00000000000E+00 -0.12760962140E+04  0.12760962140E+04  0.50400001928E-02 0. -1.
    10030    2    1    2    0    0  0.00000000000E+00  0.00000000000E+00  0.15515093537E+04  0.41037017817E+04  0.37991034519E+04 0.  0.
        3    1    3    3  502    0  0.67721282140E+03 -0.14034821034E+04  0.19490855540E+04  0.24954586206E+04  0.10100000352E+00 0.  1.
       -3    1    3    3    0  502 -0.67721282140E+03  0.14034821034E+04 -0.39757620026E+03  0.16082431611E+04  0.10100000352E+00 0. -1.
</event>
<event>
 5   0  0.4071750E-09  0.3793275E+04  0.7818609E-02  0.8047599E-01
       -1   -1    0    0    0  501  0.00000000000E+00  0.00000000000E+00  0.14979516429E+04  0.14979516429E+04  0.50400001928E-02 0. -1.
        1   -1    0    0  501    0  0.00000000000E+00  0.00000000000E+00 -0.24014357106E+04  0.24014357106E+04  0.50400001928E-02 0.  1.
    10030    2    1    2    0    0  0.00000000000E+00  0.00000000000E+00 -0.90348406772E+03  0.38993873535E+04  0.37932754015E+04 0.  0.
        2    1    3    3  502    0  0.15583649048E+04 -0.71212888124E+03  0.38440310983E+03  0.17559597008E+04  0.25500000920E-02 0. -1.
       -2    1    3    3    0  502 -0.15583649048E+04  0.71212888124E+03 -0.12878871775E+04  0.21434276526E+04  0.25500000920E-02 0.  1.
</event>
<event>
 5   0  0.4071750E-09  0.3799781E+04  0.7818609E-02  0.8046202E-01
        1   -1    0    0  501    0  0.00000000000E+00  0.00000000000E+00  0.26403363206E+04  0.26403363206E+04  0.50400001928E-02 0. -1.
       -1   -1    0    0    0  501  0.00000000000E+00  0.00000000000E+00 -0.13670923678E+04  0.13670923678E+04  0.50400001928E-02 0.  1.
    10030    2    1    2    0    0  0.00000000000E+00  0.00000000000E+00  0.12732439527E+04  0.40074286884E+04  0.37997808528E+04 0.  0.
        2    1    3    3  502    0  0.38111784709E+03 -0.15721734702E+04 -0.41411770028E+03  0.16698723614E+04  0.25500000920E-02 0.  1.
       -2    1    3    3    0  502 -0.38111784709E+03  0.15721734702E+04  0.16873616530E+04  0.23375563270E+04  0.25500000920E-02 0. -1.
</event>
<event>
 5   0  0.4071750E-09  0.3800122E+04  0.7818609E-02  0.8046129E-01
        1   -1    0    0  501    0  0.00000000000E+00  0.00000000000E+00  0.32103527396E+04  0.32103527396E+04  0.50400001928E-02 0. -1.
       -1   -1    0    0    0  501  0.00000000000E+00  0.00000000000E+00 -0.11245589520E+04  0.11245589520E+04  0.50400001928E-02 0.  1.
    10030    2    1    2    0    0  0.00000000000E+00  0.00000000000E+00  0.20857937876E+04  0.43349116917E+04  0.38001215310E+04 0.  0.
        1    1    3    3  502    0  0.33880294030E+03 -0.15678948770E+04 -0.11882820827E+03  0.16084781381E+04  0.50400001928E-02 0.  1.
       -1    1    3    3    0  502 -0.33880294030E+03  0.15678948770E+04  0.22046219959E+04  0.27264335536E+04  0.50400001928E-02 0. -1.
</event>
<event>
 5   0  0.4071750E-09  0.3800160E+04  0.7818609E-02  0.8046121E-01
       -1   -1    0    0    0  501  0.00000000000E+00  0.00000000000E+00  0.24562560204E+04  0.24562560204E+04  0.50400001928E-02 0. -1.
        1   -1    0    0  501    0  0.00000000000E+00  0.00000000000E+00 -0.14698400632E+04  0.14698400632E+04  0.50400001928E-02 0.  1.
    10030    2    1    2    0    0  0.00000000000E+00  0.00000000000E+00  0.98641595723E+03  0.39260960836E+04  0.38001597357E+04 0.  0.
        5    1    3    3  502    0  0.11923225711E+04  0.11105571397E+04 -0.51658301506E+03  0.17093420885E+04  0.46999998093E+01 0.  1.
       -5    1    3    3    0  502 -0.11923225711E+04 -0.11105571397E+04  0.15029989723E+04  0.22167539951E+04  0.46999998093E+01 0. -1.
</event>
<event>
 5   0  0.4071750E-09  0.3799769E+04  0.7818609E-02  0.8046204E-01
        1   -1    0    0  501    0  0.00000000000E+00  0.00000000000E+00  0.13286315224E+04  0.13286315224E+04  0.50400001928E-02 0. -1.
       -1   -1    0    0    0  501  0.00000000000E+00  0.00000000000E+00 -0.27167513379E+04  0.27167513379E+04  0.50400001928E-02 0.  1.
    10030    2    1    2    0    0  0.00000000000E+00  0.00000000000E+00 -0.13881198154E+04  0.40453828603E+04  0.37997691857E+04 0.  0.
        2    1    3    3  502    0 -0.52474817779E+03 -0.10704898378E+04 -0.22689531254E+04  0.25630952827E+04  0.25500000920E-02 0.  1.
       -2    1    3    3    0  502  0.52474817779E+03  0.10704898378E+04  0.88083330994E+03  0.14822875776E+04  0.25500000920E-02 0. -1.
</event>
<event>
 5   0  0.1264013E-08  0.3799825E+04  0.7818609E-02  0.8046193E-01
       -2   -1    0    0    0  501  0.00000000000E+00  0.00000000000E+00  0.20449253600E+04  0.20449253600E+04  0.25500000920E-02 0. -1.
        2   -1    0    0  501    0  0.00000000000E+00  0.00000000000E+00 -0.17651825727E+04  0.17651825727E+04  0.25500000920E-02 0.  1.
    10030    2    1    2    0    0  0.00000000000E+00  0.00000000000E+00  0.27974278730E+03  0.38101079327E+04  0.37998245264E+04 0.  0.
        4    1    3    3  502    0 -0.86355554734E+02  0.16258069166E+03  0.20359609356E+04  0.20442671810E+04  0.12699999809E+01 0. -1.
       -4    1    3    3    0  502  0.86355554734E+02 -0.16258069166E+03 -0.17562181483E+04  0.17658407517E+04  0.12699999809E+01 0.  1.
</event>
<event>
 5   0  0.1264013E-08  0.3800594E+04  0.7818609E-02  0.8046028E-01
       -2   -1    0    0    0  501  0.00000000000E+00  0.00000000000E+00  0.14185142542E+04  0.14185142542E+04  0.25500000920E-02 0. -1.
        2   -1    0    0  501    0  0.00000000000E+00  0.00000000000E+00 -0.25457114664E+04  0.25457114664E+04  0.25500000920E-02 0.  1.
    10030    2    1    2    0    0  0.00000000000E+00  0.00000000000E+00 -0.11271972123E+04  0.39642257206E+04  0.38005936389E+04 0.  0.
        4    1    3    3  502    0 -0.33112566291E+03 -0.15322758852E+04  0.55670818914E+03  0.16635622061E+04  0.12699999809E+01 0. -1.
       -4    1    3    3    0  502  0.33112566291E+03  0.15322758852E+04 -0.16839054014E+04  0.23006635144E+04  0.12699999809E+01 0.  1.
</event>
<event>
 5   0  0.1264013E-08  0.3799747E+04  0.7818609E-02  0.8046209E-01
        2   -1    0    0  501    0  0.00000000000E+00  0.00000000000E+00  0.13239640316E+04  0.13239640316E+04  0.25500000920E-02 0. -1.
       -2   -1    0    0    0  501  0.00000000000E+00  0.00000000000E+00 -0.27262977169E+04  0.27262977169E+04  0.25500000920E-02 0.  1.
    10030    2    1    2    0    0  0.00000000000E+00  0.00000000000E+00 -0.14023336853E+04  0.40502617485E+04  0.37997474214E+04 0.  0.
        4    1    3    3  502    0 -0.97079956875E+02  0.93226291689E+03  0.10603532794E+04  0.14152347347E+04  0.12699999809E+01 0. -1.
       -4    1    3    3    0  502  0.97079956875E+02 -0.93226291689E+03 -0.24626869648E+04  0.26350270138E+04  0.12699999809E+01 0.  1.
</event>
<event>
 5   0  0.4071750E-09  0.3799976E+04  0.7818609E-02  0.8046160E-01
        1   -1    0    0  501    0  0.00000000000E+00  0.00000000000E+00  0.21566276211E+04  0.21566276211E+04  0.50400001928E-02 0.  1.
       -1   -1    0    0    0  501  0.00000000000E+00  0.00000000000E+00 -0.16738886614E+04  0.16738886614E+04  0.50400001928E-02 0. -1.
    10030    2    1    2    0    0  0.00000000000E+00  0.00000000000E+00  0.48273895967E+03  0.38305162825E+04  0.37999760640E+04 0.  0.
        4    1    3    3  502    0 -0.22617855751E+03  0.24587597415E+03  0.21267869744E+04  0.21528669680E+04  0.12699999809E+01 0.  1.
       -4    1    3    3    0  502  0.22617855751E+03 -0.24587597415E+03 -0.16440480147E+04  0.16776493144E+04  0.12699999809E+01 0. -1.
</event>
<event>
 5   0  0.4071750E-09  0.3801768E+04  0.7818609E-02  0.8045776E-01
       -1   -1    0    0    0  501  0.00000000000E+00  0.00000000000E+00  0.22618801688E+04  0.22618801688E+04  0.50400001928E-02 0. -1.
        1   -1    0    0  501    0  0.00000000000E+00  0.00000000000E+00 -0.15975029945E+04  0.15975029945E+04  0.50400001928E-02 0.  1.
    10030    2    1    2    0    0  0.00000000000E+00  0.00000000000E+00  0.66437717433E+03  0.38593831633E+04  0.38017681902E+04 0.  0.
        4    1    3    3  502    0  0.80396991336E+03 -0.16095739084E+04  0.95488732959E+03  0.20368866472E+04  0.12699999809E+01 0. -1.
       -4    1    3    3    0  502 -0.80396991336E+03  0.16095739084E+04 -0.29051015527E+03  0.18224965162E+04  0.12699999809E+01 0.  1.
</event>
<event>
 5   0  0.1293993E-08  0.3798389E+04  0.7818609E-02  0.8046501E-01
        2   -1    0    0  501    0  0.00000000000E+00  0.00000000000E+00  0.21306581350E+04  0.21306581350E+04  0.25500000920E-02 0. -1.
       -2   -1    0    0    0  501  0.00000000000E+00  0.00000000000E+00 -0.16928758895E+04  0.16928758896E+04  0.25500000920E-02 0.  1.
    10030    2    1    2    0    0  0.00000000000E+00  0.00000000000E+00  0.43778224545E+03  0.38235340245E+04  0.37983890194E+04 0.  0.
        5    1    3    3  502    0 -0.92117190251E+02 -0.19365016224E+03  0.21184263033E+04  0.21292576299E+04  0.46999998093E+01 0. -1.
       -5    1    3    3    0  502  0.92117190251E+02  0.19365016224E+03 -0.16806440579E+04  0.16942763946E+04  0.46999998093E+01 0.  1.
</event>
<event>
 5   0  0.4071750E-09  0.3803549E+04  0.7818609E-02  0.8045394E-01
        1   -1    0    0  501    0  0.00000000000E+00  0.00000000000E+00  0.31511207421E+04  0.31511207421E+04  0.50400001928E-02 0.  1.
       -1   -1    0    0    0  501  0.00000000000E+00  0.00000000000E+00 -0.11477650695E+04  0.11477650695E+04  0.50400001928E-02 0. -1.
    10030    2    1    2    0    0  0.00000000000E+00  0.00000000000E+00  0.20033556726E+04  0.42988858116E+04  0.38035490362E+04 0.  0.
        5    1    3    3  502    0 -0.11555556278E+03  0.78583088538E+03  0.29546687620E+04  0.30595706973E+04  0.46999998093E+01 0.  1.
       -5    1    3    3    0  502  0.11555556278E+03 -0.78583088538E+03 -0.95131308943E+03  0.12393151143E+04  0.46999998093E+01 0. -1.
</event>
<event>
 5   0  0.4071750E-09  0.3800292E+04  0.7818609E-02  0.8046092E-01
       -3   -1    0    0    0  501  0.00000000000E+00  0.00000000000E+00  0.20112223352E+04  0.20112223377E+04  0.10100000352E+00 0.  1.
        3   -1    0    0  501    0  0.00000000000E+00  0.00000000000E+00 -0.17952044275E+04  0.17952044303E+04  0.10100000352E+00 0. -1.
    10030    2    1    2    0    0  0.00000000000E+00  0.00000000000E+00  0.21601790767E+03  0.38064267680E+04  0.38002922261E+04 0.  0.
        3    1    3    3  502    0 -0.99125084646E+03  0.12683039553E+04  0.11192832814E+04  0.19606040492E+04  0.10100000352E+00 0.  1.
       -3    1    3    3    0  502  0.99125084646E+03 -0.12683039553E+04 -0.90326537371E+03  0.18458227188E+04  0.10100000352E+00 0. -1.
</event>
<event>
 5   0  0.1261152E-08  0.3820375E+04  0.7818609E-02  0.8041797E-01
        2   -1    0    0  501    0  0.00000000000E+00  0.00000000000E+00  0.20835841872E+04  0.20835841872E+04  0.25500000920E-02 0. -1.
       -2   -1    0    0    0  501  0.00000000000E+00  0.00000000000E+00 -0.17512208034E+04  0.17512208034E+04  0.25500000920E-02 0.  1.
    10030    2    1    2    0    0  0.00000000000E+00  0.00000000000E+00  0.33236338381E+03  0.38348049906E+04  0.38203748372E+04 0.  0.
        2    1    3    3  502    0  0.13685758042E+04 -0.12162259587E+04  0.71285854456E+03  0.19647830972E+04  0.25500000920E-02 0. -1.
       -2    1    3    3    0  502 -0.13685758042E+04  0.12162259587E+04 -0.38049516075E+03  0.18700218934E+04  0.25500000920E-02 0.  1.
</event>
<event>
 5   0  0.4071750E-09  0.3803632E+04  0.7818609E-02  0.8045376E-01
        1   -1    0    0  501    0  0.00000000000E+00  0.00000000000E+00  0.28550117217E+04  0.28550117217E+04  0.50400001928E-02 0.  1.
       -1   -1    0    0    0  501  0.00000000000E+00  0.00000000000E+00 -0.12668615138E+04  0.12668615138E+04  0.50400001928E-02 0. -1.
    10030    2    1    2    0    0  0.00000000000E+00  0.00000000000E+00  0.15881502079E+04  0.41218732355E+04  0.38036321966E+04 0.  0.
        3    1    3    3  502    0 -0.16239022485E+04  0.28432055283E+03 -0.23341545384E+03  0.16650463878E+04  0.10100000352E+00 0. -1.
       -3    1    3    3    0  502  0.16239022485E+04 -0.28432055283E+03  0.18215656617E+04  0.24568268477E+04  0.10100000352E+00 0.  1.
</event>
<event>
 5   0  0.1305088E-08  0.3803213E+04  0.7818609E-02  0.8045466E-01
       -2   -1    0    0    0  501  0.00000000000E+00  0.00000000000E+00  0.12269568823E+04  0.12269568823E+04  0.25500000920E-02 0.  1.
        2   -1    0    0  501    0  0.00000000000E+00  0.00000000000E+00 -0.29472169146E+04  0.29472169146E+04  0.25500000920E-02 0. -1.
    10030    2    1    2    0    0  0.00000000000E+00  0.00000000000E+00 -0.17202600323E+04  0.41741737969E+04  0.38032134187E+04 0.  0.
        3    1    3    3  502    0 -0.65595197275E+02  0.12806122741E+04 -0.24013172257E+04  0.27222407966E+04  0.10100000352E+00 0. -1.
       -3    1    3    3    0  502  0.65595197275E+02 -0.12806122741E+04  0.68105719332E+03  0.14519330003E+04  0.10100000352E+00 0.  1.
</event>
<event>
 5   0  0.1264013E-08  0.3799536E+04  0.7818609E-02  0.8046255E-01
        2   -1    0    0  501    0  0.00000000000E+00  0.00000000000E+00  0.23907615280E+04  0.23907615280E+04  0.25500000920E-02 0. -1.
       -2   -1    0    0    0  501  0.00000000000E+00  0.00000000000E+00 -0.15096102305E+04  0.15096102305E+04  0.25500000920E-02 0.  1.
    10030    2    1    2    0    0  0.00000000000E+00  0.00000000000E+00  0.88115129754E+03  0.39003717585E+04  0.37995357934E+04 0.  0.
        4    1    3    3  502    0  0.92912473886E+03 -0.34840708439E+03  0.21035866618E+04  0.23258845056E+04  0.12699999809E+01 0. -1.
       -4    1    3    3    0  502 -0.92912473886E+03  0.34840708439E+03 -0.12224353643E+04  0.15744872529E+04  0.12699999809E+01 0.  1.
</event>
<event>
 5   0  0.1264013E-08  0.3799831E+04  0.7818609E-02  0.8046191E-01
       -2   -1    0    0    0  501  0.00000000000E+00  0.00000000000E+00  0.14180521871E+04  0.14180521871E+04  0.25500000920E-02 0.  1.
        2   -1    0    0  501    0  0.00000000000E+00  0.00000000000E+00 -0.25455194811E+04  0.25455194811E+04  0.25500000920E-02 0. -1.
    10030    2    1    2    0    0  0.00000000000E+00  0.00000000000E+00 -0.11274672940E+04  0.39635716682E+04  0.37998312949E+04 0.  0.
        4    1    3    3  502    0  0.26774671114E+03 -0.14563216528E+04 -0.18054580695E+04  0.23350035356E+04  0.12699999809E+01 0.  1.
       -4    1    3    3    0  502 -0.26774671114E+03  0.14563216528E+04  0.67799077546E+03  0.16285681326E+04  0.12699999809E+01 0. -1.
</event>
<event>
 5   0  0.4071750E-09  0.3800413E+04  0.7818609E-02  0.8046066E-01
        1   -1    0    0  501    0  0.00000000000E+00  0.00000000000E+00  0.25266976359E+04  0.25266976359E+04  0.50400001928E-02 0.  1.
       -1   -1    0    0    0  501  0.00000000000E+00  0.00000000000E+00 -0.14290527996E+04  0.14290527996E+04  0.50400001928E-02 0. -1.
    10030    2    1    2    0    0  0.00000000000E+00  0.00000000000E+00  0.10976448363E+04  0.39557504355E+04  0.38004127830E+04 0.  0.
        2    1    3    3  502    0  0.45407890570E+03 -0.12230518689E+04  0.19868644936E+04  0.23769042981E+04  0.25500000920E-02 0.  1.
       -2    1    3    3    0  502 -0.45407890570E+03  0.12230518689E+04 -0.88921965728E+03  0.15788461374E+04  0.25500000920E-02 0. -1.
</event>
<event>
 5   0  0.1327249E-08  0.3799681E+04  0.7818609E-02  0.8046223E-01
       -2   -1    0    0    0  501  0.00000000000E+00  0.00000000000E+00  0.19595122876E+04  0.19595122876E+04  0.25500000920E-02 0. -1.
        2   -1    0    0  501    0  0.00000000000E+00  0.00000000000E+00 -0.18419854659E+04  0.18419854659E+04  0.25500000920E-02 0.  1.
    10030    2    1    2    0    0  0.00000000000E+00  0.00000000000E+00  0.11752682172E+03  0.38014977535E+04  0.37996805939E+04 0.  0.
        1    1    3    3  502    0  0.11591957934E+04  0.56104779960E+03  0.14561717480E+04  0.19439510489E+04  0.50400001928E-02 0. -1.
       -1    1    3    3    0  502 -0.11591957934E+04 -0.56104779960E+03 -0.13386449263E+04  0.18575467045E+04  0.50400001928E-02 0.  1.
</event>
<event>
 5   0  0.4071750E-09  0.3799583E+04  0.7818609E-02  0.8046244E-01
        1   -1    0    0  501    0  0.00000000000E+00  0.00000000000E+00  0.23620596894E+04  0.23620596894E+04  0.50400001928E-02 0. -1.
       -1   -1    0    0    0  501  0.00000000000E+00  0.00000000000E+00 -0.15279920668E+04  0.15279920668E+04  0.50400001928E-02 0.  1.
    10030    2    1    2    0    0  0.00000000000E+00  0.00000000000E+00  0.83406762259E+03  0.38900517562E+04  0.37995833807E+04 0.  0.
        1    1    3    3  502    0  0.47040585189E+02 -0.13154402842E+04 -0.98547856900E+03  0.16443126126E+04  0.50400001928E-02 0.  1.
       -1    1    3    3    0  502 -0.47040585189E+02  0.13154402842E+04  0.18195461916E+04  0.22457391436E+04  0.50400001928E-02 0. -1.
</event>
<event>
 5   0  0.4071750E-09  0.3799065E+04  0.7818609E-02  0.8046355E-01
        3   -1    0    0  501    0  0.00000000000E+00  0.00000000000E+00  0.19846748161E+04  0.19846748186E+04  0.10100000352E+00 0. -1.
       -3   -1    0    0    0  501  0.00000000000E+00  0.00000000000E+00 -0.18180431519E+04  0.18180431547E+04  0.10100000352E+00 0.  1.
    10030    2    1    2    0    0  0.00000000000E+00  0.00000000000E+00  0.16663166416E+03  0.38027179734E+04  0.37990653947E+04 0.  0.
        2    1    3    3  502    0  0.93916504290E+03  0.13292196690E+02  0.17359685901E+04  0.19737767366E+04  0.25500000920E-02 0. -1.
       -2    1    3    3    0  502 -0.93916504290E+03 -0.13292196690E+02 -0.15693369259E+04  0.18289412367E+04  0.25500000920E-02 0.  1.
</event>
<event>
 5   0  0.1327249E-08  0.3796153E+04  0.7818609E-02  0.8046981E-01
        2   -1    0    0  501    0  0.00000000000E+00  0.00000000000E+00  0.24530698497E+04  0.24530698497E+04  0.25500000920E-02 0.  1.
       -2   -1    0    0    0  501  0.00000000000E+00  0.00000000000E+00 -0.14686476051E+04  0.14686476051E+04  0.25500000920E-02 0. -1.
    10030    2    1    2    0    0  0.00000000000E+00  0.00000000000E+00  0.98442224457E+03  0.39217174548E+04  0.37961534004E+04 0.  0.
        1    1    3    3  502    0 -0.22012539468E+03 -0.71426316122E+03  0.22946466117E+04  0.24133027422E+04  0.50400001928E-02 0.  1.
       -1    1    3    3    0  502  0.22012539468E+03  0.71426316122E+03 -0.13102243671E+04  0.15084147126E+04  0.50400001928E-02 0. -1.
</event>
<event>
 5   0  0.4071750E-09  0.3800918E+04  0.7818609E-02  0.8045958E-01
        1   -1    0    0  501    0  0.00000000000E+00  0.00000000000E+00  0.23910499286E+04  0.23910499286E+04  0.50400001928E-02 0. -1.
       -1   -1    0    0    0  501  0.00000000000E+00  0.00000000000E+00 -0.15105264392E+04  0.15105264392E+04  0.50400001928E-02 0.  1.
    10030    2    1    2    0    0  0.00000000000E+00  0.00000000000E+00  0.88052348939E+03  0.39015763678E+04  0.38009178548E+04 0.  0.
        5    1    3    3  502    0 -0.37573521908E+03  0.58441844623E+03  0.22560049247E+04  0.23605724275E+04  0.46999998093E+01 0. -1.
       -5    1    3    3    0  502  0.37573521908E+03 -0.58441844623E+03 -0.13754814353E+04  0.15410039403E+04  0.46999998093E+01 0.  1.
</event>
<event>
 5   0  0.4071750E-09  0.3800450E+04  0.7818609E-02  0.8046058E-01
        1   -1    0    0  501    0  0.00000000000E+00  0.00000000000E+00  0.27358055473E+04  0.27358055473E+04  0.50400001928E-02 0. -1.
       -1   -1    0    0    0  501  0.00000000000E+00  0.00000000000E+00 -0.13198506074E+04  0.13198506074E+04  0.50400001928E-02 0.  1.
    10030    2    1    2    0    0  0.00000000000E+00  0.00000000000E+00  0.14159549399E+04  0.40556561547E+04  0.38004497699E+04 0.  0.
        5    1    3    3  502    0  0.12501680409E+04  0.91298583781E+03  0.18839617385E+04  0.24384005398E+04  0.46999998093E+01 0. -1.
       -5    1    3    3    0  502 -0.12501680409E+04 -0.91298583781E+03 -0.46800679857E+03  0.16172556149E+04  0.46999998093E+01 0.  1.
</event>
<event>
 5   0  0.4071750E-09  0.3800802E+04  0.7818609E-02  0.8045983E-01
        1   -1    0    0  501    0  0.00000000000E+00  0.00000000000E+00  0.25254308663E+04  0.25254308664E+04  0.50400001928E-02 0. -1.
       -1   -1    0    0    0  501  0.00000000000E+00  0.00000000000E+00 -0.14300627338E+04  0.14300627338E+04  0.50400001928E-02 0.  1.
    10030    2    1    2    0    0  0.00000000000E+00  0.00000000000E+00  0.10953681326E+04  0.39554936002E+04  0.38008023199E+04 0.  0.
        4    1    3    3  502    0 -0.11605392297E+03 -0.18754972094E+04  0.25229277039E+03  0.18959460832E+04  0.12699999809E+01 0.  1.
       -4    1    3    3    0  502  0.11605392297E+03  0.18754972094E+04  0.84307536216E+03  0.20595475170E+04  0.12699999809E+01 0. -1.
</event>
<event>
 5   0  0.1293993E-08  0.3801624E+04  0.7818609E-02  0.8045806E-01
       -2   -1    0    0    0  501  0.00000000000E+00  0.00000000000E+00  0.14265083833E+04  0.14265083833E+04  0.25500000920E-02 0.  1.
        2   -1    0    0  501    0  0.00000000000E+00  0.00000000000E+00 -0.25328181082E+04  0.25328181082E+04  0.25500000920E-02 0. -1.
    10030    2    1    2    0    0  0.00000000000E+00  0.00000000000E+00 -0.11063097249E+04  0.39593264915E+04  0.38016240028E+04 0.  0.
        5    1    3    3  502    0  0.15631322655E+04 -0.36083289184E+01  0.57322164619E+03  0.16649326248E+04  0.46999998093E+01 0.  1.
       -5    1    3    3    0  502 -0.15631322655E+04  0.36083289184E+01 -0.16795313711E+04  0.22943938668E+04  0.46999998093E+01 0. -1.
</event>
<event>
 5   0  0.1327249E-08  0.3801516E+04  0.7818609E-02  0.8045830E-01
       -2   -1    0    0    0  501  0.00000000000E+00  0.00000000000E+00  0.18154794149E+04  0.18154794149E+04  0.25500000920E-02 0.  1.
        2   -1    0    0  501    0  0.00000000000E+00  0.00000000000E+00 -0.19900418964E+04  0.19900418964E+04  0.25500000920E-02 0. -1.
    10030    2    1    2    0    0  0.00000000000E+00  0.00000000000E+00 -0.17456248157E+03  0.38055213113E+04  0.38015155387E+04 0.  0.
        1    1    3    3  502    0  0.72773885540E+03 -0.17403073877E+04 -0.32120771215E+03  0.19134910608E+04  0.50400001928E-02 0. -1.
       -1    1    3    3    0  502 -0.72773885540E+03  0.17403073877E+04  0.14664523058E+03  0.18920302505E+04  0.50400001928E-02 0.  1.
</event>
<event>
 5   0  0.4071750E-09  0.3800525E+04  0.7818609E-02  0.8046042E-01
        1   -1    0    0  501    0  0.00000000000E+00  0.00000000000E+00  0.18779301137E+04  0.18779301137E+04  0.50400001928E-02 0. -1.
       -1   -1    0    0    0  501  0.00000000000E+00  0.00000000000E+00 -0.19228606135E+04  0.19228606135E+04  0.50400001928E-02 0.  1.
    10030    2    1    2    0    0  0.00000000000E+00  0.00000000000E+00 -0.44930499781E+02  0.38007907272E+04  0.38005251482E+04 0.  0.
        2    1    3    3  502    0  0.11597924974E+04  0.11923077134E+04 -0.94137739482E+03  0.19112581511E+04  0.25500000920E-02 0.  1.
       -2    1    3    3    0  502 -0.11597924974E+04 -0.11923077134E+04  0.89644689503E+03  0.18895325761E+04  0.25500000920E-02 0. -1.
</event>
<event>
 5   0  0.4071750E-09  0.3797736E+04  0.7818609E-02  0.8046641E-01
       -1   -1    0    0    0  501  0.00000000000E+00  0.00000000000E+00  0.13621738350E+04  0.13621738350E+04  0.50400001928E-02 0. -1.
        1   -1    0    0  501    0  0.00000000000E+00  0.00000000000E+00 -0.26470183851E+04  0.26470183851E+04  0.50400001928E-02 0.  1.
    10030    2    1    2    0    0  0.00000000000E+00  0.00000000000E+00 -0.12848445501E+04  0.40091922201E+04  0.37977357385E+04 0.  0.
        5    1    3    3  502    0 -0.29272349839E+03 -0.39491312496E+01 -0.26230456178E+04  0.26393357204E+04  0.46999998093E+01 0.  1.
       -5    1    3    3    0  502  0.29272349839E+03  0.39491312496E+01  0.13382010677E+04  0.13698564997E+04  0.46999998093E+01 0. -1.
</event>
<event>
 5   0  0.1305088E-08  0.3796222E+04  0.7818609E-02  0.8046966E-01
        2   -1    0    0  501    0  0.00000000000E+00  0.00000000000E+00  0.14350293455E+04  0.14350293455E+04  0.25500000920E-02 0.  1.
       -2   -1    0    0    0  501  0.00000000000E+00  0.00000000000E+00 -0.25106285676E+04  0.25106285676E+04  0.25500000920E-02 0. -1.
    10030    2    1    2    0    0  0.00000000000E+00  0.00000000000E+00 -0.10755992221E+04  0.39456579131E+04  0.37962221591E+04 0.  0.
        3    1    3    3  502    0 -0.95967824854E+03  0.14812170977E+03 -0.22329207193E+04  0.24349245020E+04  0.10100000352E+00 0. -1.
       -3    1    3    3    0  502  0.95967824854E+03 -0.14812170977E+03  0.11573214972E+04  0.15107334112E+04  0.10100000352E+00 0.  1.
</event>
<event>
 5   0  0.1327249E-08  0.3800226E+04  0.7818609E-02  0.8046106E-01
        2   -1    0    0  501    0  0.00000000000E+00  0.00000000000E+00  0.24793971724E+04  0.24793971724E+04  0.25500000920E-02 0.  1.
       -2   -1    0    0    0  501  0.00000000000E+00  0.00000000000E+00 -0.14561725989E+04  0.14561725989E+04  0.25500000920E-02 0. -1.
    10030    2    1    2    0    0  0.00000000000E+00  0.00000000000E+00  0.10232245735E+04  0.39355697713E+04  0.38002264271E+04 0.  0.
        1    1    3    3  502    0  0.29512782691E+02 -0.75738643776E+03  0.23160573396E+04  0.24369297940E+04  0.50400001928E-02 0.  1.
       -1    1    3    3    0  502 -0.29512782691E+02  0.75738643776E+03 -0.12928327661E+04  0.14986399773E+04  0.50400001928E-02 0. -1.
</event>
<event>
 5   0  0.4071750E-09  0.3798510E+04  0.7818609E-02  0.8046475E-01
       -1   -1    0    0    0  501  0.00000000000E+00  0.00000000000E+00  0.12272993404E+04  0.12272993404E+04  0.50400001928E-02 0.  1.
        1   -1    0    0  501    0  0.00000000000E+00  0.00000000000E+00 -0.29391110139E+04  0.29391110139E+04  0.50400001928E-02 0. -1.
    10030    2    1    2    0    0  0.00000000000E+00  0.00000000000E+00 -0.17118116735E+04  0.41664103543E+04  0.37985097124E+04 0.  0.
        2    1    3    3  502    0 -0.15700619115E+04  0.60600454836E+02  0.31439269866E+03  0.16023762323E+04  0.25500000920E-02 0.  1.
       -2    1    3    3    0  502  0.15700619115E+04 -0.60600454836E+02 -0.20262043722E+04  0.25640341220E+04  0.25500000920E-02 0. -1.
</event>
<event>
 5   0  0.4071750E-09  0.3772879E+04  0.7818609E-02  0.8052000E-01
        1   -1    0    0  501    0  0.00000000000E+00  0.00000000000E+00  0.20751547109E+04  0.20751547109E+04  0.50400001928E-02 0.  1.
       -1   -1    0    0    0  501  0.00000000000E+00  0.00000000000E+00 -0.17148860900E+04  0.17148860900E+04  0.50400001928E-02 0. -1.
    10030    2    1    2    0    0  0.00000000000E+00  0.00000000000E+00  0.36026862088E+03  0.37900408009E+04  0.37728789794E+04 0.  0.
        5    1    3    3  502    0 -0.23828788543E+03 -0.11375849968E+04  0.16727433487E+04  0.20369028307E+04  0.46999998093E+01 0.  1.
       -5    1    3    3    0  502  0.23828788543E+03  0.11375849968E+04 -0.13124747278E+04  0.17531379702E+04  0.46999998093E+01 0. -1.
</event>
<event>
 5   0  0.4071750E-09  0.3801359E+04  0.7818609E-02  0.8045863E-01
       -1   -1    0    0    0  501  0.00000000000E+00  0.00000000000E+00  0.19775300089E+04  0.19775300089E+04  0.50400001928E-02 0.  1.
        1   -1    0    0  501    0  0.00000000000E+00  0.00000000000E+00 -0.18268153115E+04  0.18268153115E+04  0.50400001928E-02 0. -1.
    10030    2    1    2    0    0  0.00000000000E+00  0.00000000000E+00  0.15071469736E+03  0.38043453204E+04  0.38013587567E+04 0.  0.
        2    1    3    3  502    0  0.42638744861E+03  0.31083752950E+03  0.19027590386E+04  0.19745678477E+04  0.25500000920E-02 0.  1.
       -2    1    3    3    0  502 -0.42638744861E+03 -0.31083752950E+03 -0.17520443413E+04  0.18297774728E+04  0.25500000920E-02 0. -1.
</event>
<event>
 5   0  0.4071750E-09  0.3800649E+04  0.7818609E-02  0.8046016E-01
       -1   -1    0    0    0  501  0.00000000000E+00  0.00000000000E+00  0.12169227464E+04  0.12169227464E+04  0.50400001928E-02 0. -1.
        1   -1    0    0  501    0  0.00000000000E+00  0.00000000000E+00 -0.29675115718E+04  0.29675115718E+04  0.50400001928E-02 0.  1.
    10030    2    1    2    0    0  0.00000000000E+00  0.00000000000E+00 -0.17505888254E+04  0.41844343182E+04  0.38006485403E+04 0.  0.
        5    1    3    3  502    0 -0.60867404122E+03  0.95361029988E+03  0.80576519908E+03  0.13889335256E+04  0.46999998093E+01 0. -1.
       -5    1    3    3    0  502  0.60867404122E+03 -0.95361029988E+03 -0.25563540245E+04  0.27955007926E+04  0.46999998093E+01 0.  1.
</event>
<event>
 5   0  0.4071750E-09  0.3812468E+04  0.7818609E-02  0.8043485E-01
        1   -1    0    0  501    0  0.00000000000E+00  0.00000000000E+00  0.17869915942E+04  0.17869915942E+04  0.50400001928E-02 0. -1.
       -1   -1    0    0    0  501  0.00000000000E+00  0.00000000000E+00 -0.20334331397E+04  0.20334331397E+04  0.50400001928E-02 0.  1.
    10030    2    1    2    0    0  0.00000000000E+00  0.00000000000E+00 -0.24644154553E+03  0.38204247339E+04  0.38124679293E+04 0.  0.
        2    1    3    3  502    0  0.49990417972E+02  0.48445452147E+03  0.17235940400E+04  0.17910811372E+04  0.25500000920E-02 0. -1.
       -2    1    3    3    0  502 -0.49990417972E+02 -0.48445452147E+03 -0.19700355855E+04  0.20293435967E+04  0.25500000920E-02 0.  1.
</event>
<event>
 5   0  0.1305088E-08  0.3799185E+04  0.7818609E-02  0.8046330E-01
       -2   -1    0    0    0  501  0.00000000000E+00  0.00000000000E+00  0.17116320101E+04  0.17116320101E+04  0.25500000920E-02 0.  1.
        2   -1    0    0  501    0  0.00000000000E+00  0.00000000000E+00 -0.21081935910E+04  0.21081935910E+04  0.25500000920E-02 0. -1.
    10030    2    1    2    0    0  0.00000000000E+00  0.00000000000E+00 -0.39656158085E+03  0.38198256011E+04  0.37991849831E+04 0.  0.
        3    1    3    3  502    0  0.17951323707E+03  0.12540640849E+04  0.12248773982E+04  0.17621652539E+04  0.10100000352E+00 0.  1.
       -3    1    3    3    0  502 -0.17951323707E+03 -0.12540640849E+04 -0.16214389791E+04  0.20576603472E+04  0.10100000352E+00 0. -1.
</event>
<event>
 5   0  0.1261152E-08  0.3800733E+04  0.7818609E-02  0.8045997E-01
       -2   -1    0    0    0  501  0.00000000000E+00  0.00000000000E+00  0.17115263436E+04  0.17115263436E+04  0.25500000920E-02 0. -1.
        2   -1    0    0  501    0  0.00000000000E+00  0.00000000000E+00 -0.21100427485E+04  0.21100427485E+04  0.25500000920E-02 0.  1.
    10030    2    1    2    0    0  0.00000000000E+00  0.00000000000E+00 -0.39851640497E+03  0.38215690921E+04  0.38007334819E+04 0.  0.
        2    1    3    3  502    0 -0.12142439265E+03  0.13190311371E+04 -0.15693751851E+04  0.20536614851E+04  0.25500000920E-02 0.  1.
       -2    1    3    3    0  502  0.12142439265E+03 -0.13190311371E+04  0.11708587801E+04  0.17679076070E+04  0.25500000920E-02 0. -1.
</event>
<event>
 5   0  0.1327249E-08  0.3791935E+04  0.7818609E-02  0.8047888E-01
       -2   -1    0    0    0  501  0.00000000000E+00  0.00000000000E+00  0.19469884549E+04  0.19469884549E+04  0.25500000920E-02 0. -1.
        2   -1    0    0  501    0  0.00000000000E+00  0.00000000000E+00 -0.18462835158E+04  0.18462835158E+04  0.25500000920E-02 0.  1.
    10030    2    1    2    0    0  0.00000000000E+00  0.00000000000E+00  0.10070493909E+03  0.37932719707E+04  0.37919349624E+04 0.  0.
        1    1    3    3  502    0  0.25447515932E+03  0.18037586415E+04  0.57626575768E+03  0.19105980914E+04  0.50400001928E-02 0.  1.
       -1    1    3    3    0  502 -0.25447515932E+03 -0.18037586415E+04 -0.47556081859E+03  0.18826738793E+04  0.50400001928E-02 0. -1.
</event>
<event>
 5   0  0.4071750E-09  0.3805958E+04  0.7818609E-02  0.8044878E-01
       -1   -1    0    0    0  501  0.00000000000E+00  0.00000000000E+00  0.19257716953E+04  0.19257716954E+04  0.50400001928E-02 0.  1.
        1   -1    0    0  501    0  0.00000000000E+00  0.00000000000E+00 -0.18804556342E+04  0.18804556342E+04  0.50400001928E-02 0. -1.
    10030    2    1    2    0    0  0.00000000000E+00  0.00000000000E+00  0.45316061124E+02  0.38062273296E+04  0.38059575588E+04 0.  0.
        2    1    3    3  502    0 -0.40006373923E+03 -0.63272638928E+03  0.17723347140E+04  0.19239449102E+04  0.25500000920E-02 0.  1.
       -2    1    3    3    0  502  0.40006373923E+03  0.63272638928E+03 -0.17270186528E+04  0.18822824194E+04  0.25500000920E-02 0. -1.
</event>
<event>
 5   0  0.1264013E-08  0.3799755E+04  0.7818609E-02  0.8046207E-01
        2   -1    0    0  501    0  0.00000000000E+00  0.00000000000E+00  0.14927807866E+04  0.14927807866E+04  0.25500000920E-02 0. -1.
       -2   -1    0    0    0  501  0.00000000000E+00  0.00000000000E+00 -0.24179939771E+04  0.24179939771E+04  0.25500000920E-02 0.  1.
    10030    2    1    2    0    0  0.00000000000E+00  0.00000000000E+00 -0.92521319046E+03  0.39107747638E+04  0.37997552296E+04 0.  0.
        4    1    3    3  502    0  0.13469910644E+04  0.51675182073E+03  0.80968113630E+03  0.16543888682E+04  0.12699999809E+01 0. -1.
       -4    1    3    3    0  502 -0.13469910644E+04 -0.51675182073E+03 -0.17348943268E+04  0.22563858956E+04  0.12699999809E+01 0.  1.
</event>
<event>
 5   0  0.4071750E-09  0.3796950E+04  0.7818609E-02  0.8046810E-01
        1   -1    0    0  501    0  0.00000000000E+00  0.00000000000E+00  0.17276693028E+04  0.17276693028E+04  0.50400001928E-02 0. -1.
       -1   -1    0    0    0  501  0.00000000000E+00  0.00000000000E+00 -0.20861678022E+04  0.20861678022E+04  0.50400001928E-02 0.  1.
    10030    2    1    2    0    0  0.00000000000E+00  0.00000000000E+00 -0.35849849938E+03  0.38138371051E+04  0.37969503934E+04 0.  0.
        1    1    3    3  502    0 -0.55696017816E+03 -0.17882749421E+04  0.13209083838E+03  0.18776527629E+04  0.50400001928E-02 0. -1.
       -1    1    3    3    0  502  0.55696017816E+03  0.17882749421E+04 -0.49058933776E+03  0.19361843421E+04  0.50400001928E-02 0.  1.
</event>
<event>
 5   0  0.4071750E-09  0.3817536E+04  0.7818609E-02  0.8042402E-01
       -1   -1    0    0    0  501  0.00000000000E+00  0.00000000000E+00  0.14939291522E+04  0.14939291522E+04  0.50400001928E-02 0.  1.
        1   -1    0    0  501    0  0.00000000000E+00  0.00000000000E+00 -0.24388008300E+04  0.24388008300E+04  0.50400001928E-02 0. -1.
    10030    2    1    2    0    0  0.00000000000E+00  0.00000000000E+00 -0.94487167781E+03  0.39327299822E+04  0.38175361983E+04 0.  0.
        4    1    3    3  502    0 -0.92854252065E+03  0.16613855042E+04 -0.32314562570E+03  0.19304967533E+04  0.12699999809E+01 0.  1.
       -4    1    3    3    0  502  0.92854252065E+03 -0.16613855042E+04 -0.62172605211E+03  0.20022332289E+04  0.12699999809E+01 0. -1.
</event>
<event>
 5   0  0.1305088E-08  0.3798621E+04  0.7818609E-02  0.8046451E-01
       -2   -1    0    0    0  501  0.00000000000E+00  0.00000000000E+00  0.16963613011E+04  0.16963613011E+04  0.25500000920E-02 0. -1.
        2   -1    0    0  501    0  0.00000000000E+00  0.00000000000E+00 -0.21265403650E+04  0.21265403650E+04  0.25500000920E-02 0.  1.
    10030    2    1    2    0    0  0.00000000000E+00  0.00000000000E+00 -0.43017906383E+03  0.38229016661E+04  0.37986212132E+04 0.  0.
        3    1    3    3  502    0  0.10308158110E+04 -0.15817283682E+04 -0.65576885556E+01  0.18879854026E+04  0.10100000352E+00 0.  1.
       -3    1    3    3    0  502 -0.10308158110E+04  0.15817283682E+04 -0.42362137528E+03  0.19349162635E+04  0.10100000352E+00 0. -1.
</event>
<event>
 5   0  0.4071750E-09  0.3799467E+04  0.7818609E-02  0.8046269E-01
        1   -1    0    0  501    0  0.00000000000E+00  0.00000000000E+00  0.11856024587E+04  0.11856024587E+04  0.50400001928E-02 0. -1.
       -1   -1    0    0    0  501  0.00000000000E+00  0.00000000000E+00 -0.30440117122E+04  0.30440117122E+04  0.50400001928E-02 0.  1.
    10030    2    1    2    0    0  0.00000000000E+00  0.00000000000E+00 -0.18584092534E+04  0.42296141709E+04  0.37994672102E+04 0.  0.
        5    1    3    3  502    0  0.10496784428E+04 -0.80512740332E+03  0.58857009886E+03  0.14479267316E+04  0.46999998093E+01 0. -1.
       -5    1    3    3    0  502 -0.10496784428E+04  0.80512740332E+03 -0.24469793523E+04  0.27816874392E+04  0.46999998093E+01 0.  1.
</event>
<event>
 5   0  0.1305088E-08  0.3800066E+04  0.7818609E-02  0.8046141E-01
        2   -1    0    0  501    0  0.00000000000E+00  0.00000000000E+00  0.20781191711E+04  0.20781191711E+04  0.25500000920E-02 0. -1.
       -2   -1    0    0    0  501  0.00000000000E+00  0.00000000000E+00 -0.17372079273E+04  0.17372079274E+04  0.25500000920E-02 0.  1.
    10030    2    1    2    0    0  0.00000000000E+00  0.00000000000E+00  0.34091124372E+03  0.38153270984E+04  0.38000658405E+04 0.  0.
        3    1    3    3  502    0  0.18713022023E+04 -0.31047728100E+03  0.28024289846E+03  0.19174733810E+04  0.10100000352E+00 0. -1.
       -3    1    3    3    0  502 -0.18713022023E+04  0.31047728100E+03  0.60668345261E+02  0.18978537174E+04  0.10100000352E+00 0.  1.
</event>
<event>
 5   0  0.4071750E-09  0.3799263E+04  0.7818609E-02  0.8046313E-01
       -1   -1    0    0    0  501  0.00000000000E+00  0.00000000000E+00  0.18117046076E+04  0.18117046076E+04  0.50400001928E-02 0. -1.
        1   -1    0    0  501    0  0.00000000000E+00  0.00000000000E+00 -0.19918258140E+04  0.19918258140E+04  0.50400001928E-02 0.  1.
    10030    2    1    2    0    0  0.00000000000E+00  0.00000000000E+00 -0.18012120643E+03  0.38035304216E+04  0.37992630889E+04 0.  0.
        4    1    3    3  502    0  0.17288571991E+04 -0.41198331617E+03 -0.76157545362E+03  0.19335656834E+04  0.12699999809E+01 0.  1.
       -4    1    3    3    0  502 -0.17288571991E+04  0.41198331617E+03  0.58145424719E+03  0.18699647382E+04  0.12699999809E+01 0. -1.
</event>
<event>
 5   0  0.4071750E-09  0.3799044E+04  0.7818609E-02  0.8046360E-01
        1   -1    0    0  501    0  0.00000000000E+00  0.00000000000E+00  0.29429489758E+04  0.29429489758E+04  0.50400001928E-02 0.  1.
       -1   -1    0    0    0  501  0.00000000000E+00  0.00000000000E+00 -0.12260434271E+04  0.12260434271E+04  0.50400001928E-02 0. -1.
    10030    2    1    2    0    0  0.00000000000E+00  0.00000000000E+00  0.17169055487E+04  0.41689924029E+04  0.37990436944E+04 0.  0.
        5    1    3    3  502    0  0.15702122200E+04 -0.65572471911E+03  0.17848255175E+04  0.24660019345E+04  0.46999998093E+01 0.  1.
       -5    1    3    3    0  502 -0.15702122200E+04  0.65572471911E+03 -0.67919968794E+02  0.17029904683E+04  0.46999998093E+01 0. -1.
</event>
<event>
 5   0  0.1293993E-08  0.3800013E+04  0.7818609E-02  0.8046152E-01
        2   -1    0    0  501    0  0.00000000000E+00  0.00000000000E+00  0.18444867133E+04  0.18444867133E+04  0.25500000920E-02 0. -1.
       -2   -1    0    0    0  501  0.00000000000E+00  0.00000000000E+00 -0.19571973211E+04  0.19571973211E+04  0.25500000920E-02 0.  1.
    10030    2    1    2    0    0  0.00000000000E+00  0.00000000000E+00 -0.11271060783E+03  0.38016840345E+04  0.38000128706E+04 0.  0.
        5    1    3    3  502    0 -0.15806122224E+04  0.29406636785E+03 -0.10693184084E+04  0.19308738889E+04  0.46999998093E+01 0.  1.
       -5    1    3    3    0  502  0.15806122224E+04 -0.29406636785E+03  0.95660780061E+03  0.18708101455E+04  0.46999998093E+01 0. -1.
</event>
<event>
 5   0  0.4071750E-09  0.3802520E+04  0.7818609E-02  0.8045614E-01
       -1   -1    0    0    0  501  0.00000000000E+00  0.00000000000E+00  0.16736515707E+04  0.16736515707E+04  0.50400001928E-02 0. -1.
        1   -1    0    0  501    0  0.00000000000E+00  0.00000000000E+00 -0.21598218291E+04  0.21598218291E+04  0.50400001928E-02 0.  1.
    10030    2    1    2    0    0  0.00000000000E+00  0.00000000000E+00 -0.48617025845E+03  0.38334733998E+04  0.38025197944E+04 0.  0.
        1    1    3    3  502    0 -0.12952862813E+04 -0.11420259865E+04  0.55887718968E+03  0.18150299220E+04  0.50400001928E-02 0.  1.
       -1    1    3    3    0  502  0.12952862813E+04  0.11420259865E+04 -0.10450474481E+04  0.20184434779E+04  0.50400001928E-02 0. -1.
</event>
<event>
 5   0  0.1293993E-08  0.3801400E+04  0.7818609E-02  0.8045855E-01
        2   -1    0    0  501    0  0.00000000000E+00  0.00000000000E+00  0.36007848648E+04  0.36007848648E+04  0.25500000920E-02 0.  1.
       -2   -1    0    0    0  501  0.00000000000E+00  0.00000000000E+00 -0.10032979538E+04  0.10032979538E+04  0.25500000920E-02 0. -1.
    10030    2    1    2    0    0  0.00000000000E+00  0.00000000000E+00  0.25974869110E+04  0.46040828186E+04  0.38013997880E+04 0.  0.
        5    1    3    3  502    0  0.17293943133E+04 -0.72210517100E+03  0.91498242242E+03  0.20855348217E+04  0.46999998093E+01 0. -1.
       -5    1    3    3    0  502 -0.17293943133E+04  0.72210517100E+03  0.16825044886E+04  0.25185479970E+04  0.46999998093E+01 0.  1.
</event>
<event>
 5   0  0.4071750E-09  0.3800258E+04  0.7818609E-02  0.8046100E-01
       -1   -1    0    0    0  501  0.00000000000E+00  0.00000000000E+00  0.15957548329E+04  0.15957548329E+04  0.50400001928E-02 0. -1.
        1   -1    0    0  501    0  0.00000000000E+00  0.00000000000E+00 -0.22625593448E+04  0.22625593448E+04  0.50400001928E-02 0.  1.
    10030    2    1    2    0    0  0.00000000000E+00  0.00000000000E+00 -0.66680451185E+03  0.38583141777E+04  0.38002578908E+04 0.  0.
        2    1    3    3  502    0  0.23351226029E+03 -0.70567234712E+03  0.14420232242E+04  0.16223231541E+04  0.25500000920E-02 0. -1.
       -2    1    3    3    0  502 -0.23351226029E+03  0.70567234712E+03 -0.21088277361E+04  0.22359910236E+04  0.25500000920E-02 0.  1.
</event>
<event>
 5   0  0.4071750E-09  0.3802169E+04  0.7818609E-02  0.8045690E-01
        1   -1    0    0  501    0  0.00000000000E+00  0.00000000000E+00  0.12792406708E+04  0.12792406708E+04  0.50400001928E-02 0.  1.
       -1   -1    0    0    0  501  0.00000000000E+00  0.00000000000E+00 -0.28252094278E+04  0.28252094278E+04  0.50400001928E-02 0. -1.
    10030    2    1    2    0    0  0.00000000000E+00  0.00000000000E+00 -0.15459687571E+04  0.41044500986E+04  0.38021692774E+04 0.  0.
        3    1    3    3  502    0  0.10366493214E+04 -0.10127897740E+03  0.94380548256E+03  0.14055845923E+04  0.10100000352E+00 0.  1.
       -3    1    3    3    0  502 -0.10366493214E+04  0.10127897740E+03 -0.24897742396E+04  0.26988655063E+04  0.10100000352E+00 0. -1.
</event>
<event>
 5   0  0.4071750E-09  0.3800068E+04  0.7818609E-02  0.8046140E-01
       -1   -1    0    0    0  501  0.00000000000E+00  0.00000000000E+00  0.15633179399E+04  0.15633179399E+04  0.50400001928E-02 0.  1.
        1   -1    0    0  501    0  0.00000000000E+00  0.00000000000E+00 -0.23092743066E+04  0.23092743067E+04  0.50400001928E-02 0. -1.
    10030    2    1    2    0    0  0.00000000000E+00  0.00000000000E+00 -0.74595636673E+03  0.38725922466E+04  0.38000683951E+04 0.  0.
        5    1    3    3  502    0  0.17828379649E+04  0.11947616612E+03  0.28535545963E+03  0.18094848968E+04  0.46999998093E+01 0.  1.
       -5    1    3    3    0  502 -0.17828379649E+04 -0.11947616612E+03 -0.10313118264E+04  0.20631073498E+04  0.46999998093E+01 0. -1.
</event>
<event>
 5   0  0.1261152E-08  0.3800456E+04  0.7818609E-02  0.8046057E-01
        2   -1    0    0  501    0  0.00000000000E+00  0.00000000000E+00  0.26790904498E+04  0.26790904498E+04  0.25500000920E-02 0. -1.
       -2   -1    0    0    0  501  0.00000000000E+00  0.00000000000E+00 -0.13477956049E+04  0.13477956050E+04  0.25500000920E-02 0.  1.
    10030    2    1    2    0    0  0.00000000000E+00  0.00000000000E+00  0.13312948448E+04  0.40268860547E+04  0.38004559376E+04 0.  0.
        2    1    3    3  502    0  0.35727661635E+03 -0.33874713693E+03 -0.12790408248E+04  0.13705260431E+04  0.25500000920E-02 0.  1.
       -2    1    3    3    0  502 -0.35727661635E+03  0.33874713693E+03  0.26103356696E+04  0.26563600116E+04  0.25500000920E-02 0. -1.
</event>
<event>
 5   0  0.1327249E-08  0.3803473E+04  0.7818609E-02  0.8045410E-01
       -2   -1    0    0    0  501  0.00000000000E+00  0.00000000000E+00  0.33245353627E+04  0.33245353627E+04  0.25500000920E-02 0. -1.
        2   -1    0    0  501    0  0.00000000000E+00  0.00000000000E+00 -0.10878518929E+04  0.10878518929E+04  0.25500000920E-02 0.  1.
    10030    2    1    2    0    0  0.00000000000E+00  0.00000000000E+00  0.22366834697E+04  0.44123872556E+04  0.38034731956E+04 0.  0.
        1    1    3    3  502    0 -0.17462547842E+04 -0.72998547772E+02  0.24876036156E+03  0.17653940854E+04  0.50400001928E-02 0.  1.
       -1    1    3    3    0  502  0.17462547842E+04  0.72998547772E+02  0.19879231081E+04  0.26469931702E+04  0.50400001928E-02 0. -1.
</event>
<event>
 5   0  0.4071750E-09  0.3798406E+04  0.7818609E-02  0.8046497E-01
        1   -1    0    0  501    0  0.00000000000E+00  0.00000000000E+00  0.16051315274E+04  0.16051315274E+04  0.50400001928E-02 0.  1.
       -1   -1    0    0    0  501  0.00000000000E+00  0.00000000000E+00 -0.22471506930E+04  0.22471506930E+04  0.50400001928E-02 0. -1.
    10030    2    1    2    0    0  0.00000000000E+00  0.00000000000E+00 -0.64201916566E+03  0.38522822204E+04  0.37984062048E+04 0.  0.
        1    1    3    3  502    0 -0.24451366642E+03 -0.74857797777E+03 -0.20737635576E+04  0.22182540916E+04  0.50400001928E-02 0. -1.
       -1    1    3    3    0  502  0.24451366642E+03  0.74857797777E+03  0.14317443920E+04  0.16340281288E+04  0.50400001928E-02 0.  1.
</event>
<event>
 5   0  0.4071750E-09  0.3802699E+04  0.7818609E-02  0.8045576E-01
        1   -1    0    0  501    0  0.00000000000E+00  0.00000000000E+00  0.17545626825E+04  0.17545626825E+04  0.50400001928E-02 0.  1.
       -1   -1    0    0    0  501  0.00000000000E+00  0.00000000000E+00 -0.20604160461E+04  0.20604160461E+04  0.50400001928E-02 0. -1.
    10030    2    1    2    0    0  0.00000000000E+00  0.00000000000E+00 -0.30585336354E+03  0.38149787286E+04  0.38026985707E+04 0.  0.
        3    1    3    3  502    0 -0.13520767311E+04  0.61708504478E+03 -0.13425991715E+04  0.20028674407E+04  0.10100000352E+00 0. -1.
       -3    1    3    3    0  502  0.13520767311E+04 -0.61708504478E+03  0.10367458080E+04  0.18121112880E+04  0.10100000352E+00 0.  1.
</event>
<event>
 5   0  0.4071750E-09  0.3800862E+04  0.7818609E-02  0.8045970E-01
        1   -1    0    0  501    0  0.00000000000E+00  0.00000000000E+00  0.28134998411E+04  0.28134998411E+04  0.50400001928E-02 0.  1.
       -1   -1    0    0    0  501  0.00000000000E+00  0.00000000000E+00 -0.12836814257E+04  0.12836814257E+04  0.50400001928E-02 0. -1.
    10030    2    1    2    0    0  0.00000000000E+00  0.00000000000E+00  0.15298184153E+04  0.40971812668E+04  0.38008617377E+04 0.  0.
        3    1    3    3  502    0  0.12752007693E+04  0.14032032198E+03  0.22762901857E+04  0.26129148120E+04  0.10100000352E+00 0.  1.
       -3    1    3    3    0  502 -0.12752007693E+04 -0.14032032198E+03 -0.74647177041E+03  0.14842664548E+04  0.10100000352E+00 0. -1.
</event>
<event>
 5   0  0.4071750E-09  0.3799350E+04  0.7818609E-02  0.8046294E-01
       -1   -1    0    0    0  501  0.00000000000E+00  0.00000000000E+00  0.25395664559E+04  0.25395664559E+04  0.50400001928E-02 0. -1.
        1   -1    0    0  501    0  0.00000000000E+00  0.00000000000E+00 -0.14210161429E+04  0.14210161429E+04  0.50400001928E-02 0.  1.
    10030    2    1    2    0    0  0.00000000000E+00  0.00000000000E+00  0.11185503130E+04  0.39605825989E+04  0.37993499075E+04 0.  0.
        4    1    3    3  502    0  0.16043041743E+03 -0.16228730953E+04 -0.45639671475E+03  0.16934445891E+04  0.12699999809E+01 0.  1.
       -4    1    3    3    0  502 -0.16043041743E+03  0.16228730953E+04  0.15749470277E+04  0.22671380098E+04  0.12699999809E+01 0. -1.
</event>
<event>
 5   0  0.1327249E-08  0.3799634E+04  0.7818609E-02  0.8046234E-01
       -2   -1    0    0    0  501  0.00000000000E+00  0.00000000000E+00  0.18621486681E+04  0.18621486681E+04  0.25500000920E-02 0.  1.
        2   -1    0    0  501    0  0.00000000000E+00  0.00000000000E+00 -0.19382468839E+04  0.19382468839E+04  0.25500000920E-02 0. -1.
    10030    2    1    2    0    0  0.00000000000E+00  0.00000000000E+00 -0.76098215767E+02  0.38003955520E+04  0.37996335893E+04 0.  0.
        1    1    3    3  502    0 -0.14378330698E+04 -0.24884794039E+03 -0.12548515860E+04  0.19245627391E+04  0.50400001928E-02 0. -1.
       -1    1    3    3    0  502  0.14378330698E+04  0.24884794039E+03  0.11787533702E+04  0.18758328129E+04  0.50400001928E-02 0.  1.
</event>
<event>
 5   0  0.1305088E-08  0.3800140E+04  0.7818609E-02  0.8046125E-01
       -2   -1    0    0    0  501  0.00000000000E+00  0.00000000000E+00  0.21445497511E+04  0.21445497511E+04  0.25500000920E-02 0. -1.
        2   -1    0    0  501    0  0.00000000000E+00  0.00000000000E+00 -0.16834613395E+04  0.16834613395E+04  0.25500000920E-02 0.  1.
    10030    2    1    2    0    0  0.00000000000E+00  0.00000000000E+00  0.46108841155E+03  0.38280110906E+04  0.38001403114E+04 0.  0.
        3    1    3    3  502    0  0.87883693782E+03 -0.35234183288E+03 -0.14288893588E+04  0.17141248322E+04  0.10100000352E+00 0.  1.
       -3    1    3    3    0  502 -0.87883693782E+03  0.35234183288E+03  0.18899777704E+04  0.21138862583E+04  0.10100000352E+00 0. -1.
</event>
<event>
 5   0  0.4071750E-09  0.3800345E+04  0.7818609E-02  0.8046081E-01
        1   -1    0    0  501    0  0.00000000000E+00  0.00000000000E+00  0.19529871935E+04  0.19529871935E+04  0.50400001928E-02 0. -1.
       -1   -1    0    0    0  501  0.00000000000E+00  0.00000000000E+00 -0.18487856509E+04  0.18487856509E+04  0.50400001928E-02 0.  1.
    10030    2    1    2    0    0  0.00000000000E+00  0.00000000000E+00  0.10420154260E+03  0.38017728443E+04  0.38003445631E+04 0.  0.
        3    1    3    3  502    0 -0.65567906223E+03 -0.88438366602E+03 -0.14972243913E+04  0.18584214779E+04  0.10100000352E+00 0.  1.
       -3    1    3    3    0  502  0.65567906223E+03  0.88438366602E+03  0.16014259339E+04  0.19433513664E+04  0.10100000352E+00 0. -1.
</event>
<event>
 5   0  0.1264013E-08  0.3798897E+04  0.7818609E-02  0.8046392E-01
        2   -1    0    0  501    0  0.00000000000E+00  0.00000000000E+00  0.15429487256E+04  0.15429487256E+04  0.25500000920E-02 0. -1.
       -2   -1    0    0    0  501  0.00000000000E+00  0.00000000000E+00 -0.23383177485E+04  0.23383177485E+04  0.25500000920E-02 0.  1.
    10030    2    1    2    0    0  0.00000000000E+00  0.00000000000E+00 -0.79536902281E+03  0.38812664741E+04  0.37988968873E+04 0.  0.
        4    1    3    3  502    0 -0.15249937906E+04 -0.20560378771E+03  0.74002389026E+03  0.17074881990E+04  0.12699999809E+01 0. -1.
       -4    1    3    3    0  502  0.15249937906E+04  0.20560378771E+03 -0.15353929131E+04  0.21737782751E+04  0.12699999809E+01 0.  1.
</event>
<event>
 5   0  0.4071750E-09  0.3799215E+04  0.7818609E-02  0.8046323E-01
        1   -1    0    0  501    0  0.00000000000E+00  0.00000000000E+00  0.31660617246E+04  0.31660617246E+04  0.50400001928E-02 0. -1.
       -1   -1    0    0    0  501  0.00000000000E+00  0.00000000000E+00 -0.11397467389E+04  0.11397467389E+04  0.50400001928E-02 0.  1.
    10030    2    1    2    0    0  0.00000000000E+00  0.00000000000E+00  0.20263149857E+04  0.43058084634E+04  0.37992149324E+04 0.  0.
        3    1    3    3  502    0 -0.91485927735E+03  0.16296331114E+04  0.62742663581E+03  0.19713791540E+04  0.10100000352E+00 0. -1.
       -3    1    3    3    0  502  0.91485927735E+03 -0.16296331114E+04  0.13988883499E+04  0.23344293095E+04  0.10100000352E+00 0.  1.
</event>
<event>
 5   0  0.4071750E-09  0.3803135E+04  0.7818609E-02  0.8045482E-01
        1   -1    0    0  501    0  0.00000000000E+00  0.00000000000E+00  0.22107729153E+04  0.22107729153E+04  0.50400001928E-02 0. -1.
       -1   -1    0    0    0  501  0.00000000000E+00  0.00000000000E+00 -0.16356087126E+04  0.16356087126E+04  0.50400001928E-02 0.  1.
    10030    2    1    2    0    0  0.00000000000E+00  0.00000000000E+00  0.57516420271E+03  0.38463816280E+04  0.38031352550E+04 0.  0.
        3    1    3    3  502    0  0.91827315699E+03 -0.16286634467E+03  0.19635949582E+04  0.21738114470E+04  0.10100000352E+00 0. -1.
       -3    1    3    3    0  502 -0.91827315699E+03  0.16286634467E+03 -0.13884307555E+04  0.16725701809E+04  0.10100000352E+00 0.  1.
</event>
<event>
 5   0  0.1305088E-08  0.3801241E+04  0.7818609E-02  0.8045889E-01
       -2   -1    0    0    0  501  0.00000000000E+00  0.00000000000E+00  0.20679116275E+04  0.20679116275E+04  0.25500000920E-02 0. -1.
        2   -1    0    0  501    0  0.00000000000E+00  0.00000000000E+00 -0.17468629267E+04  0.17468629267E+04  0.25500000920E-02 0.  1.
    10030    2    1    2    0    0  0.00000000000E+00  0.00000000000E+00  0.32104870082E+03  0.38147745541E+04  0.38012409330E+04 0.  0.
        3    1    3    3  502    0  0.17798147059E+04 -0.43533767721E+03 -0.34634700003E+03  0.18647293464E+04  0.10100000352E+00 0.  1.
       -3    1    3    3    0  502 -0.17798147059E+04  0.43533767721E+03  0.66739570085E+03  0.19500452078E+04  0.10100000352E+00 0. -1.
</event>
<event>
 5   0  0.4071750E-09  0.3799793E+04  0.7818609E-02  0.8046199E-01
       -1   -1    0    0    0  501  0.00000000000E+00  0.00000000000E+00  0.17762162201E+04  0.17762162201E+04  0.50400001928E-02 0.  1.
        1   -1    0    0  501    0  0.00000000000E+00  0.00000000000E+00 -0.20321883728E+04  0.20321883728E+04  0.50400001928E-02 0. -1.
    10030    2    1    2    0    0  0.00000000000E+00  0.00000000000E+00 -0.25597215270E+03  0.38084045929E+04  0.37997925996E+04 0.  0.
        4    1    3    3  502    0  0.48520521486E+02  0.17164608580E+04  0.68688317728E+03  0.18494329483E+04  0.12699999809E+01 0.  1.
       -4    1    3    3    0  502 -0.48520521486E+02 -0.17164608580E+04 -0.94285532998E+03  0.19589716446E+04  0.12699999809E+01 0. -1.
</event>
<event>
 5   0  0.4071750E-09  0.3796436E+04  0.7818609E-02  0.8046920E-01
       -1   -1    0    0    0  501  0.00000000000E+00  0.00000000000E+00  0.12788561326E+04  0.12788561326E+04  0.50400001928E-02 0.  1.
        1   -1    0    0  501    0  0.00000000000E+00  0.00000000000E+00 -0.28175431577E+04  0.28175431577E+04  0.50400001928E-02 0. -1.
    10030    2    1    2    0    0  0.00000000000E+00  0.00000000000E+00 -0.15386870251E+04  0.40963992903E+04  0.37964364059E+04 0.  0.
        3    1    3    3  502    0  0.54127418748E+03  0.69971317184E+03  0.10428360155E+04  0.13675098663E+04  0.10100000352E+00 0.  1.
       -3    1    3    3    0  502 -0.54127418748E+03 -0.69971317184E+03 -0.25815230406E+04  0.27288894240E+04  0.10100000352E+00 0. -1.
</event>
<event>
 5   0  0.1261152E-08  0.3809146E+04  0.7818609E-02  0.8044195E-01
       -2   -1    0    0    0  501  0.00000000000E+00  0.00000000000E+00  0.18811052263E+04  0.18811052263E+04  0.25500000920E-02 0.  1.
        2   -1    0    0  501    0  0.00000000000E+00  0.00000000000E+00 -0.19283336551E+04  0.19283336552E+04  0.25500000920E-02 0. -1.
    10030    2    1    2    0    0  0.00000000000E+00  0.00000000000E+00 -0.47228428871E+02  0.38094388814E+04  0.38091461073E+04 0.  0.
        2    1    3    3  502    0  0.13032480387E+04 -0.72346221883E+03 -0.12092623728E+04  0.19194187971E+04  0.25500000920E-02 0. -1.
       -2    1    3    3    0  502 -0.13032480387E+04  0.72346221883E+03  0.11620339439E+04  0.18900200843E+04  0.25500000920E-02 0.  1.
</event>
<event>
 5   0  0.4071750E-09  0.3775689E+04  0.7818609E-02  0.8051392E-01
       -1   -1    0    0    0  501  0.00000000000E+00  0.00000000000E+00  0.23557342457E+04  0.23557342457E+04  0.50400001928E-02 0. -1.
        1   -1    0    0  501    0  0.00000000000E+00  0.00000000000E+00 -0.15128860439E+04  0.15128860439E+04  0.50400001928E-02 0.  1.
    10030    2    1    2    0    0  0.00000000000E+00  0.00000000000E+00  0.84284820179E+03  0.38686202896E+04  0.37756893216E+04 0.  0.
        1    1    3    3  502    0  0.13720288913E+04 -0.12910442186E+04  0.29720056047E+03  0.19072458221E+04  0.50400001928E-02 0.  1.
       -1    1    3    3    0  502 -0.13720288913E+04  0.12910442186E+04  0.54564764132E+03  0.19613744674E+04  0.50400001928E-02 0. -1.
</event>
<event>
 5   0  0.1327249E-08  0.3797601E+04  0.7818609E-02  0.8046670E-01
       -2   -1    0    0    0  501  0.00000000000E+00  0.00000000000E+00  0.21714151674E+04  0.21714151674E+04  0.25500000920E-02 0. -1.
        2   -1    0    0  501    0  0.00000000000E+00  0.00000000000E+00 -0.16604113773E+04  0.16604113773E+04  0.25500000920E-02 0.  1.
    10030    2    1    2    0    0  0.00000000000E+00  0.00000000000E+00  0.51100379011E+03  0.38318265447E+04  0.37976005313E+04 0.  0.
        1    1    3    3  502    0  0.29241914626E+03  0.17095168573E+04 -0.52443647391E+03  0.18119024415E+04  0.50400001928E-02 0.  1.
       -1    1    3    3    0  502 -0.29241914626E+03 -0.17095168573E+04  0.10354402640E+04  0.20199241032E+04  0.50400001928E-02 0. -1.
</event>
<event>
 5   0  0.4071750E-09  0.3802593E+04  0.7818609E-02  0.8045599E-01
        1   -1    0    0  501    0  0.00000000000E+00  0.00000000000E+00  0.14779052213E+04  0.14779052213E+04  0.50400001928E-02 0. -1.
       -1   -1    0    0    0  501  0.00000000000E+00  0.00000000000E+00 -0.24459817102E+04  0.24459817102E+04  0.50400001928E-02 0.  1.
    10030    2    1    2    0    0  0.00000000000E+00  0.00000000000E+00 -0.96807648895E+03  0.39238869315E+04  0.38025933997E+04 0.  0.
        2    1    3    3  502    0  0.35069467988E+03 -0.18427455332E+04 -0.16393156945E+03  0.18829687778E+04  0.25500000920E-02 0. -1.
       -2    1    3    3    0  502 -0.35069467988E+03  0.18427455332E+04 -0.80414491949E+03  0.20409181537E+04  0.25500000920E-02 0.  1.
</event>
<event>
 5   0  0.4071750E-09  0.3799025E+04  0.7818609E-02  0.8046364E-01
       -1   -1    0    0    0  501  0.00000000000E+00  0.00000000000E+00  0.11725498376E+04  0.11725498376E+04  0.50400001928E-02 0. -1.
        1   -1    0    0  501    0  0.00000000000E+00  0.00000000000E+00 -0.30771807915E+04  0.30771807915E+04  0.50400001928E-02 0.  1.
    10030    2    1    2    0    0  0.00000000000E+00  0.00000000000E+00 -0.19046309539E+04  0.42497306291E+04  0.37990250525E+04 0.  0.
        4    1    3    3  502    0  0.42686626977E+03 -0.11286795329E+03  0.11143473130E+04  0.11986348627E+04  0.12699999809E+01 0. -1.
       -4    1    3    3    0  502 -0.42686626977E+03  0.11286795329E+03 -0.30189782669E+04  0.30510957664E+04  0.12699999809E+01 0.  1.
</event>
<event>
 5   0  0.1305088E-08  0.3798731E+04  0.7818609E-02  0.8046427E-01
       -2   -1    0    0    0  501  0.00000000000E+00  0.00000000000E+00  0.12056085889E+04  0.12056085889E+04  0.25500000920E-02 0. -1.
        2   -1    0    0  501    0  0.00000000000E+00  0.00000000000E+00 -0.29923383899E+04  0.29923383899E+04  0.25500000920E-02 0.  1.
    10030    2    1    2    0    0  0.00000000000E+00  0.00000000000E+00 -0.17867298010E+04  0.41979469788E+04  0.37987307690E+04 0.  0.
        3    1    3    3  502    0  0.59435587564E+02  0.68867453601E+03  0.10616748549E+04  0.12668696513E+04  0.10100000352E+00 0. -1.
       -3    1    3    3    0  502 -0.59435587564E+02 -0.68867453601E+03 -0.28484046560E+04  0.29310773275E+04  0.10100000352E+00 0.  1.
</event>
<event>
 5   0  0.4071750E-09  0.3799752E+04  0.7818609E-02  0.8046208E-01
       -1   -1    0    0    0  501  0.00000000000E+00  0.00000000000E+00  0.30359501019E+04  0.30359501019E+04  0.50400001928E-02 0. -1.
        1   -1    0    0  501    0  0.00000000000E+00  0.00000000000E+00 -0.11889286923E+04  0.11889286924E+04  0.50400001928E-02 0.  1.
    10030    2    1    2    0    0  0.00000000000E+00  0.00000000000E+00  0.18470214096E+04  0.42248787943E+04  0.37997516681E+04 0.  0.
        3    1    3    3  502    0  0.14915801448E+04 -0.38591383232E+02 -0.38418246444E+03  0.15407455336E+04  0.10100000352E+00 0.  1.
       -3    1    3    3    0  502 -0.14915801448E+04  0.38591383232E+02  0.22312038740E+04  0.26841332607E+04  0.10100000352E+00 0. -1.
</event>
<event>
 5   0  0.1261152E-08  0.3797857E+04  0.7818609E-02  0.8046615E-01
        2   -1    0    0  501    0  0.00000000000E+00  0.00000000000E+00  0.20996725797E+04  0.20996725797E+04  0.25500000920E-02 0. -1.
       -2   -1    0    0    0  501  0.00000000000E+00  0.00000000000E+00 -0.17173767530E+04  0.17173767530E+04  0.25500000920E-02 0.  1.
    10030    2    1    2    0    0  0.00000000000E+00  0.00000000000E+00  0.38229582678E+03  0.38170493327E+04  0.37978566994E+04 0.  0.
        2    1    3    3  502    0 -0.16637978553E+04  0.51339924040E+03  0.95268859220E+03  0.19847966236E+04  0.25500000920E-02 0. -1.
       -2    1    3    3    0  502  0.16637978553E+04 -0.51339924040E+03 -0.57039276542E+03  0.18322527091E+04  0.25500000920E-02 0.  1.
</event>
<event>
 5   0  0.1305088E-08  0.3799043E+04  0.7818609E-02  0.8046360E-01
       -2   -1    0    0    0  501  0.00000000000E+00  0.00000000000E+00  0.15163254271E+04  0.15163254271E+04  0.25500000920E-02 0.  1.
        2   -1    0    0  501    0  0.00000000000E+00  0.00000000000E+00 -0.23795559527E+04  0.23795559527E+04  0.25500000920E-02 0. -1.
    10030    2    1    2    0    0  0.00000000000E+00  0.00000000000E+00 -0.86323052561E+03  0.38958813798E+04  0.37990426143E+04 0.  0.
        3    1    3    3  502    0  0.24569958537E+02 -0.97779791446E+03  0.12382308648E+04  0.15779442732E+04  0.10100000352E+00 0.  1.
       -3    1    3    3    0  502 -0.24569958537E+02  0.97779791446E+03 -0.21014613905E+04  0.23179371066E+04  0.10100000352E+00 0. -1.
</event>
<event>
 5   0  0.1261152E-08  0.3800724E+04  0.7818609E-02  0.8045999E-01
       -2   -1    0    0    0  501  0.00000000000E+00  0.00000000000E+00  0.17659347812E+04  0.17659347812E+04  0.25500000920E-02 0. -1.
        2   -1    0    0  501    0  0.00000000000E+00  0.00000000000E+00 -0.20450225836E+04  0.20450225836E+04  0.25500000920E-02 0.  1.
    10030    2    1    2    0    0  0.00000000000E+00  0.00000000000E+00 -0.27908780232E+03  0.38109573648E+04  0.38007244092E+04 0.  0.
        2    1    3    3  502    0  0.52184855987E+03 -0.94172965285E+03  0.14306210780E+04  0.17904908063E+04  0.25500000920E-02 0. -1.
       -2    1    3    3    0  502 -0.52184855987E+03  0.94172965285E+03 -0.17097088804E+04  0.20204665585E+04  0.25500000920E-02 0.  1.
</event>
<event>
 5   0  0.1261152E-08  0.3792203E+04  0.7818609E-02  0.8047830E-01
        2   -1    0    0  501    0  0.00000000000E+00  0.00000000000E+00  0.16615443466E+04  0.16615443466E+04  0.25500000920E-02 0.  1.
       -2   -1    0    0    0  501  0.00000000000E+00  0.00000000000E+00 -0.21637708968E+04  0.21637708968E+04  0.25500000920E-02 0. -1.
    10030    2    1    2    0    0  0.00000000000E+00  0.00000000000E+00 -0.50222655013E+03  0.38253152434E+04  0.37922032124E+04 0.  0.
        2    1    3    3  502    0 -0.71607010040E+03  0.15677217621E+04 -0.10483899970E+04  0.20173322726E+04  0.25500000920E-02 0.  1.
       -2    1    3    3    0  502  0.71607010040E+03 -0.15677217621E+04  0.54616344690E+03  0.18079829708E+04  0.25500000920E-02 0. -1.
</event>
<event>
 5   0  0.4071750E-09  0.3798912E+04  0.7818609E-02  0.8046388E-01
       -1   -1    0    0    0  501  0.00000000000E+00  0.00000000000E+00  0.14424934927E+04  0.14424934927E+04  0.50400001928E-02 0.  1.
        1   -1    0    0  501    0  0.00000000000E+00  0.00000000000E+00 -0.25011777674E+04  0.25011777675E+04  0.50400001928E-02 0. -1.
    10030    2    1    2    0    0  0.00000000000E+00  0.00000000000E+00 -0.10586842747E+04  0.39436712602E+04  0.37989117672E+04 0.  0.
        5    1    3    3  502    0 -0.13531658232E+04 -0.12528253563E+04 -0.56711671696E+02  0.18449572955E+04  0.46999998093E+01 0.  1.
       -5    1    3    3    0  502  0.13531658232E+04  0.12528253563E+04 -0.10019726031E+04  0.20987139647E+04  0.46999998093E+01 0. -1.
</event>
<event>
 5   0  0.4071750E-09  0.3800272E+04  0.7818609E-02  0.8046096E-01
        1   -1    0    0  501    0  0.00000000000E+00  0.00000000000E+00  0.20203988397E+04  0.20203988397E+04  0.50400001928E-02 0. -1.
       -1   -1    0    0    0  501  0.00000000000E+00  0.00000000000E+00 -0.17870320199E+04  0.17870320200E+04  0.50400001928E-02 0.  1.
    10030    2    1    2    0    0  0.00000000000E+00  0.00000000000E+00  0.23336681973E+03  0.38074308596E+04  0.38002723163E+04 0.  0.
        1    1    3    3  502    0  0.13524706938E+04 -0.84426411400E+03 -0.91897483988E+03  0.18402373836E+04  0.50400001928E-02 0.  1.
       -1    1    3    3    0  502 -0.13524706938E+04  0.84426411400E+03  0.11523416596E+04  0.19671934760E+04  0.50400001928E-02 0. -1.
</event>
<event>
 5   0  0.1261152E-08  0.3800098E+04  0.7818609E-02  0.8046134E-01
        2   -1    0    0  501    0  0.00000000000E+00  0.00000000000E+00  0.16241180163E+04  0.16241180163E+04  0.25500000920E-02 0.  1.
       -2   -1    0    0    0  501  0.00000000000E+00  0.00000000000E+00 -0.22228598325E+04  0.22228598325E+04  0.25500000920E-02 0. -1.
    10030    2    1    2    0    0  0.00000000000E+00  0.00000000000E+00 -0.59874181627E+03  0.38469778488E+04  0.38000982628E+04 0.  0.
        2    1    3    3  502    0  0.12632884888E+03 -0.46809707803E+03  0.15604409312E+04  0.16340286877E+04  0.25500000920E-02 0.  1.
       -2    1    3    3    0  502 -0.12632884888E+03  0.46809707803E+03 -0.21591827475E+04  0.22129491611E+04  0.25500000920E-02 0. -1.
</event>
<event>
 5   0  0.1261152E-08  0.3796282E+04  0.7818609E-02  0.8046953E-01
        2   -1    0    0  501    0  0.00000000000E+00  0.00000000000E+00  0.27599955225E+04  0.27599955225E+04  0.25500000920E-02 0. -1.
       -2   -1    0    0    0  501  0.00000000000E+00  0.00000000000E+00 -0.13054150216E+04  0.13054150216E+04  0.25500000920E-02 0.  1.
    10030    2    1    2    0    0  0.00000000000E+00  0.00000000000E+00  0.14545805009E+04  0.40654105440E+04  0.37962821889E+04 0.  0.
        2    1    3    3  502    0  0.30439684222E+03 -0.17612598935E+04  0.14115275827E+04  0.22775214525E+04  0.25500000920E-02 0. -1.
       -2    1    3    3    0  502 -0.30439684222E+03  0.17612598935E+04  0.43052918252E+02  0.17878890915E+04  0.25500000920E-02 0.  1.
</event>
<event>
 5   0  0.1305088E-08  0.3800578E+04  0.7818609E-02  0.8046031E-01
       -2   -1    0    0    0  501  0.00000000000E+00  0.00000000000E+00  0.29554914645E+04  0.29554914645E+04  0.25500000920E-02 0. -1.
        2   -1    0    0  501    0  0.00000000000E+00  0.00000000000E+00 -0.12218266225E+04  0.12218266225E+04  0.25500000920E-02 0.  1.
    10030    2    1    2    0    0  0.00000000000E+00  0.00000000000E+00  0.17336648420E+04  0.41773180871E+04  0.38005779319E+04 0.  0.
        3    1    3    3  502    0  0.83041177997E+03 -0.17081767047E+04  0.80045783928E+03  0.20611123554E+04  0.10100000352E+00 0. -1.
       -3    1    3    3    0  502 -0.83041177997E+03  0.17081767047E+04  0.93320700271E+03  0.21162057317E+04  0.10100000352E+00 0.  1.
</event>
<event>
 5   0  0.4071750E-09  0.3799120E+04  0.7818609E-02  0.8046344E-01
        1   -1    0    0  501    0  0.00000000000E+00  0.00000000000E+00  0.13175714075E+04  0.13175714075E+04  0.50400001928E-02 0.  1.
       -1   -1    0    0    0  501  0.00000000000E+00  0.00000000000E+00 -0.27386204922E+04  0.27386204922E+04  0.50400001928E-02 0. -1.
    10030    2    1    2    0    0  0.00000000000E+00  0.00000000000E+00 -0.14210490848E+04  0.40561918997E+04  0.37991199278E+04 0.  0.
        2    1    3    3  502    0 -0.52298637354E+03  0.56203559915E+03  0.11445525436E+04  0.13781869563E+04  0.25500000920E-02 0.  1.
       -2    1    3    3    0  502  0.52298637354E+03 -0.56203559915E+03 -0.25656016283E+04  0.26780049434E+04  0.25500000920E-02 0. -1.
</event>
<event>
 5   0  0.4071750E-09  0.3796552E+04  0.7818609E-02  0.8046895E-01
        1   -1    0    0  501    0  0.00000000000E+00  0.00000000000E+00  0.12156073406E+04  0.12156073406E+04  0.50400001928E-02 0. -1.
       -1   -1    0    0    0  501  0.00000000000E+00  0.00000000000E+00 -0.29643229229E+04  0.29643229229E+04  0.50400001928E-02 0.  1.
    10030    2    1    2    0    0  0.00000000000E+00  0.00000000000E+00 -0.17487155823E+04  0.41799302635E+04  0.37965524914E+04 0.  0.
        1    1    3    3  502    0 -0.30913418011E+03  0.31021030647E+03 -0.29079430864E+04  0.29407358551E+04  0.50400001928E-02 0.  1.
       -1    1    3    3    0  502  0.30913418011E+03 -0.31021030647E+03  0.11592275041E+04  0.12391944084E+04  0.50400001928E-02 0. -1.
</event>
<event>
 5   0  0.1261152E-08  0.3798062E+04  0.7818609E-02  0.8046571E-01
       -2   -1    0    0    0  501  0.00000000000E+00  0.00000000000E+00  0.11648479264E+04  0.11648479264E+04  0.25500000920E-02 0.  1.
        2   -1    0    0  501    0  0.00000000000E+00  0.00000000000E+00 -0.30959564818E+04  0.30959564818E+04  0.25500000920E-02 0. -1.
    10030    2    1    2    0    0  0.00000000000E+00  0.00000000000E+00 -0.19311085554E+04  0.42608044082E+04  0.37980618678E+04 0.  0.
        2    1    3    3  502    0 -0.12034147993E+04  0.11869590941E+04  0.54918762333E+01  0.16902985626E+04  0.25500000920E-02 0. -1.
       -2    1    3    3    0  502  0.12034147993E+04 -0.11869590941E+04 -0.19366004317E+04  0.25705058455E+04  0.25500000920E-02 0.  1.
</event>
<event>
 5   0  0.1293993E-08  0.3796874E+04  0.7818609E-02  0.8046826E-01
        2   -1    0    0  501    0  0.00000000000E+00  0.00000000000E+00  0.12539539224E+04  0.12539539224E+04  0.25500000920E-02 0. -1.
       -2   -1    0    0    0  501  0.00000000000E+00  0.00000000000E+00 -0.28741592767E+04  0.28741592767E+04  0.25500000920E-02 0.  1.
    10030    2    1    2    0    0  0.00000000000E+00  0.00000000000E+00 -0.16202053544E+04  0.41281131991E+04  0.37968741347E+04 0.  0.
        5    1    3    3  502    0  0.91544047934E+03 -0.30582189688E+03 -0.25874932201E+04  0.27616483408E+04  0.46999998093E+01 0.  1.
       -5    1    3    3    0  502 -0.91544047934E+03  0.30582189688E+03  0.96728786579E+03  0.13664648584E+04  0.46999998093E+01 0. -1.
</event>
<event>
 5   0  0.4071750E-09  0.3799669E+04  0.7818609E-02  0.8046226E-01
        1   -1    0    0  501    0  0.00000000000E+00  0.00000000000E+00  0.28956370701E+04  0.28956370701E+04  0.50400001928E-02 0.  1.
       -1   -1    0    0    0  501  0.00000000000E+00  0.00000000000E+00 -0.12464861214E+04  0.12464861214E+04  0.50400001928E-02 0. -1.
    10030    2    1    2    0    0  0.00000000000E+00  0.00000000000E+00  0.16491509487E+04  0.41421231915E+04  0.37996691542E+04 0.  0.
        2    1    3    3  502    0  0.26249127549E+03  0.18540264863E+04  0.47461991494E+03  0.19317297806E+04  0.25500000920E-02 0. -1.
       -2    1    3    3    0  502 -0.26249127549E+03 -0.18540264863E+04  0.11745310338E+04  0.22103934109E+04  0.25500000920E-02 0.  1.
</event>
<event>
 5   0  0.4071750E-09  0.3798838E+04  0.7818609E-02  0.8046404E-01
        1   -1    0    0  501    0  0.00000000000E+00  0.00000000000E+00  0.15627945938E+04  0.15627945938E+04  0.50400001928E-02 0. -1.
       -1   -1    0    0    0  501  0.00000000000E+00  0.00000000000E+00 -0.23085523937E+04  0.23085523937E+04  0.50400001928E-02 0.  1.
    10030    2    1    2    0    0  0.00000000000E+00  0.00000000000E+00 -0.74575779994E+03  0.38713469875E+04  0.37988383489E+04 0.  0.
        5    1    3    3  502    0  0.63945650467E+03  0.75585606164E+03 -0.20247898156E+04  0.22538897255E+04  0.46999998093E+01 0.  1.
       -5    1    3    3    0  502 -0.63945650467E+03 -0.75585606164E+03  0.12790320157E+04  0.16174572620E+04  0.46999998093E+01 0. -1.
</event>
<event>
 5   0  0.1264013E-08  0.3799920E+04  0.7818609E-02  0.8046172E-01
        2   -1    0    0  501    0  0.00000000000E+00  0.00000000000E+00  0.26525537268E+04  0.26525537268E+04  0.25500000920E-02 0. -1.
       -2   -1    0    0    0  501  0.00000000000E+00  0.00000000000E+00 -0.13608952363E+04  0.13608952363E+04  0.25500000920E-02 0.  1.
    10030    2    1    2    0    0  0.00000000000E+00  0.00000000000E+00  0.12916584905E+04  0.40134489631E+04  0.37999198575E+04 0.  0.
        4    1    3    3  502    0 -0.86818302700E+03 -0.10804636263E+04 -0.72669462609E+03  0.15650016322E+04  0.12699999809E+01 0.  1.
       -4    1    3    3    0  502  0.86818302700E+03  0.10804636263E+04  0.20183531166E+04  0.24484473309E+04  0.12699999809E+01 0. -1.
</event>
<event>
 5   0  0.4071750E-09  0.3806885E+04  0.7818609E-02  0.8044679E-01
        1   -1    0    0  501    0  0.00000000000E+00  0.00000000000E+00  0.12401801187E+04  0.12401801187E+04  0.50400001928E-02 0. -1.
       -1   -1    0    0    0  501  0.00000000000E+00  0.00000000000E+00 -0.29214253243E+04  0.29214253243E+04  0.50400001928E-02 0.  1.
    10030    2    1    2    0    0  0.00000000000E+00  0.00000000000E+00 -0.16812452057E+04  0.41616054430E+04  0.38068851338E+04 0.  0.
        3    1    3    3  502    0 -0.95060293275E+03  0.33909572190E+03  0.92358675692E+03  0.13680805357E+04  0.10100000352E+00 0. -1.
       -3    1    3    3    0  502  0.95060293275E+03 -0.33909572190E+03 -0.26048319626E+04  0.27935249073E+04  0.10100000352E+00 0.  1.
</event>
<event>
 5   0  0.4071750E-09  0.3800705E+04  0.7818609E-02  0.8046004E-01
        1   -1    0    0  501    0  0.00000000000E+00  0.00000000000E+00  0.15292916651E+04  0.15292916652E+04  0.50400001928E-02 0. -1.
       -1   -1    0    0    0  501  0.00000000000E+00  0.00000000000E+00 -0.23614454425E+04  0.23614454425E+04  0.50400001928E-02 0.  1.
    10030    2    1    2    0    0  0.00000000000E+00  0.00000000000E+00 -0.83215377739E+03  0.38907371077E+04  0.38007045836E+04 0.  0.
        2    1    3    3  502    0  0.15725071223E+04  0.10415006034E+04 -0.17855321999E+03  0.18945668130E+04  0.25500000920E-02 0.  1.
       -2    1    3    3    0  502 -0.15725071223E+04 -0.10415006034E+04 -0.65360055740E+03  0.19961702947E+04  0.25500000920E-02 0. -1.
</event>
<event>
 5   0  0.1261152E-08  0.3801230E+04  0.7818609E-02  0.8045891E-01
       -2   -1    0    0    0  501  0.00000000000E+00  0.00000000000E+00  0.15079673089E+04  0.15079673089E+04  0.25500000920E-02 0.  1.
        2   -1    0    0  501    0  0.00000000000E+00  0.00000000000E+00 -0.23955013580E+04  0.23955013580E+04  0.25500000920E-02 0. -1.
    10030    2    1    2    0    0  0.00000000000E+00  0.00000000000E+00 -0.88753404907E+03  0.39034686669E+04  0.38012301884E+04 0.  0.
        2    1    3    3  502    0 -0.69436456671E+03 -0.17212651916E+04 -0.86396927380E+03  0.20472759749E+04  0.25500000920E-02 0. -1.
       -2    1    3    3    0  502  0.69436456671E+03  0.17212651916E+04 -0.23564775277E+02  0.18561926920E+04  0.25500000920E-02 0.  1.
</event>
<event>
 5   0  0.1305088E-08  0.3798553E+04  0.7818609E-02  0.8046465E-01
        2   -1    0    0  501    0  0.00000000000E+00  0.00000000000E+00  0.15340853234E+04  0.15340853234E+04  0.25500000920E-02 0. -1.
       -2   -1    0    0    0  501  0.00000000000E+00  0.00000000000E+00 -0.23514018131E+04  0.23514018131E+04  0.25500000920E-02 0.  1.
    10030    2    1    2    0    0  0.00000000000E+00  0.00000000000E+00 -0.81731648966E+03  0.38854871365E+04  0.37985528881E+04 0.  0.
        3    1    3    3  502    0 -0.16755453124E+04  0.24628255607E+03  0.47075250465E+03  0.17577585505E+04  0.10100000352E+00 0. -1.
       -3    1    3    3    0  502  0.16755453124E+04 -0.24628255607E+03 -0.12880689943E+04  0.21277285860E+04  0.10100000352E+00 0.  1.
</event>
<event>
 5   0  0.4071750E-09  0.3799753E+04  0.7818609E-02  0.8046208E-01
        1   -1    0    0  501    0  0.00000000000E+00  0.00000000000E+00  0.20384182273E+04  0.20384182273E+04  0.50400001928E-02 0. -1.
       -1   -1    0    0    0  501  0.00000000000E+00  0.00000000000E+00 -0.17707504641E+04  0.17707504641E+04  0.50400001928E-02 0.  1.
    10030    2    1    2    0    0  0.00000000000E+00  0.00000000000E+00  0.26766776318E+03  0.38091686914E+04  0.37997526351E+04 0.  0.
        4    1    3    3  502    0 -0.15543619402E+04 -0.38732927994E+03 -0.89019803051E+03  0.18326263009E+04  0.12699999809E+01 0.  1.
       -4    1    3    3    0  502  0.15543619402E+04  0.38732927994E+03  0.11578657937E+04  0.19765423905E+04  0.12699999809E+01 0. -1.
</event>
<event>
 5   0  0.1305088E-08  0.3791928E+04  0.7818609E-02  0.8047889E-01
        2   -1    0    0  501    0  0.00000000000E+00  0.00000000000E+00  0.18647179111E+04  0.18647179111E+04  0.25500000920E-02 0. -1.
       -2   -1    0    0    0  501  0.00000000000E+00  0.00000000000E+00 -0.19277334622E+04  0.19277334623E+04  0.25500000920E-02 0.  1.
    10030    2    1    2    0    0  0.00000000000E+00  0.00000000000E+00 -0.63015551156E+02  0.37924513733E+04  0.37919278025E+04 0.  0.
        3    1    3    3  502    0 -0.11767894653E+04 -0.10619082330E+04  0.10089226322E+04  0.18789378459E+04  0.10100000352E+00 0. -1.
       -3    1    3    3    0  502  0.11767894653E+04  0.10619082330E+04 -0.10719381833E+04  0.19135135275E+04  0.10100000352E+00 0.  1.
</event>
<event>
 5   0  0.4071750E-09  0.3800105E+04  0.7818609E-02  0.8046132E-01
       -1   -1    0    0    0  501  0.00000000000E+00  0.00000000000E+00  0.17821043143E+04  0.17821043144E+04  0.50400001928E-02 0. -1.
        1   -1    0    0  501    0  0.00000000000E+00  0.00000000000E+00 -0.20258074306E+04  0.20258074306E+04  0.50400001928E-02 0.  1.
    10030    2    1    2    0    0  0.00000000000E+00  0.00000000000E+00 -0.24370311624E+03  0.38079117450E+04  0.38001053470E+04 0.  0.
        3    1    3    3  502    0  0.86924831045E+03 -0.13067368661E+03 -0.18098094769E+04  0.20119837451E+04  0.10100000352E+00 0.  1.
       -3    1    3    3    0  502 -0.86924831045E+03  0.13067368661E+03  0.15661063607E+04  0.17959279999E+04  0.10100000352E+00 0. -1.
</event>
<event>
 5   0  0.1261152E-08  0.3802994E+04  0.7818609E-02  0.8045513E-01
       -2   -1    0    0    0  501  0.00000000000E+00  0.00000000000E+00  0.20243835936E+04  0.20243835936E+04  0.25500000920E-02 0.  1.
        2   -1    0    0  501    0  0.00000000000E+00  0.00000000000E+00 -0.17860701377E+04  0.17860701377E+04  0.25500000920E-02 0. -1.
    10030    2    1    2    0    0  0.00000000000E+00  0.00000000000E+00  0.23831345597E+03  0.38104537313E+04  0.38029941277E+04 0.  0.
        2    1    3    3  502    0  0.15536732131E+04  0.61636907627E+03  0.10275108453E+04  0.19620371629E+04  0.25500000920E-02 0.  1.
       -2    1    3    3    0  502 -0.15536732131E+04 -0.61636907627E+03 -0.78919738937E+03  0.18484165685E+04  0.25500000920E-02 0. -1.
</event>
<event>
 5   0  0.1305088E-08  0.3799732E+04  0.7818609E-02  0.8046212E-01
        2   -1    0    0  501    0  0.00000000000E+00  0.00000000000E+00  0.20518713530E+04  0.20518713530E+04  0.25500000920E-02 0. -1.
       -2   -1    0    0    0  501  0.00000000000E+00  0.00000000000E+00 -0.17591215146E+04  0.17591215147E+04  0.25500000920E-02 0.  1.
    10030    2    1    2    0    0  0.00000000000E+00  0.00000000000E+00  0.29274983838E+03  0.38109928677E+04  0.37997321181E+04 0.  0.
        3    1    3    3  502    0  0.78704195711E+03 -0.10769453604E+04  0.15032495817E+04  0.20097277594E+04  0.10100000352E+00 0. -1.
       -3    1    3    3    0  502 -0.78704195711E+03  0.10769453604E+04 -0.12104997433E+04  0.18012651083E+04  0.10100000352E+00 0.  1.
</event>
<event>
 5   0  0.1327249E-08  0.3801224E+04  0.7818609E-02  0.8045892E-01
       -2   -1    0    0    0  501  0.00000000000E+00  0.00000000000E+00  0.19819155951E+04  0.19819155951E+04  0.25500000920E-02 0.  1.
        2   -1    0    0  501    0  0.00000000000E+00  0.00000000000E+00 -0.18226439060E+04  0.18226439060E+04  0.25500000920E-02 0. -1.
    10030    2    1    2    0    0  0.00000000000E+00  0.00000000000E+00  0.15927168902E+03  0.38045595011E+04  0.38012242142E+04 0.  0.
        1    1    3    3  502    0 -0.20782344689E+03  0.17108051050E+04  0.88176382127E+03  0.19358595323E+04  0.50400001928E-02 0.  1.
       -1    1    3    3    0  502  0.20782344689E+03 -0.17108051050E+04 -0.72249213225E+03  0.18686999688E+04  0.50400001928E-02 0. -1.
</event>
<event>
 5   0  0.4071750E-09  0.3799962E+04  0.7818609E-02  0.8046163E-01
        1   -1    0    0  501    0  0.00000000000E+00  0.00000000000E+00  0.21223509868E+04  0.21223509868E+04  0.50400001928E-02 0.  1.
       -1   -1    0    0    0  501  0.00000000000E+00  0.00000000000E+00 -0.17009097849E+04  0.17009097849E+04  0.50400001928E-02 0. -1.
    10030    2    1    2    0    0  0.00000000000E+00  0.00000000000E+00  0.42144120192E+03  0.38232607717E+04  0.37999618738E+04 0.  0.
        1    1    3    3  502    0  0.11705837367E+04  0.13362217883E+04 -0.46733475451E+03  0.18368877824E+04  0.50400001928E-02 0.  1.
       -1    1    3    3    0  502 -0.11705837367E+04 -0.13362217883E+04  0.88877595643E+03  0.19863729894E+04  0.50400001928E-02 0. -1.
</event>
<event>
 5   0  0.1305088E-08  0.3802325E+04  0.7818609E-02  0.8045656E-01
       -2   -1    0    0    0  501  0.00000000000E+00  0.00000000000E+00  0.17987580894E+04  0.17987580894E+04  0.25500000920E-02 0.  1.
        2   -1    0    0  501    0  0.00000000000E+00  0.00000000000E+00 -0.20093968123E+04  0.20093968123E+04  0.25500000920E-02 0. -1.
    10030    2    1    2    0    0  0.00000000000E+00  0.00000000000E+00 -0.21063872290E+03  0.38081549017E+04  0.38023249577E+04 0.  0.
        3    1    3    3  502    0 -0.45970047377E+03  0.75738776302E+03 -0.17899977402E+04  0.19972612922E+04  0.10100000352E+00 0. -1.
       -3    1    3    3    0  502  0.45970047377E+03 -0.75738776302E+03  0.15793590173E+04  0.18108936095E+04  0.10100000352E+00 0.  1.
</event>
<event>
 5   0  0.4071750E-09  0.3800600E+04  0.7818609E-02  0.8046026E-01
        1   -1    0    0  501    0  0.00000000000E+00  0.00000000000E+00  0.26625275894E+04  0.26625275894E+04  0.50400001928E-02 0.  1.
       -1   -1    0    0    0  501  0.00000000000E+00  0.00000000000E+00 -0.13562829405E+04  0.13562829405E+04  0.50400001928E-02 0. -1.
    10030    2    1    2    0    0  0.00000000000E+00  0.00000000000E+00  0.13062446489E+04  0.40188105300E+04  0.38006003464E+04 0.  0.
        4    1    3    3  502    0 -0.32262071463E+03  0.15810321099E+04 -0.40819359754E+03  0.16644429351E+04  0.12699999809E+01 0. -1.
       -4    1    3    3    0  502  0.32262071463E+03 -0.15810321099E+04  0.17144382464E+04  0.23543675949E+04  0.12699999809E+01 0.  1.
</event>
<event>
 5   0  0.1293993E-08  0.3794298E+04  0.7818609E-02  0.8047380E-01
        2   -1    0    0  501    0  0.00000000000E+00  0.00000000000E+00  0.23935277001E+04  0.23935277001E+04  0.25500000920E-02 0. -1.
       -2   -1    0    0    0  501  0.00000000000E+00  0.00000000000E+00 -0.15037111145E+04  0.15037111145E+04  0.25500000920E-02 0.  1.
    10030    2    1    2    0    0  0.00000000000E+00  0.00000000000E+00  0.88981658554E+03  0.38972388146E+04  0.37942979353E+04 0.  0.
        5    1    3    3  502    0  0.54635407332E+03  0.14506291134E+04  0.15683488322E+04  0.22051230686E+04  0.46999998093E+01 0. -1.
       -5    1    3    3    0  502 -0.54635407332E+03 -0.14506291134E+04 -0.67853224663E+03  0.16921157460E+04  0.46999998093E+01 0.  1.
</event>
<event>
 5   0  0.4071750E-09  0.3800606E+04  0.7818609E-02  0.8046025E-01
        1   -1    0    0  501    0  0.00000000000E+00  0.00000000000E+00  0.24659672995E+04  0.24659672995E+04  0.50400001928E-02 0. -1.
       -1   -1    0    0    0  501  0.00000000000E+00  0.00000000000E+00 -0.14643955282E+04  0.14643955282E+04  0.50400001928E-02 0.  1.
    10030    2    1    2    0    0  0.00000000000E+00  0.00000000000E+00  0.10015717712E+04  0.39303628277E+04  0.38006059970E+04 0.  0.
        4    1    3    3  502    0 -0.54585334798E+03  0.64515873975E+03  0.22609426877E+04  0.24137210127E+04  0.12699999809E+01 0. -1.
       -4    1    3    3    0  502  0.54585334798E+03 -0.64515873975E+03 -0.12593709165E+04  0.15166418150E+04  0.12699999809E+01 0.  1.
</event>
<event>
 5   0  0.4071750E-09  0.3800773E+04  0.7818609E-02  0.8045989E-01
       -1   -1    0    0    0  501  0.00000000000E+00  0.00000000000E+00  0.11934970697E+04  0.11934970697E+04  0.50400001928E-02 0.  1.
        1   -1    0    0  501    0  0.00000000000E+00  0.00000000000E+00 -0.30259553215E+04  0.30259553215E+04  0.50400001928E-02 0. -1.
    10030    2    1    2    0    0  0.00000000000E+00  0.00000000000E+00 -0.18324582518E+04  0.42194523912E+04  0.38007729789E+04 0.  0.
        5    1    3    3  502    0  0.81767402373E+03 -0.12662909258E+03 -0.28154795898E+04  0.29345482014E+04  0.46999998093E+01 0. -1.
       -5    1    3    3    0  502 -0.81767402373E+03  0.12662909258E+03  0.98302133792E+03  0.12849041898E+04  0.46999998093E+01 0.  1.
</event>
<event>
 5   0  0.1327249E-08  0.3799425E+04  0.7818609E-02  0.8046278E-01
       -2   -1    0    0    0  501  0.00000000000E+00  0.00000000000E+00  0.15934148210E+04  0.15934148210E+04  0.25500000920E-02 0. -1.
        2   -1    0    0  501    0  0.00000000000E+00  0.00000000000E+00 -0.22648890962E+04  0.22648890962E+04  0.25500000920E-02 0.  1.
    10030    2    1    2    0    0  0.00000000000E+00  0.00000000000E+00 -0.67147427523E+03  0.38583039172E+04  0.37994251428E+04 0.  0.
        1    1    3    3  502    0  0.18091297177E+04  0.36621992810E+03  0.12049164395E+03  0.18497528504E+04  0.50400001928E-02 0. -1.
       -1    1    3    3    0  502 -0.18091297177E+04 -0.36621992810E+03 -0.79196591917E+03  0.20085510669E+04  0.50400001928E-02 0.  1.
</event>
<event>
 5   0  0.1264013E-08  0.3800740E+04  0.7818609E-02  0.8045996E-01
       -2   -1    0    0    0  501  0.00000000000E+00  0.00000000000E+00  0.21424325356E+04  0.21424325356E+04  0.25500000920E-02 0. -1.
        2   -1    0    0  501    0  0.00000000000E+00  0.00000000000E+00 -0.16856566436E+04  0.16856566436E+04  0.25500000920E-02 0.  1.
    10030    2    1    2    0    0  0.00000000000E+00  0.00000000000E+00  0.45677589197E+03  0.38280891792E+04  0.38007397370E+04 0.  0.
        4    1    3    3  502    0 -0.16849923756E+04 -0.67922419920E+03 -0.33317155758E+03  0.18470380934E+04  0.12699999809E+01 0. -1.
       -4    1    3    3    0  502  0.16849923756E+04  0.67922419920E+03  0.78994744956E+03  0.19810510858E+04  0.12699999809E+01 0.  1.
</event>
<event>
 5   0  0.1305088E-08  0.3804438E+04  0.7818609E-02  0.8045203E-01
       -2   -1    0    0    0  501  0.00000000000E+00  0.00000000000E+00  0.26464183905E+04  0.26464183905E+04  0.25500000920E-02 0.  1.
        2   -1    0    0  501    0  0.00000000000E+00  0.00000000000E+00 -0.13672962953E+04  0.13672962953E+04  0.25500000920E-02 0. -1.
    10030    2    1    2    0    0  0.00000000000E+00  0.00000000000E+00  0.12791220952E+04  0.40137146858E+04  0.38044384927E+04 0.  0.
        3    1    3    3  502    0 -0.14397113235E+03 -0.34640561930E+03 -0.13278849996E+04  0.13798561963E+04  0.10100000352E+00 0. -1.
       -3    1    3    3    0  502  0.14397113235E+03  0.34640561930E+03  0.26070070948E+04  0.26338584895E+04  0.10100000352E+00 0.  1.
</event>
<event>
 5   0  0.4071750E-09  0.3795959E+04  0.7818609E-02  0.8047023E-01
       -1   -1    0    0    0  501  0.00000000000E+00  0.00000000000E+00  0.17057701263E+04  0.17057701263E+04  0.50400001928E-02 0. -1.
        1   -1    0    0  501    0  0.00000000000E+00  0.00000000000E+00 -0.21118476389E+04  0.21118476389E+04  0.50400001928E-02 0.  1.
    10030    2    1    2    0    0  0.00000000000E+00  0.00000000000E+00 -0.40607751258E+03  0.38176177652E+04  0.37959592272E+04 0.  0.
        4    1    3    3  502    0 -0.18074436441E+04 -0.57439973580E+03 -0.27787716461E+03  0.19167693953E+04  0.12699999809E+01 0.  1.
       -4    1    3    3    0  502  0.18074436441E+04  0.57439973580E+03 -0.12820034797E+03  0.19008483699E+04  0.12699999809E+01 0. -1.
</event>
<event>
 5   0  0.4071750E-09  0.3801703E+04  0.7818609E-02  0.8045789E-01
        1   -1    0    0  501    0  0.00000000000E+00  0.00000000000E+00  0.19271391626E+04  0.19271391626E+04  0.50400001928E-02 0.  1.
       -1   -1    0    0    0  501  0.00000000000E+00  0.00000000000E+00 -0.18749225403E+04  0.18749225404E+04  0.50400001928E-02 0. -1.
    10030    2    1    2    0    0  0.00000000000E+00  0.00000000000E+00  0.52216622258E+02  0.38020617030E+04  0.38017031206E+04 0.  0.
        2    1    3    3  502    0 -0.11466708077E+04 -0.13373285477E+04  0.74027304622E+03  0.19108390222E+04  0.25500000920E-02 0.  1.
       -2    1    3    3    0  502  0.11466708077E+04  0.13373285477E+04 -0.68805642396E+03  0.18912226808E+04  0.25500000920E-02 0. -1.
</event>
<event>
 5   0  0.1293993E-08  0.3799923E+04  0.7818609E-02  0.8046171E-01
        2   -1    0    0  501    0  0.00000000000E+00  0.00000000000E+00  0.13153303776E+04  0.13153303776E+04  0.25500000920E-02 0.  1.
       -2   -1    0    0    0  501  0.00000000000E+00  0.00000000000E+00 -0.27444470941E+04  0.27444470941E+04  0.25500000920E-02 0. -1.
    10030    2    1    2    0    0  0.00000000000E+00  0.00000000000E+00 -0.14291167165E+04  0.40597774717E+04  0.37999234900E+04 0.  0.
        5    1    3    3  502    0 -0.13799144324E+04 -0.13344796349E+03 -0.21025780631E+04  0.25184973300E+04  0.46999998093E+01 0. -1.
       -5    1    3    3    0  502  0.13799144324E+04  0.13344796349E+03  0.67346134660E+03  0.15412801417E+04  0.46999998093E+01 0.  1.
</event>
<event>
 5   0  0.4071750E-09  0.3798842E+04  0.7818609E-02  0.8046403E-01
       -1   -1    0    0    0  501  0.00000000000E+00  0.00000000000E+00  0.17475062160E+04  0.17475062160E+04  0.50400001928E-02 0.  1.
        1   -1    0    0  501    0  0.00000000000E+00  0.00000000000E+00 -0.20645419646E+04  0.20645419647E+04  0.50400001928E-02 0. -1.
    10030    2    1    2    0    0  0.00000000000E+00  0.00000000000E+00 -0.31703574868E+03  0.38120481806E+04  0.37988418848E+04 0.  0.
        1    1    3    3  502    0 -0.11073248684E+04  0.12427781074E+04 -0.10766489500E+04  0.19823820898E+04  0.50400001928E-02 0. -1.
       -1    1    3    3    0  502  0.11073248684E+04 -0.12427781074E+04  0.75961320127E+03  0.18296660908E+04  0.50400001928E-02 0.  1.
</event>
<event>
 5   0  0.1305088E-08  0.3804014E+04  0.7818609E-02  0.8045294E-01
       -2   -1    0    0    0  501  0.00000000000E+00  0.00000000000E+00  0.32481727236E+04  0.32481727236E+04  0.25500000920E-02 0. -1.
        2   -1    0    0  501    0  0.00000000000E+00  0.00000000000E+00 -0.11137430505E+04  0.11137430505E+04  0.25500000920E-02 0.  1.
    10030    2    1    2    0    0  0.00000000000E+00  0.00000000000E+00  0.21344296730E+04  0.43619157741E+04  0.38040135635E+04 0.  0.
        3    1    3    3  502    0 -0.10697665640E+04  0.15642108548E+04  0.88064456637E+03  0.20896628824E+04  0.10100000352E+00 0. -1.
       -3    1    3    3    0  502  0.10697665640E+04 -0.15642108548E+04  0.12537851067E+04  0.22722528917E+04  0.10100000352E+00 0.  1.
</event>
<event>
 5   0  0.4071750E-09  0.3799914E+04  0.7818609E-02  0.8046173E-01
        1   -1    0    0  501    0  0.00000000000E+00  0.00000000000E+00  0.12465490514E+04  0.12465490514E+04  0.50400001928E-02 0.  1.
       -1   -1    0    0    0  501  0.00000000000E+00  0.00000000000E+00 -0.28958644513E+04  0.28958644513E+04  0.50400001928E-02 0. -1.
    10030    2    1    2    0    0  0.00000000000E+00  0.00000000000E+00 -0.16493153998E+04  0.41424135027E+04  0.37999142542E+04 0.  0.
        2    1    3    3  502    0 -0.50836860294E+03 -0.13066406737E+03 -0.28152560468E+04  0.28637699530E+04  0.25500000920E-02 0. -1.
       -2    1    3    3    0  502  0.50836860294E+03  0.13066406737E+03  0.11659406469E+04  0.12786435497E+04  0.25500000920E-02 0.  1.
</event>
<event>
 5   0  0.4071750E-09  0.3800252E+04  0.7818609E-02  0.8046101E-01
        1   -1    0    0  501    0  0.00000000000E+00  0.00000000000E+00  0.27529370254E+04  0.27529370254E+04  0.50400001928E-02 0. -1.
       -1   -1    0    0    0  501  0.00000000000E+00  0.00000000000E+00 -0.13115009170E+04  0.13115009170E+04  0.50400001928E-02 0.  1.
    10030    2    1    2    0    0  0.00000000000E+00  0.00000000000E+00  0.14414361084E+04  0.40644379424E+04  0.38002523249E+04 0.  0.
        4    1    3    3  502    0  0.93873521543E+03  0.33834880010E+03  0.24501566675E+04  0.26455572236E+04  0.12699999809E+01 0. -1.
       -4    1    3    3    0  502 -0.93873521543E+03 -0.33834880010E+03 -0.10087205590E+04  0.14188807189E+04  0.12699999809E+01 0.  1.
</event>
<event>
 5   0  0.1264013E-08  0.3801078E+04  0.7818609E-02  0.8045924E-01
        2   -1    0    0  501    0  0.00000000000E+00  0.00000000000E+00  0.20253955601E+04  0.20253955601E+04  0.25500000920E-02 0.  1.
       -2   -1    0    0    0  501  0.00000000000E+00  0.00000000000E+00 -0.17833790074E+04  0.17833790074E+04  0.25500000920E-02 0. -1.
    10030    2    1    2    0    0  0.00000000000E+00  0.00000000000E+00  0.24201655263E+03  0.38087745675E+04  0.38010777017E+04 0.  0.
        4    1    3    3  502    0 -0.19078289411E+03 -0.20863331305E+03  0.20042075012E+04  0.20240492318E+04  0.12699999809E+01 0.  1.
       -4    1    3    3    0  502  0.19078289411E+03  0.20863331305E+03 -0.17621909485E+04  0.17847253357E+04  0.12699999809E+01 0. -1.
</event>
<event>
 5   0  0.4071750E-09  0.3801845E+04  0.7818609E-02  0.8045759E-01
       -1   -1    0    0    0  501  0.00000000000E+00  0.00000000000E+00  0.19195504268E+04  0.19195504269E+04  0.50400001928E-02 0.  1.
        1   -1    0    0  501    0  0.00000000000E+00  0.00000000000E+00 -0.18824756473E+04  0.18824756473E+04  0.50400001928E-02 0. -1.
    10030    2    1    2    0    0  0.00000000000E+00  0.00000000000E+00  0.37074779534E+02  0.38020260742E+04  0.38018453058E+04 0.  0.
        5    1    3    3  502    0  0.23270973328E+03 -0.37710764397E+03 -0.18300961072E+04  0.18829864171E+04  0.46999998093E+01 0. -1.
       -5    1    3    3    0  502 -0.23270973328E+03  0.37710764397E+03  0.18671708868E+04  0.19190396571E+04  0.46999998093E+01 0.  1.
</event>
<event>
 5   0  0.1261152E-08  0.3800467E+04  0.7818609E-02  0.8046055E-01
        2   -1    0    0  501    0  0.00000000000E+00  0.00000000000E+00  0.13820942992E+04  0.13820942992E+04  0.25500000920E-02 0.  1.
       -2   -1    0    0    0  501  0.00000000000E+00  0.00000000000E+00 -0.26126207442E+04  0.26126207442E+04  0.25500000920E-02 0. -1.
    10030    2    1    2    0    0  0.00000000000E+00  0.00000000000E+00 -0.12305264450E+04  0.39947150433E+04  0.38004674641E+04 0.  0.
        2    1    3    3  502    0 -0.26832879271E+03 -0.15643816087E+04 -0.17134600057E+04  0.23356445256E+04  0.25500000920E-02 0. -1.
       -2    1    3    3    0  502  0.26832879271E+03  0.15643816087E+04  0.48293356070E+03  0.16590705177E+04  0.25500000920E-02 0.  1.
</event>
<event>
 5   0  0.4071750E-09  0.3799977E+04  0.7818609E-02  0.8046160E-01
       -1   -1    0    0    0  501  0.00000000000E+00  0.00000000000E+00  0.22692328113E+04  0.22692328113E+04  0.50400001928E-02 0. -1.
        1   -1    0    0  501    0  0.00000000000E+00  0.00000000000E+00 -0.15908264953E+04  0.15908264953E+04  0.50400001928E-02 0.  1.
    10030    2    1    2    0    0  0.00000000000E+00  0.00000000000E+00  0.67840631597E+03  0.38600593066E+04  0.37999766738E+04 0.  0.
        4    1    3    3  502    0  0.26320816937E+03  0.42342127277E+03  0.22016011529E+04  0.22573465317E+04  0.12699999809E+01 0. -1.
       -4    1    3    3    0  502 -0.26320816937E+03 -0.42342127277E+03 -0.15231948370E+04  0.16027127749E+04  0.12699999809E+01 0.  1.
</event>
<event>
 5   0  0.4071750E-09  0.3800759E+04  0.7818609E-02  0.8045992E-01
        1   -1    0    0  501    0  0.00000000000E+00  0.00000000000E+00  0.11892950322E+04  0.11892950322E+04  0.50400001928E-02 0. -1.
       -1   -1    0    0    0  501  0.00000000000E+00  0.00000000000E+00 -0.30366247588E+04  0.30366247588E+04  0.50400001928E-02 0.  1.
    10030    2    1    2    0    0  0.00000000000E+00  0.00000000000E+00 -0.18473297266E+04  0.42259197910E+04  0.38007592612E+04 0.  0.
        1    1    3    3  502    0 -0.60369254163E+03 -0.10354701642E+04  0.71602045898E+03  0.13961835278E+04  0.50400001928E-02 0. -1.
       -1    1    3    3    0  502  0.60369254163E+03  0.10354701642E+04 -0.25633501855E+04  0.28297362632E+04  0.50400001928E-02 0.  1.
</event>
<event>
 5   0  0.1261152E-08  0.3801758E+04  0.7818609E-02  0.8045778E-01
       -2   -1    0    0    0  501  0.00000000000E+00  0.00000000000E+00  0.30140590419E+04  0.30140590419E+04  0.25500000920E-02 0. -1.
        2   -1    0    0  501    0  0.00000000000E+00  0.00000000000E+00 -0.11988287426E+04  0.11988287426E+04  0.25500000920E-02 0.  1.
    10030    2    1    2    0    0  0.00000000000E+00  0.00000000000E+00  0.18152302993E+04  0.42128877844E+04  0.38017578099E+04 0.  0.
        2    1    3    3  502    0  0.11076271492E+04 -0.12182124143E+04  0.19603275039E+04  0.25600318964E+04  0.25500000920E-02 0. -1.
       -2    1    3    3    0  502 -0.11076271492E+04  0.12182124143E+04 -0.14509720460E+03  0.16528558881E+04  0.25500000920E-02 0.  1.
</event>
<event>
 5   0  0.1264013E-08  0.3793083E+04  0.7818609E-02  0.8047641E-01
       -2   -1    0    0    0  501  0.00000000000E+00  0.00000000000E+00  0.17417983466E+04  0.17417983466E+04  0.25500000920E-02 0.  1.
        2   -1    0    0  501    0  0.00000000000E+00  0.00000000000E+00 -0.20650320262E+04  0.20650320262E+04  0.25500000920E-02 0. -1.
    10030    2    1    2    0    0  0.00000000000E+00  0.00000000000E+00 -0.32323367966E+03  0.38068303728E+04  0.37930828459E+04 0.  0.
        4    1    3    3  502    0 -0.67966213658E+03 -0.70528185570E+03 -0.17915425620E+04  0.20418103438E+04  0.12699999809E+01 0. -1.
       -4    1    3    3    0  502  0.67966213658E+03  0.70528185570E+03  0.14683088823E+04  0.17650200290E+04  0.12699999809E+01 0.  1.
</event>
<event>
 5   0  0.4071750E-09  0.3795443E+04  0.7818609E-02  0.8047134E-01
        1   -1    0    0  501    0  0.00000000000E+00  0.00000000000E+00  0.20859528711E+04  0.20859528711E+04  0.50400001928E-02 0.  1.
       -1   -1    0    0    0  501  0.00000000000E+00  0.00000000000E+00 -0.17264755125E+04  0.17264755125E+04  0.50400001928E-02 0. -1.
    10030    2    1    2    0    0  0.00000000000E+00  0.00000000000E+00  0.35947735859E+03  0.38124283835E+04  0.37954428211E+04 0.  0.
        2    1    3    3  502    0  0.45995479816E+03 -0.66718668642E+02  0.20279012872E+04  0.20804791341E+04  0.25500000920E-02 0.  1.
       -2    1    3    3    0  502 -0.45995479816E+03  0.66718668642E+02 -0.16684239286E+04  0.17319492494E+04  0.25500000920E-02 0. -1.
</event>
<event>
 5   0  0.4071750E-09  0.3801141E+04  0.7818609E-02  0.8045910E-01
       -1   -1    0    0    0  501  0.00000000000E+00  0.00000000000E+00  0.18583069512E+04  0.18583069512E+04  0.50400001928E-02 0.  1.
        1   -1    0    0  501    0  0.00000000000E+00  0.00000000000E+00 -0.19437951414E+04  0.19437951415E+04  0.50400001928E-02 0. -1.
    10030    2    1    2    0    0  0.00000000000E+00  0.00000000000E+00 -0.85488190210E+02  0.38021020927E+04  0.38011408936E+04 0.  0.
        1    1    3    3  502    0 -0.80695821852E+03 -0.59701423907E+02  0.16774065029E+04  0.18623743991E+04  0.50400001928E-02 0.  1.
       -1    1    3    3    0  502  0.80695821852E+03  0.59701423907E+02 -0.17628946931E+04  0.19397276936E+04  0.50400001928E-02 0. -1.
</event>
<event>
 5   0  0.4071750E-09  0.3801489E+04  0.7818609E-02  0.8045835E-01
        1   -1    0    0  501    0  0.00000000000E+00  0.00000000000E+00  0.26753271243E+04  0.26753271244E+04  0.50400001928E-02 0. -1.
       -1   -1    0    0    0  501  0.00000000000E+00  0.00000000000E+00 -0.13504253929E+04  0.13504253929E+04  0.50400001928E-02 0.  1.
    10030    2    1    2    0    0  0.00000000000E+00  0.00000000000E+00  0.13249017315E+04  0.40257525172E+04  0.38014890151E+04 0.  0.
        1    1    3    3  502    0  0.91843284787E+02 -0.14236677895E+04 -0.66765711202E+03  0.15751289418E+04  0.50400001928E-02 0.  1.
       -1    1    3    3    0  502 -0.91843284787E+02  0.14236677895E+04  0.19925588435E+04  0.24506235755E+04  0.50400001928E-02 0. -1.
</event>
<event>
 5   0  0.1264013E-08  0.3797151E+04  0.7818609E-02  0.8046767E-01
        2   -1    0    0  501    0  0.00000000000E+00  0.00000000000E+00  0.30305620774E+04  0.30305620774E+04  0.25500000920E-02 0.  1.
       -2   -1    0    0    0  501  0.00000000000E+00  0.00000000000E+00 -0.11894125804E+04  0.11894125804E+04  0.25500000920E-02 0. -1.
    10030    2    1    2    0    0  0.00000000000E+00  0.00000000000E+00  0.18411494970E+04  0.42199746578E+04  0.37971508585E+04 0.  0.
        4    1    3    3  502    0 -0.56564858466E+03 -0.11027142850E+04  0.25190116341E+04  0.28073757036E+04  0.12699999809E+01 0. -1.
       -4    1    3    3    0  502  0.56564858466E+03  0.11027142850E+04 -0.67786213705E+03  0.14125989542E+04  0.12699999809E+01 0.  1.
</event>
<event>
 5   0  0.4071750E-09  0.3798436E+04  0.7818609E-02  0.8046491E-01
        1   -1    0    0  501    0  0.00000000000E+00  0.00000000000E+00  0.23897804530E+04  0.23897804530E+04  0.50400001928E-02 0. -1.
       -1   -1    0    0    0  501  0.00000000000E+00  0.00000000000E+00 -0.15093555941E+04  0.15093555941E+04  0.50400001928E-02 0.  1.
    10030    2    1    2    0    0  0.00000000000E+00  0.00000000000E+00  0.88042485895E+03  0.38991360471E+04  0.37984357282E+04 0.  0.
        3    1    3    3  502    0 -0.96664136380E+03 -0.11958862967E+04  0.15844333117E+04  0.22079330810E+04  0.10100000352E+00 0. -1.
       -3    1    3    3    0  502  0.96664136380E+03  0.11958862967E+04 -0.70400845276E+03  0.16912029661E+04  0.10100000352E+00 0.  1.
</event>
<event>
 5   0  0.4071750E-09  0.3800222E+04  0.7818609E-02  0.8046107E-01
        1   -1    0    0  501    0  0.00000000000E+00  0.00000000000E+00  0.29418022476E+04  0.29418022476E+04  0.50400001928E-02 0.  1.
       -1   -1    0    0    0  501  0.00000000000E+00  0.00000000000E+00 -0.12272820173E+04  0.12272820173E+04  0.50400001928E-02 0. -1.
    10030    2    1    2    0    0  0.00000000000E+00  0.00000000000E+00  0.17145202303E+04  0.41690842649E+04  0.38002215708E+04 0.  0.
        1    1    3    3  502    0  0.91729219100E+03  0.10160671345E+04 -0.58845294472E+03  0.14899980717E+04  0.50400001928E-02 0. -1.
       -1    1    3    3    0  502 -0.91729219100E+03 -0.10160671345E+04  0.23029731751E+04  0.26790861932E+04  0.50400001928E-02 0.  1.
</event>
<event>
 5   0  0.4071750E-09  0.3798647E+04  0.7818609E-02  0.8046445E-01
        1   -1    0    0  501    0  0.00000000000E+00  0.00000000000E+00  0.23445122155E+04  0.23445122155E+04  0.50400001928E-02 0. -1.
       -1   -1    0    0    0  501  0.00000000000E+00  0.00000000000E+00 -0.15386698656E+04  0.15386698656E+04  0.50400001928E-02 0.  1.
    10030    2    1    2    0    0  0.00000000000E+00  0.00000000000E+00  0.80584234989E+03  0.38831820811E+04  0.37986472832E+04 0.  0.
        1    1    3    3  502    0 -0.47739587969E+01 -0.60152154214E+03  0.22445618578E+04  0.23237704039E+04  0.50400001928E-02 0. -1.
       -1    1    3    3    0  502  0.47739587969E+01  0.60152154214E+03 -0.14387195080E+04  0.15594116772E+04  0.50400001928E-02 0.  1.
</event>
<event>
 5   0  0.1264013E-08  0.3801209E+04  0.7818609E-02  0.8045895E-01
       -2   -1    0    0    0  501  0.00000000000E+00  0.00000000000E+00  0.14561025316E+04  0.14561025316E+04  0.25500000920E-02 0. -1.
        2   -1    0    0  501    0  0.00000000000E+00  0.00000000000E+00 -0.24807994605E+04  0.24807994605E+04  0.25500000920E-02 0.  1.
    10030    2    1    2    0    0  0.00000000000E+00  0.00000000000E+00 -0.10246969290E+04  0.39369019921E+04  0.38012094785E+04 0.  0.
        4    1    3    3  502    0 -0.92444456852E+03  0.64411625852E+03 -0.20976126032E+04  0.23810635777E+04  0.12699999809E+01 0.  1.
       -4    1    3    3    0  502  0.92444456852E+03 -0.64411625852E+03  0.10729156743E+04  0.15558384144E+04  0.12699999809E+01 0. -1.
</event>
<event>
 5   0  0.1305088E-08  0.3799654E+04  0.7818609E-02  0.8046229E-01
       -2   -1    0    0    0  501  0.00000000000E+00  0.00000000000E+00  0.16947489285E+04  0.16947489285E+04  0.25500000920E-02 0.  1.
        2   -1    0    0  501    0  0.00000000000E+00  0.00000000000E+00 -0.21297211155E+04  0.21297211156E+04  0.25500000920E-02 0. -1.
    10030    2    1    2    0    0  0.00000000000E+00  0.00000000000E+00 -0.43497218706E+03  0.38244700440E+04  0.37996539730E+04 0.  0.
        3    1    3    3  502    0 -0.18273810056E+04 -0.25145180868E+03  0.24022913271E+03  0.18601772491E+04  0.10100000352E+00 0.  1.
       -3    1    3    3    0  502  0.18273810056E+04  0.25145180868E+03 -0.67520131977E+03  0.19642927949E+04  0.10100000352E+00 0. -1.
</event>
<event>
 5   0  0.1293993E-08  0.3801707E+04  0.7818609E-02  0.8045789E-01
       -2   -1    0    0    0  501  0.00000000000E+00  0.00000000000E+00  0.18546507393E+04  0.18546507393E+04  0.25500000920E-02 0.  1.
        2   -1    0    0  501    0  0.00000000000E+00  0.00000000000E+00 -0.19482068263E+04  0.19482068263E+04  0.25500000920E-02 0. -1.
    10030    2    1    2    0    0  0.00000000000E+00  0.00000000000E+00 -0.93556086988E+02  0.38028575655E+04  0.38017065802E+04 0.  0.
        5    1    3    3  502    0 -0.11402933863E+04 -0.66369968412E+03  0.13220129648E+04  0.18677544396E+04  0.46999998093E+01 0.  1.
       -5    1    3    3    0  502  0.11402933863E+04  0.66369968412E+03 -0.14155690518E+04  0.19351031259E+04  0.46999998093E+01 0. -1.
</event>
<event>
 5   0  0.1305088E-08  0.3798615E+04  0.7818609E-02  0.8046452E-01
        2   -1    0    0  501    0  0.00000000000E+00  0.00000000000E+00  0.26089699615E+04  0.26089699615E+04  0.25500000920E-02 0. -1.
       -2   -1    0    0    0  501  0.00000000000E+00  0.00000000000E+00 -0.13826796224E+04  0.13826796224E+04  0.25500000920E-02 0.  1.
    10030    2    1    2    0    0  0.00000000000E+00  0.00000000000E+00  0.12262903391E+04  0.39916495840E+04  0.37986153274E+04 0.  0.
        3    1    3    3  502    0 -0.13212931870E+04  0.46712015452E+03 -0.73393201139E+03  0.15819839229E+04  0.10100000352E+00 0.  1.
       -3    1    3    3    0  502  0.13212931870E+04 -0.46712015452E+03  0.19602223505E+04  0.24096656611E+04  0.10100000352E+00 0. -1.
</event>
<event>
 5   0  0.4071750E-09  0.3799700E+04  0.7818609E-02  0.8046219E-01
        1   -1    0    0  501    0  0.00000000000E+00  0.00000000000E+00  0.22153782666E+04  0.22153782666E+04  0.50400001928E-02 0.  1.
       -1   -1    0    0    0  501  0.00000000000E+00  0.00000000000E+00 -0.16292612649E+04  0.16292612649E+04  0.50400001928E-02 0. -1.
    10030    2    1    2    0    0  0.00000000000E+00  0.00000000000E+00  0.58611700169E+03  0.38446395316E+04  0.37996999866E+04 0.  0.
        5    1    3    3  502    0 -0.14193174562E+04 -0.10693312934E+03 -0.98020088315E+03  0.17282108080E+04  0.46999998093E+01 0. -1.
       -5    1    3    3    0  502  0.14193174562E+04  0.10693312934E+03  0.15663178848E+04  0.21164287236E+04  0.46999998093E+01 0.  1.
</event>
<event>
 5   0  0.1293993E-08  0.3798604E+04  0.7818609E-02  0.8046454E-01
        2   -1    0    0  501    0  0.00000000000E+00  0.00000000000E+00  0.16812957072E+04  0.16812957072E+04  0.25500000920E-02 0.  1.
       -2   -1    0    0    0  501  0.00000000000E+00  0.00000000000E+00 -0.21455763698E+04  0.21455763698E+04  0.25500000920E-02 0. -1.
    10030    2    1    2    0    0  0.00000000000E+00  0.00000000000E+00 -0.46428066263E+03  0.38268720770E+04  0.37986041331E+04 0.  0.
        5    1    3    3  502    0 -0.69880996720E+03 -0.13397578303E+04 -0.13913725272E+04  0.20540754644E+04  0.46999998093E+01 0. -1.
       -5    1    3    3    0  502  0.69880996720E+03  0.13397578303E+04  0.92709186459E+03  0.17727966126E+04  0.46999998093E+01 0.  1.
</event>
<event>
 5   0  0.1261152E-08  0.3799419E+04  0.7818609E-02  0.8046280E-01
       -2   -1    0    0    0  501  0.00000000000E+00  0.00000000000E+00  0.11186307966E+04  0.11186307966E+04  0.25500000920E-02 0. -1.
        2   -1    0    0  501    0  0.00000000000E+00  0.00000000000E+00 -0.32261720312E+04  0.32261720312E+04  0.25500000920E-02 0.  1.
    10030    2    1    2    0    0  0.00000000000E+00  0.00000000000E+00 -0.21075412346E+04  0.43448028278E+04  0.37994185815E+04 0.  0.
        2    1    3    3  502    0 -0.15593016089E+04  0.10848764651E+04 -0.10277707055E+04  0.21597895905E+04  0.25500000920E-02 0. -1.
       -2    1    3    3    0  502  0.15593016089E+04 -0.10848764651E+04 -0.10797705290E+04  0.21850132373E+04  0.25500000920E-02 0.  1.
</event>
<event>
 5   0  0.1293993E-08  0.3800801E+04  0.7818609E-02  0.8045983E-01
        2   -1    0    0  501    0  0.00000000000E+00  0.00000000000E+00  0.17795708820E+04  0.17795708820E+04  0.25500000920E-02 0.  1.
       -2   -1    0    0    0  501  0.00000000000E+00  0.00000000000E+00 -0.20294338143E+04  0.20294338143E+04  0.25500000920E-02 0. -1.
    10030    2    1    2    0    0  0.00000000000E+00  0.00000000000E+00 -0.24986293229E+03  0.38090046964E+04  0.38008006120E+04 0.  0.
        5    1    3    3  502    0  0.63073716343E+03  0.11919329300E+03 -0.19174966408E+04  0.20220909643E+04  0.46999998093E+01 0. -1.
       -5    1    3    3    0  502 -0.63073716343E+03 -0.11919329300E+03  0.16676337085E+04  0.17869137321E+04  0.46999998093E+01 0.  1.
</event>
<event>
 5   0  0.4071750E-09  0.3799970E+04  0.7818609E-02  0.8046161E-01
        1   -1    0    0  501    0  0.00000000000E+00  0.00000000000E+00  0.23144474745E+04  0.23144474745E+04  0.50400001928E-02 0. -1.
       -1   -1    0    0    0  501  0.00000000000E+00  0.00000000000E+00 -0.15597428996E+04  0.15597428996E+04  0.50400001928E-02 0.  1.
    10030    2    1    2    0    0  0.00000000000E+00  0.00000000000E+00  0.75470457494E+03  0.38741903741E+04  0.37999700077E+04 0.  0.
        1    1    3    3  502    0  0.25384712467E+03 -0.15572440048E+04  0.14565621311E+04  0.21473286882E+04  0.50400001928E-02 0. -1.
       -1    1    3    3    0  502 -0.25384712467E+03  0.15572440048E+04 -0.70185755620E+03  0.17268616859E+04  0.50400001928E-02 0.  1.
</event>
<event>
 5   0  0.1261152E-08  0.3800092E+04  0.7818609E-02  0.8046135E-01
       -2   -1    0    0    0  501  0.00000000000E+00  0.00000000000E+00  0.25942550555E+04  0.25942550555E+04  0.25500000920E-02 0.  1.
        2   -1    0    0  501    0  0.00000000000E+00  0.00000000000E+00 -0.13916033819E+04  0.13916033819E+04  0.25500000920E-02 0. -1.
    10030    2    1    2    0    0  0.00000000000E+00  0.00000000000E+00  0.12026516736E+04  0.39858584374E+04  0.38000916350E+04 0.  0.
        2    1    3    3  502    0 -0.42602095898E+03  0.12334259804E+04  0.20499039790E+04  0.24300081954E+04  0.25500000920E-02 0. -1.
       -2    1    3    3    0  502  0.42602095898E+03 -0.12334259804E+04 -0.84725230533E+03  0.15558502420E+04  0.25500000920E-02 0.  1.
</event>
<event>
 5   0  0.4071750E-09  0.3794714E+04  0.7818609E-02  0.8047290E-01
        1   -1    0    0  501    0  0.00000000000E+00  0.00000000000E+00  0.16415610275E+04  0.16415610275E+04  0.50400001928E-02 0. -1.
       -1   -1    0    0    0  501  0.00000000000E+00  0.00000000000E+00 -0.21930120874E+04  0.21930120874E+04  0.50400001928E-02 0.  1.
    10030    2    1    2    0    0  0.00000000000E+00  0.00000000000E+00 -0.55145105991E+03  0.38345731149E+04  0.37947137839E+04 0.  0.
        5    1    3    3  502    0 -0.35219565886E+03  0.45465676936E+03 -0.21028067274E+04  0.21800396287E+04  0.46999998093E+01 0.  1.
       -5    1    3    3    0  502  0.35219565886E+03 -0.45465676936E+03  0.15513556675E+04  0.16545334862E+04  0.46999998093E+01 0. -1.
</event>
<event>
 5   0  0.4071750E-09  0.3810658E+04  0.7818609E-02  0.8043872E-01
        1   -1    0    0  501    0  0.00000000000E+00  0.00000000000E+00  0.28963156336E+04  0.28963156336E+04  0.50400001928E-02 0. -1.
       -1   -1    0    0    0  501  0.00000000000E+00  0.00000000000E+00 -0.12534125875E+04  0.12534125876E+04  0.50400001928E-02 0.  1.
    10030    2    1    2    0    0  0.00000000000E+00  0.00000000000E+00  0.16429030461E+04  0.41497282212E+04  0.38106579341E+04 0.  0.
        3    1    3    3  502    0 -0.18350844979E+04  0.75831018607E+01  0.13795849377E+04  0.22958325785E+04  0.10100000352E+00 0.  1.
       -3    1    3    3    0  502  0.18350844979E+04 -0.75831018607E+01  0.26331810838E+03  0.18538956427E+04  0.10100000352E+00 0. -1.
</event>
<event>
 5   0  0.1264013E-08  0.3800338E+04  0.7818609E-02  0.8046082E-01
       -2   -1    0    0    0  501  0.00000000000E+00  0.00000000000E+00  0.11592253578E+04  0.11592253578E+04  0.25500000920E-02 0.  1.
        2   -1    0    0  501    0  0.00000000000E+00  0.00000000000E+00 -0.31147025394E+04  0.31147025394E+04  0.25500000920E-02 0. -1.
    10030    2    1    2    0    0  0.00000000000E+00  0.00000000000E+00 -0.19554771816E+04  0.42739278972E+04  0.38003379669E+04 0.  0.
        4    1    3    3  502    0 -0.14513444703E+04 -0.57761518264E+03  0.23903372493E+03  0.15802464382E+04  0.12699999809E+01 0.  1.
       -4    1    3    3    0  502  0.14513444703E+04  0.57761518264E+03 -0.21945109065E+04  0.26936814590E+04  0.12699999809E+01 0. -1.
</event>
<event>
 5   0  0.4071750E-09  0.3805616E+04  0.7818609E-02  0.8044951E-01
        1   -1    0    0  501    0  0.00000000000E+00  0.00000000000E+00  0.24064952738E+04  0.24064952738E+04  0.50400001928E-02 0.  1.
       -1   -1    0    0    0  501  0.00000000000E+00  0.00000000000E+00 -0.15045441252E+04  0.15045441252E+04  0.50400001928E-02 0. -1.
    10030    2    1    2    0    0  0.00000000000E+00  0.00000000000E+00  0.90195114863E+03  0.39110393990E+04  0.38056160219E+04 0.  0.
        5    1    3    3  502    0  0.93938328806E+03 -0.58444765685E+02 -0.12485588620E+04  0.15635786116E+04  0.46999998093E+01 0. -1.
       -5    1    3    3    0  502 -0.93938328806E+03  0.58444765685E+02  0.21505100107E+04  0.23474607874E+04  0.46999998093E+01 0.  1.
</event>
<event>
 5   0  0.4071750E-09  0.3800221E+04  0.7818609E-02  0.8046107E-01
       -1   -1    0    0    0  501  0.00000000000E+00  0.00000000000E+00  0.21344396033E+04  0.21344396033E+04  0.50400001928E-02 0. -1.
        1   -1    0    0  501    0  0.00000000000E+00  0.00000000000E+00 -0.16915073591E+04  0.16915073591E+04  0.50400001928E-02 0.  1.
    10030    2    1    2    0    0  0.00000000000E+00  0.00000000000E+00  0.44293224427E+03  0.38259469624E+04  0.38002212022E+04 0.  0.
        1    1    3    3  502    0  0.50713160627E+03 -0.77170691859E+03  0.18933421522E+04  0.21065276024E+04  0.50400001928E-02 0. -1.
       -1    1    3    3    0  502 -0.50713160627E+03  0.77170691859E+03 -0.14504099080E+04  0.17194193600E+04  0.50400001928E-02 0.  1.
</event>
<event>
 5   0  0.4071750E-09  0.3785525E+04  0.7818609E-02  0.8049268E-01
        1   -1    0    0  501    0  0.00000000000E+00  0.00000000000E+00  0.23278983310E+04  0.23278983310E+04  0.50400001928E-02 0.  1.
       -1   -1    0    0    0  501  0.00000000000E+00  0.00000000000E+00 -0.15389634538E+04  0.15389634538E+04  0.50400001928E-02 0. -1.
    10030    2    1    2    0    0  0.00000000000E+00  0.00000000000E+00  0.78893487714E+03  0.38668617848E+04  0.37855253034E+04 0.  0.
        5    1    3    3  502    0  0.13762043383E+03  0.14785829681E+04  0.15933029552E+04  0.21780228131E+04  0.46999998093E+01 0.  1.
       -5    1    3    3    0  502 -0.13762043383E+03 -0.14785829681E+04 -0.80436807802E+03  0.16888389717E+04  0.46999998093E+01 0. -1.
</event>
<event>
 5   0  0.1293993E-08  0.3798932E+04  0.7818609E-02  0.8046384E-01
        2   -1    0    0  501    0  0.00000000000E+00  0.00000000000E+00  0.25384463271E+04  0.25384463271E+04  0.25500000920E-02 0. -1.
       -2   -1    0    0    0  501  0.00000000000E+00  0.00000000000E+00 -0.14213304025E+04  0.14213304025E+04  0.25500000920E-02 0.  1.
    10030    2    1    2    0    0  0.00000000000E+00  0.00000000000E+00  0.11171159246E+04  0.39597767296E+04  0.37989319235E+04 0.  0.
        5    1    3    3  502    0 -0.77293843796E+03 -0.13306616934E+04 -0.60207405149E+03  0.16524556347E+04  0.46999998093E+01 0.  1.
       -5    1    3    3    0  502  0.77293843796E+03  0.13306616934E+04  0.17191899761E+04  0.23073210949E+04  0.46999998093E+01 0. -1.
</event>
<event>
 5   0  0.4071750E-09  0.3799829E+04  0.7818609E-02  0.8046192E-01
       -1   -1    0    0    0  501  0.00000000000E+00  0.00000000000E+00  0.19198474406E+04  0.19198474406E+04  0.50400001928E-02 0. -1.
        1   -1    0    0  501    0  0.00000000000E+00  0.00000000000E+00 -0.18801884429E+04  0.18801884429E+04  0.50400001928E-02 0.  1.
    10030    2    1    2    0    0  0.00000000000E+00  0.00000000000E+00  0.39658997667E+02  0.38000358835E+04  0.37998289277E+04 0.  0.
        1    1    3    3  502    0 -0.16882851667E+04 -0.70230896518E+03 -0.49607676515E+03  0.18946336965E+04  0.50400001928E-02 0.  1.
       -1    1    3    3    0  502  0.16882851667E+04  0.70230896518E+03  0.53573576282E+03  0.19054021870E+04  0.50400001928E-02 0. -1.
</event>
<event>
 5   0  0.4071750E-09  0.3798475E+04  0.7818609E-02  0.8046482E-01
        3   -1    0    0  501    0  0.00000000000E+00  0.00000000000E+00  0.14724879271E+04  0.14724879306E+04  0.10100000352E+00 0.  1.
       -3   -1    0    0    0  501  0.00000000000E+00  0.00000000000E+00 -0.24496656396E+04  0.24496656417E+04  0.10100000352E+00 0. -1.
    10030    2    1    2    0    0  0.00000000000E+00  0.00000000000E+00 -0.97717771251E+03  0.39221535723E+04  0.37984750049E+04 0.  0.
        5    1    3    3  502    0 -0.76252164302E+03  0.67340034307E+02 -0.22833157874E+04  0.24082207148E+04  0.46999998093E+01 0. -1.
       -5    1    3    3    0  502  0.76252164302E+03 -0.67340034307E+02  0.13061380749E+04  0.15139328575E+04  0.46999998093E+01 0.  1.
</event>
<event>
 5   0  0.1293993E-08  0.3798242E+04  0.7818609E-02  0.8046532E-01
       -2   -1    0    0    0  501  0.00000000000E+00  0.00000000000E+00  0.16284094944E+04  0.16284094944E+04  0.25500000920E-02 0.  1.
        2   -1    0    0  501    0  0.00000000000E+00  0.00000000000E+00 -0.22148364013E+04  0.22148364013E+04  0.25500000920E-02 0. -1.
    10030    2    1    2    0    0  0.00000000000E+00  0.00000000000E+00 -0.58642690688E+03  0.38432458956E+04  0.37982420272E+04 0.  0.
        5    1    3    3  502    0 -0.44992941589E+03  0.16193632269E+04  0.60149464070E+03  0.17851026953E+04  0.46999998093E+01 0.  1.
       -5    1    3    3    0  502  0.44992941589E+03 -0.16193632269E+04 -0.11879215476E+04  0.20581432003E+04  0.46999998093E+01 0. -1.
</event>
<event>
 5   0  0.4071750E-09  0.3811484E+04  0.7818609E-02  0.8043695E-01
       -1   -1    0    0    0  501  0.00000000000E+00  0.00000000000E+00  0.14839205589E+04  0.14839205590E+04  0.50400001928E-02 0.  1.
        1   -1    0    0  501    0  0.00000000000E+00  0.00000000000E+00 -0.24474706579E+04  0.24474706579E+04  0.50400001928E-02 0. -1.
    10030    2    1    2    0    0  0.00000000000E+00  0.00000000000E+00 -0.96355009892E+03  0.39313912168E+04  0.38114837146E+04 0.  0.
        5    1    3    3  502    0 -0.15565374728E+04  0.17462643420E+03  0.63797707929E+03  0.16912540138E+04  0.46999998093E+01 0.  1.
       -5    1    3    3    0  502  0.15565374728E+04 -0.17462643420E+03 -0.16015271782E+04  0.22401372030E+04  0.46999998093E+01 0. -1.
</event>
<event>
 5   0  0.1264013E-08  0.3798489E+04  0.7818609E-02  0.8046479E-01
       -2   -1    0    0    0  501  0.00000000000E+00  0.00000000000E+00  0.10723947360E+04  0.10723947360E+04  0.25500000920E-02 0. -1.
        2   -1    0    0  501    0  0.00000000000E+00  0.00000000000E+00 -0.33636215893E+04  0.33636215893E+04  0.25500000920E-02 0.  1.
    10030    2    1    2    0    0  0.00000000000E+00  0.00000000000E+00 -0.22912268533E+04  0.44360163253E+04  0.37984892188E+04 0.  0.
        4    1    3    3  502    0 -0.16191401025E+04 -0.38657062274E+03 -0.22134514089E+04  0.27695523592E+04  0.12699999809E+01 0. -1.
       -4    1    3    3    0  502  0.16191401025E+04  0.38657062274E+03 -0.77775444346E+02  0.16664639661E+04  0.12699999809E+01 0.  1.
</event>
<event>
 5   0  0.4071750E-09  0.3798495E+04  0.7818609E-02  0.8046478E-01
       -1   -1    0    0    0  501  0.00000000000E+00  0.00000000000E+00  0.28305917640E+04  0.28305917640E+04  0.50400001928E-02 0.  1.
        1   -1    0    0  501    0  0.00000000000E+00  0.00000000000E+00 -0.12743414496E+04  0.12743414496E+04  0.50400001928E-02 0. -1.
    10030    2    1    2    0    0  0.00000000000E+00  0.00000000000E+00  0.15562503144E+04  0.41049332136E+04  0.37984946554E+04 0.  0.
        4    1    3    3  502    0  0.14279440252E+04  0.12517795081E+04  0.81497474954E+03  0.20664369168E+04  0.12699999809E+01 0.  1.
       -4    1    3    3    0  502 -0.14279440252E+04 -0.12517795081E+04  0.74127556485E+03  0.20384962968E+04  0.12699999809E+01 0. -1.
</event>
<event>
 5   0  0.4071750E-09  0.3798846E+04  0.7818609E-02  0.8046403E-01
        1   -1    0    0  501    0  0.00000000000E+00  0.00000000000E+00  0.21099003350E+04  0.21099003350E+04  0.50400001928E-02 0.  1.
       -1   -1    0    0    0  501  0.00000000000E+00  0.00000000000E+00 -0.17099424775E+04  0.17099424775E+04  0.50400001928E-02 0. -1.
    10030    2    1    2    0    0  0.00000000000E+00  0.00000000000E+00  0.39995785743E+03  0.38198428125E+04  0.37988462491E+04 0.  0.
        2    1    3    3  502    0 -0.94768907473E+03 -0.30969875934E+03  0.18256336723E+04  0.20801361036E+04  0.25500000920E-02 0.  1.
       -2    1    3    3    0  502  0.94768907473E+03  0.30969875934E+03 -0.14256758149E+04  0.17397067089E+04  0.25500000920E-02 0. -1.
</event>
<event>
 5   0  0.4071750E-09  0.3802480E+04  0.7818609E-02  0.8045623E-01
       -1   -1    0    0    0  501  0.00000000000E+00  0.00000000000E+00  0.20013103461E+04  0.20013103461E+04  0.50400001928E-02 0.  1.
        1   -1    0    0  501    0  0.00000000000E+00  0.00000000000E+00 -0.18061731177E+04  0.18061731177E+04  0.50400001928E-02 0. -1.
    10030    2    1    2    0    0  0.00000000000E+00  0.00000000000E+00  0.19513722839E+03  0.38074834638E+04  0.38024796895E+04 0.  0.
        3    1    3    3  502    0  0.73710853159E+03  0.10224912974E+03  0.18494219944E+04  0.19935259204E+04  0.10100000352E+00 0.  1.
       -3    1    3    3    0  502 -0.73710853159E+03 -0.10224912974E+03 -0.16542847660E+04  0.18139575434E+04  0.10100000352E+00 0. -1.
</event>
<event>
 5   0  0.1305088E-08  0.3798889E+04  0.7818609E-02  0.8046393E-01
       -2   -1    0    0    0  501  0.00000000000E+00  0.00000000000E+00  0.19210922417E+04  0.19210922417E+04  0.25500000920E-02 0. -1.
        2   -1    0    0  501    0  0.00000000000E+00  0.00000000000E+00 -0.18780405229E+04  0.18780405229E+04  0.25500000920E-02 0.  1.
    10030    2    1    2    0    0  0.00000000000E+00  0.00000000000E+00  0.43051718837E+02  0.37991327646E+04  0.37988888261E+04 0.  0.
        3    1    3    3  502    0  0.21561020315E+03 -0.11773862307E+03 -0.18620862389E+04  0.18782213166E+04  0.10100000352E+00 0.  1.
       -3    1    3    3    0  502 -0.21561020315E+03  0.11773862307E+03  0.19051379577E+04  0.19209114480E+04  0.10100000352E+00 0. -1.
</event>
<event>
 5   0  0.4071750E-09  0.3799985E+04  0.7818609E-02  0.8046158E-01
       -1   -1    0    0    0  501  0.00000000000E+00  0.00000000000E+00  0.20810457458E+04  0.20810457458E+04  0.50400001928E-02 0. -1.
        1   -1    0    0  501    0  0.00000000000E+00  0.00000000000E+00 -0.17346912769E+04  0.17346912769E+04  0.50400001928E-02 0.  1.
    10030    2    1    2    0    0  0.00000000000E+00  0.00000000000E+00  0.34635446892E+03  0.38157370227E+04  0.37999852116E+04 0.  0.
        2    1    3    3  502    0 -0.15131292043E+04  0.42483428992E+03 -0.89892250471E+03  0.18105540126E+04  0.25500000920E-02 0.  1.
       -2    1    3    3    0  502  0.15131292043E+04 -0.42483428992E+03  0.12452769736E+04  0.20051830101E+04  0.25500000920E-02 0. -1.
</event>
<event>
 5   0  0.4071750E-09  0.3797803E+04  0.7818609E-02  0.8046626E-01
       -1   -1    0    0    0  501  0.00000000000E+00  0.00000000000E+00  0.24287427523E+04  0.24287427523E+04  0.50400001928E-02 0. -1.
        1   -1    0    0  501    0  0.00000000000E+00  0.00000000000E+00 -0.14846477868E+04  0.14846477868E+04  0.50400001928E-02 0.  1.
    10030    2    1    2    0    0  0.00000000000E+00  0.00000000000E+00  0.94409496550E+03  0.39133905391E+04  0.37978033398E+04 0.  0.
        2    1    3    3  502    0 -0.98854750558E+03 -0.37158091156E+02  0.21422494611E+04  0.23596270146E+04  0.25500000920E-02 0. -1.
       -2    1    3    3    0  502  0.98854750558E+03  0.37158091156E+02 -0.11981544956E+04  0.15537635244E+04  0.25500000920E-02 0.  1.
</event>
<event>
 5   0  0.1293993E-08  0.3803303E+04  0.7818609E-02  0.8045446E-01
       -2   -1    0    0    0  501  0.00000000000E+00  0.00000000000E+00  0.14170593646E+04  0.14170593646E+04  0.25500000920E-02 0. -1.
        2   -1    0    0  501    0  0.00000000000E+00  0.00000000000E+00 -0.25519603420E+04  0.25519603420E+04  0.25500000920E-02 0.  1.
    10030    2    1    2    0    0  0.00000000000E+00  0.00000000000E+00 -0.11349009774E+04  0.39690197066E+04  0.38033034592E+04 0.  0.
        5    1    3    3  502    0  0.52242076728E+03  0.18141036959E+04 -0.80624726168E+03  0.20527913714E+04  0.46999998093E+01 0.  1.
       -5    1    3    3    0  502 -0.52242076728E+03 -0.18141036959E+04 -0.32865371576E+03  0.19162283352E+04  0.46999998093E+01 0. -1.
</event>
<event>
 5   0  0.1264013E-08  0.3799322E+04  0.7818609E-02  0.8046300E-01
       -2   -1    0    0    0  501  0.00000000000E+00  0.00000000000E+00  0.16640939658E+04  0.16640939658E+04  0.25500000920E-02 0. -1.
        2   -1    0    0  501    0  0.00000000000E+00  0.00000000000E+00 -0.21685741487E+04  0.21685741487E+04  0.25500000920E-02 0.  1.
    10030    2    1    2    0    0  0.00000000000E+00  0.00000000000E+00 -0.50448018292E+03  0.38326681144E+04  0.37993216000E+04 0.  0.
        4    1    3    3  502    0 -0.17583527059E+04 -0.42164695578E+02 -0.97626332088E+03  0.20116346051E+04  0.12699999809E+01 0.  1.
       -4    1    3    3    0  502  0.17583527059E+04  0.42164695578E+02  0.47178313796E+03  0.18210335093E+04  0.12699999809E+01 0. -1.
</event>
<event>
 5   0  0.4071750E-09  0.3800131E+04  0.7818609E-02  0.8046127E-01
        1   -1    0    0  501    0  0.00000000000E+00  0.00000000000E+00  0.26014246688E+04  0.26014246688E+04  0.50400001928E-02 0. -1.
       -1   -1    0    0    0  501  0.00000000000E+00  0.00000000000E+00 -0.13877966070E+04  0.13877966070E+04  0.50400001928E-02 0.  1.
    10030    2    1    2    0    0  0.00000000000E+00  0.00000000000E+00  0.12136280618E+04  0.39892212759E+04  0.38001306971E+04 0.  0.
        2    1    3    3  502    0  0.80713250617E+03  0.19571989057E+02 -0.11987721201E+04  0.14453029236E+04  0.25500000920E-02 0.  1.
       -2    1    3    3    0  502 -0.80713250617E+03 -0.19571989057E+02  0.24124001819E+04  0.25439183522E+04  0.25500000920E-02 0. -1.
</event>
<event>
 5   0  0.4071750E-09  0.3799555E+04  0.7818609E-02  0.8046250E-01
        1   -1    0    0  501    0  0.00000000000E+00  0.00000000000E+00  0.22578169712E+04  0.22578169712E+04  0.50400001928E-02 0. -1.
       -1   -1    0    0    0  501  0.00000000000E+00  0.00000000000E+00 -0.15985151550E+04  0.15985151550E+04  0.50400001928E-02 0.  1.
    10030    2    1    2    0    0  0.00000000000E+00  0.00000000000E+00  0.65930181617E+03  0.38563321262E+04  0.37995550507E+04 0.  0.
        3    1    3    3  502    0  0.12966076167E+04 -0.13670868159E+04  0.83044880155E+02  0.18860048081E+04  0.10100000352E+00 0. -1.
       -3    1    3    3    0  502 -0.12966076167E+04  0.13670868159E+04  0.57625693601E+03  0.19703273181E+04  0.10100000352E+00 0.  1.
</event>
<event>
 5   0  0.4071750E-09  0.3801351E+04  0.7818609E-02  0.8045865E-01
        1   -1    0    0  501    0  0.00000000000E+00  0.00000000000E+00  0.24921569636E+04  0.24921569636E+04  0.50400001928E-02 0. -1.
       -1   -1    0    0    0  501  0.00000000000E+00  0.00000000000E+00 -0.14495746052E+04  0.14495746052E+04  0.50400001928E-02 0.  1.
    10030    2    1    2    0    0  0.00000000000E+00  0.00000000000E+00  0.10425823584E+04  0.39417315688E+04  0.38013510475E+04 0.  0.
        5    1    3    3  502    0 -0.62142788065E+03 -0.70332031334E+03  0.22351167764E+04  0.24241702020E+04  0.46999998093E+01 0. -1.
       -5    1    3    3    0  502  0.62142788065E+03  0.70332031334E+03 -0.11925344180E+04  0.15175613668E+04  0.46999998093E+01 0.  1.
</event>
<event>
 5   0  0.1261152E-08  0.3799759E+04  0.7818609E-02  0.8046207E-01
       -2   -1    0    0    0  501  0.00000000000E+00  0.00000000000E+00  0.14769574950E+04  0.14769574950E+04  0.25500000920E-02 0. -1.
        2   -1    0    0  501    0  0.00000000000E+00  0.00000000000E+00 -0.24439038077E+04  0.24439038077E+04  0.25500000920E-02 0.  1.
    10030    2    1    2    0    0  0.00000000000E+00  0.00000000000E+00 -0.96694631263E+03  0.39208613027E+04  0.37997589639E+04 0.  0.
        2    1    3    3  502    0 -0.14965176576E+04  0.11685844467E+04 -0.55182117716E+03  0.19772863526E+04  0.25500000920E-02 0.  1.
       -2    1    3    3    0  502  0.14965176576E+04 -0.11685844467E+04 -0.41512513546E+03  0.19435749501E+04  0.25500000920E-02 0. -1.
</event>
<event>
 5   0  0.4071750E-09  0.3799874E+04  0.7818609E-02  0.8046182E-01
       -1   -1    0    0    0  501  0.00000000000E+00  0.00000000000E+00  0.21029572937E+04  0.21029572937E+04  0.50400001928E-02 0. -1.
        1   -1    0    0  501    0  0.00000000000E+00  0.00000000000E+00 -0.17165164897E+04  0.17165164897E+04  0.50400001928E-02 0.  1.
    10030    2    1    2    0    0  0.00000000000E+00  0.00000000000E+00  0.38644080407E+03  0.38194737834E+04  0.37998741410E+04 0.  0.
        1    1    3    3  502    0  0.18401963687E+04 -0.76996243034E+02  0.66200540607E+03  0.19571668949E+04  0.50400001928E-02 0.  1.
       -1    1    3    3    0  502 -0.18401963687E+04  0.76996243034E+02 -0.27556460200E+03  0.18623068885E+04  0.50400001928E-02 0. -1.
</event>
<event>
 5   0  0.1293993E-08  0.3799243E+04  0.7818609E-02  0.8046317E-01
        2   -1    0    0  501    0  0.00000000000E+00  0.00000000000E+00  0.19916311709E+04  0.19916311709E+04  0.25500000920E-02 0.  1.
       -2   -1    0    0    0  501  0.00000000000E+00  0.00000000000E+00 -0.18118627221E+04  0.18118627221E+04  0.25500000920E-02 0. -1.
    10030    2    1    2    0    0  0.00000000000E+00  0.00000000000E+00  0.17976844887E+03  0.38034938930E+04  0.37992432271E+04 0.  0.
        5    1    3    3  502    0  0.20436076883E+03  0.63352032730E+03 -0.16912715527E+04  0.18175623467E+04  0.46999998093E+01 0. -1.
       -5    1    3    3    0  502 -0.20436076883E+03 -0.63352032730E+03  0.18710400016E+04  0.19859315463E+04  0.46999998093E+01 0.  1.
</event>
<event>
 5   0  0.4071750E-09  0.3800167E+04  0.7818609E-02  0.8046119E-01
       -1   -1    0    0    0  501  0.00000000000E+00  0.00000000000E+00  0.15146578825E+04  0.15146578825E+04  0.50400001928E-02 0. -1.
        1   -1    0    0  501    0  0.00000000000E+00  0.00000000000E+00 -0.23835859069E+04  0.23835859069E+04  0.50400001928E-02 0.  1.
    10030    2    1    2    0    0  0.00000000000E+00  0.00000000000E+00 -0.86892802440E+03  0.38982437894E+04  0.38001669345E+04 0.  0.
        3    1    3    3  502    0  0.78569551157E+03 -0.37218887305E+03 -0.21675872936E+04  0.23354392905E+04  0.10100000352E+00 0.  1.
       -3    1    3    3    0  502 -0.78569551157E+03  0.37218887305E+03  0.12986592692E+04  0.15628044989E+04  0.10100000352E+00 0. -1.
</event>
<event>
 5   0  0.1261152E-08  0.3801880E+04  0.7818609E-02  0.8045752E-01
       -2   -1    0    0    0  501  0.00000000000E+00  0.00000000000E+00  0.21333609308E+04  0.21333609308E+04  0.25500000920E-02 0. -1.
        2   -1    0    0  501    0  0.00000000000E+00  0.00000000000E+00 -0.16938405846E+04  0.16938405846E+04  0.25500000920E-02 0.  1.
    10030    2    1    2    0    0  0.00000000000E+00  0.00000000000E+00  0.43952034615E+03  0.38272015154E+04  0.38018802328E+04 0.  0.
        2    1    3    3  502    0  0.22247917469E+03 -0.11504588186E+04  0.17265663547E+04  0.20866441608E+04  0.25500000920E-02 0. -1.
       -2    1    3    3    0  502 -0.22247917469E+03  0.11504588186E+04 -0.12870460086E+04  0.17405573546E+04  0.25500000920E-02 0.  1.
</event>
<event>
 5   0  0.1293993E-08  0.3798757E+04  0.7818609E-02  0.8046422E-01
        2   -1    0    0  501    0  0.00000000000E+00  0.00000000000E+00  0.29270331678E+04  0.29270331678E+04  0.25500000920E-02 0.  1.
       -2   -1    0    0    0  501  0.00000000000E+00  0.00000000000E+00 -0.12325237830E+04  0.12325237830E+04  0.25500000920E-02 0. -1.
    10030    2    1    2    0    0  0.00000000000E+00  0.00000000000E+00  0.16945093848E+04  0.41595569508E+04  0.37987566350E+04 0.  0.
        5    1    3    3  502    0 -0.61726202533E+03 -0.14262280327E+04 -0.34846842553E+03  0.15926679324E+04  0.46999998093E+01 0. -1.
       -5    1    3    3    0  502  0.61726202533E+03  0.14262280327E+04  0.20429778103E+04  0.25668890184E+04  0.46999998093E+01 0.  1.
</event>
<event>
 5   0  0.4071750E-09  0.3798466E+04  0.7818609E-02  0.8046484E-01
        1   -1    0    0  501    0  0.00000000000E+00  0.00000000000E+00  0.20501716945E+04  0.20501716945E+04  0.50400001928E-02 0. -1.
       -1   -1    0    0    0  501  0.00000000000E+00  0.00000000000E+00 -0.17594066475E+04  0.17594066475E+04  0.50400001928E-02 0.  1.
    10030    2    1    2    0    0  0.00000000000E+00  0.00000000000E+00  0.29076504699E+03  0.38095783420E+04  0.37984658523E+04 0.  0.
        1    1    3    3  502    0  0.72226433989E+03  0.17562312787E+04  0.11255104157E+03  0.19022833169E+04  0.50400001928E-02 0. -1.
       -1    1    3    3    0  502 -0.72226433989E+03 -0.17562312787E+04  0.17821400543E+03  0.19072950250E+04  0.50400001928E-02 0.  1.
</event>
<event>
 5   0  0.4071750E-09  0.3797242E+04  0.7818609E-02  0.8046747E-01
       -1   -1    0    0    0  501  0.00000000000E+00  0.00000000000E+00  0.23053117402E+04  0.23053117402E+04  0.50400001928E-02 0. -1.
        1   -1    0    0  501    0  0.00000000000E+00  0.00000000000E+00 -0.15636768442E+04  0.15636768443E+04  0.50400001928E-02 0.  1.
    10030    2    1    2    0    0  0.00000000000E+00  0.00000000000E+00  0.74163489591E+03  0.38689885844E+04  0.37972424662E+04 0.  0.
        4    1    3    3  502    0  0.10112262486E+04 -0.12566498110E+04  0.13912458825E+04  0.21300971789E+04  0.12699999809E+01 0. -1.
       -4    1    3    3    0  502 -0.10112262486E+04  0.12566498110E+04 -0.64961098658E+03  0.17388914055E+04  0.12699999809E+01 0.  1.
</event>
<event>
 5   0  0.1305088E-08  0.3800600E+04  0.7818609E-02  0.8046026E-01
        2   -1    0    0  501    0  0.00000000000E+00  0.00000000000E+00  0.16336375894E+04  0.16336375894E+04  0.25500000920E-02 0.  1.
       -2   -1    0    0    0  501  0.00000000000E+00  0.00000000000E+00 -0.22104908524E+04  0.22104908524E+04  0.25500000920E-02 0. -1.
    10030    2    1    2    0    0  0.00000000000E+00  0.00000000000E+00 -0.57685326302E+03  0.38441284418E+04  0.38006004512E+04 0.  0.
        3    1    3    3  502    0 -0.94618641826E+03 -0.13826208068E+03 -0.19494145936E+04  0.21713135215E+04  0.10100000352E+00 0. -1.
       -3    1    3    3    0  502  0.94618641826E+03  0.13826208068E+03  0.13725613305E+04  0.16728149202E+04  0.10100000352E+00 0.  1.
</event>
<event>
 5   0  0.4071750E-09  0.3799511E+04  0.7818609E-02  0.8046260E-01
        1   -1    0    0  501    0  0.00000000000E+00  0.00000000000E+00  0.11573052333E+04  0.11573052333E+04  0.50400001928E-02 0. -1.
       -1   -1    0    0    0  501  0.00000000000E+00  0.00000000000E+00 -0.31185133284E+04  0.31185133284E+04  0.50400001928E-02 0.  1.
    10030    2    1    2    0    0  0.00000000000E+00  0.00000000000E+00 -0.19612080951E+04  0.42758185618E+04  0.37995114398E+04 0.  0.
        5    1    3    3  502    0 -0.16806647778E+04 -0.25874078613E+03 -0.19338237853E+04  0.25751266790E+04  0.46999998093E+01 0. -1.
       -5    1    3    3    0  502  0.16806647778E+04  0.25874078613E+03 -0.27384309743E+02  0.17006918828E+04  0.46999998093E+01 0.  1.
</event>
<event>
 5   0  0.1327249E-08  0.3798626E+04  0.7818609E-02  0.8046450E-01
       -2   -1    0    0    0  501  0.00000000000E+00  0.00000000000E+00  0.17810397191E+04  0.17810397191E+04  0.25500000920E-02 0.  1.
        2   -1    0    0  501    0  0.00000000000E+00  0.00000000000E+00 -0.20254401073E+04  0.20254401073E+04  0.25500000920E-02 0. -1.
    10030    2    1    2    0    0  0.00000000000E+00  0.00000000000E+00 -0.24440038827E+03  0.38064798264E+04  0.37986256882E+04 0.  0.
        1    1    3    3  502    0 -0.16163471562E+04  0.55999964042E+03 -0.94926213080E+03  0.19563425875E+04  0.50400001928E-02 0. -1.
       -1    1    3    3    0  502  0.16163471562E+04 -0.55999964042E+03  0.70486174254E+03  0.18501372389E+04  0.50400001928E-02 0.  1.
</event>
<event>
 5   0  0.4071750E-09  0.3799828E+04  0.7818609E-02  0.8046192E-01
        1   -1    0    0  501    0  0.00000000000E+00  0.00000000000E+00  0.26728365896E+04  0.26728365896E+04  0.50400001928E-02 0.  1.
       -1   -1    0    0    0  501  0.00000000000E+00  0.00000000000E+00 -0.13505026692E+04  0.13505026692E+04  0.50400001928E-02 0. -1.
    10030    2    1    2    0    0  0.00000000000E+00  0.00000000000E+00  0.13223339204E+04  0.40233392588E+04  0.37998278638E+04 0.  0.
        1    1    3    3  502    0 -0.24501334888E+03 -0.11052555929E+04 -0.95437789982E+03  0.14806953240E+04  0.50400001928E-02 0. -1.
       -1    1    3    3    0  502  0.24501334888E+03  0.11052555929E+04  0.22767118202E+04  0.25426439348E+04  0.50400001928E-02 0.  1.
</event>
<event>
 5   0  0.1261152E-08  0.3800127E+04  0.7818609E-02  0.8046128E-01
       -2   -1    0    0    0  501  0.00000000000E+00  0.00000000000E+00  0.17415206947E+04  0.17415206947E+04  0.25500000920E-02 0. -1.
        2   -1    0    0  501    0  0.00000000000E+00  0.00000000000E+00 -0.20730398421E+04  0.20730398421E+04  0.25500000920E-02 0.  1.
    10030    2    1    2    0    0  0.00000000000E+00  0.00000000000E+00 -0.33151914739E+03  0.38145605368E+04  0.38001272536E+04 0.  0.
        2    1    3    3  502    0 -0.34054550294E+03 -0.36215865235E+03  0.16750845467E+04  0.17472945853E+04  0.25500000920E-02 0. -1.
       -2    1    3    3    0  502  0.34054550294E+03  0.36215865235E+03 -0.20066036941E+04  0.20672659515E+04  0.25500000920E-02 0.  1.
</event>
<event>
 5   0  0.4071750E-09  0.3800498E+04  0.7818609E-02  0.8046048E-01
        1   -1    0    0  501    0  0.00000000000E+00  0.00000000000E+00  0.27667043233E+04  0.27667043233E+04  0.50400001928E-02 0.  1.
       -1   -1    0    0    0  501  0.00000000000E+00  0.00000000000E+00 -0.13051438173E+04  0.13051438173E+04  0.50400001928E-02 0. -1.
    10030    2    1    2    0    0  0.00000000000E+00  0.00000000000E+00  0.14615605060E+04  0.40718481405E+04  0.38004984103E+04 0.  0.
        3    1    3    3  502    0  0.13662678593E+04 -0.73393859131E+03 -0.44561004075E+03  0.16136672636E+04  0.10100000352E+00 0. -1.
       -3    1    3    3    0  502 -0.13662678593E+04  0.73393859131E+03  0.19071705468E+04  0.24581808769E+04  0.10100000352E+00 0.  1.
</event>
<event>
 5   0  0.1264013E-08  0.3800537E+04  0.7818609E-02  0.8046040E-01
       -2   -1    0    0    0  501  0.00000000000E+00  0.00000000000E+00  0.26187582941E+04  0.26187582941E+04  0.25500000920E-02 0.  1.
        2   -1    0    0  501    0  0.00000000000E+00  0.00000000000E+00 -0.13789055829E+04  0.13789055829E+04  0.25500000920E-02 0. -1.
    10030    2    1    2    0    0  0.00000000000E+00  0.00000000000E+00  0.12398527111E+04  0.39976638770E+04  0.38005370316E+04 0.  0.
        4    1    3    3  502    0 -0.37558391832E+03  0.45382682807E+03 -0.12804348942E+04  0.14094457069E+04  0.12699999809E+01 0. -1.
       -4    1    3    3    0  502  0.37558391832E+03 -0.45382682807E+03  0.25202876053E+04  0.25882181701E+04  0.12699999809E+01 0.  1.
</event>
<event>
 5   0  0.1327249E-08  0.3798326E+04  0.7818609E-02  0.8046514E-01
        2   -1    0    0  501    0  0.00000000000E+00  0.00000000000E+00  0.20642847250E+04  0.20642847250E+04  0.25500000920E-02 0. -1.
       -2   -1    0    0    0  501  0.00000000000E+00  0.00000000000E+00 -0.17472488993E+04  0.17472488993E+04  0.25500000920E-02 0.  1.
    10030    2    1    2    0    0  0.00000000000E+00  0.00000000000E+00  0.31703582578E+03  0.38115336243E+04  0.37983255330E+04 0.  0.
        1    1    3    3  502    0  0.34226371252E+03 -0.73363739739E+02 -0.17145989650E+04  0.17499646562E+04  0.50400001928E-02 0.  1.
       -1    1    3    3    0  502 -0.34226371252E+03  0.73363739739E+02  0.20316347908E+04  0.20615689681E+04  0.50400001928E-02 0. -1.
</event>
<event>
 5   0  0.4071750E-09  0.3801074E+04  0.7818609E-02  0.8045924E-01
       -1   -1    0    0    0  501  0.00000000000E+00  0.00000000000E+00  0.15744116993E+04  0.15744116993E+04  0.50400001928E-02 0.  1.
        1   -1    0    0  501    0  0.00000000000E+00  0.00000000000E+00 -0.22942161038E+04  0.22942161038E+04  0.50400001928E-02 0. -1.
    10030    2    1    2    0    0  0.00000000000E+00  0.00000000000E+00 -0.71980440450E+03  0.38686278030E+04  0.38010738874E+04 0.  0.
        3    1    3    3  502    0  0.11201589060E+04 -0.10134110042E+04  0.81397489410E+03  0.17159000485E+04  0.10100000352E+00 0.  1.
       -3    1    3    3    0  502 -0.11201589060E+04  0.10134110042E+04 -0.15337792986E+04  0.21527277545E+04  0.10100000352E+00 0. -1.
</event>
<event>
 5   0  0.4071750E-09  0.3801020E+04  0.7818609E-02  0.8045936E-01
        1   -1    0    0  501    0  0.00000000000E+00  0.00000000000E+00  0.10988448788E+04  0.10988448788E+04  0.50400001928E-02 0.  1.
       -1   -1    0    0    0  501  0.00000000000E+00  0.00000000000E+00 -0.32870321256E+04  0.32870321256E+04  0.50400001928E-02 0. -1.
    10030    2    1    2    0    0  0.00000000000E+00  0.00000000000E+00 -0.21881872468E+04  0.43858770043E+04  0.38010200828E+04 0.  0.
        5    1    3    3  502    0  0.91130180066E+03  0.14104032139E+04 -0.67080645607E+02  0.16805445846E+04  0.46999998093E+01 0.  1.
       -5    1    3    3    0  502 -0.91130180066E+03 -0.14104032139E+04 -0.21211066012E+04  0.27053324198E+04  0.46999998093E+01 0. -1.
</event>
<event>
 5   0  0.4071750E-09  0.3804309E+04  0.7818609E-02  0.8045231E-01
       -1   -1    0    0    0  501  0.00000000000E+00  0.00000000000E+00  0.21071327670E+04  0.21071327670E+04  0.50400001928E-02 0.  1.
        1   -1    0    0  501    0  0.00000000000E+00  0.00000000000E+00 -0.17171160712E+04  0.17171160712E+04  0.50400001928E-02 0. -1.
    10030    2    1    2    0    0  0.00000000000E+00  0.00000000000E+00  0.39001669581E+03  0.38242488382E+04  0.38043088930E+04 0.  0.
        3    1    3    3  502    0 -0.85391001428E+03 -0.87391927589E+03  0.16604883997E+04  0.20615816620E+04  0.10100000352E+00 0.  1.
       -3    1    3    3    0  502  0.85391001428E+03  0.87391927589E+03 -0.12704717039E+04  0.17626671762E+04  0.10100000352E+00 0. -1.
</event>
<event>
 5   0  0.4071750E-09  0.3801419E+04  0.7818609E-02  0.8045850E-01
        3   -1    0    0  501    0  0.00000000000E+00  0.00000000000E+00  0.14354736527E+04  0.14354736563E+04  0.10100000352E+00 0.  1.
       -3   -1    0    0    0  501  0.00000000000E+00  0.00000000000E+00 -0.25167280579E+04  0.25167280599E+04  0.10100000352E+00 0. -1.
    10030    2    1    2    0    0  0.00000000000E+00  0.00000000000E+00 -0.10812544051E+04  0.39522017162E+04  0.38014191188E+04 0.  0.
        3    1    3    3  502    0  0.94137415029E+02  0.46464351504E+03  0.13730174265E+04  0.14525606055E+04  0.10100000352E+00 0.  1.
       -3    1    3    3    0  502 -0.94137415029E+02 -0.46464351504E+03 -0.24542718316E+04  0.24996411107E+04  0.10100000352E+00 0. -1.
</event>
<event>
 5   0  0.1261152E-08  0.3800966E+04  0.7818609E-02  0.8045948E-01
       -2   -1    0    0    0  501  0.00000000000E+00  0.00000000000E+00  0.13150484882E+04  0.13150484882E+04  0.25500000920E-02 0. -1.
        2   -1    0    0  501    0  0.00000000000E+00  0.00000000000E+00 -0.27465414595E+04  0.27465414595E+04  0.25500000920E-02 0.  1.
    10030    2    1    2    0    0  0.00000000000E+00  0.00000000000E+00 -0.14314929713E+04  0.40615899477E+04  0.38009657690E+04 0.  0.
        2    1    3    3  502    0 -0.13557588465E+03  0.10813289102E+04 -0.23794837448E+04  0.26171732699E+04  0.25500000920E-02 0.  1.
       -2    1    3    3    0  502  0.13557588465E+03 -0.10813289102E+04  0.94799077360E+03  0.14444166779E+04  0.25500000920E-02 0. -1.
</event>
<event>
 5   0  0.4071750E-09  0.3801327E+04  0.7818609E-02  0.8045870E-01
        1   -1    0    0  501    0  0.00000000000E+00  0.00000000000E+00  0.24089160968E+04  0.24089160968E+04  0.50400001928E-02 0. -1.
       -1   -1    0    0    0  501  0.00000000000E+00  0.00000000000E+00 -0.14996459885E+04  0.14996459885E+04  0.50400001928E-02 0.  1.
    10030    2    1    2    0    0  0.00000000000E+00  0.00000000000E+00  0.90927010830E+03  0.39085620853E+04  0.38013268006E+04 0.  0.
        3    1    3    3  502    0 -0.43198566337E+03 -0.68635780083E+03  0.22220866188E+04  0.23654529367E+04  0.10100000352E+00 0. -1.
       -3    1    3    3    0  502  0.43198566337E+03  0.68635780083E+03 -0.13128165105E+04  0.15431091486E+04  0.10100000352E+00 0.  1.
</event>
<event>
 5   0  0.1327249E-08  0.3799650E+04  0.7818609E-02  0.8046230E-01
        2   -1    0    0  501    0  0.00000000000E+00  0.00000000000E+00  0.18783473286E+04  0.18783473286E+04  0.25500000920E-02 0.  1.
       -2   -1    0    0    0  501  0.00000000000E+00  0.00000000000E+00 -0.19215484454E+04  0.19215484454E+04  0.25500000920E-02 0. -1.
    10030    2    1    2    0    0  0.00000000000E+00  0.00000000000E+00 -0.43201116777E+02  0.37998957739E+04  0.37996501887E+04 0.  0.
        1    1    3    3  502    0  0.33025279634E+03  0.12116505930E+04  0.14040340448E+04  0.18837398090E+04  0.50400001928E-02 0.  1.
       -1    1    3    3    0  502 -0.33025279634E+03 -0.12116505930E+04 -0.14472351616E+04  0.19161559649E+04  0.50400001928E-02 0. -1.
</event>
<event>
 5   0  0.1264013E-08  0.3799391E+04  0.7818609E-02  0.8046286E-01
       -2   -1    0    0    0  501  0.00000000000E+00  0.00000000000E+00  0.13812816028E+04  0.13812816028E+04  0.25500000920E-02 0. -1.
        2   -1    0    0  501    0  0.00000000000E+00  0.00000000000E+00 -0.26126773813E+04  0.26126773813E+04  0.25500000920E-02 0.  1.
    10030    2    1    2    0    0  0.00000000000E+00  0.00000000000E+00 -0.12313957785E+04  0.39939589840E+04  0.37993911095E+04 0.  0.
        4    1    3    3  502    0 -0.11786546397E+04 -0.70027146450E+03  0.76664750496E+03  0.15707822552E+04  0.12699999809E+01 0.  1.
       -4    1    3    3    0  502  0.11786546397E+04  0.70027146450E+03 -0.19980432834E+04  0.24231767288E+04  0.12699999809E+01 0. -1.
</event>
<event>
 5   0  0.4071750E-09  0.3798544E+04  0.7818609E-02  0.8046467E-01
       -1   -1    0    0    0  501  0.00000000000E+00  0.00000000000E+00  0.13015979594E+04  0.13015979594E+04  0.50400001928E-02 0. -1.
        1   -1    0    0  501    0  0.00000000000E+00  0.00000000000E+00 -0.27713895655E+04  0.27713895655E+04  0.50400001928E-02 0.  1.
    10030    2    1    2    0    0  0.00000000000E+00  0.00000000000E+00 -0.14697916062E+04  0.40729875249E+04  0.37985444597E+04 0.  0.
        5    1    3    3  502    0 -0.63325585044E+03 -0.49746816494E+03  0.11094748084E+04  0.13709281483E+04  0.46999998093E+01 0. -1.
       -5    1    3    3    0  502  0.63325585044E+03  0.49746816494E+03 -0.25792664146E+04  0.27020593766E+04  0.46999998093E+01 0.  1.
</event>
<event>
 5   0  0.1305088E-08  0.3796508E+04  0.7818609E-02  0.8046905E-01
        2   -1    0    0  501    0  0.00000000000E+00  0.00000000000E+00  0.23315959591E+04  0.23315959591E+04  0.25500000920E-02 0.  1.
       -2   -1    0    0    0  501  0.00000000000E+00  0.00000000000E+00 -0.15454515631E+04  0.15454515631E+04  0.25500000920E-02 0. -1.
    10030    2    1    2    0    0  0.00000000000E+00  0.00000000000E+00  0.78614439603E+03  0.38770475222E+04  0.37965081955E+04 0.  0.
        3    1    3    3  502    0  0.27015792283E+02 -0.97928479146E+03 -0.12673477574E+04  0.16018423468E+04  0.10100000352E+00 0. -1.
       -3    1    3    3    0  502 -0.27015792283E+02  0.97928479146E+03  0.20534921534E+04  0.22752051754E+04  0.10100000352E+00 0.  1.
</event>
<event>
 5   0  0.1327249E-08  0.3800079E+04  0.7818609E-02  0.8046138E-01
       -2   -1    0    0    0  501  0.00000000000E+00  0.00000000000E+00  0.17896315797E+04  0.17896315797E+04  0.25500000920E-02 0. -1.
        2   -1    0    0  501    0  0.00000000000E+00  0.00000000000E+00 -0.20172593217E+04  0.20172593217E+04  0.25500000920E-02 0.  1.
    10030    2    1    2    0    0  0.00000000000E+00  0.00000000000E+00 -0.22762774197E+03  0.38068909014E+04  0.38000794658E+04 0.  0.
        1    1    3    3  502    0  0.40277479186E+03 -0.67677790182E+03 -0.18460445658E+04  0.20070217737E+04  0.50400001928E-02 0.  1.
       -1    1    3    3    0  502 -0.40277479186E+03  0.67677790182E+03  0.16184168238E+04  0.17998691277E+04  0.50400001928E-02 0. -1.
</event>
<event>
 5   0  0.4071750E-09  0.3799785E+04  0.7818609E-02  0.8046201E-01
        1   -1    0    0  501    0  0.00000000000E+00  0.00000000000E+00  0.13001532285E+04  0.13001532285E+04  0.50400001928E-02 0. -1.
       -1   -1    0    0    0  501  0.00000000000E+00  0.00000000000E+00 -0.27762812441E+04  0.27762812441E+04  0.50400001928E-02 0.  1.
    10030    2    1    2    0    0  0.00000000000E+00  0.00000000000E+00 -0.14761280156E+04  0.40764344726E+04  0.37997847428E+04 0.  0.
        2    1    3    3  502    0 -0.11612999737E+04 -0.12953632420E+04 -0.15572047530E+04  0.23348383671E+04  0.25500000920E-02 0.  1.
       -2    1    3    3    0  502  0.11612999737E+04  0.12953632420E+04  0.81076737368E+02  0.17415961056E+04  0.25500000920E-02 0. -1.
</event>
<event>
 5   0  0.4071750E-09  0.3792918E+04  0.7818609E-02  0.8047676E-01
       -1   -1    0    0    0  501  0.00000000000E+00  0.00000000000E+00  0.13718335237E+04  0.13718335237E+04  0.50400001928E-02 0.  1.
        1   -1    0    0  501    0  0.00000000000E+00  0.00000000000E+00 -0.26217155659E+04  0.26217155659E+04  0.50400001928E-02 0. -1.
    10030    2    1    2    0    0  0.00000000000E+00  0.00000000000E+00 -0.12498820422E+04  0.39935490896E+04  0.37929182975E+04 0.  0.
        5    1    3    3  502    0 -0.33346307200E+03  0.15682801995E+04 -0.16913511347E+04  0.23305345214E+04  0.46999998093E+01 0. -1.
       -5    1    3    3    0  502  0.33346307200E+03 -0.15682801995E+04  0.44146909251E+03  0.16630145682E+04  0.46999998093E+01 0.  1.
</event>
<event>
 5   0  0.4071750E-09  0.3801521E+04  0.7818609E-02  0.8045829E-01
        1   -1    0    0  501    0  0.00000000000E+00  0.00000000000E+00  0.16395124330E+04  0.16395124330E+04  0.50400001928E-02 0.  1.
       -1   -1    0    0    0  501  0.00000000000E+00  0.00000000000E+00 -0.22036370971E+04  0.22036370971E+04  0.50400001928E-02 0. -1.
    10030    2    1    2    0    0  0.00000000000E+00  0.00000000000E+00 -0.56412466414E+03  0.38431495301E+04  0.38015209685E+04 0.  0.
        1    1    3    3  502    0 -0.79344710683E+03  0.85247162044E+03  0.12365940406E+04  0.16986556438E+04  0.50400001928E-02 0.  1.
       -1    1    3    3    0  502  0.79344710683E+03 -0.85247162044E+03 -0.18007187047E+04  0.21444938863E+04  0.50400001928E-02 0. -1.
</event>
<event>
 5   0  0.1293993E-08  0.3802248E+04  0.7818609E-02  0.8045673E-01
       -2   -1    0    0    0  501  0.00000000000E+00  0.00000000000E+00  0.18763705936E+04  0.18763705936E+04  0.25500000920E-02 0.  1.
        2   -1    0    0  501    0  0.00000000000E+00  0.00000000000E+00 -0.19262036472E+04  0.19262036472E+04  0.25500000920E-02 0. -1.
    10030    2    1    2    0    0  0.00000000000E+00  0.00000000000E+00 -0.49833053628E+02  0.38025742408E+04  0.38022476936E+04 0.  0.
        5    1    3    3  502    0  0.18942173879E+04  0.12534973146E+03  0.77453014108E+02  0.18999455590E+04  0.46999998093E+01 0. -1.
       -5    1    3    3    0  502 -0.18942173879E+04 -0.12534973146E+03 -0.12728606774E+03  0.19026286818E+04  0.46999998093E+01 0.  1.
</event>
<event>
 5   0  0.1305088E-08  0.3799298E+04  0.7818609E-02  0.8046306E-01
       -2   -1    0    0    0  501  0.00000000000E+00  0.00000000000E+00  0.25479609044E+04  0.25479609044E+04  0.25500000920E-02 0. -1.
        2   -1    0    0  501    0  0.00000000000E+00  0.00000000000E+00 -0.14162954303E+04  0.14162954303E+04  0.25500000920E-02 0.  1.
    10030    2    1    2    0    0  0.00000000000E+00  0.00000000000E+00  0.11316654741E+04  0.39642563347E+04  0.37992975063E+04 0.  0.
        3    1    3    3  502    0  0.12864931636E+04 -0.12060046722E+03 -0.88712716566E+03  0.15673556556E+04  0.10100000352E+00 0.  1.
       -3    1    3    3    0  502 -0.12864931636E+04  0.12060046722E+03  0.20187926398E+04  0.23969006791E+04  0.10100000352E+00 0. -1.
</event>
<event>
 5   0  0.1264013E-08  0.3802784E+04  0.7818609E-02  0.8045558E-01
       -2   -1    0    0    0  501  0.00000000000E+00  0.00000000000E+00  0.27268553077E+04  0.27268553077E+04  0.25500000920E-02 0.  1.
        2   -1    0    0  501    0  0.00000000000E+00  0.00000000000E+00 -0.13258094930E+04  0.13258094930E+04  0.25500000920E-02 0. -1.
    10030    2    1    2    0    0  0.00000000000E+00  0.00000000000E+00  0.14010458148E+04  0.40526648007E+04  0.38027835347E+04 0.  0.
        4    1    3    3  502    0  0.16314210016E+04  0.55903223418E+03 -0.15286904168E+03  0.17313064662E+04  0.12699999809E+01 0. -1.
       -4    1    3    3    0  502 -0.16314210016E+04 -0.55903223418E+03  0.15539148564E+04  0.23213583345E+04  0.12699999809E+01 0.  1.
</event>
<event>
 5   0  0.1305088E-08  0.3800770E+04  0.7818609E-02  0.8045990E-01
       -2   -1    0    0    0  501  0.00000000000E+00  0.00000000000E+00  0.24179492555E+04  0.24179492555E+04  0.25500000920E-02 0.  1.
        2   -1    0    0  501    0  0.00000000000E+00  0.00000000000E+00 -0.14936055635E+04  0.14936055635E+04  0.25500000920E-02 0. -1.
    10030    2    1    2    0    0  0.00000000000E+00  0.00000000000E+00  0.92434369192E+03  0.39115548190E+04  0.38007696380E+04 0.  0.
        3    1    3    3  502    0  0.93332233146E+03 -0.13446897746E+04  0.14558095507E+04  0.21905849955E+04  0.10100000352E+00 0.  1.
       -3    1    3    3    0  502 -0.93332233146E+03  0.13446897746E+04 -0.53146585873E+03  0.17209698235E+04  0.10100000352E+00 0. -1.
</event>
<event>
 5   0  0.4071750E-09  0.3799896E+04  0.7818609E-02  0.8046177E-01
       -1   -1    0    0    0  501  0.00000000000E+00  0.00000000000E+00  0.17417381068E+04  0.17417381068E+04  0.50400001928E-02 0. -1.
        1   -1    0    0  501    0  0.00000000000E+00  0.00000000000E+00 -0.20725284427E+04  0.20725284427E+04  0.50400001928E-02 0.  1.
    10030    2    1    2    0    0  0.00000000000E+00  0.00000000000E+00 -0.33079033587E+03  0.38142665495E+04  0.37998956649E+04 0.  0.
        5    1    3    3  502    0  0.26072605835E+03  0.18109206601E+04  0.34876066538E+03  0.18625433704E+04  0.46999998093E+01 0. -1.
       -5    1    3    3    0  502 -0.26072605835E+03 -0.18109206601E+04 -0.67955100125E+03  0.19517231791E+04  0.46999998093E+01 0.  1.
</event>
<event>
 5   0  0.4071750E-09  0.3796532E+04  0.7818609E-02  0.8046900E-01
        1   -1    0    0  501    0  0.00000000000E+00  0.00000000000E+00  0.14285074770E+04  0.14285074770E+04  0.50400001928E-02 0. -1.
       -1   -1    0    0    0  501  0.00000000000E+00  0.00000000000E+00 -0.25225024182E+04  0.25225024182E+04  0.50400001928E-02 0.  1.
    10030    2    1    2    0    0  0.00000000000E+00  0.00000000000E+00 -0.10939949412E+04  0.39510098952E+04  0.37965318727E+04 0.  0.
        4    1    3    3  502    0 -0.81236893637E+03  0.36236200078E+03  0.11981867160E+04  0.14922809815E+04  0.12699999809E+01 0. -1.
       -4    1    3    3    0  502  0.81236893637E+03 -0.36236200078E+03 -0.22921816572E+04  0.24587289137E+04  0.12699999809E+01 0.  1.
</event>
<event>
 5   0  0.4071750E-09  0.3799132E+04  0.7818609E-02  0.8046341E-01
        1   -1    0    0  501    0  0.00000000000E+00  0.00000000000E+00  0.18236284287E+04  0.18236284287E+04  0.50400001928E-02 0. -1.
       -1   -1    0    0    0  501  0.00000000000E+00  0.00000000000E+00 -0.19786654484E+04  0.19786654484E+04  0.50400001928E-02 0.  1.
    10030    2    1    2    0    0  0.00000000000E+00  0.00000000000E+00 -0.15503701967E+03  0.38022938771E+04  0.37991317759E+04 0.  0.
        5    1    3    3  502    0 -0.29902365203E+03  0.10541748829E+04  0.14754264851E+04  0.18378262244E+04  0.46999998093E+01 0. -1.
       -5    1    3    3    0  502  0.29902365203E+03 -0.10541748829E+04 -0.16304635047E+04  0.19644676527E+04  0.46999998093E+01 0.  1.
</event>
<event>
 5   0  0.4071750E-09  0.3821518E+04  0.7818609E-02  0.8041553E-01
        1   -1    0    0  501    0  0.00000000000E+00  0.00000000000E+00  0.22743478067E+04  0.22743478067E+04  0.50400001928E-02 0.  1.
       -1   -1    0    0    0  501  0.00000000000E+00  0.00000000000E+00 -0.16052951332E+04  0.16052951332E+04  0.50400001928E-02 0. -1.
    10030    2    1    2    0    0  0.00000000000E+00  0.00000000000E+00  0.66905267357E+03  0.38796429399E+04  0.38215177432E+04 0.  0.
        4    1    3    3  502    0 -0.29307822378E+03 -0.14720513181E+04 -0.86590008105E+03  0.17328053820E+04  0.12699999809E+01 0. -1.
       -4    1    3    3    0  502  0.29307822378E+03  0.14720513181E+04  0.15349527546E+04  0.21468375580E+04  0.12699999809E+01 0.  1.
</event>
<event>
 5   0  0.1305088E-08  0.3800726E+04  0.7818609E-02  0.8045999E-01
        2   -1    0    0  501    0  0.00000000000E+00  0.00000000000E+00  0.21538255379E+04  0.21538255379E+04  0.25500000920E-02 0. -1.
       -2   -1    0    0    0  501  0.00000000000E+00  0.00000000000E+00 -0.16767283123E+04  0.16767283123E+04  0.25500000920E-02 0.  1.
    10030    2    1    2    0    0  0.00000000000E+00  0.00000000000E+00  0.47709722563E+03  0.38305538502E+04  0.38007263828E+04 0.  0.
        3    1    3    3  502    0  0.14393358884E+04 -0.24128945247E+03  0.14652579426E+04  0.20680641305E+04  0.10100000352E+00 0. -1.
       -3    1    3    3    0  502 -0.14393358884E+04  0.24128945247E+03 -0.98816071696E+03  0.17624897197E+04  0.10100000352E+00 0.  1.
</event>
<event>
 5   0  0.4071750E-09  0.3798293E+04  0.7818609E-02  0.8046521E-01
       -1   -1    0    0    0  501  0.00000000000E+00  0.00000000000E+00  0.14203366457E+04  0.14203366457E+04  0.50400001928E-02 0. -1.
        1   -1    0    0  501    0  0.00000000000E+00  0.00000000000E+00 -0.25393686445E+04  0.25393686445E+04  0.50400001928E-02 0.  1.
    10030    2    1    2    0    0  0.00000000000E+00  0.00000000000E+00 -0.11190319988E+04  0.39597052902E+04  0.37982934814E+04 0.  0.
        3    1    3    3  502    0  0.12155375401E+04 -0.12320388863E+04  0.25557112237E+03  0.17495050550E+04  0.10100000352E+00 0.  1.
       -3    1    3    3    0  502 -0.12155375401E+04  0.12320388863E+04 -0.13746031211E+04  0.22102002352E+04  0.10100000352E+00 0. -1.
</event>
<event>
 5   0  0.1293993E-08  0.3800287E+04  0.7818609E-02  0.8046093E-01
       -2   -1    0    0    0  501  0.00000000000E+00  0.00000000000E+00  0.29235532010E+04  0.29235532010E+04  0.25500000920E-02 0.  1.
        2   -1    0    0  501    0  0.00000000000E+00  0.00000000000E+00 -0.12349856461E+04  0.12349856461E+04  0.25500000920E-02 0. -1.
    10030    2    1    2    0    0  0.00000000000E+00  0.00000000000E+00  0.16885675549E+04  0.41585388472E+04  0.38002874833E+04 0.  0.
        5    1    3    3  502    0  0.54070363130E+03  0.18138792738E+04  0.66115878405E+03  0.20049118346E+04  0.46999998093E+01 0. -1.
       -5    1    3    3    0  502 -0.54070363130E+03 -0.18138792738E+04  0.10274087709E+04  0.21536270126E+04  0.46999998093E+01 0.  1.
</event>
<event>
 5   0  0.1305088E-08  0.3801151E+04  0.7818609E-02  0.8045908E-01
       -2   -1    0    0    0  501  0.00000000000E+00  0.00000000000E+00  0.16154791078E+04  0.16154791078E+04  0.25500000920E-02 0. -1.
        2   -1    0    0  501    0  0.00000000000E+00  0.00000000000E+00 -0.22359849551E+04  0.22359849551E+04  0.25500000920E-02 0.  1.
    10030    2    1    2    0    0  0.00000000000E+00  0.00000000000E+00 -0.62050584730E+03  0.38514640628E+04  0.38011508679E+04 0.  0.
        3    1    3    3  502    0 -0.10815706501E+04  0.61978483562E+03 -0.17639058205E+04  0.21599287181E+04  0.10100000352E+00 0.  1.
       -3    1    3    3    0  502  0.10815706501E+04 -0.61978483562E+03  0.11433999732E+04  0.16915353447E+04  0.10100000352E+00 0. -1.
</event>
<event>
 5   0  0.4071750E-09  0.3799456E+04  0.7818609E-02  0.8046272E-01
        1   -1    0    0  501    0  0.00000000000E+00  0.00000000000E+00  0.27061720102E+04  0.27061720102E+04  0.50400001928E-02 0.  1.
       -1   -1    0    0    0  501  0.00000000000E+00  0.00000000000E+00 -0.13336059523E+04  0.13336059523E+04  0.50400001928E-02 0. -1.
    10030    2    1    2    0    0  0.00000000000E+00  0.00000000000E+00  0.13725660579E+04  0.40397779625E+04  0.37994563299E+04 0.  0.
        3    1    3    3  502    0 -0.13511059599E+04  0.42290641253E+03 -0.66058016307E+03  0.15622750432E+04  0.10100000352E+00 0. -1.
       -3    1    3    3    0  502  0.13511059599E+04 -0.42290641253E+03  0.20331462210E+04  0.24775029192E+04  0.10100000352E+00 0.  1.
</event>
<event>
 5   0  0.1264013E-08  0.3799619E+04  0.7818609E-02  0.8046237E-01
       -2   -1    0    0    0  501  0.00000000000E+00  0.00000000000E+00  0.15328187715E+04  0.15328187715E+04  0.25500000920E-02 0.  1.
        2   -1    0    0  501    0  0.00000000000E+00  0.00000000000E+00 -0.23546655734E+04  0.23546655734E+04  0.25500000920E-02 0. -1.
    10030    2    1    2    0    0  0.00000000000E+00  0.00000000000E+00 -0.82184680188E+03  0.38874843449E+04  0.37996187132E+04 0.  0.
        4    1    3    3  502    0 -0.14665105513E+03  0.13490256059E+04 -0.17712937550E+04  0.22313358772E+04  0.12699999809E+01 0. -1.
       -4    1    3    3    0  502  0.14665105513E+03 -0.13490256059E+04  0.94944695310E+03  0.16561484677E+04  0.12699999809E+01 0.  1.
</event>
<event>
 5   0  0.1293993E-08  0.3800949E+04  0.7818609E-02  0.8045951E-01
       -2   -1    0    0    0  501  0.00000000000E+00  0.00000000000E+00  0.16895869584E+04  0.16895869584E+04  0.25500000920E-02 0.  1.
        2   -1    0    0  501    0  0.00000000000E+00  0.00000000000E+00 -0.21376842458E+04  0.21376842458E+04  0.25500000920E-02 0. -1.
    10030    2    1    2    0    0  0.00000000000E+00  0.00000000000E+00 -0.44809728743E+03  0.38272712043E+04  0.38009490515E+04 0.  0.
        5    1    3    3  502    0 -0.10696524147E+04 -0.39211957340E+03 -0.17557228981E+04  0.20929641738E+04  0.46999998093E+01 0. -1.
       -5    1    3    3    0  502  0.10696524147E+04  0.39211957340E+03  0.13076256107E+04  0.17343070304E+04  0.46999998093E+01 0.  1.
</event>
<event>
 5   0  0.4071750E-09  0.3798263E+04  0.7818609E-02  0.8046528E-01
       -1   -1    0    0    0  501  0.00000000000E+00  0.00000000000E+00  0.22600371510E+04  0.22600371510E+04  0.50400001928E-02 0.  1.
        1   -1    0    0  501    0  0.00000000000E+00  0.00000000000E+00 -0.15958588383E+04  0.15958588383E+04  0.50400001928E-02 0. -1.
    10030    2    1    2    0    0  0.00000000000E+00  0.00000000000E+00  0.66417831267E+03  0.38558959893E+04  0.37982628989E+04 0.  0.
        2    1    3    3  502    0  0.15761518048E+04 -0.74382131591E+03 -0.43379560104E+03  0.17960242998E+04  0.25500000920E-02 0.  1.
       -2    1    3    3    0  502 -0.15761518048E+04  0.74382131591E+03  0.10979739137E+04  0.20598716895E+04  0.25500000920E-02 0. -1.
</event>
<event>
 5   0  0.4071750E-09  0.3801784E+04  0.7818609E-02  0.8045772E-01
        1   -1    0    0  501    0  0.00000000000E+00  0.00000000000E+00  0.23542052819E+04  0.23542052819E+04  0.50400001928E-02 0.  1.
       -1   -1    0    0    0  501  0.00000000000E+00  0.00000000000E+00 -0.15348660548E+04  0.15348660548E+04  0.50400001928E-02 0. -1.
    10030    2    1    2    0    0  0.00000000000E+00  0.00000000000E+00  0.81933922715E+03  0.38890713367E+04  0.38017836725E+04 0.  0.
        4    1    3    3  502    0 -0.15094045866E+04  0.72677364220E+03  0.13285618995E+04  0.21381254563E+04  0.12699999809E+01 0.  1.
       -4    1    3    3    0  502  0.15094045866E+04 -0.72677364220E+03 -0.50922267233E+03  0.17509458804E+04  0.12699999809E+01 0. -1.
</event>
<event>
 5   0  0.4071750E-09  0.3799574E+04  0.7818609E-02  0.8046246E-01
        1   -1    0    0  501    0  0.00000000000E+00  0.00000000000E+00  0.22003117608E+04  0.22003117608E+04  0.50400001928E-02 0.  1.
       -1   -1    0    0    0  501  0.00000000000E+00  0.00000000000E+00 -0.16403091714E+04  0.16403091714E+04  0.50400001928E-02 0. -1.
    10030    2    1    2    0    0  0.00000000000E+00  0.00000000000E+00  0.56000258932E+03  0.38406209322E+04  0.37995744821E+04 0.  0.
        3    1    3    3  502    0 -0.72178920585E+03  0.10563712464E+03 -0.14931016410E+04  0.16617735647E+04  0.10100000352E+00 0. -1.
       -3    1    3    3    0  502  0.72178920585E+03 -0.10563712464E+03  0.20531042304E+04  0.21788473675E+04  0.10100000352E+00 0.  1.
</event>
<event>
 5   0  0.4071750E-09  0.3804259E+04  0.7818609E-02  0.8045242E-01
       -1   -1    0    0    0  501  0.00000000000E+00  0.00000000000E+00  0.16457129499E+04  0.16457129499E+04  0.50400001928E-02 0. -1.
        1   -1    0    0  501    0  0.00000000000E+00  0.00000000000E+00 -0.21984975087E+04  0.21984975088E+04  0.50400001928E-02 0.  1.
    10030    2    1    2    0    0  0.00000000000E+00  0.00000000000E+00 -0.55278455886E+03  0.38442104586E+04  0.38042585719E+04 0.  0.
        5    1    3    3  502    0  0.18736268637E+04  0.15809826084E+03  0.14029981351E+02  0.18803434832E+04  0.46999998093E+01 0.  1.
       -5    1    3    3    0  502 -0.18736268637E+04 -0.15809826084E+03 -0.56681454021E+03  0.19638669755E+04  0.46999998093E+01 0. -1.
</event>
<event>
 5   0  0.1327249E-08  0.3801604E+04  0.7818609E-02  0.8045811E-01
       -2   -1    0    0    0  501  0.00000000000E+00  0.00000000000E+00  0.11966445614E+04  0.11966445614E+04  0.25500000920E-02 0.  1.
        2   -1    0    0  501    0  0.00000000000E+00  0.00000000000E+00 -0.30193163818E+04  0.30193163818E+04  0.25500000920E-02 0. -1.
    10030    2    1    2    0    0  0.00000000000E+00  0.00000000000E+00 -0.18226718204E+04  0.42159609431E+04  0.38016041495E+04 0.  0.
        1    1    3    3  502    0  0.15479039240E+03 -0.15143106909E+04 -0.21738146574E+04  0.26537835441E+04  0.50400001928E-02 0. -1.
       -1    1    3    3    0  502 -0.15479039240E+03  0.15143106909E+04  0.35114283701E+03  0.15621773991E+04  0.50400001928E-02 0.  1.
</event>
<event>
 5   0  0.4071750E-09  0.3805158E+04  0.7818609E-02  0.8045049E-01
       -1   -1    0    0    0  501  0.00000000000E+00  0.00000000000E+00  0.32554299001E+04  0.32554299001E+04  0.50400001928E-02 0. -1.
        1   -1    0    0  501    0  0.00000000000E+00  0.00000000000E+00 -0.11119287214E+04  0.11119287214E+04  0.50400001928E-02 0.  1.
    10030    2    1    2    0    0  0.00000000000E+00  0.00000000000E+00  0.21435011787E+04  0.43673586214E+04  0.38051575559E+04 0.  0.
        1    1    3    3  502    0 -0.59478715226E+03  0.16755947614E+04  0.29465166857E+03  0.18022788815E+04  0.50400001928E-02 0. -1.
       -1    1    3    3    0  502  0.59478715226E+03 -0.16755947614E+04  0.18488495101E+04  0.25650797399E+04  0.50400001928E-02 0.  1.
</event>
<event>
 5   0  0.1327249E-08  0.3803808E+04  0.7818609E-02  0.8045338E-01
       -2   -1    0    0    0  501  0.00000000000E+00  0.00000000000E+00  0.16855690609E+04  0.16855690609E+04  0.25500000920E-02 0. -1.
        2   -1    0    0  501    0  0.00000000000E+00  0.00000000000E+00 -0.21460046052E+04  0.21460046052E+04  0.25500000920E-02 0.  1.
    10030    2    1    2    0    0  0.00000000000E+00  0.00000000000E+00 -0.46043554438E+03  0.38315736661E+04  0.38038080746E+04 0.  0.
        1    1    3    3  502    0  0.12458885122E+04 -0.10445166227E+04  0.76389327034E+03  0.17963257189E+04  0.50400001928E-02 0.  1.
       -1    1    3    3    0  502 -0.12458885122E+04  0.10445166227E+04 -0.12243288147E+04  0.20352479472E+04  0.50400001928E-02 0. -1.
</event>
<event>
 5   0  0.4071750E-09  0.3802519E+04  0.7818609E-02  0.8045614E-01
       -1   -1    0    0    0  501  0.00000000000E+00  0.00000000000E+00  0.19802264222E+04  0.19802264222E+04  0.50400001928E-02 0. -1.
        1   -1    0    0  501    0  0.00000000000E+00  0.00000000000E+00 -0.18254419352E+04  0.18254419352E+04  0.50400001928E-02 0.  1.
    10030    2    1    2    0    0  0.00000000000E+00  0.00000000000E+00  0.15478448701E+03  0.38056683574E+04  0.38025193503E+04 0.  0.
        3    1    3    3  502    0 -0.74282902271E+03  0.43802842571E+02 -0.16736493820E+04  0.18316156556E+04  0.10100000352E+00 0.  1.
       -3    1    3    3    0  502  0.74282902271E+03 -0.43802842571E+02  0.18284338690E+04  0.19740527018E+04  0.10100000352E+00 0. -1.
</event>
<event>
 5   0  0.4071750E-09  0.3801147E+04  0.7818609E-02  0.8045909E-01
        1   -1    0    0  501    0  0.00000000000E+00  0.00000000000E+00  0.14199113832E+04  0.14199113833E+04  0.50400001928E-02 0. -1.
       -1   -1    0    0    0  501  0.00000000000E+00  0.00000000000E+00 -0.25439471621E+04  0.25439471621E+04  0.50400001928E-02 0.  1.
    10030    2    1    2    0    0  0.00000000000E+00  0.00000000000E+00 -0.11240357789E+04  0.39638585454E+04  0.38011469500E+04 0.  0.
        2    1    3    3  502    0 -0.22387577126E+03  0.72802003662E+02  0.14046485666E+04  0.14242394772E+04  0.25500000920E-02 0. -1.
       -2    1    3    3    0  502  0.22387577126E+03 -0.72802003662E+02 -0.25286843455E+04  0.25396190682E+04  0.25500000920E-02 0.  1.
</event>
<event>
 5   0  0.4071750E-09  0.3797036E+04  0.7818609E-02  0.8046791E-01
        3   -1    0    0  501    0  0.00000000000E+00  0.00000000000E+00  0.19679819065E+04  0.19679819091E+04  0.10100000352E+00 0.  1.
       -3   -1    0    0    0  501  0.00000000000E+00  0.00000000000E+00 -0.18315058709E+04  0.18315058737E+04  0.10100000352E+00 0. -1.
    10030    2    1    2    0    0  0.00000000000E+00  0.00000000000E+00  0.13647603563E+03  0.37994877828E+04  0.37970359102E+04 0.  0.
        2    1    3    3  502    0  0.17189695933E+04 -0.80495210973E+03  0.28638935237E+02  0.18983215087E+04  0.25500000920E-02 0. -1.
       -2    1    3    3    0  502 -0.17189695933E+04  0.80495210973E+03  0.10783710040E+03  0.19011662741E+04  0.25500000920E-02 0.  1.
</event>
<event>
 5   0  0.1293993E-08  0.3799495E+04  0.7818609E-02  0.8046263E-01
       -2   -1    0    0    0  501  0.00000000000E+00  0.00000000000E+00  0.18789620740E+04  0.18789620740E+04  0.25500000920E-02 0.  1.
        2   -1    0    0  501    0  0.00000000000E+00  0.00000000000E+00 -0.19207630472E+04  0.19207630472E+04  0.25500000920E-02 0. -1.
    10030    2    1    2    0    0  0.00000000000E+00  0.00000000000E+00 -0.41800973189E+02  0.37997251212E+04  0.37994951869E+04 0.  0.
        5    1    3    3  502    0 -0.10915606528E+04 -0.48005180674E+03 -0.14998626735E+04  0.19161327003E+04  0.46999998093E+01 0. -1.
       -5    1    3    3    0  502  0.10915606528E+04  0.48005180674E+03  0.14580617003E+04  0.18835924208E+04  0.46999998093E+01 0.  1.
</event>
<event>
 5   0  0.1293993E-08  0.3810020E+04  0.7818609E-02  0.8044008E-01
       -2   -1    0    0    0  501  0.00000000000E+00  0.00000000000E+00  0.18844001026E+04  0.18844001026E+04  0.25500000920E-02 0. -1.
        2   -1    0    0  501    0  0.00000000000E+00  0.00000000000E+00 -0.19258452583E+04  0.19258452583E+04  0.25500000920E-02 0.  1.
    10030    2    1    2    0    0  0.00000000000E+00  0.00000000000E+00 -0.41445155615E+02  0.38102453609E+04  0.38100199487E+04 0.  0.
        5    1    3    3  502    0  0.72047482311E+03 -0.14149679066E+04 -0.10733164467E+04  0.19165720525E+04  0.46999998093E+01 0.  1.
       -5    1    3    3    0  502 -0.72047482311E+03  0.14149679066E+04  0.10318712911E+04  0.18936733084E+04  0.46999998093E+01 0. -1.
</event>
<event>
 5   0  0.1293993E-08  0.3804253E+04  0.7818609E-02  0.8045243E-01
        2   -1    0    0  501    0  0.00000000000E+00  0.00000000000E+00  0.14223795012E+04  0.14223795012E+04  0.25500000920E-02 0. -1.
       -2   -1    0    0    0  501  0.00000000000E+00  0.00000000000E+00 -0.25436851479E+04  0.25436851479E+04  0.25500000920E-02 0.  1.
    10030    2    1    2    0    0  0.00000000000E+00  0.00000000000E+00 -0.11213056467E+04  0.39660646491E+04  0.38042532049E+04 0.  0.
        5    1    3    3  502    0 -0.17409285265E+04  0.75707276555E+03 -0.68432488704E+03  0.20179975093E+04  0.46999998093E+01 0. -1.
       -5    1    3    3    0  502  0.17409285265E+04 -0.75707276555E+03 -0.43698075969E+03  0.19480671397E+04  0.46999998093E+01 0.  1.
</event>
<event>
 5   0  0.4071750E-09  0.3798851E+04  0.7818609E-02  0.8046402E-01
        1   -1    0    0  501    0  0.00000000000E+00  0.00000000000E+00  0.18430616187E+04  0.18430616187E+04  0.50400001928E-02 0.  1.
       -1   -1    0    0    0  501  0.00000000000E+00  0.00000000000E+00 -0.19575128435E+04  0.19575128435E+04  0.50400001928E-02 0. -1.
    10030    2    1    2    0    0  0.00000000000E+00  0.00000000000E+00 -0.11445122488E+03  0.38005744622E+04  0.37988507683E+04 0.  0.
        4    1    3    3  502    0 -0.30314029890E+03 -0.33018254110E+03 -0.19038422558E+04  0.19558965972E+04  0.12699999809E+01 0. -1.
       -4    1    3    3    0  502  0.30314029890E+03  0.33018254110E+03  0.17893910309E+04  0.18446778650E+04  0.12699999809E+01 0.  1.
</event>
<event>
 5   0  0.1261152E-08  0.3801032E+04  0.7818609E-02  0.8045933E-01
       -2   -1    0    0    0  501  0.00000000000E+00  0.00000000000E+00  0.16782108221E+04  0.16782108221E+04  0.25500000920E-02 0.  1.
        2   -1    0    0  501    0  0.00000000000E+00  0.00000000000E+00 -0.21522691809E+04  0.21522691809E+04  0.25500000920E-02 0. -1.
    10030    2    1    2    0    0  0.00000000000E+00  0.00000000000E+00 -0.47405835875E+03  0.38304800030E+04  0.38010321922E+04 0.  0.
        2    1    3    3  502    0 -0.17321300651E+04  0.17255494536E+02 -0.10250006679E+04  0.20127589731E+04  0.25500000920E-02 0. -1.
       -2    1    3    3    0  502  0.17321300651E+04 -0.17255494536E+02  0.55094230917E+03  0.18177210299E+04  0.25500000920E-02 0.  1.
</event>
<event>
 5   0  0.1305088E-08  0.3804004E+04  0.7818609E-02  0.8045296E-01
       -2   -1    0    0    0  501  0.00000000000E+00  0.00000000000E+00  0.12849259020E+04  0.12849259020E+04  0.25500000920E-02 0.  1.
        2   -1    0    0  501    0  0.00000000000E+00  0.00000000000E+00 -0.28154241652E+04  0.28154241652E+04  0.25500000920E-02 0. -1.
    10030    2    1    2    0    0  0.00000000000E+00  0.00000000000E+00 -0.15304982632E+04  0.41003500671E+04  0.38040039090E+04 0.  0.
        3    1    3    3  502    0 -0.68046216647E+03 -0.11093268824E+04 -0.22603822683E+04  0.26082490105E+04  0.10100000352E+00 0. -1.
       -3    1    3    3    0  502  0.68046216647E+03  0.11093268824E+04  0.72988400506E+03  0.14921010566E+04  0.10100000352E+00 0.  1.
</event>
<event>
 5   0  0.4071750E-09  0.3800415E+04  0.7818609E-02  0.8046066E-01
        1   -1    0    0  501    0  0.00000000000E+00  0.00000000000E+00  0.24409993599E+04  0.24409993599E+04  0.50400001928E-02 0.  1.
       -1   -1    0    0    0  501  0.00000000000E+00  0.00000000000E+00 -0.14792251495E+04  0.14792251495E+04  0.50400001928E-02 0. -1.
    10030    2    1    2    0    0  0.00000000000E+00  0.00000000000E+00  0.96177421041E+03  0.39202245094E+04  0.38004145264E+04 0.  0.
        3    1    3    3  502    0 -0.54022176795E+03  0.17687385212E+04  0.30650011263E+02  0.18496526562E+04  0.10100000352E+00 0. -1.
       -3    1    3    3    0  502  0.54022176795E+03 -0.17687385212E+04  0.93112419915E+03  0.20705718532E+04  0.10100000352E+00 0.  1.
</event>
<event>
 5   0  0.1305088E-08  0.3800696E+04  0.7818609E-02  0.8046006E-01
        2   -1    0    0  501    0  0.00000000000E+00  0.00000000000E+00  0.24629346198E+04  0.24629346198E+04  0.25500000920E-02 0.  1.
       -2   -1    0    0    0  501  0.00000000000E+00  0.00000000000E+00 -0.14662678801E+04  0.14662678801E+04  0.25500000920E-02 0. -1.
    10030    2    1    2    0    0  0.00000000000E+00  0.00000000000E+00  0.99666673966E+03  0.39292024999E+04  0.38006956857E+04 0.  0.
        3    1    3    3  502    0 -0.27172753528E+03 -0.64121597164E+03 -0.13295925600E+04  0.15009364282E+04  0.10100000352E+00 0. -1.
       -3    1    3    3    0  502  0.27172753528E+03  0.64121597164E+03  0.23262592996E+04  0.24282660717E+04  0.10100000352E+00 0.  1.
</event>
<event>
 5   0  0.4071750E-09  0.3799273E+04  0.7818609E-02  0.8046311E-01
        1   -1    0    0  501    0  0.00000000000E+00  0.00000000000E+00  0.23938280494E+04  0.23938280494E+04  0.50400001928E-02 0. -1.
       -1   -1    0    0    0  501  0.00000000000E+00  0.00000000000E+00 -0.15074679937E+04  0.15074679937E+04  0.50400001928E-02 0.  1.
    10030    2    1    2    0    0  0.00000000000E+00  0.00000000000E+00  0.88636005570E+03  0.39012960432E+04  0.37992731763E+04 0.  0.
        1    1    3    3  502    0  0.10497681490E+04 -0.10177824979E+04 -0.80212026955E+03  0.16677203922E+04  0.50400001928E-02 0.  1.
       -1    1    3    3    0  502 -0.10497681490E+04  0.10177824979E+04  0.16884803253E+04  0.22335756510E+04  0.50400001928E-02 0. -1.
</event>
<event>
 5   0  0.1293993E-08  0.3799991E+04  0.7818609E-02  0.8046157E-01
       -2   -1    0    0    0  501  0.00000000000E+00  0.00000000000E+00  0.15277377999E+04  0.15277377999E+04  0.25500000920E-02 0. -1.
        2   -1    0    0  501    0  0.00000000000E+00  0.00000000000E+00 -0.23629591721E+04  0.23629591721E+04  0.25500000920E-02 0.  1.
    10030    2    1    2    0    0  0.00000000000E+00  0.00000000000E+00 -0.83522137219E+03  0.38906969720E+04  0.37999905510E+04 0.  0.
        5    1    3    3  502    0 -0.14771241388E+04  0.11005948705E+04  0.59072264896E+02  0.18430182888E+04  0.46999998093E+01 0. -1.
       -5    1    3    3    0  502  0.14771241388E+04 -0.11005948705E+04 -0.89429363708E+03  0.20476786832E+04  0.46999998093E+01 0.  1.
</event>
<event>
 5   0  0.4071750E-09  0.3800651E+04  0.7818609E-02  0.8046015E-01
        1   -1    0    0  501    0  0.00000000000E+00  0.00000000000E+00  0.13166322273E+04  0.13166322273E+04  0.50400001928E-02 0. -1.
       -1   -1    0    0    0  501  0.00000000000E+00  0.00000000000E+00 -0.27427829221E+04  0.27427829221E+04  0.50400001928E-02 0.  1.
    10030    2    1    2    0    0  0.00000000000E+00  0.00000000000E+00 -0.14261506948E+04  0.40594151493E+04  0.38006506746E+04 0.  0.
        3    1    3    3  502    0 -0.75998360850E+03 -0.17413714035E+04 -0.75139155393E+03  0.20431687957E+04  0.10100000352E+00 0.  1.
       -3    1    3    3    0  502  0.75998360850E+03  0.17413714035E+04 -0.67475914088E+03  0.20162463536E+04  0.10100000352E+00 0. -1.
</event>
<event>
 5   0  0.1261152E-08  0.3802674E+04  0.7818609E-02  0.8045581E-01
       -2   -1    0    0    0  501  0.00000000000E+00  0.00000000000E+00  0.15550801383E+04  0.15550801383E+04  0.25500000920E-02 0.  1.
        2   -1    0    0  501    0  0.00000000000E+00  0.00000000000E+00 -0.23246915135E+04  0.23246915135E+04  0.25500000920E-02 0. -1.
    10030    2    1    2    0    0  0.00000000000E+00  0.00000000000E+00 -0.76961137520E+03  0.38797716519E+04  0.38026735860E+04 0.  0.
        2    1    3    3  502    0  0.34800108593E+03 -0.16847945205E+02  0.15222329263E+04  0.15615958796E+04  0.25500000920E-02 0.  1.
       -2    1    3    3    0  502 -0.34800108593E+03  0.16847945205E+02 -0.22918443015E+04  0.23181757723E+04  0.25500000920E-02 0. -1.
</event>
<event>
 5   0  0.4071750E-09  0.3799991E+04  0.7818609E-02  0.8046157E-01
        1   -1    0    0  501    0  0.00000000000E+00  0.00000000000E+00  0.13346360500E+04  0.13346360500E+04  0.50400001928E-02 0. -1.
       -1   -1    0    0    0  501  0.00000000000E+00  0.00000000000E+00 -0.27048442408E+04  0.27048442409E+04  0.50400001928E-02 0.  1.
    10030    2    1    2    0    0  0.00000000000E+00  0.00000000000E+00 -0.13702081908E+04  0.40394802909E+04  0.37999908598E+04 0.  0.
        5    1    3    3  502    0  0.17517034732E+04 -0.56349367647E+03 -0.18202274569E+03  0.18490928997E+04  0.46999998093E+01 0. -1.
       -5    1    3    3    0  502 -0.17517034732E+04  0.56349367647E+03 -0.11881854451E+04  0.21903873912E+04  0.46999998093E+01 0.  1.
</event>
<event>
 5   0  0.4071750E-09  0.3802848E+04  0.7818609E-02  0.8045544E-01
       -1   -1    0    0    0  501  0.00000000000E+00  0.00000000000E+00  0.15184712569E+04  0.15184712569E+04  0.50400001928E-02 0.  1.
        1   -1    0    0  501    0  0.00000000000E+00  0.00000000000E+00 -0.23809561403E+04  0.23809561403E+04  0.50400001928E-02 0. -1.
    10030    2    1    2    0    0  0.00000000000E+00  0.00000000000E+00 -0.86248488342E+03  0.38994273973E+04  0.38028481238E+04 0.  0.
        2    1    3    3  502    0 -0.40798172586E+03 -0.13730167486E+04 -0.17135168882E+04  0.22333302951E+04  0.25500000920E-02 0. -1.
       -2    1    3    3    0  502  0.40798172586E+03  0.13730167486E+04  0.85103200482E+03  0.16660971022E+04  0.25500000920E-02 0.  1.
</event>
<event>
 5   0  0.4071750E-09  0.3799739E+04  0.7818609E-02  0.8046211E-01
       -3   -1    0    0    0  501  0.00000000000E+00  0.00000000000E+00  0.25760272200E+04  0.25760272220E+04  0.10100000352E+00 0.  1.
        3   -1    0    0  501    0  0.00000000000E+00  0.00000000000E+00 -0.14011901125E+04  0.14011901162E+04  0.10100000352E+00 0. -1.
    10030    2    1    2    0    0  0.00000000000E+00  0.00000000000E+00  0.11748371075E+04  0.39772173382E+04  0.37997388760E+04 0.  0.
        4    1    3    3  502    0 -0.10312881798E+04  0.56085575158E+03  0.21509733186E+04  0.24504698150E+04  0.12699999809E+01 0.  1.
       -4    1    3    3    0  502  0.10312881798E+04 -0.56085575158E+03 -0.97613621114E+03  0.15267475232E+04  0.12699999809E+01 0. -1.
</event>
<event>
 5   0  0.1293993E-08  0.3795229E+04  0.7818609E-02  0.8047180E-01
       -2   -1    0    0    0  501  0.00000000000E+00  0.00000000000E+00  0.15975293649E+04  0.15975293649E+04  0.25500000920E-02 0. -1.
        2   -1    0    0  501    0  0.00000000000E+00  0.00000000000E+00 -0.22540680646E+04  0.22540680646E+04  0.25500000920E-02 0.  1.
    10030    2    1    2    0    0  0.00000000000E+00  0.00000000000E+00 -0.65653869967E+03  0.38515974295E+04  0.37952285431E+04 0.  0.
        5    1    3    3  502    0  0.59644727245E+02  0.17939992317E+04  0.29644399875E+03  0.18193108231E+04  0.46999998093E+01 0. -1.
       -5    1    3    3    0  502 -0.59644727245E+02 -0.17939992317E+04 -0.95298269842E+03  0.20322866063E+04  0.46999998093E+01 0.  1.
</event>
<event>
 5   0  0.4071750E-09  0.3799581E+04  0.7818609E-02  0.8046245E-01
       -1   -1    0    0    0  501  0.00000000000E+00  0.00000000000E+00  0.23903335948E+04  0.23903335948E+04  0.50400001928E-02 0. -1.
        1   -1    0    0  501    0  0.00000000000E+00  0.00000000000E+00 -0.15099160710E+04  0.15099160710E+04  0.50400001928E-02 0.  1.
    10030    2    1    2    0    0  0.00000000000E+00  0.00000000000E+00  0.88041752374E+03  0.39002496658E+04  0.37995805610E+04 0.  0.
        5    1    3    3  502    0  0.57334885373E+03  0.16790978488E+04 -0.25681259159E+03  0.17927836710E+04  0.46999998093E+01 0.  1.
       -5    1    3    3    0  502 -0.57334885373E+03 -0.16790978488E+04  0.11372301153E+04  0.21074659948E+04  0.46999998093E+01 0. -1.
</event>
<event>
 5   0  0.1327249E-08  0.3800259E+04  0.7818609E-02  0.8046099E-01
        2   -1    0    0  501    0  0.00000000000E+00  0.00000000000E+00  0.19320302414E+04  0.19320302414E+04  0.25500000920E-02 0.  1.
       -2   -1    0    0    0  501  0.00000000000E+00  0.00000000000E+00 -0.18687552375E+04  0.18687552375E+04  0.25500000920E-02 0. -1.
    10030    2    1    2    0    0  0.00000000000E+00  0.00000000000E+00  0.63275003820E+02  0.38007854789E+04  0.38002587452E+04 0.  0.
        1    1    3    3  502    0  0.38213164400E+02 -0.17062842425E+04 -0.80371803447E+03  0.18864858444E+04  0.50400001928E-02 0. -1.
       -1    1    3    3    0  502 -0.38213164400E+02  0.17062842425E+04  0.86699303829E+03  0.19142996345E+04  0.50400001928E-02 0.  1.
</event>
<event>
 5   0  0.1293993E-08  0.3795452E+04  0.7818609E-02  0.8047132E-01
       -2   -1    0    0    0  501  0.00000000000E+00  0.00000000000E+00  0.12255678659E+04  0.12255678659E+04  0.25500000920E-02 0.  1.
        2   -1    0    0  501    0  0.00000000000E+00  0.00000000000E+00 -0.29385265700E+04  0.29385265700E+04  0.25500000920E-02 0. -1.
    10030    2    1    2    0    0  0.00000000000E+00  0.00000000000E+00 -0.17129587041E+04  0.41640944359E+04  0.37954518769E+04 0.  0.
        5    1    3    3  502    0  0.43787870377E+03  0.18453527488E+04 -0.78472754786E+03  0.20525311060E+04  0.46999998093E+01 0.  1.
       -5    1    3    3    0  502 -0.43787870377E+03 -0.18453527488E+04 -0.92823115619E+03  0.21115633299E+04  0.46999998093E+01 0. -1.
</event>
<event>
 5   0  0.1293993E-08  0.3800308E+04  0.7818609E-02  0.8046089E-01
       -2   -1    0    0    0  501  0.00000000000E+00  0.00000000000E+00  0.20631942751E+04  0.20631942751E+04  0.25500000920E-02 0.  1.
        2   -1    0    0  501    0  0.00000000000E+00  0.00000000000E+00 -0.17499974429E+04  0.17499974429E+04  0.25500000920E-02 0. -1.
    10030    2    1    2    0    0  0.00000000000E+00  0.00000000000E+00  0.31319683224E+03  0.38131917180E+04  0.38003077274E+04 0.  0.
        5    1    3    3  502    0 -0.15413143715E+03  0.40403717131E+03  0.20131578345E+04  0.20590845277E+04  0.46999998093E+01 0.  1.
       -5    1    3    3    0  502  0.15413143715E+03 -0.40403717131E+03 -0.16999610023E+04  0.17541071903E+04  0.46999998093E+01 0. -1.
</event>
<event>
 5   0  0.4071750E-09  0.3799327E+04  0.7818609E-02  0.8046299E-01
       -1   -1    0    0    0  501  0.00000000000E+00  0.00000000000E+00  0.14900296606E+04  0.14900296607E+04  0.50400001928E-02 0.  1.
        1   -1    0    0  501    0  0.00000000000E+00  0.00000000000E+00 -0.24219128415E+04  0.24219128415E+04  0.50400001928E-02 0. -1.
    10030    2    1    2    0    0  0.00000000000E+00  0.00000000000E+00 -0.93188318081E+03  0.39119425021E+04  0.37993272927E+04 0.  0.
        5    1    3    3  502    0 -0.81947349065E+03  0.13246743273E+03 -0.22252767523E+04  0.23750711857E+04  0.46999998093E+01 0. -1.
       -5    1    3    3    0  502  0.81947349065E+03 -0.13246743273E+03  0.12933935715E+04  0.15368713165E+04  0.46999998093E+01 0.  1.
</event>
<event>
 5   0  0.4071750E-09  0.3800990E+04  0.7818609E-02  0.8045943E-01
       -3   -1    0    0    0  501  0.00000000000E+00  0.00000000000E+00  0.17302649358E+04  0.17302649388E+04  0.10100000352E+00 0.  1.
        3   -1    0    0  501    0  0.00000000000E+00  0.00000000000E+00 -0.20874724976E+04  0.20874725000E+04  0.10100000352E+00 0. -1.
    10030    2    1    2    0    0  0.00000000000E+00  0.00000000000E+00 -0.35720756172E+03  0.38177374388E+04  0.38009895961E+04 0.  0.
        2    1    3    3  502    0  0.74356321296E+03 -0.17343454723E+04 -0.40551958472E+03  0.19301001535E+04  0.25500000920E-02 0.  1.
       -2    1    3    3    0  502 -0.74356321296E+03  0.17343454723E+04  0.48312023001E+02  0.18876372853E+04  0.25500000920E-02 0. -1.
</event>
<event>
 5   0  0.1293993E-08  0.3799675E+04  0.7818609E-02  0.8046225E-01
        2   -1    0    0  501    0  0.00000000000E+00  0.00000000000E+00  0.17452951945E+04  0.17452951945E+04  0.25500000920E-02 0. -1.
       -2   -1    0    0    0  501  0.00000000000E+00  0.00000000000E+00 -0.20680642136E+04  0.20680642136E+04  0.25500000920E-02 0.  1.
    10030    2    1    2    0    0  0.00000000000E+00  0.00000000000E+00 -0.32276901910E+03  0.38133594081E+04  0.37996750039E+04 0.  0.
        5    1    3    3  502    0 -0.14091848896E+04 -0.11706576671E+04  0.34353677148E+03  0.18639423355E+04  0.46999998093E+01 0. -1.
       -5    1    3    3    0  502  0.14091848896E+04  0.11706576671E+04 -0.66630579058E+03  0.19494170726E+04  0.46999998093E+01 0.  1.
</event>
<event>
 5   0  0.4071750E-09  0.3801318E+04  0.7818609E-02  0.8045872E-01
        1   -1    0    0  501    0  0.00000000000E+00  0.00000000000E+00  0.10353103844E+04  0.10353103845E+04  0.50400001928E-02 0.  1.
       -1   -1    0    0    0  501  0.00000000000E+00  0.00000000000E+00 -0.34892965398E+04  0.34892965398E+04  0.50400001928E-02 0. -1.
    10030    2    1    2    0    0  0.00000000000E+00  0.00000000000E+00 -0.24539861554E+04  0.45246069243E+04  0.38013181620E+04 0.  0.
        4    1    3    3  502    0 -0.45256302740E+03  0.95884808894E+02  0.96727672080E+03  0.10722094282E+04  0.12699999809E+01 0.  1.
       -4    1    3    3    0  502  0.45256302740E+03 -0.95884808894E+02 -0.34212628762E+04  0.34523974961E+04  0.12699999809E+01 0. -1.
</event>
<event>
 5   0  0.1327249E-08  0.3804987E+04  0.7818609E-02  0.8045086E-01
        2   -1    0    0  501    0  0.00000000000E+00  0.00000000000E+00  0.18266773841E+04  0.18266773841E+04  0.25500000920E-02 0.  1.
       -2   -1    0    0    0  501  0.00000000000E+00  0.00000000000E+00 -0.19814564032E+04  0.19814564032E+04  0.25500000920E-02 0. -1.
    10030    2    1    2    0    0  0.00000000000E+00  0.00000000000E+00 -0.15477901912E+03  0.38081337872E+04  0.38049870429E+04 0.  0.
        1    1    3    3  502    0  0.12674954152E+03 -0.24089121786E+03  0.18070876347E+04  0.18274735962E+04  0.50400001928E-02 0.  1.
       -1    1    3    3    0  502 -0.12674954152E+03  0.24089121786E+03 -0.19618666538E+04  0.19806601911E+04  0.50400001928E-02 0. -1.
</event>
<event>
 5   0  0.4071750E-09  0.3799867E+04  0.7818609E-02  0.8046183E-01
       -1   -1    0    0    0  501  0.00000000000E+00  0.00000000000E+00  0.17706214439E+04  0.17706214439E+04  0.50400001928E-02 0. -1.
        1   -1    0    0  501    0  0.00000000000E+00  0.00000000000E+00 -0.20386894579E+04  0.20386894579E+04  0.50400001928E-02 0.  1.
    10030    2    1    2    0    0  0.00000000000E+00  0.00000000000E+00 -0.26806801402E+03  0.38093109018E+04  0.37998669828E+04 0.  0.
        5    1    3    3  502    0  0.16823801169E+04  0.42483474459E+03 -0.90980335432E+03  0.19592477259E+04  0.46999998093E+01 0. -1.
       -5    1    3    3    0  502 -0.16823801169E+04 -0.42483474459E+03  0.64173534030E+03  0.18500631759E+04  0.46999998093E+01 0.  1.
</event>
<event>
 5   0  0.4071750E-09  0.3798849E+04  0.7818609E-02  0.8046402E-01
       -1   -1    0    0    0  501  0.00000000000E+00  0.00000000000E+00  0.24217583786E+04  0.24217583786E+04  0.50400001928E-02 0.  1.
        1   -1    0    0  501    0  0.00000000000E+00  0.00000000000E+00 -0.14897494901E+04  0.14897494901E+04  0.50400001928E-02 0. -1.
    10030    2    1    2    0    0  0.00000000000E+00  0.00000000000E+00  0.93200888854E+03  0.39115078687E+04  0.37988489360E+04 0.  0.
        1    1    3    3  502    0  0.15276545669E+04 -0.85566849875E+02  0.16248882518E+04  0.22318853000E+04  0.50400001928E-02 0. -1.
       -1    1    3    3    0  502 -0.15276545669E+04  0.85566849875E+02 -0.69287936321E+03  0.16796225687E+04  0.50400001928E-02 0.  1.
</event>
<event>
 5   0  0.4071750E-09  0.3799171E+04  0.7818609E-02  0.8046333E-01
        1   -1    0    0  501    0  0.00000000000E+00  0.00000000000E+00  0.21245326662E+04  0.21245326662E+04  0.50400001928E-02 0.  1.
       -1   -1    0    0    0  501  0.00000000000E+00  0.00000000000E+00 -0.16984562314E+04  0.16984562314E+04  0.50400001928E-02 0. -1.
    10030    2    1    2    0    0  0.00000000000E+00  0.00000000000E+00  0.42607643473E+03  0.38229888976E+04  0.37991713548E+04 0.  0.
        1    1    3    3  502    0  0.12767358057E+04  0.12100237627E+04 -0.50854441226E+03  0.18310732489E+04  0.50400001928E-02 0. -1.
       -1    1    3    3    0  502 -0.12767358057E+04 -0.12100237627E+04  0.93462084698E+03  0.19919156487E+04  0.50400001928E-02 0.  1.
</event>
<event>
 5   0  0.4071750E-09  0.3801442E+04  0.7818609E-02  0.8045845E-01
        1   -1    0    0  501    0  0.00000000000E+00  0.00000000000E+00  0.21542412530E+04  0.21542412530E+04  0.50400001928E-02 0.  1.
       -1   -1    0    0    0  501  0.00000000000E+00  0.00000000000E+00 -0.16770365192E+04  0.16770365192E+04  0.50400001928E-02 0. -1.
    10030    2    1    2    0    0  0.00000000000E+00  0.00000000000E+00  0.47720473384E+03  0.38312777722E+04  0.38014424906E+04 0.  0.
        4    1    3    3  502    0  0.68638942157E+03 -0.17705177283E+04  0.15502884982E+03  0.19052293882E+04  0.12699999809E+01 0. -1.
       -4    1    3    3    0  502 -0.68638942157E+03  0.17705177283E+04  0.32217588402E+03  0.19260483840E+04  0.12699999809E+01 0.  1.
</event>
<event>
 5   0  0.1264013E-08  0.3799340E+04  0.7818609E-02  0.8046297E-01
       -2   -1    0    0    0  501  0.00000000000E+00  0.00000000000E+00  0.16414839615E+04  0.16414839615E+04  0.25500000920E-02 0. -1.
        2   -1    0    0  501    0  0.00000000000E+00  0.00000000000E+00 -0.21984655652E+04  0.21984655652E+04  0.25500000920E-02 0.  1.
    10030    2    1    2    0    0  0.00000000000E+00  0.00000000000E+00 -0.55698160363E+03  0.38399495267E+04  0.37993399243E+04 0.  0.
        4    1    3    3  502    0 -0.13639054745E+04 -0.12498086925E+04  0.15796338718E+03  0.18566674328E+04  0.12699999809E+01 0.  1.
       -4    1    3    3    0  502  0.13639054745E+04  0.12498086925E+04 -0.71494499081E+03  0.19832820939E+04  0.12699999809E+01 0. -1.
</event>
<event>
 5   0  0.1327249E-08  0.3805121E+04  0.7818609E-02  0.8045057E-01
       -2   -1    0    0    0  501  0.00000000000E+00  0.00000000000E+00  0.13037732821E+04  0.13037732821E+04  0.25500000920E-02 0. -1.
        2   -1    0    0  501    0  0.00000000000E+00  0.00000000000E+00 -0.27763539761E+04  0.27763539761E+04  0.25500000920E-02 0.  1.
    10030    2    1    2    0    0  0.00000000000E+00  0.00000000000E+00 -0.14725806940E+04  0.40801272582E+04  0.38051208315E+04 0.  0.
        1    1    3    3  502    0 -0.46069200900E+03  0.11671573543E+04 -0.22697688214E+04  0.25935196007E+04  0.50400001928E-02 0.  1.
       -1    1    3    3    0  502  0.46069200900E+03 -0.11671573543E+04  0.79718812736E+03  0.14866076575E+04  0.50400001928E-02 0. -1.
</event>
<event>
 5   0  0.4071750E-09  0.3801707E+04  0.7818609E-02  0.8045789E-01
       -1   -1    0    0    0  501  0.00000000000E+00  0.00000000000E+00  0.21088439718E+04  0.21088439718E+04  0.50400001928E-02 0. -1.
        1   -1    0    0  501    0  0.00000000000E+00  0.00000000000E+00 -0.17133768914E+04  0.17133768914E+04  0.50400001928E-02 0.  1.
    10030    2    1    2    0    0  0.00000000000E+00  0.00000000000E+00  0.39546708046E+03  0.38222208632E+04  0.38017072633E+04 0.  0.
        1    1    3    3  502    0  0.11699613984E+04  0.34089956925E+03 -0.12689810254E+04  0.17593564258E+04  0.50400001928E-02 0. -1.
       -1    1    3    3    0  502 -0.11699613984E+04 -0.34089956925E+03  0.16644481059E+04  0.20628644374E+04  0.50400001928E-02 0.  1.
</event>
<event>
 5   0  0.1293993E-08  0.3798337E+04  0.7818609E-02  0.8046512E-01
        2   -1    0    0  501    0  0.00000000000E+00  0.00000000000E+00  0.25056422930E+04  0.25056422930E+04  0.25500000920E-02 0. -1.
       -2   -1    0    0    0  501  0.00000000000E+00  0.00000000000E+00 -0.14394873385E+04  0.14394873385E+04  0.25500000920E-02 0.  1.
    10030    2    1    2    0    0  0.00000000000E+00  0.00000000000E+00  0.10661549545E+04  0.39451296314E+04  0.37983366652E+04 0.  0.
        5    1    3    3  502    0  0.77128036847E+03 -0.49312086018E+02 -0.12687613739E+04  0.14856253238E+04  0.46999998093E+01 0.  1.
       -5    1    3    3    0  502 -0.77128036847E+03  0.49312086018E+02  0.23349163284E+04  0.24595043077E+04  0.46999998093E+01 0. -1.
</event>
<event>
 5   0  0.1305088E-08  0.3800358E+04  0.7818609E-02  0.8046078E-01
        2   -1    0    0  501    0  0.00000000000E+00  0.00000000000E+00  0.12529644667E+04  0.12529644667E+04  0.25500000920E-02 0. -1.
       -2   -1    0    0    0  501  0.00000000000E+00  0.00000000000E+00 -0.28817105955E+04  0.28817105955E+04  0.25500000920E-02 0.  1.
    10030    2    1    2    0    0  0.00000000000E+00  0.00000000000E+00 -0.16287461288E+04  0.41346750622E+04  0.38003583934E+04 0.  0.
        3    1    3    3  502    0 -0.15869705375E+04  0.86746350691E+03 -0.18025135251E+03  0.18175420169E+04  0.10100000352E+00 0. -1.
       -3    1    3    3    0  502  0.15869705375E+04 -0.86746350691E+03 -0.14484947762E+04  0.23171330453E+04  0.10100000352E+00 0.  1.
</event>
<event>
 5   0  0.1264013E-08  0.3798862E+04  0.7818609E-02  0.8046399E-01
       -2   -1    0    0    0  501  0.00000000000E+00  0.00000000000E+00  0.14702637351E+04  0.14702637351E+04  0.25500000920E-02 0.  1.
        2   -1    0    0  501    0  0.00000000000E+00  0.00000000000E+00 -0.24538715145E+04  0.24538715145E+04  0.25500000920E-02 0. -1.
    10030    2    1    2    0    0  0.00000000000E+00  0.00000000000E+00 -0.98360777942E+03  0.39241352496E+04  0.37988620919E+04 0.  0.
        4    1    3    3  502    0 -0.17513809731E+03  0.12254641384E+04  0.99632808425E+03  0.15890585175E+04  0.12699999809E+01 0.  1.
       -4    1    3    3    0  502  0.17513809731E+03 -0.12254641384E+04 -0.19799358637E+04  0.23350767321E+04  0.12699999809E+01 0. -1.
</event>
<event>
 5   0  0.1261152E-08  0.3806095E+04  0.7818609E-02  0.8044848E-01
        2   -1    0    0  501    0  0.00000000000E+00  0.00000000000E+00  0.16110317121E+04  0.16110317121E+04  0.25500000920E-02 0. -1.
       -2   -1    0    0    0  501  0.00000000000E+00  0.00000000000E+00 -0.22479945415E+04  0.22479945415E+04  0.25500000920E-02 0.  1.
    10030    2    1    2    0    0  0.00000000000E+00  0.00000000000E+00 -0.63696282944E+03  0.38590262536E+04  0.38060953719E+04 0.  0.
        2    1    3    3  502    0 -0.10597590761E+04 -0.71917299125E+03  0.11086772032E+04  0.16939493002E+04  0.25500000920E-02 0. -1.
       -2    1    3    3    0  502  0.10597590761E+04  0.71917299125E+03 -0.17456400326E+04  0.21650769534E+04  0.25500000920E-02 0.  1.
</event>
<event>
 5   0  0.1261152E-08  0.3799147E+04  0.7818609E-02  0.8046338E-01
        2   -1    0    0  501    0  0.00000000000E+00  0.00000000000E+00  0.21087238750E+04  0.21087238750E+04  0.25500000920E-02 0. -1.
       -2   -1    0    0    0  501  0.00000000000E+00  0.00000000000E+00 -0.17111672020E+04  0.17111672020E+04  0.25500000920E-02 0.  1.
    10030    2    1    2    0    0  0.00000000000E+00  0.00000000000E+00  0.39755667307E+03  0.38198910770E+04  0.37991468163E+04 0.  0.
        2    1    3    3  502    0  0.77238265989E+03 -0.25665778371E+03 -0.15269649131E+04  0.17303381280E+04  0.25500000920E-02 0.  1.
       -2    1    3    3    0  502 -0.77238265989E+03  0.25665778371E+03  0.19245215862E+04  0.20895529490E+04  0.25500000920E-02 0. -1.
</event>
<event>
 5   0  0.1261152E-08  0.3799563E+04  0.7818609E-02  0.8046249E-01
        2   -1    0    0  501    0  0.00000000000E+00  0.00000000000E+00  0.21563371268E+04  0.21563371268E+04  0.25500000920E-02 0. -1.
       -2   -1    0    0    0  501  0.00000000000E+00  0.00000000000E+00 -0.16737501724E+04  0.16737501724E+04  0.25500000920E-02 0.  1.
    10030    2    1    2    0    0  0.00000000000E+00  0.00000000000E+00  0.48258695437E+03  0.38300872992E+04  0.37995629421E+04 0.  0.
        2    1    3    3  502    0 -0.60293874834E+03 -0.16744812916E+04 -0.42868644612E+03  0.18306268869E+04  0.25500000920E-02 0.  1.
       -2    1    3    3    0  502  0.60293874834E+03  0.16744812916E+04  0.91127340049E+03  0.19994604123E+04  0.25500000920E-02 0. -1.
</event>
<event>
 5   0  0.1305088E-08  0.3796344E+04  0.7818609E-02  0.8046940E-01
       -2   -1    0    0    0  501  0.00000000000E+00  0.00000000000E+00  0.20246608130E+04  0.20246608130E+04  0.25500000920E-02 0. -1.
        2   -1    0    0  501    0  0.00000000000E+00  0.00000000000E+00 -0.17795851237E+04  0.17795851237E+04  0.25500000920E-02 0.  1.
    10030    2    1    2    0    0  0.00000000000E+00  0.00000000000E+00  0.24507568934E+03  0.38042459367E+04  0.37963436427E+04 0.  0.
        3    1    3    3  502    0  0.38995519844E+03 -0.17522715677E+04  0.74069753998E+03  0.19419458179E+04  0.10100000352E+00 0. -1.
       -3    1    3    3    0  502 -0.38995519844E+03  0.17522715677E+04 -0.49562185064E+03  0.18623001189E+04  0.10100000352E+00 0.  1.
</event>
<event>
 5   0  0.1264013E-08  0.3799673E+04  0.7818609E-02  0.8046225E-01
        2   -1    0    0  501    0  0.00000000000E+00  0.00000000000E+00  0.15658268514E+04  0.15658268514E+04  0.25500000920E-02 0. -1.
       -2   -1    0    0    0  501  0.00000000000E+00  0.00000000000E+00 -0.23050947700E+04  0.23050947700E+04  0.25500000920E-02 0.  1.
    10030    2    1    2    0    0  0.00000000000E+00  0.00000000000E+00 -0.73926791862E+03  0.38709216214E+04  0.37996732943E+04 0.  0.
        4    1    3    3  502    0 -0.18794895463E+04 -0.22419410875E+03 -0.53589252758E+03  0.19672128423E+04  0.12699999809E+01 0.  1.
       -4    1    3    3    0  502  0.18794895463E+04  0.22419410875E+03 -0.20337539105E+03  0.19037087791E+04  0.12699999809E+01 0. -1.
</event>
<event>
 5   0  0.1327249E-08  0.3796879E+04  0.7818609E-02  0.8046825E-01
        2   -1    0    0  501    0  0.00000000000E+00  0.00000000000E+00  0.18579810956E+04  0.18579810956E+04  0.25500000920E-02 0. -1.
       -2   -1    0    0    0  501  0.00000000000E+00  0.00000000000E+00 -0.19397793615E+04  0.19397793615E+04  0.25500000920E-02 0.  1.
    10030    2    1    2    0    0  0.00000000000E+00  0.00000000000E+00 -0.81798265831E+02  0.37977604571E+04  0.37968794468E+04 0.  0.
        1    1    3    3  502    0 -0.13117339703E+04  0.36433309604E+03 -0.13643421076E+04  0.19273852755E+04  0.50400001928E-02 0.  1.
       -1    1    3    3    0  502  0.13117339703E+04 -0.36433309604E+03  0.12825438417E+04  0.18703751816E+04  0.50400001928E-02 0. -1.
</event>
<event>
 5   0  0.4071750E-09  0.3798997E+04  0.7818609E-02  0.8046370E-01
        1   -1    0    0  501    0  0.00000000000E+00  0.00000000000E+00  0.22734941699E+04  0.22734941699E+04  0.50400001928E-02 0. -1.
       -1   -1    0    0    0  501  0.00000000000E+00  0.00000000000E+00 -0.15870258906E+04  0.15870258906E+04  0.50400001928E-02 0.  1.
    10030    2    1    2    0    0  0.00000000000E+00  0.00000000000E+00  0.68646827930E+03  0.38605200606E+04  0.37989967675E+04 0.  0.
        1    1    3    3  502    0  0.32410923751E+03 -0.57665343330E+03  0.21526650705E+04  0.22520086336E+04  0.50400001928E-02 0. -1.
       -1    1    3    3    0  502 -0.32410923751E+03  0.57665343330E+03 -0.14661967912E+04  0.16085114269E+04  0.50400001928E-02 0.  1.
</event>
<event>
 5   0  0.4071750E-09  0.3800649E+04  0.7818609E-02  0.8046016E-01
       -1   -1    0    0    0  501  0.00000000000E+00  0.00000000000E+00  0.20195420410E+04  0.20195420410E+04  0.50400001928E-02 0. -1.
        1   -1    0    0  501    0  0.00000000000E+00  0.00000000000E+00 -0.17881448587E+04  0.17881448587E+04  0.50400001928E-02 0.  1.
    10030    2    1    2    0    0  0.00000000000E+00  0.00000000000E+00  0.23139718236E+03  0.38076868997E+04  0.38006492696E+04 0.  0.
        3    1    3    3  502    0  0.24480323095E+02 -0.35125712262E+03  0.19865752427E+04  0.20175386137E+04  0.10100000352E+00 0. -1.
       -3    1    3    3    0  502 -0.24480323095E+02  0.35125712262E+03 -0.17551780604E+04  0.17901482861E+04  0.10100000352E+00 0.  1.
</event>
<event>
 5   0  0.4071750E-09  0.3799662E+04  0.7818609E-02  0.8046227E-01
       -1   -1    0    0    0  501  0.00000000000E+00  0.00000000000E+00  0.15638978447E+04  0.15638978447E+04  0.50400001928E-02 0.  1.
        1   -1    0    0  501    0  0.00000000000E+00  0.00000000000E+00 -0.23079243479E+04  0.23079243479E+04  0.50400001928E-02 0. -1.
    10030    2    1    2    0    0  0.00000000000E+00  0.00000000000E+00 -0.74402650319E+03  0.38718221927E+04  0.37996620448E+04 0.  0.
        1    1    3    3  502    0  0.18119637960E+04  0.47904388149E+03 -0.68882296688E+03  0.19967906546E+04  0.50400001928E-02 0. -1.
       -1    1    3    3    0  502 -0.18119637960E+04 -0.47904388149E+03 -0.55203536313E+02  0.18750315381E+04  0.50400001928E-02 0.  1.
</event>
<event>
 5   0  0.1264013E-08  0.3801022E+04  0.7818609E-02  0.8045936E-01
        2   -1    0    0  501    0  0.00000000000E+00  0.00000000000E+00  0.13383393102E+04  0.13383393102E+04  0.25500000920E-02 0. -1.
       -2   -1    0    0    0  501  0.00000000000E+00  0.00000000000E+00 -0.26988237437E+04  0.26988237437E+04  0.25500000920E-02 0.  1.
    10030    2    1    2    0    0  0.00000000000E+00  0.00000000000E+00 -0.13604844336E+04  0.40371630539E+04  0.38010219192E+04 0.  0.
        4    1    3    3  502    0  0.50535593629E+03 -0.11434622036E+04  0.84013789320E+03  0.15062283113E+04  0.12699999809E+01 0. -1.
       -4    1    3    3    0  502 -0.50535593629E+03  0.11434622036E+04 -0.22006223268E+04  0.25309347426E+04  0.12699999809E+01 0.  1.
</event>
<event>
 5   0  0.1261152E-08  0.3800110E+04  0.7818609E-02  0.8046131E-01
        2   -1    0    0  501    0  0.00000000000E+00  0.00000000000E+00  0.22935994717E+04  0.22935994717E+04  0.25500000920E-02 0. -1.
       -2   -1    0    0    0  501  0.00000000000E+00  0.00000000000E+00 -0.15740364882E+04  0.15740364882E+04  0.25500000920E-02 0.  1.
    10030    2    1    2    0    0  0.00000000000E+00  0.00000000000E+00  0.71956298344E+03  0.38676359599E+04  0.38001101341E+04 0.  0.
        2    1    3    3  502    0 -0.10625936911E+04  0.33576191432E+03  0.19260780148E+04  0.22252231201E+04  0.25500000920E-02 0. -1.
       -2    1    3    3    0  502  0.10625936911E+04 -0.33576191432E+03 -0.12065150313E+04  0.16424128398E+04  0.25500000920E-02 0.  1.
</event>
<event>
 5   0  0.1261152E-08  0.3802747E+04  0.7818609E-02  0.8045566E-01
        2   -1    0    0  501    0  0.00000000000E+00  0.00000000000E+00  0.22770241764E+04  0.22770241764E+04  0.25500000920E-02 0. -1.
       -2   -1    0    0    0  501  0.00000000000E+00  0.00000000000E+00 -0.15876957600E+04  0.15876957600E+04  0.25500000920E-02 0.  1.
    10030    2    1    2    0    0  0.00000000000E+00  0.00000000000E+00  0.68932841642E+03  0.38647199364E+04  0.38027472334E+04 0.  0.
        2    1    3    3  502    0  0.59759442252E+03  0.15549962604E+04  0.12761650690E+04  0.20985065516E+04  0.25500000920E-02 0. -1.
       -2    1    3    3    0  502 -0.59759442252E+03 -0.15549962604E+04 -0.58683665260E+03  0.17662133848E+04  0.25500000920E-02 0.  1.
</event>
<event>
 5   0  0.1327249E-08  0.3801712E+04  0.7818609E-02  0.8045788E-01
        2   -1    0    0  501    0  0.00000000000E+00  0.00000000000E+00  0.20621742067E+04  0.20621742067E+04  0.25500000920E-02 0.  1.
       -2   -1    0    0    0  501  0.00000000000E+00  0.00000000000E+00 -0.17521575535E+04  0.17521575535E+04  0.25500000920E-02 0. -1.
    10030    2    1    2    0    0  0.00000000000E+00  0.00000000000E+00  0.31001665317E+03  0.38143317602E+04  0.38017123052E+04 0.  0.
        1    1    3    3  502    0 -0.14788844276E+04 -0.11383309456E+04  0.51725752105E+03  0.19366083329E+04  0.50400001928E-02 0.  1.
       -1    1    3    3    0  502  0.14788844276E+04  0.11383309456E+04 -0.20724086788E+03  0.18777234273E+04  0.50400001928E-02 0. -1.
</event>
<event>
 5   0  0.1293993E-08  0.3799466E+04  0.7818609E-02  0.8046270E-01
        2   -1    0    0  501    0  0.00000000000E+00  0.00000000000E+00  0.26284729231E+04  0.26284729231E+04  0.25500000920E-02 0.  1.
       -2   -1    0    0    0  501  0.00000000000E+00  0.00000000000E+00 -0.13730347114E+04  0.13730347114E+04  0.25500000920E-02 0. -1.
    10030    2    1    2    0    0  0.00000000000E+00  0.00000000000E+00  0.12554382117E+04  0.40015076345E+04  0.37994655211E+04 0.  0.
        5    1    3    3  502    0  0.13059781364E+04 -0.13633520710E+04  0.85027278325E+03  0.20705780976E+04  0.46999998093E+01 0.  1.
       -5    1    3    3    0  502 -0.13059781364E+04  0.13633520710E+04  0.40516542848E+03  0.19309295369E+04  0.46999998093E+01 0. -1.
</event>
<event>
 5   0  0.4071750E-09  0.3792792E+04  0.7818609E-02  0.8047703E-01
        1   -1    0    0  501    0  0.00000000000E+00  0.00000000000E+00  0.16434351381E+04  0.16434351381E+04  0.50400001928E-02 0. -1.
       -1   -1    0    0    0  501  0.00000000000E+00  0.00000000000E+00 -0.21882932856E+04  0.21882932856E+04  0.50400001928E-02 0.  1.
    10030    2    1    2    0    0  0.00000000000E+00  0.00000000000E+00 -0.54485814749E+03  0.38317284238E+04  0.37927921526E+04 0.  0.
        2    1    3    3  502    0 -0.35563645418E+03  0.15669221978E+04 -0.12900409521E+04  0.20605650000E+04  0.25500000920E-02 0.  1.
       -2    1    3    3    0  502  0.35563645418E+03 -0.15669221978E+04  0.74518280458E+03  0.17711634237E+04  0.25500000920E-02 0. -1.
</event>
<event>
 5   0  0.4071750E-09  0.3794120E+04  0.7818609E-02  0.8047418E-01
       -1   -1    0    0    0  501  0.00000000000E+00  0.00000000000E+00  0.19054958922E+04  0.19054958922E+04  0.50400001928E-02 0. -1.
        1   -1    0    0  501    0  0.00000000000E+00  0.00000000000E+00 -0.18886614216E+04  0.18886614216E+04  0.50400001928E-02 0.  1.
    10030    2    1    2    0    0  0.00000000000E+00  0.00000000000E+00  0.16834470674E+02  0.37941573138E+04  0.37941199668E+04 0.  0.
        3    1    3    3  502    0 -0.18394906640E+04  0.43176891071E+03 -0.16095466314E+03  0.18963271629E+04  0.10100000352E+00 0.  1.
       -3    1    3    3    0  502  0.18394906640E+04 -0.43176891071E+03  0.17778913381E+03  0.18978301508E+04  0.10100000352E+00 0. -1.
</event>
<event>
 5   0  0.4071750E-09  0.3819254E+04  0.7818609E-02  0.8042036E-01
       -1   -1    0    0    0  501  0.00000000000E+00  0.00000000000E+00  0.15678432877E+04  0.15678432878E+04  0.50400001928E-02 0.  1.
        1   -1    0    0  501    0  0.00000000000E+00  0.00000000000E+00 -0.23259179668E+04  0.23259179668E+04  0.50400001928E-02 0. -1.
    10030    2    1    2    0    0  0.00000000000E+00  0.00000000000E+00 -0.75807467910E+03  0.38937612546E+04  0.38192537869E+04 0.  0.
        1    1    3    3  502    0 -0.10873740262E+04  0.58273921537E+03 -0.18651111745E+04  0.22362036936E+04  0.50400001928E-02 0. -1.
       -1    1    3    3    0  502  0.10873740262E+04 -0.58273921537E+03  0.11070364954E+04  0.16575575610E+04  0.50400001928E-02 0.  1.
</event>
<event>
 5   0  0.4071750E-09  0.3799271E+04  0.7818609E-02  0.8046311E-01
       -1   -1    0    0    0  501  0.00000000000E+00  0.00000000000E+00  0.15462595392E+04  0.15462595392E+04  0.50400001928E-02 0.  1.
        1   -1    0    0  501    0  0.00000000000E+00  0.00000000000E+00 -0.23337710541E+04  0.23337710541E+04  0.50400001928E-02 0. -1.
    10030    2    1    2    0    0  0.00000000000E+00  0.00000000000E+00 -0.78751151487E+03  0.38800305933E+04  0.37992713800E+04 0.  0.
        2    1    3    3  502    0 -0.11642927964E+04 -0.73210746697E+03 -0.17319746338E+04  0.22116272722E+04  0.25500000920E-02 0. -1.
       -2    1    3    3    0  502  0.11642927964E+04  0.73210746697E+03  0.94446311894E+03  0.16684033211E+04  0.25500000920E-02 0.  1.
</event>
<event>
 5   0  0.1305088E-08  0.3801986E+04  0.7818609E-02  0.8045729E-01
        2   -1    0    0  501    0  0.00000000000E+00  0.00000000000E+00  0.17910936673E+04  0.17910936673E+04  0.25500000920E-02 0. -1.
       -2   -1    0    0    0  501  0.00000000000E+00  0.00000000000E+00 -0.20176355435E+04  0.20176355435E+04  0.25500000920E-02 0.  1.
    10030    2    1    2    0    0  0.00000000000E+00  0.00000000000E+00 -0.22654187618E+03  0.38087292107E+04  0.38019859257E+04 0.  0.
        3    1    3    3  502    0  0.67915052437E+03  0.16610744988E+04  0.51502587984E+03  0.18669937312E+04  0.10100000352E+00 0. -1.
       -3    1    3    3    0  502 -0.67915052437E+03 -0.16610744988E+04 -0.74156775602E+03  0.19417354795E+04  0.10100000352E+00 0.  1.
</event>
<event>
 5   0  0.4071750E-09  0.3800460E+04  0.7818609E-02  0.8046056E-01
       -1   -1    0    0    0  501  0.00000000000E+00  0.00000000000E+00  0.20725697439E+04  0.20725697439E+04  0.50400001928E-02 0.  1.
        1   -1    0    0  501    0  0.00000000000E+00  0.00000000000E+00 -0.17422206410E+04  0.17422206410E+04  0.50400001928E-02 0. -1.
    10030    2    1    2    0    0  0.00000000000E+00  0.00000000000E+00  0.33034910292E+03  0.38147903849E+04  0.38004598604E+04 0.  0.
        2    1    3    3  502    0 -0.16689917775E+04  0.70043808667E+03  0.74591185119E+03  0.19576852547E+04  0.25500000920E-02 0.  1.
       -2    1    3    3    0  502  0.16689917775E+04 -0.70043808667E+03 -0.41556274827E+03  0.18571051302E+04  0.25500000920E-02 0. -1.
</event>
<event>
 5   0  0.1293993E-08  0.3797422E+04  0.7818609E-02  0.8046708E-01
        2   -1    0    0  501    0  0.00000000000E+00  0.00000000000E+00  0.17035322377E+04  0.17035322377E+04  0.25500000920E-02 0. -1.
       -2   -1    0    0    0  501  0.00000000000E+00  0.00000000000E+00 -0.21162519739E+04  0.21162519739E+04  0.25500000920E-02 0.  1.
    10030    2    1    2    0    0  0.00000000000E+00  0.00000000000E+00 -0.41271973626E+03  0.38197842116E+04  0.37974219995E+04 0.  0.
        5    1    3    3  502    0 -0.61495924838E+02  0.18895445339E+04 -0.29480463691E+02  0.18907806542E+04  0.46999998093E+01 0.  1.
       -5    1    3    3    0  502  0.61495924838E+02 -0.18895445339E+04 -0.38323927257E+03  0.19290035574E+04  0.46999998093E+01 0. -1.
</event>
<event>
 5   0  0.1264013E-08  0.3801529E+04  0.7818609E-02  0.8045827E-01
       -2   -1    0    0    0  501  0.00000000000E+00  0.00000000000E+00  0.13091893908E+04  0.13091893908E+04  0.25500000920E-02 0.  1.
        2   -1    0    0  501    0  0.00000000000E+00  0.00000000000E+00 -0.27596502041E+04  0.27596502041E+04  0.25500000920E-02 0. -1.
    10030    2    1    2    0    0  0.00000000000E+00  0.00000000000E+00 -0.14504608133E+04  0.40688395949E+04  0.38015285186E+04 0.  0.
        4    1    3    3  502    0 -0.41222367899E+03 -0.14245045233E+04 -0.19978553052E+04  0.24880853948E+04  0.12699999809E+01 0. -1.
       -4    1    3    3    0  502  0.41222367899E+03  0.14245045233E+04  0.54739449190E+03  0.15807542001E+04  0.12699999809E+01 0.  1.
</event>
<event>
 5   0  0.4071750E-09  0.3789489E+04  0.7818609E-02  0.8048414E-01
        1   -1    0    0  501    0  0.00000000000E+00  0.00000000000E+00  0.20245888959E+04  0.20245888959E+04  0.50400001928E-02 0.  1.
       -1   -1    0    0    0  501  0.00000000000E+00  0.00000000000E+00 -0.17732276000E+04  0.17732276000E+04  0.50400001928E-02 0. -1.
    10030    2    1    2    0    0  0.00000000000E+00  0.00000000000E+00  0.25136129590E+03  0.37978164959E+04  0.37894890995E+04 0.  0.
        5    1    3    3  502    0  0.18811387100E+04  0.69800637422E+02  0.34174625589E+03  0.19132087101E+04  0.46999998093E+01 0. -1.
       -5    1    3    3    0  502 -0.18811387100E+04 -0.69800637422E+02 -0.90384959991E+02  0.18846077858E+04  0.46999998093E+01 0.  1.
</event>
<event>
 5   0  0.4071750E-09  0.3799620E+04  0.7818609E-02  0.8046236E-01
       -1   -1    0    0    0  501  0.00000000000E+00  0.00000000000E+00  0.31561502708E+04  0.31561502708E+04  0.50400001928E-02 0. -1.
        1   -1    0    0  501    0  0.00000000000E+00  0.00000000000E+00 -0.11435697254E+04  0.11435697254E+04  0.50400001928E-02 0.  1.
    10030    2    1    2    0    0  0.00000000000E+00  0.00000000000E+00  0.20125805454E+04  0.42997199962E+04  0.37996199275E+04 0.  0.
        3    1    3    3  502    0 -0.79969732594E+03 -0.17026563056E+04  0.13072318111E+04  0.22907224463E+04  0.10100000352E+00 0. -1.
       -3    1    3    3    0  502  0.79969732594E+03  0.17026563056E+04  0.70534873437E+03  0.20089975499E+04  0.10100000352E+00 0.  1.
</event>
<event>
 5   0  0.4071750E-09  0.3800365E+04  0.7818609E-02  0.8046077E-01
       -1   -1    0    0    0  501  0.00000000000E+00  0.00000000000E+00  0.13442402038E+04  0.13442402039E+04  0.50400001928E-02 0. -1.
        1   -1    0    0  501    0  0.00000000000E+00  0.00000000000E+00 -0.26860476694E+04  0.26860476694E+04  0.50400001928E-02 0.  1.
    10030    2    1    2    0    0  0.00000000000E+00  0.00000000000E+00 -0.13418074656E+04  0.40302878733E+04  0.38003648597E+04 0.  0.
        1    1    3    3  502    0 -0.15201828588E+04  0.10548400307E+04 -0.11295622457E+04  0.21678455391E+04  0.50400001928E-02 0. -1.
       -1    1    3    3    0  502  0.15201828588E+04 -0.10548400307E+04 -0.21224521991E+03  0.18624423342E+04  0.50400001928E-02 0.  1.
</event>
<event>
 5   0  0.4071750E-09  0.3800616E+04  0.7818609E-02  0.8046023E-01
       -1   -1    0    0    0  501  0.00000000000E+00  0.00000000000E+00  0.20394141495E+04  0.20394141496E+04  0.50400001928E-02 0.  1.
        1   -1    0    0  501    0  0.00000000000E+00  0.00000000000E+00 -0.17706900127E+04  0.17706900128E+04  0.50400001928E-02 0. -1.
    10030    2    1    2    0    0  0.00000000000E+00  0.00000000000E+00  0.26872413680E+03  0.38101041623E+04  0.38006158798E+04 0.  0.
        5    1    3    3  502    0  0.79885754827E+03 -0.55274553809E+03  0.17716715737E+04  0.20205304420E+04  0.46999998093E+01 0.  1.
       -5    1    3    3    0  502 -0.79885754827E+03  0.55274553809E+03 -0.15029474369E+04  0.17895737203E+04  0.46999998093E+01 0. -1.
</event>
<event>
 5   0  0.1261152E-08  0.3800334E+04  0.7818609E-02  0.8046083E-01
        2   -1    0    0  501    0  0.00000000000E+00  0.00000000000E+00  0.15505392084E+04  0.15505392084E+04  0.25500000920E-02 0. -1.
       -2   -1    0    0    0  501  0.00000000000E+00  0.00000000000E+00 -0.23286317052E+04  0.23286317052E+04  0.25500000920E-02 0.  1.
    10030    2    1    2    0    0  0.00000000000E+00  0.00000000000E+00 -0.77809249681E+03  0.38791709137E+04  0.38003340700E+04 0.  0.
        2    1    3    3  502    0 -0.10342086859E+04  0.74868151216E+03  0.10474586161E+04  0.16514482024E+04  0.25500000920E-02 0. -1.
       -2    1    3    3    0  502  0.10342086859E+04 -0.74868151216E+03 -0.18255511129E+04  0.22277227113E+04  0.25500000920E-02 0.  1.
</event>
<event>
 5   0  0.4071750E-09  0.3798683E+04  0.7818609E-02  0.8046438E-01
       -1   -1    0    0    0  501  0.00000000000E+00  0.00000000000E+00  0.16486172846E+04  0.16486172846E+04  0.50400001928E-02 0. -1.
        1   -1    0    0  501    0  0.00000000000E+00  0.00000000000E+00 -0.21881958616E+04  0.21881958616E+04  0.50400001928E-02 0.  1.
    10030    2    1    2    0    0  0.00000000000E+00  0.00000000000E+00 -0.53957857704E+03  0.38368131462E+04  0.37986826766E+04 0.  0.
        2    1    3    3  502    0  0.18642415323E+04  0.24348737531E+03 -0.54234032739E+03  0.19567359616E+04  0.25500000920E-02 0. -1.
       -2    1    3    3    0  502 -0.18642415323E+04 -0.24348737531E+03  0.27617503463E+01  0.18800771846E+04  0.25500000920E-02 0.  1.
</event>
<event>
 5   0  0.1293993E-08  0.3800363E+04  0.7818609E-02  0.8046077E-01
        2   -1    0    0  501    0  0.00000000000E+00  0.00000000000E+00  0.23242327353E+04  0.23242327353E+04  0.25500000920E-02 0.  1.
       -2   -1    0    0    0  501  0.00000000000E+00  0.00000000000E+00 -0.15534973775E+04  0.15534973775E+04  0.25500000920E-02 0. -1.
    10030    2    1    2    0    0  0.00000000000E+00  0.00000000000E+00  0.77073535780E+03  0.38777301128E+04  0.38003628559E+04 0.  0.
        5    1    3    3  502    0 -0.12053959473E+04 -0.59745981753E+01 -0.11134307981E+04  0.16409647522E+04  0.46999998093E+01 0. -1.
       -5    1    3    3    0  502  0.12053959473E+04  0.59745981753E+01  0.18841661559E+04  0.22367653607E+04  0.46999998093E+01 0.  1.
</event>
<event>
 5   0  0.4071750E-09  0.3800121E+04  0.7818609E-02  0.8046129E-01
        1   -1    0    0  501    0  0.00000000000E+00  0.00000000000E+00  0.17647017721E+04  0.17647017721E+04  0.50400001928E-02 0.  1.
       -1   -1    0    0    0  501  0.00000000000E+00  0.00000000000E+00 -0.20458017616E+04  0.20458017616E+04  0.50400001928E-02 0. -1.
    10030    2    1    2    0    0  0.00000000000E+00  0.00000000000E+00 -0.28109998948E+03  0.38105035338E+04  0.38001210476E+04 0.  0.
        1    1    3    3  502    0  0.45074225146E+03  0.16676465392E+04 -0.93392370672E+03  0.19637787673E+04  0.50400001928E-02 0. -1.
       -1    1    3    3    0  502 -0.45074225146E+03 -0.16676465392E+04  0.65282371724E+03  0.18467247664E+04  0.50400001928E-02 0.  1.
</event>
<event>
 5   0  0.1305088E-08  0.3798760E+04  0.7818609E-02  0.8046421E-01
       -2   -1    0    0    0  501  0.00000000000E+00  0.00000000000E+00  0.14411889715E+04  0.14411889715E+04  0.25500000920E-02 0.  1.
        2   -1    0    0  501    0  0.00000000000E+00  0.00000000000E+00 -0.25032416351E+04  0.25032416351E+04  0.25500000920E-02 0. -1.
    10030    2    1    2    0    0  0.00000000000E+00  0.00000000000E+00 -0.10620526636E+04  0.39444306065E+04  0.37987599226E+04 0.  0.
        3    1    3    3  502    0 -0.15742594045E+04 -0.53623386788E+03 -0.14837087924E+04  0.22287286117E+04  0.10100000352E+00 0. -1.
       -3    1    3    3    0  502  0.15742594045E+04  0.53623386788E+03  0.42165612883E+03  0.17157019948E+04  0.10100000352E+00 0.  1.
</event>
<event>
 5   0  0.1293993E-08  0.3798364E+04  0.7818609E-02  0.8046506E-01
       -2   -1    0    0    0  501  0.00000000000E+00  0.00000000000E+00  0.14441954008E+04  0.14441954008E+04  0.25500000920E-02 0.  1.
        2   -1    0    0  501    0  0.00000000000E+00  0.00000000000E+00 -0.24975096847E+04  0.24975096847E+04  0.25500000920E-02 0. -1.
    10030    2    1    2    0    0  0.00000000000E+00  0.00000000000E+00 -0.10533142839E+04  0.39417050855E+04  0.37983638584E+04 0.  0.
        5    1    3    3  502    0 -0.43680819581E+03  0.18116337535E+04 -0.14670959032E+03  0.18693218157E+04  0.46999998093E+01 0.  1.
       -5    1    3    3    0  502  0.43680819581E+03 -0.18116337535E+04 -0.90660469358E+03  0.20723832698E+04  0.46999998093E+01 0. -1.
</event>
<event>
 5   0  0.1293993E-08  0.3801290E+04  0.7818609E-02  0.8045878E-01
       -2   -1    0    0    0  501  0.00000000000E+00  0.00000000000E+00  0.14792042439E+04  0.14792042439E+04  0.25500000920E-02 0.  1.
        2   -1    0    0  501    0  0.00000000000E+00  0.00000000000E+00 -0.24421583707E+04  0.24421583707E+04  0.25500000920E-02 0. -1.
    10030    2    1    2    0    0  0.00000000000E+00  0.00000000000E+00 -0.96295412681E+03  0.39213626146E+04  0.38012897949E+04 0.  0.
        5    1    3    3  502    0 -0.12013183228E+04 -0.84410418957E+03  0.76360718125E+03  0.16549306973E+04  0.46999998093E+01 0.  1.
       -5    1    3    3    0  502  0.12013183228E+04  0.84410418957E+03 -0.17265613081E+04  0.22664319173E+04  0.46999998093E+01 0. -1.
</event>
<event>
 5   0  0.1305088E-08  0.3801939E+04  0.7818609E-02  0.8045739E-01
       -2   -1    0    0    0  501  0.00000000000E+00  0.00000000000E+00  0.11702492080E+04  0.11702492080E+04  0.25500000920E-02 0. -1.
        2   -1    0    0  501    0  0.00000000000E+00  0.00000000000E+00 -0.30879613599E+04  0.30879613599E+04  0.25500000920E-02 0.  1.
    10030    2    1    2    0    0  0.00000000000E+00  0.00000000000E+00 -0.19177121519E+04  0.42582105679E+04  0.38019386296E+04 0.  0.
        3    1    3    3  502    0 -0.46470873674E+02  0.10536042332E+04 -0.27302588821E+04  0.29268677791E+04  0.10100000352E+00 0.  1.
       -3    1    3    3    0  502  0.46470873674E+02 -0.10536042332E+04  0.81254673027E+03  0.13313427889E+04  0.10100000352E+00 0. -1.
</event>
<event>
 5   0  0.4071750E-09  0.3799727E+04  0.7818609E-02  0.8046214E-01
       -1   -1    0    0    0  501  0.00000000000E+00  0.00000000000E+00  0.14482970631E+04  0.14482970631E+04  0.50400001928E-02 0. -1.
        1   -1    0    0  501    0  0.00000000000E+00  0.00000000000E+00 -0.24922239407E+04  0.24922239407E+04  0.50400001928E-02 0.  1.
    10030    2    1    2    0    0  0.00000000000E+00  0.00000000000E+00 -0.10439268776E+04  0.39405210038E+04  0.37997266291E+04 0.  0.
        1    1    3    3  502    0  0.35918299514E+03  0.13617027958E+04  0.80052769964E+03  0.16199047892E+04  0.50400001928E-02 0.  1.
       -1    1    3    3    0  502 -0.35918299514E+03 -0.13617027958E+04 -0.18444545772E+04  0.23206162146E+04  0.50400001928E-02 0. -1.
</event>
<event>
 5   0  0.4071750E-09  0.3797432E+04  0.7818609E-02  0.8046706E-01
        1   -1    0    0  501    0  0.00000000000E+00  0.00000000000E+00  0.28171850373E+04  0.28171850373E+04  0.50400001928E-02 0.  1.
       -1   -1    0    0    0  501  0.00000000000E+00  0.00000000000E+00 -0.12796899097E+04  0.12796899097E+04  0.50400001928E-02 0. -1.
    10030    2    1    2    0    0  0.00000000000E+00  0.00000000000E+00  0.15374951276E+04  0.40968749470E+04  0.37974324305E+04 0.  0.
        4    1    3    3  502    0  0.76420985224E+03  0.74659367396E+03 -0.92464175034E+03  0.14129341073E+04  0.12699999809E+01 0. -1.
       -4    1    3    3    0  502 -0.76420985224E+03 -0.74659367396E+03  0.24621368780E+04  0.26839408397E+04  0.12699999809E+01 0.  1.
</event>
<event>
 5   0  0.4071750E-09  0.3799758E+04  0.7818609E-02  0.8046207E-01
       -1   -1    0    0    0  501  0.00000000000E+00  0.00000000000E+00  0.20610733689E+04  0.20610733689E+04  0.50400001928E-02 0. -1.
        1   -1    0    0  501    0  0.00000000000E+00  0.00000000000E+00 -0.17512910758E+04  0.17512910759E+04  0.50400001928E-02 0.  1.
    10030    2    1    2    0    0  0.00000000000E+00  0.00000000000E+00  0.30978229309E+03  0.38123644448E+04  0.37997575700E+04 0.  0.
        5    1    3    3  502    0  0.13177913687E+04  0.90932200279E+03 -0.87128115614E+03  0.18227982717E+04  0.46999998093E+01 0.  1.
       -5    1    3    3    0  502 -0.13177913687E+04 -0.90932200279E+03  0.11810634492E+04  0.19895661731E+04  0.46999998093E+01 0. -1.
</event>
<event>
 5   0  0.1261152E-08  0.3801803E+04  0.7818609E-02  0.8045768E-01
       -2   -1    0    0    0  501  0.00000000000E+00  0.00000000000E+00  0.31344282986E+04  0.31344282986E+04  0.25500000920E-02 0. -1.
        2   -1    0    0  501    0  0.00000000000E+00  0.00000000000E+00 -0.11528186575E+04  0.11528186575E+04  0.25500000920E-02 0.  1.
    10030    2    1    2    0    0  0.00000000000E+00  0.00000000000E+00  0.19816096411E+04  0.42872469561E+04  0.38018034790E+04 0.  0.
        2    1    3    3  502    0  0.54605594483E+03  0.74708322147E+02 -0.10607405107E+04  0.11953781240E+04  0.25500000920E-02 0.  1.
       -2    1    3    3    0  502 -0.54605594483E+03 -0.74708322147E+02  0.30423501519E+04  0.30918688321E+04  0.25500000920E-02 0. -1.
</event>
<event>
 5   0  0.4071750E-09  0.3801537E+04  0.7818609E-02  0.8045825E-01
        1   -1    0    0  501    0  0.00000000000E+00  0.00000000000E+00  0.14446144566E+04  0.14446144566E+04  0.50400001928E-02 0.  1.
       -1   -1    0    0    0  501  0.00000000000E+00  0.00000000000E+00 -0.25009581124E+04  0.25009581124E+04  0.50400001928E-02 0. -1.
    10030    2    1    2    0    0  0.00000000000E+00  0.00000000000E+00 -0.10563436558E+04  0.39455725690E+04  0.38015366601E+04 0.  0.
        3    1    3    3  502    0 -0.11199253652E+04  0.15348272217E+04 -0.47139247462E+03  0.19575848129E+04  0.10100000352E+00 0. -1.
       -3    1    3    3    0  502  0.11199253652E+04 -0.15348272217E+04 -0.58495118118E+03  0.19879877562E+04  0.10100000352E+00 0.  1.
</event>
<event>
 5   0  0.4071750E-09  0.3798439E+04  0.7818609E-02  0.8046490E-01
       -1   -1    0    0    0  501  0.00000000000E+00  0.00000000000E+00  0.16508748584E+04  0.16508748584E+04  0.50400001928E-02 0.  1.
        1   -1    0    0  501    0  0.00000000000E+00  0.00000000000E+00 -0.21849232980E+04  0.21849232980E+04  0.50400001928E-02 0. -1.
    10030    2    1    2    0    0  0.00000000000E+00  0.00000000000E+00 -0.53404843956E+03  0.38357981564E+04  0.37984391216E+04 0.  0.
        4    1    3    3  502    0  0.38491656321E+03 -0.16480540466E+04  0.60330532093E+03  0.17967253057E+04  0.12699999809E+01 0.  1.
       -4    1    3    3    0  502 -0.38491656321E+03  0.16480540466E+04 -0.11373537605E+04  0.20390728507E+04  0.12699999809E+01 0. -1.
</event>
<event>
 5   0  0.1264013E-08  0.3798966E+04  0.7818609E-02  0.8046377E-01
       -2   -1    0    0    0  501  0.00000000000E+00  0.00000000000E+00  0.12865412396E+04  0.12865412396E+04  0.25500000920E-02 0.  1.
        2   -1    0    0  501    0  0.00000000000E+00  0.00000000000E+00 -0.28044465519E+04  0.28044465519E+04  0.25500000920E-02 0. -1.
    10030    2    1    2    0    0  0.00000000000E+00  0.00000000000E+00 -0.15179053123E+04  0.40909877916E+04  0.37989662507E+04 0.  0.
        4    1    3    3  502    0 -0.10686321812E+04 -0.39675853441E+02  0.93158906077E+03  0.14182414121E+04  0.12699999809E+01 0.  1.
       -4    1    3    3    0  502  0.10686321812E+04  0.39675853441E+02 -0.24494943731E+04  0.26727463794E+04  0.12699999809E+01 0. -1.
</event>
<event>
 5   0  0.4071750E-09  0.3797269E+04  0.7818609E-02  0.8046741E-01
       -1   -1    0    0    0  501  0.00000000000E+00  0.00000000000E+00  0.19986121139E+04  0.19986121139E+04  0.50400001928E-02 0.  1.
        1   -1    0    0  501    0  0.00000000000E+00  0.00000000000E+00 -0.18036581604E+04  0.18036581604E+04  0.50400001928E-02 0. -1.
    10030    2    1    2    0    0  0.00000000000E+00  0.00000000000E+00  0.19495395345E+03  0.38022702743E+04  0.37972690443E+04 0.  0.
        4    1    3    3  502    0 -0.14227146481E+04 -0.12557301177E+04  0.35457224989E+02  0.18979551960E+04  0.12699999809E+01 0. -1.
       -4    1    3    3    0  502  0.14227146481E+04  0.12557301177E+04  0.15949672846E+03  0.19043150783E+04  0.12699999809E+01 0.  1.
</event>
<event>
 5   0  0.4071750E-09  0.3799335E+04  0.7818609E-02  0.8046298E-01
        1   -1    0    0  501    0  0.00000000000E+00  0.00000000000E+00  0.15347291408E+04  0.15347291408E+04  0.50400001928E-02 0. -1.
       -1   -1    0    0    0  501  0.00000000000E+00  0.00000000000E+00 -0.23513834077E+04  0.23513834077E+04  0.50400001928E-02 0.  1.
    10030    2    1    2    0    0  0.00000000000E+00  0.00000000000E+00 -0.81665426691E+03  0.38861125485E+04  0.37993350139E+04 0.  0.
        4    1    3    3  502    0 -0.12908001924E+04  0.12236901515E+04 -0.10907633953E+04  0.20864680973E+04  0.12699999809E+01 0.  1.
       -4    1    3    3    0  502  0.12908001924E+04 -0.12236901515E+04  0.27410912839E+03  0.17996444512E+04  0.12699999809E+01 0. -1.
</event>
<event>
 5   0  0.4071750E-09  0.3799746E+04  0.7818609E-02  0.8046209E-01
        1   -1    0    0  501    0  0.00000000000E+00  0.00000000000E+00  0.16916817022E+04  0.16916817022E+04  0.50400001928E-02 0.  1.
       -1   -1    0    0    0  501  0.00000000000E+00  0.00000000000E+00 -0.21336854645E+04  0.21336854645E+04  0.50400001928E-02 0. -1.
    10030    2    1    2    0    0  0.00000000000E+00  0.00000000000E+00 -0.44200376225E+03  0.38253671667E+04  0.37997456013E+04 0.  0.
        1    1    3    3  502    0 -0.14402377968E+04  0.47988982531E+03  0.92903948356E+03  0.17798015389E+04  0.50400001928E-02 0.  1.
       -1    1    3    3    0  502  0.14402377968E+04 -0.47988982531E+03 -0.13710432458E+04  0.20455656278E+04  0.50400001928E-02 0. -1.
</event>
<event>
 5   0  0.1327249E-08  0.3800380E+04  0.7818609E-02  0.8046073E-01
       -2   -1    0    0    0  501  0.00000000000E+00  0.00000000000E+00  0.22768936862E+04  0.22768936862E+04  0.25500000920E-02 0. -1.
        2   -1    0    0  501    0  0.00000000000E+00  0.00000000000E+00 -0.15858105058E+04  0.15858105058E+04  0.25500000920E-02 0.  1.
    10030    2    1    2    0    0  0.00000000000E+00  0.00000000000E+00  0.69108318037E+03  0.38627041920E+04  0.38003799432E+04 0.  0.
        1    1    3    3  502    0  0.68962038570E+03  0.10857957228E+04  0.17671183570E+04  0.21856888881E+04  0.50400001928E-02 0. -1.
       -1    1    3    3    0  502 -0.68962038570E+03 -0.10857957228E+04 -0.10760351766E+04  0.16770153039E+04  0.50400001928E-02 0.  1.
</event>
<event>
 5   0  0.4071750E-09  0.3800266E+04  0.7818609E-02  0.8046098E-01
       -1   -1    0    0    0  501  0.00000000000E+00  0.00000000000E+00  0.18145059099E+04  0.18145059099E+04  0.50400001928E-02 0.  1.
        1   -1    0    0  501    0  0.00000000000E+00  0.00000000000E+00 -0.19898011800E+04  0.19898011800E+04  0.50400001928E-02 0. -1.
    10030    2    1    2    0    0  0.00000000000E+00  0.00000000000E+00 -0.17529527006E+03  0.38043070900E+04  0.38002663069E+04 0.  0.
        3    1    3    3  502    0 -0.43778572370E+03 -0.70097049460E+02  0.17620009582E+04  0.18169252387E+04  0.10100000352E+00 0.  1.
       -3    1    3    3    0  502  0.43778572370E+03  0.70097049460E+02 -0.19372962283E+04  0.19873818512E+04  0.10100000352E+00 0. -1.
</event>
<event>
 5   0  0.1261152E-08  0.3803412E+04  0.7818609E-02  0.8045423E-01
        2   -1    0    0  501    0  0.00000000000E+00  0.00000000000E+00  0.17309728815E+04  0.17309728815E+04  0.25500000920E-02 0.  1.
       -2   -1    0    0    0  501  0.00000000000E+00  0.00000000000E+00 -0.20892796438E+04  0.20892796438E+04  0.25500000920E-02 0. -1.
    10030    2    1    2    0    0  0.00000000000E+00  0.00000000000E+00 -0.35830676228E+03  0.38202525253E+04  0.38034123654E+04 0.  0.
        2    1    3    3  502    0 -0.17178328938E+04 -0.80868949749E+03 -0.28713683192E+03  0.19202541797E+04  0.25500000920E-02 0.  1.
       -2    1    3    3    0  502  0.17178328938E+04  0.80868949749E+03 -0.71169930365E+02  0.18999983456E+04  0.25500000920E-02 0. -1.
</event>
<event>
 5   0  0.1305088E-08  0.3798520E+04  0.7818609E-02  0.8046473E-01
        2   -1    0    0  501    0  0.00000000000E+00  0.00000000000E+00  0.19488422544E+04  0.19488422544E+04  0.25500000920E-02 0.  1.
       -2   -1    0    0    0  501  0.00000000000E+00  0.00000000000E+00 -0.18509388797E+04  0.18509388797E+04  0.25500000920E-02 0. -1.
    10030    2    1    2    0    0  0.00000000000E+00  0.00000000000E+00  0.97903374709E+02  0.37997811341E+04  0.37985196585E+04 0.  0.
        3    1    3    3  502    0 -0.67288419847E+03 -0.17558892603E+04 -0.21809698478E+03  0.18930099165E+04  0.10100000352E+00 0. -1.
       -3    1    3    3    0  502  0.67288419847E+03  0.17558892603E+04  0.31600035949E+03  0.19067712176E+04  0.10100000352E+00 0.  1.
</event>
<event>
 5   0  0.4071750E-09  0.3802316E+04  0.7818609E-02  0.8045658E-01
       -1   -1    0    0    0  501  0.00000000000E+00  0.00000000000E+00  0.14816199710E+04  0.14816199710E+04  0.50400001928E-02 0. -1.
        1   -1    0    0  501    0  0.00000000000E+00  0.00000000000E+00 -0.24394936622E+04  0.24394936622E+04  0.50400001928E-02 0.  1.
    10030    2    1    2    0    0  0.00000000000E+00  0.00000000000E+00 -0.95787369118E+03  0.39211136331E+04  0.38023164145E+04 0.  0.
        5    1    3    3  502    0 -0.12115103800E+03 -0.98274817075E+03 -0.21525749250E+04  0.23694033930E+04  0.46999998093E+01 0.  1.
       -5    1    3    3    0  502  0.12115103800E+03  0.98274817075E+03  0.11947012338E+04  0.15517102401E+04  0.46999998093E+01 0. -1.
</event>
<event>
 5   0  0.1264013E-08  0.3799532E+04  0.7818609E-02  0.8046255E-01
       -2   -1    0    0    0  501  0.00000000000E+00  0.00000000000E+00  0.24502828278E+04  0.24502828278E+04  0.25500000920E-02 0.  1.
        2   -1    0    0  501    0  0.00000000000E+00  0.00000000000E+00 -0.14729366798E+04  0.14729366798E+04  0.25500000920E-02 0. -1.
    10030    2    1    2    0    0  0.00000000000E+00  0.00000000000E+00  0.97734614802E+03  0.39232195076E+04  0.37995323149E+04 0.  0.
        4    1    3    3  502    0  0.40854049399E+03 -0.18549103796E+04  0.52882317862E+03  0.19716118834E+04  0.12699999809E+01 0.  1.
       -4    1    3    3    0  502 -0.40854049399E+03  0.18549103796E+04  0.44852296941E+03  0.19516076242E+04  0.12699999809E+01 0. -1.
</event>
<event>
 5   0  0.1264013E-08  0.3794550E+04  0.7818609E-02  0.8047325E-01
       -2   -1    0    0    0  501  0.00000000000E+00  0.00000000000E+00  0.18932045469E+04  0.18932045469E+04  0.25500000920E-02 0. -1.
        2   -1    0    0  501    0  0.00000000000E+00  0.00000000000E+00 -0.19013542943E+04  0.19013542943E+04  0.25500000920E-02 0.  1.
    10030    2    1    2    0    0  0.00000000000E+00  0.00000000000E+00 -0.81497473386E+01  0.37945588412E+04  0.37945500894E+04 0.  0.
        4    1    3    3  502    0  0.39400765940E+03  0.13274442857E+04  0.12929634355E+04  0.18944937122E+04  0.12699999809E+01 0. -1.
       -4    1    3    3    0  502 -0.39400765940E+03 -0.13274442857E+04 -0.13011131828E+04  0.19000651290E+04  0.12699999809E+01 0.  1.
</event>
<event>
 5   0  0.1261152E-08  0.3783711E+04  0.7818609E-02  0.8049659E-01
       -2   -1    0    0    0  501  0.00000000000E+00  0.00000000000E+00  0.25010234558E+04  0.25010234558E+04  0.25500000920E-02 0.  1.
        2   -1    0    0  501    0  0.00000000000E+00  0.00000000000E+00 -0.14310611672E+04  0.14310611672E+04  0.25500000920E-02 0. -1.
    10030    2    1    2    0    0  0.00000000000E+00  0.00000000000E+00  0.10699622885E+04  0.39320846230E+04  0.37837111655E+04 0.  0.
        2    1    3    3  502    0 -0.12998672130E+04 -0.92656616939E+03  0.15901479827E+04  0.22531644957E+04  0.25500000920E-02 0.  1.
       -2    1    3    3    0  502  0.12998672130E+04  0.92656616939E+03 -0.52018569413E+03  0.16789201274E+04  0.25500000920E-02 0. -1.
</event>
<event>
 5   0  0.4071750E-09  0.3800448E+04  0.7818609E-02  0.8046059E-01
       -1   -1    0    0    0  501  0.00000000000E+00  0.00000000000E+00  0.21658175309E+04  0.21658175310E+04  0.50400001928E-02 0.  1.
        1   -1    0    0  501    0  0.00000000000E+00  0.00000000000E+00 -0.16672003739E+04  0.16672003739E+04  0.50400001928E-02 0. -1.
    10030    2    1    2    0    0  0.00000000000E+00  0.00000000000E+00  0.49861715708E+03  0.38330179048E+04  0.38004482880E+04 0.  0.
        5    1    3    3  502    0  0.12827317065E+04  0.10010876408E+04 -0.74055676205E+03  0.17877425719E+04  0.46999998093E+01 0. -1.
       -5    1    3    3    0  502 -0.12827317065E+04 -0.10010876408E+04  0.12391739191E+04  0.20452753329E+04  0.46999998093E+01 0.  1.
</event>
<event>
 5   0  0.1305088E-08  0.3799304E+04  0.7818609E-02  0.8046304E-01
       -2   -1    0    0    0  501  0.00000000000E+00  0.00000000000E+00  0.28170291675E+04  0.28170291675E+04  0.25500000920E-02 0.  1.
        2   -1    0    0  501    0  0.00000000000E+00  0.00000000000E+00 -0.12810226432E+04  0.12810226432E+04  0.25500000920E-02 0. -1.
    10030    2    1    2    0    0  0.00000000000E+00  0.00000000000E+00  0.15360065243E+04  0.40980518107E+04  0.37993042258E+04 0.  0.
        3    1    3    3  502    0 -0.17051819264E+04  0.31936218605E+02 -0.13445342981E+03  0.17107726497E+04  0.10100000352E+00 0. -1.
       -3    1    3    3    0  502  0.17051819264E+04 -0.31936218605E+02  0.16704599541E+04  0.23872791610E+04  0.10100000352E+00 0.  1.
</event>
<event>
 5   0  0.4071750E-09  0.3801244E+04  0.7818609E-02  0.8045888E-01
       -1   -1    0    0    0  501  0.00000000000E+00  0.00000000000E+00  0.18128885269E+04  0.18128885269E+04  0.50400001928E-02 0.  1.
        1   -1    0    0  501    0  0.00000000000E+00  0.00000000000E+00 -0.19926016469E+04  0.19926016469E+04  0.50400001928E-02 0. -1.
    10030    2    1    2    0    0  0.00000000000E+00  0.00000000000E+00 -0.17971312004E+03  0.38054901738E+04  0.38012443564E+04 0.  0.
        3    1    3    3  502    0  0.40705222157E+03  0.26900902893E+03 -0.19288370904E+04  0.19895903851E+04  0.10100000352E+00 0. -1.
       -3    1    3    3    0  502 -0.40705222157E+03 -0.26900902893E+03  0.17491239704E+04  0.18158997887E+04  0.10100000352E+00 0.  1.
</event>
<event>
 5   0  0.1264013E-08  0.3791867E+04  0.7818609E-02  0.8047902E-01
        2   -1    0    0  501    0  0.00000000000E+00  0.00000000000E+00  0.20744944623E+04  0.20744944623E+04  0.25500000920E-02 0. -1.
       -2   -1    0    0    0  501  0.00000000000E+00  0.00000000000E+00 -0.17327425267E+04  0.17327425267E+04  0.25500000920E-02 0.  1.
    10030    2    1    2    0    0  0.00000000000E+00  0.00000000000E+00  0.34175193566E+03  0.38072369890E+04  0.37918674957E+04 0.  0.
        4    1    3    3  502    0 -0.11490749396E+04  0.14411320603E+04 -0.27514110185E+03  0.18635823220E+04  0.12699999809E+01 0.  1.
       -4    1    3    3    0  502  0.11490749396E+04 -0.14411320603E+04  0.61689303751E+03  0.19436546670E+04  0.12699999809E+01 0. -1.
</event>
<event>
 5   0  0.4071750E-09  0.3803218E+04  0.7818609E-02  0.8045465E-01
        1   -1    0    0  501    0  0.00000000000E+00  0.00000000000E+00  0.13547540144E+04  0.13547540144E+04  0.50400001928E-02 0. -1.
       -1   -1    0    0    0  501  0.00000000000E+00  0.00000000000E+00 -0.26692059256E+04  0.26692059256E+04  0.50400001928E-02 0.  1.
    10030    2    1    2    0    0  0.00000000000E+00  0.00000000000E+00 -0.13144519112E+04  0.40239599401E+04  0.38032183440E+04 0.  0.
        4    1    3    3  502    0 -0.13201842221E+04  0.24549485604E+03  0.76738640176E+03  0.15466213522E+04  0.12699999809E+01 0. -1.
       -4    1    3    3    0  502  0.13201842221E+04 -0.24549485604E+03 -0.20818383130E+04  0.24773385879E+04  0.12699999809E+01 0.  1.
</event>
<event>
 5   0  0.4071750E-09  0.3799826E+04  0.7818609E-02  0.8046192E-01
        1   -1    0    0  501    0  0.00000000000E+00  0.00000000000E+00  0.22039690153E+04  0.22039690153E+04  0.50400001928E-02 0.  1.
       -1   -1    0    0    0  501  0.00000000000E+00  0.00000000000E+00 -0.16378043986E+04  0.16378043986E+04  0.50400001928E-02 0. -1.
    10030    2    1    2    0    0  0.00000000000E+00  0.00000000000E+00  0.56616461674E+03  0.38417734139E+04  0.37998263895E+04 0.  0.
        3    1    3    3  502    0  0.12493578970E+04  0.97772273880E+02  0.17268574529E+04  0.21336567778E+04  0.10100000352E+00 0.  1.
       -3    1    3    3    0  502 -0.12493578970E+04 -0.97772273880E+02 -0.11606928362E+04  0.17081166361E+04  0.10100000352E+00 0. -1.
</event>
<event>
 5   0  0.1261152E-08  0.3798319E+04  0.7818609E-02  0.8046516E-01
        2   -1    0    0  501    0  0.00000000000E+00  0.00000000000E+00  0.18553580841E+04  0.18553580841E+04  0.25500000920E-02 0.  1.
       -2   -1    0    0    0  501  0.00000000000E+00  0.00000000000E+00 -0.19439945812E+04  0.19439945812E+04  0.25500000920E-02 0. -1.
    10030    2    1    2    0    0  0.00000000000E+00  0.00000000000E+00 -0.88636497035E+02  0.37993526653E+04  0.37983186079E+04 0.  0.
        2    1    3    3  502    0  0.15464814681E+04 -0.64203800165E+02 -0.11451081934E+04  0.19253570665E+04  0.25500000920E-02 0. -1.
       -2    1    3    3    0  502 -0.15464814681E+04  0.64203800165E+02  0.10564716963E+04  0.18739955988E+04  0.25500000920E-02 0.  1.
</event>
<event>
 5   0  0.4071750E-09  0.3797598E+04  0.7818609E-02  0.8046671E-01
       -1   -1    0    0    0  501  0.00000000000E+00  0.00000000000E+00  0.20196009791E+04  0.20196009791E+04  0.50400001928E-02 0.  1.
        1   -1    0    0  501    0  0.00000000000E+00  0.00000000000E+00 -0.17852224815E+04  0.17852224815E+04  0.50400001928E-02 0. -1.
    10030    2    1    2    0    0  0.00000000000E+00  0.00000000000E+00  0.23437849760E+03  0.38048234606E+04  0.37975976994E+04 0.  0.
        3    1    3    3  502    0  0.79512104372E+03  0.38828077664E+02 -0.16099561972E+04  0.17960189478E+04  0.10100000352E+00 0. -1.
       -3    1    3    3    0  502 -0.79512104372E+03 -0.38828077664E+02  0.18443346948E+04  0.20088045128E+04  0.10100000352E+00 0.  1.
</event>
<event>
 5   0  0.1264013E-08  0.3802817E+04  0.7818609E-02  0.8045551E-01
       -2   -1    0    0    0  501  0.00000000000E+00  0.00000000000E+00  0.29245877778E+04  0.29245877778E+04  0.25500000920E-02 0.  1.
        2   -1    0    0  501    0  0.00000000000E+00  0.00000000000E+00 -0.12361929061E+04  0.12361929061E+04  0.25500000920E-02 0. -1.
    10030    2    1    2    0    0  0.00000000000E+00  0.00000000000E+00  0.16883948717E+04  0.41607806838E+04  0.38028172000E+04 0.  0.
        4    1    3    3  502    0 -0.10318067472E+04 -0.87606295663E+02  0.25890031822E+04  0.27884115759E+04  0.12699999809E+01 0.  1.
       -4    1    3    3    0  502  0.10318067472E+04  0.87606295663E+02 -0.90060831048E+03  0.13723691079E+04  0.12699999809E+01 0. -1.
</event>
<event>
 5   0  0.1327249E-08  0.3801507E+04  0.7818609E-02  0.8045832E-01
        2   -1    0    0  501    0  0.00000000000E+00  0.00000000000E+00  0.23940226812E+04  0.23940226812E+04  0.25500000920E-02 0.  1.
       -2   -1    0    0    0  501  0.00000000000E+00  0.00000000000E+00 -0.15091183369E+04  0.15091183369E+04  0.25500000920E-02 0. -1.
    10030    2    1    2    0    0  0.00000000000E+00  0.00000000000E+00  0.88490434430E+03  0.39031410181E+04  0.38015068208E+04 0.  0.
        1    1    3    3  502    0  0.16711986472E+04 -0.80075357431E+03  0.83576411727E+01  0.18531543528E+04  0.50400001928E-02 0.  1.
       -1    1    3    3    0  502 -0.16711986472E+04  0.80075357431E+03  0.87654670313E+03  0.20499866653E+04  0.50400001928E-02 0. -1.
</event>
<event>
 5   0  0.1327249E-08  0.3800917E+04  0.7818609E-02  0.8045958E-01
        2   -1    0    0  501    0  0.00000000000E+00  0.00000000000E+00  0.15350469130E+04  0.15350469130E+04  0.25500000920E-02 0. -1.
       -2   -1    0    0    0  501  0.00000000000E+00  0.00000000000E+00 -0.23528553436E+04  0.23528553436E+04  0.25500000920E-02 0.  1.
    10030    2    1    2    0    0  0.00000000000E+00  0.00000000000E+00 -0.81780843054E+03  0.38879022566E+04  0.38009174324E+04 0.  0.
        1    1    3    3  502    0  0.36641647541E+02 -0.41016684218E+03 -0.23066702706E+04  0.23431404538E+04  0.50400001928E-02 0.  1.
       -1    1    3    3    0  502 -0.36641647541E+02  0.41016684218E+03  0.14888618401E+04  0.15447618029E+04  0.50400001928E-02 0. -1.
</event>
<event>
 5   0  0.1305088E-08  0.3798870E+04  0.7818609E-02  0.8046398E-01
       -2   -1    0    0    0  501  0.00000000000E+00  0.00000000000E+00  0.11595527187E+04  0.11595527187E+04  0.25500000920E-02 0.  1.
        2   -1    0    0  501    0  0.00000000000E+00  0.00000000000E+00 -0.31114173765E+04  0.31114173765E+04  0.25500000920E-02 0. -1.
    10030    2    1    2    0    0  0.00000000000E+00  0.00000000000E+00 -0.19518646578E+04  0.42709700952E+04  0.37988695571E+04 0.  0.
        3    1    3    3  502    0 -0.17878817022E+04 -0.18736700539E+02 -0.16966791183E+04  0.24648716165E+04  0.10100000352E+00 0. -1.
       -3    1    3    3    0  502  0.17878817022E+04  0.18736700539E+02 -0.25518553952E+03  0.18060984787E+04  0.10100000352E+00 0.  1.
</event>
<event>
 5   0  0.1293993E-08  0.3799308E+04  0.7818609E-02  0.8046303E-01
       -2   -1    0    0    0  501  0.00000000000E+00  0.00000000000E+00  0.20739620420E+04  0.20739620421E+04  0.25500000920E-02 0. -1.
        2   -1    0    0  501    0  0.00000000000E+00  0.00000000000E+00 -0.17399962481E+04  0.17399962481E+04  0.25500000920E-02 0.  1.
    10030    2    1    2    0    0  0.00000000000E+00  0.00000000000E+00  0.33396579394E+03  0.38139582902E+04  0.37993084486E+04 0.  0.
        5    1    3    3  502    0  0.75533858979E+03  0.11270739054E+04  0.15017082030E+04  0.20238531543E+04  0.46999998093E+01 0. -1.
       -5    1    3    3    0  502 -0.75533858979E+03 -0.11270739054E+04 -0.11677424091E+04  0.17901051358E+04  0.46999998093E+01 0.  1.
</event>
<event>
 5   0  0.4071750E-09  0.3800910E+04  0.7818609E-02  0.8045960E-01
        1   -1    0    0  501    0  0.00000000000E+00  0.00000000000E+00  0.10371844185E+04  0.10371844186E+04  0.50400001928E-02 0.  1.
       -1   -1    0    0    0  501  0.00000000000E+00  0.00000000000E+00 -0.34822430838E+04  0.34822430838E+04  0.50400001928E-02 0. -1.
    10030    2    1    2    0    0  0.00000000000E+00  0.00000000000E+00 -0.24450586652E+04  0.45194275023E+04  0.38009095059E+04 0.  0.
        3    1    3    3  502    0 -0.18138703934E+04  0.59773868020E+01 -0.54826304593E+03  0.18949284711E+04  0.10100000352E+00 0.  1.
       -3    1    3    3    0  502  0.18138703934E+04 -0.59773868020E+01 -0.18967956193E+04  0.26244990312E+04  0.10100000352E+00 0. -1.
</event>
<event>
 5   0  0.4071750E-09  0.3797923E+04  0.7818609E-02  0.8046601E-01
       -1   -1    0    0    0  501  0.00000000000E+00  0.00000000000E+00  0.17395673321E+04  0.17395673321E+04  0.50400001928E-02 0. -1.
        1   -1    0    0  501    0  0.00000000000E+00  0.00000000000E+00 -0.20729606621E+04  0.20729606621E+04  0.50400001928E-02 0.  1.
    10030    2    1    2    0    0  0.00000000000E+00  0.00000000000E+00 -0.33339333006E+03  0.38125279942E+04  0.37979229316E+04 0.  0.
        4    1    3    3  502    0 -0.16642187043E+04 -0.17976209724E+03  0.73347616812E+03  0.18275467735E+04  0.12699999809E+01 0. -1.
       -4    1    3    3    0  502  0.16642187043E+04  0.17976209724E+03 -0.10668694982E+04  0.19849812207E+04  0.12699999809E+01 0.  1.
</event>
<event>
 5   0  0.1264013E-08  0.3799690E+04  0.7818609E-02  0.8046221E-01
       -2   -1    0    0    0  501  0.00000000000E+00  0.00000000000E+00  0.16987531366E+04  0.16987531366E+04  0.25500000920E-02 0. -1.
        2   -1    0    0  501    0  0.00000000000E+00  0.00000000000E+00 -0.21247416650E+04  0.21247416650E+04  0.25500000920E-02 0.  1.
    10030    2    1    2    0    0  0.00000000000E+00  0.00000000000E+00 -0.42598852842E+03  0.38234948016E+04  0.37996902863E+04 0.  0.
        4    1    3    3  502    0  0.41703394651E+03 -0.10639290755E+04  0.13142584217E+04  0.17415909973E+04  0.12699999809E+01 0. -1.
       -4    1    3    3    0  502 -0.41703394651E+03  0.10639290755E+04 -0.17402469501E+04  0.20819038043E+04  0.12699999809E+01 0.  1.
</event>
<event>
 5   0  0.4071750E-09  0.3799340E+04  0.7818609E-02  0.8046297E-01
        1   -1    0    0  501    0  0.00000000000E+00  0.00000000000E+00  0.24171840765E+04  0.24171840765E+04  0.50400001928E-02 0.  1.
       -1   -1    0    0    0  501  0.00000000000E+00  0.00000000000E+00 -0.14929545086E+04  0.14929545087E+04  0.50400001928E-02 0. -1.
    10030    2    1    2    0    0  0.00000000000E+00  0.00000000000E+00  0.92422956789E+03  0.39101385852E+04  0.37993398718E+04 0.  0.
        3    1    3    3  502    0 -0.18632622374E+04  0.30240507201E+03  0.68176533912E+03  0.20069875388E+04  0.10100000352E+00 0. -1.
       -3    1    3    3    0  502  0.18632622374E+04 -0.30240507201E+03  0.24246422877E+03  0.19031510464E+04  0.10100000352E+00 0.  1.
</event>
<event>
 5   0  0.4071750E-09  0.3800396E+04  0.7818609E-02  0.8046070E-01
        1   -1    0    0  501    0  0.00000000000E+00  0.00000000000E+00  0.16091121486E+04  0.16091121486E+04  0.50400001928E-02 0. -1.
       -1   -1    0    0    0  501  0.00000000000E+00  0.00000000000E+00 -0.22439405033E+04  0.22439405034E+04  0.50400001928E-02 0.  1.
    10030    2    1    2    0    0  0.00000000000E+00  0.00000000000E+00 -0.63482835473E+03  0.38530526520E+04  0.38003957293E+04 0.  0.
        2    1    3    3  502    0  0.67930718657E+02  0.16537903820E+04  0.62885304572E+03  0.17706194857E+04  0.25500000920E-02 0.  1.
       -2    1    3    3    0  502 -0.67930718657E+02 -0.16537903820E+04 -0.12636814004E+04  0.20824331663E+04  0.25500000920E-02 0. -1.
</event>
<event>
 5   0  0.4071750E-09  0.3798135E+04  0.7818609E-02  0.8046555E-01
        1   -1    0    0  501    0  0.00000000000E+00  0.00000000000E+00  0.23609918456E+04  0.23609918456E+04  0.50400001928E-02 0. -1.
       -1   -1    0    0    0  501  0.00000000000E+00  0.00000000000E+00 -0.15275180111E+04  0.15275180111E+04  0.50400001928E-02 0.  1.
    10030    2    1    2    0    0  0.00000000000E+00  0.00000000000E+00  0.83347383456E+03  0.38885098567E+04  0.37981351046E+04 0.  0.
        5    1    3    3  502    0  0.41937808406E+03 -0.82048176631E+03  0.21167806575E+04  0.23086469518E+04  0.46999998093E+01 0. -1.
       -5    1    3    3    0  502 -0.41937808406E+03  0.82048176631E+03 -0.12833068230E+04  0.15798629048E+04  0.46999998093E+01 0.  1.
</event>
<event>
 5   0  0.4071750E-09  0.3800355E+04  0.7818609E-02  0.8046079E-01
       -1   -1    0    0    0  501  0.00000000000E+00  0.00000000000E+00  0.19334110316E+04  0.19334110316E+04  0.50400001928E-02 0. -1.
        1   -1    0    0  501    0  0.00000000000E+00  0.00000000000E+00 -0.18675148680E+04  0.18675148680E+04  0.50400001928E-02 0.  1.
    10030    2    1    2    0    0  0.00000000000E+00  0.00000000000E+00  0.65896163633E+02  0.38009258996E+04  0.38003546400E+04 0.  0.
        3    1    3    3  502    0 -0.75580708858E+03  0.13462096516E+03  0.17713999955E+04  0.19306022671E+04  0.10100000352E+00 0. -1.
       -3    1    3    3    0  502  0.75580708858E+03 -0.13462096516E+03 -0.17055038319E+04  0.18703236325E+04  0.10100000352E+00 0.  1.
</event>
<event>
 5   0  0.4071750E-09  0.3800318E+04  0.7818609E-02  0.8046087E-01
       -1   -1    0    0    0  501  0.00000000000E+00  0.00000000000E+00  0.18639386641E+04  0.18639386641E+04  0.50400001928E-02 0.  1.
        1   -1    0    0  501    0  0.00000000000E+00  0.00000000000E+00 -0.19370834713E+04  0.19370834713E+04  0.50400001928E-02 0. -1.
    10030    2    1    2    0    0  0.00000000000E+00  0.00000000000E+00 -0.73144807158E+02  0.38010221354E+04  0.38003182907E+04 0.  0.
        5    1    3    3  502    0 -0.13759857687E+04  0.56897420329E+03  0.11441182555E+04  0.18777904974E+04  0.46999998093E+01 0.  1.
       -5    1    3    3    0  502  0.13759857687E+04 -0.56897420329E+03 -0.12172630626E+04  0.19232316380E+04  0.46999998093E+01 0. -1.
</event>
<event>
 5   0  0.4071750E-09  0.3800029E+04  0.7818609E-02  0.8046149E-01
        1   -1    0    0  501    0  0.00000000000E+00  0.00000000000E+00  0.19849379173E+04  0.19849379173E+04  0.50400001928E-02 0.  1.
       -1   -1    0    0    0  501  0.00000000000E+00  0.00000000000E+00 -0.18187245408E+04  0.18187245408E+04  0.50400001928E-02 0. -1.
    10030    2    1    2    0    0  0.00000000000E+00  0.00000000000E+00  0.16621337651E+03  0.38036624580E+04  0.38000291062E+04 0.  0.
        2    1    3    3  502    0  0.16822481575E+04 -0.25710188618E+03  0.92889689084E+03  0.19387907771E+04  0.25500000920E-02 0. -1.
       -2    1    3    3    0  502 -0.16822481575E+04  0.25710188618E+03 -0.76268351433E+03  0.18648716810E+04  0.25500000920E-02 0.  1.
</event>
<event>
 5   0  0.4071750E-09  0.3803511E+04  0.7818609E-02  0.8045402E-01
       -1   -1    0    0    0  501  0.00000000000E+00  0.00000000000E+00  0.21124871677E+04  0.21124871677E+04  0.50400001928E-02 0.  1.
        1   -1    0    0  501    0  0.00000000000E+00  0.00000000000E+00 -0.17120454404E+04  0.17120454404E+04  0.50400001928E-02 0. -1.
    10030    2    1    2    0    0  0.00000000000E+00  0.00000000000E+00  0.40044172725E+03  0.38245326081E+04  0.38035110219E+04 0.  0.
        2    1    3    3  502    0 -0.23158413065E+03  0.11953506416E+04  0.16691781811E+04  0.20660711910E+04  0.25500000920E-02 0.  1.
       -2    1    3    3    0  502  0.23158413065E+03 -0.11953506416E+04 -0.12687364539E+04  0.17584614171E+04  0.25500000920E-02 0. -1.
</event>
<event>
 5   0  0.1293993E-08  0.3800335E+04  0.7818609E-02  0.8046083E-01
       -2   -1    0    0    0  501  0.00000000000E+00  0.00000000000E+00  0.16235904636E+04  0.16235904636E+04  0.25500000920E-02 0.  1.
        2   -1    0    0  501    0  0.00000000000E+00  0.00000000000E+00 -0.22238590266E+04  0.22238590266E+04  0.25500000920E-02 0. -1.
    10030    2    1    2    0    0  0.00000000000E+00  0.00000000000E+00 -0.60026856304E+03  0.38474494903E+04  0.38003348842E+04 0.  0.
        5    1    3    3  502    0  0.60915388513E+03  0.17499489456E+04 -0.72633372440E+03  0.19902192184E+04  0.46999998093E+01 0.  1.
       -5    1    3    3    0  502 -0.60915388513E+03 -0.17499489456E+04  0.12606516136E+03  0.18572302719E+04  0.46999998093E+01 0. -1.
</event>
<event>
 5   0  0.4071750E-09  0.3799395E+04  0.7818609E-02  0.8046285E-01
       -1   -1    0    0    0  501  0.00000000000E+00  0.00000000000E+00  0.26218893121E+04  0.26218893121E+04  0.50400001928E-02 0. -1.
        1   -1    0    0  501    0  0.00000000000E+00  0.00000000000E+00 -0.13764310409E+04  0.13764310409E+04  0.50400001928E-02 0.  1.
    10030    2    1    2    0    0  0.00000000000E+00  0.00000000000E+00  0.12454582712E+04  0.39983203530E+04  0.37993946018E+04 0.  0.
        3    1    3    3  502    0  0.16577312299E+04 -0.70753033005E+03 -0.88411264321E+01  0.18024289651E+04  0.10100000352E+00 0.  1.
       -3    1    3    3    0  502 -0.16577312299E+04  0.70753033005E+03  0.12542993976E+04  0.21958913879E+04  0.10100000352E+00 0. -1.
</event>
<event>
 5   0  0.1293993E-08  0.3800292E+04  0.7818609E-02  0.8046092E-01
        2   -1    0    0  501    0  0.00000000000E+00  0.00000000000E+00  0.15852293113E+04  0.15852293113E+04  0.25500000920E-02 0.  1.
       -2   -1    0    0    0  501  0.00000000000E+00  0.00000000000E+00 -0.22776232994E+04  0.22776232994E+04  0.25500000920E-02 0. -1.
    10030    2    1    2    0    0  0.00000000000E+00  0.00000000000E+00 -0.69239398814E+03  0.38628526107E+04  0.38002922068E+04 0.  0.
        5    1    3    3  502    0 -0.12936975337E+04  0.12787975337E+04  0.21198474671E+03  0.18313754568E+04  0.46999998093E+01 0.  1.
       -5    1    3    3    0  502  0.12936975337E+04 -0.12787975337E+04 -0.90437873485E+03  0.20314771539E+04  0.46999998093E+01 0. -1.
</event>
<event>
 5   0  0.4071750E-09  0.3797810E+04  0.7818609E-02  0.8046625E-01
        1   -1    0    0  501    0  0.00000000000E+00  0.00000000000E+00  0.26155028578E+04  0.26155028578E+04  0.50400001928E-02 0.  1.
       -1   -1    0    0    0  501  0.00000000000E+00  0.00000000000E+00 -0.13786412228E+04  0.13786412228E+04  0.50400001928E-02 0. -1.
    10030    2    1    2    0    0  0.00000000000E+00  0.00000000000E+00  0.12368616350E+04  0.39941440806E+04  0.37978099258E+04 0.  0.
        3    1    3    3  502    0 -0.11743173739E+04  0.14091676727E+04  0.11347969896E+04  0.21569745113E+04  0.10100000352E+00 0.  1.
       -3    1    3    3    0  502  0.11743173739E+04 -0.14091676727E+04  0.10206464535E+03  0.18371695693E+04  0.10100000352E+00 0. -1.
</event>
<event>
 5   0  0.1264013E-08  0.3799755E+04  0.7818609E-02  0.8046207E-01
        2   -1    0    0  501    0  0.00000000000E+00  0.00000000000E+00  0.24023551428E+04  0.24023551428E+04  0.25500000920E-02 0. -1.
       -2   -1    0    0    0  501  0.00000000000E+00  0.00000000000E+00 -0.15024986605E+04  0.15024986606E+04  0.25500000920E-02 0.  1.
    10030    2    1    2    0    0  0.00000000000E+00  0.00000000000E+00  0.89985648223E+03  0.39048538033E+04  0.37997554575E+04 0.  0.
        4    1    3    3  502    0  0.17521354764E+04  0.70883882668E+03  0.64787622229E+03  0.19980431483E+04  0.12699999809E+01 0. -1.
       -4    1    3    3    0  502 -0.17521354764E+04 -0.70883882668E+03  0.25198025993E+03  0.19068106551E+04  0.12699999809E+01 0.  1.
</event>
<event>
 5   0  0.4071750E-09  0.3800032E+04  0.7818609E-02  0.8046148E-01
        1   -1    0    0  501    0  0.00000000000E+00  0.00000000000E+00  0.19068957259E+04  0.19068957259E+04  0.50400001928E-02 0. -1.
       -1   -1    0    0    0  501  0.00000000000E+00  0.00000000000E+00 -0.18931608057E+04  0.18931608057E+04  0.50400001928E-02 0.  1.
    10030    2    1    2    0    0  0.00000000000E+00  0.00000000000E+00  0.13734920197E+02  0.38000565316E+04  0.38000317098E+04 0.  0.
        4    1    3    3  502    0 -0.11102966030E+04 -0.20580167543E+03 -0.15211954521E+04  0.18945052369E+04  0.12699999809E+01 0.  1.
       -4    1    3    3    0  502  0.11102966030E+04  0.20580167543E+03  0.15349303723E+04  0.19055512947E+04  0.12699999809E+01 0. -1.
</event>
<event>
 5   0  0.1264013E-08  0.3803459E+04  0.7818609E-02  0.8045413E-01
        2   -1    0    0  501    0  0.00000000000E+00  0.00000000000E+00  0.11060472747E+04  0.11060472747E+04  0.25500000920E-02 0.  1.
       -2   -1    0    0    0  501  0.00000000000E+00  0.00000000000E+00 -0.32698200673E+04  0.32698200673E+04  0.25500000920E-02 0. -1.
    10030    2    1    2    0    0  0.00000000000E+00  0.00000000000E+00 -0.21637727926E+04  0.43758673420E+04  0.38034592540E+04 0.  0.
        4    1    3    3  502    0 -0.17822077505E+04  0.62970403628E+03 -0.13226189228E+04  0.23069707556E+04  0.12699999809E+01 0.  1.
       -4    1    3    3    0  502  0.17822077505E+04 -0.62970403628E+03 -0.84115386975E+03  0.20688965863E+04  0.12699999809E+01 0. -1.
</event>
<event>
 5   0  0.1261152E-08  0.3800683E+04  0.7818609E-02  0.8046008E-01
       -2   -1    0    0    0  501  0.00000000000E+00  0.00000000000E+00  0.19062554745E+04  0.19062554745E+04  0.25500000920E-02 0.  1.
        2   -1    0    0  501    0  0.00000000000E+00  0.00000000000E+00 -0.18944455202E+04  0.18944455202E+04  0.25500000920E-02 0. -1.
    10030    2    1    2    0    0  0.00000000000E+00  0.00000000000E+00  0.11809954260E+02  0.38007009947E+04  0.38006826460E+04 0.  0.
        2    1    3    3  502    0 -0.64646126056E+03 -0.22358366349E+03 -0.17670658853E+04  0.18948413282E+04  0.25500000920E-02 0. -1.
       -2    1    3    3    0  502  0.64646126056E+03  0.22358366349E+03  0.17788758395E+04  0.19058596665E+04  0.25500000920E-02 0.  1.
</event>
<event>
 5   0  0.4071750E-09  0.3803922E+04  0.7818609E-02  0.8045314E-01
       -1   -1    0    0    0  501  0.00000000000E+00  0.00000000000E+00  0.19009979245E+04  0.19009979245E+04  0.50400001928E-02 0.  1.
        1   -1    0    0  501    0  0.00000000000E+00  0.00000000000E+00 -0.19029247375E+04  0.19029247375E+04  0.50400001928E-02 0. -1.
    10030    2    1    2    0    0  0.00000000000E+00  0.00000000000E+00 -0.19268130404E+01  0.38039226620E+04  0.38039221740E+04 0.  0.
        1    1    3    3  502    0  0.79072053224E+03 -0.10526790440E+04 -0.13735829205E+04  0.19026566083E+04  0.50400001928E-02 0. -1.
       -1    1    3    3    0  502 -0.79072053224E+03  0.10526790440E+04  0.13716561075E+04  0.19012660537E+04  0.50400001928E-02 0.  1.
</event>
<event>
 5   0  0.4071750E-09  0.3799905E+04  0.7818609E-02  0.8046175E-01
        1   -1    0    0  501    0  0.00000000000E+00  0.00000000000E+00  0.18719818710E+04  0.18719818710E+04  0.50400001928E-02 0.  1.
       -1   -1    0    0    0  501  0.00000000000E+00  0.00000000000E+00 -0.19283409256E+04  0.19283409256E+04  0.50400001928E-02 0. -1.
    10030    2    1    2    0    0  0.00000000000E+00  0.00000000000E+00 -0.56359054605E+02  0.38003227966E+04  0.37999048692E+04 0.  0.
        1    1    3    3  502    0  0.51864324087E+03  0.80990890799E+03 -0.16669188661E+04  0.19244640181E+04  0.50400001928E-02 0. -1.
       -1    1    3    3    0  502 -0.51864324087E+03 -0.80990890799E+03  0.16105598115E+04  0.18758587785E+04  0.50400001928E-02 0.  1.
</event>
<event>
 5   0  0.1293993E-08  0.3799968E+04  0.7818609E-02  0.8046162E-01
       -2   -1    0    0    0  501  0.00000000000E+00  0.00000000000E+00  0.18664261575E+04  0.18664261575E+04  0.25500000920E-02 0.  1.
        2   -1    0    0  501    0  0.00000000000E+00  0.00000000000E+00 -0.19341455352E+04  0.19341455352E+04  0.25500000920E-02 0. -1.
    10030    2    1    2    0    0  0.00000000000E+00  0.00000000000E+00 -0.67719377703E+02  0.38005716928E+04  0.37999683259E+04 0.  0.
        5    1    3    3  502    0 -0.18295346828E+04 -0.18941688911E+03 -0.51021445001E+03  0.19087736347E+04  0.46999998093E+01 0. -1.
       -5    1    3    3    0  502  0.18295346828E+04  0.18941688911E+03  0.44249507231E+03  0.18917980581E+04  0.46999998093E+01 0.  1.
</event>
<event>
 5   0  0.1305088E-08  0.3801436E+04  0.7818609E-02  0.8045847E-01
       -2   -1    0    0    0  501  0.00000000000E+00  0.00000000000E+00  0.20653468245E+04  0.20653468245E+04  0.25500000920E-02 0.  1.
        2   -1    0    0  501    0  0.00000000000E+00  0.00000000000E+00 -0.17492120625E+04  0.17492120625E+04  0.25500000920E-02 0. -1.
    10030    2    1    2    0    0  0.00000000000E+00  0.00000000000E+00  0.31613476200E+03  0.38145588870E+04  0.38014363489E+04 0.  0.
        3    1    3    3  502    0  0.24273786140E+02 -0.10861183897E+04 -0.14069597904E+04  0.17775765061E+04  0.10100000352E+00 0. -1.
       -3    1    3    3    0  502 -0.24273786140E+02  0.10861183897E+04  0.17230945524E+04  0.20369823809E+04  0.10100000352E+00 0.  1.
</event>
<event>
 5   0  0.1293993E-08  0.3799037E+04  0.7818609E-02  0.8046362E-01
       -2   -1    0    0    0  501  0.00000000000E+00  0.00000000000E+00  0.16099173015E+04  0.16099173015E+04  0.25500000920E-02 0. -1.
        2   -1    0    0  501    0  0.00000000000E+00  0.00000000000E+00 -0.22412148307E+04  0.22412148307E+04  0.25500000920E-02 0.  1.
    10030    2    1    2    0    0  0.00000000000E+00  0.00000000000E+00 -0.63129752924E+03  0.38511321322E+04  0.37990370002E+04 0.  0.
        5    1    3    3  502    0 -0.70743135333E+03 -0.13580867393E+04  0.82372543025E+03  0.17387939457E+04  0.46999998093E+01 0. -1.
       -5    1    3    3    0  502  0.70743135333E+03  0.13580867393E+04 -0.14550229595E+04  0.21123381864E+04  0.46999998093E+01 0.  1.
</event>
<event>
 5   0  0.4071750E-09  0.3799331E+04  0.7818609E-02  0.8046298E-01
        1   -1    0    0  501    0  0.00000000000E+00  0.00000000000E+00  0.17289968223E+04  0.17289968224E+04  0.50400001928E-02 0. -1.
       -1   -1    0    0    0  501  0.00000000000E+00  0.00000000000E+00 -0.20871812735E+04  0.20871812735E+04  0.50400001928E-02 0.  1.
    10030    2    1    2    0    0  0.00000000000E+00  0.00000000000E+00 -0.35818445117E+03  0.38161780959E+04  0.37993314094E+04 0.  0.
        2    1    3    3  502    0 -0.12577201902E+03  0.17793763197E+04  0.47705093313E+03  0.18465037992E+04  0.25500000920E-02 0. -1.
       -2    1    3    3    0  502  0.12577201902E+03 -0.17793763197E+04 -0.83523538430E+03  0.19696742967E+04  0.25500000920E-02 0.  1.
</event>
<event>
 5   0  0.1264013E-08  0.3791343E+04  0.7818609E-02  0.8048015E-01
       -2   -1    0    0    0  501  0.00000000000E+00  0.00000000000E+00  0.15451711822E+04  0.15451711822E+04  0.25500000920E-02 0.  1.
        2   -1    0    0  501    0  0.00000000000E+00  0.00000000000E+00 -0.23256778807E+04  0.23256778807E+04  0.25500000920E-02 0. -1.
    10030    2    1    2    0    0  0.00000000000E+00  0.00000000000E+00 -0.78050669850E+03  0.38708490629E+04  0.37913430024E+04 0.  0.
        4    1    3    3  502    0 -0.56038413980E+03  0.16093120756E+04 -0.12381218527E+04  0.21063862599E+04  0.12699999809E+01 0. -1.
       -4    1    3    3    0  502  0.56038413980E+03 -0.16093120756E+04  0.45761515425E+03  0.17644628030E+04  0.12699999809E+01 0.  1.
</event>
<event>
 5   0  0.4071750E-09  0.3792138E+04  0.7818609E-02  0.8047844E-01
        1   -1    0    0  501    0  0.00000000000E+00  0.00000000000E+00  0.19591739380E+04  0.19591739380E+04  0.50400001928E-02 0.  1.
       -1   -1    0    0    0  501  0.00000000000E+00  0.00000000000E+00 -0.18349966655E+04  0.18349966655E+04  0.50400001928E-02 0. -1.
    10030    2    1    2    0    0  0.00000000000E+00  0.00000000000E+00  0.12417727251E+03  0.37941706035E+04  0.37921379950E+04 0.  0.
        3    1    3    3  502    0 -0.23624095116E+03  0.10851876650E+04 -0.14754964696E+04  0.18467625449E+04  0.10100000352E+00 0. -1.
       -3    1    3    3    0  502  0.23624095116E+03 -0.10851876650E+04  0.15996737421E+04  0.19474080586E+04  0.10100000352E+00 0.  1.
</event>
<event>
 5   0  0.1305088E-08  0.3808814E+04  0.7818609E-02  0.8044266E-01
       -2   -1    0    0    0  501  0.00000000000E+00  0.00000000000E+00  0.27078075002E+04  0.27078075002E+04  0.25500000920E-02 0.  1.
        2   -1    0    0  501    0  0.00000000000E+00  0.00000000000E+00 -0.13393738016E+04  0.13393738016E+04  0.25500000920E-02 0. -1.
    10030    2    1    2    0    0  0.00000000000E+00  0.00000000000E+00  0.13684336986E+04  0.40471813018E+04  0.38088142121E+04 0.  0.
        3    1    3    3  502    0 -0.73172732813E+03  0.12643672930E+04 -0.61401300823E+03  0.15846329287E+04  0.10100000352E+00 0. -1.
       -3    1    3    3    0  502  0.73172732813E+03 -0.12643672930E+04  0.19824467068E+04  0.24625483731E+04  0.10100000352E+00 0.  1.
</event>
<event>
 5   0  0.4071750E-09  0.3799273E+04  0.7818609E-02  0.8046311E-01
       -1   -1    0    0    0  501  0.00000000000E+00  0.00000000000E+00  0.27895649443E+04  0.27895649444E+04  0.50400001928E-02 0.  1.
        1   -1    0    0  501    0  0.00000000000E+00  0.00000000000E+00 -0.12936137446E+04  0.12936137446E+04  0.50400001928E-02 0. -1.
    10030    2    1    2    0    0  0.00000000000E+00  0.00000000000E+00  0.14959511998E+04  0.40831786889E+04  0.37992733797E+04 0.  0.
        1    1    3    3  502    0 -0.10363055600E+04 -0.12344125547E+04  0.18285517384E+04  0.24374792366E+04  0.50400001928E-02 0.  1.
       -1    1    3    3    0  502  0.10363055600E+04  0.12344125547E+04 -0.33260053866E+03  0.16456994523E+04  0.50400001928E-02 0. -1.
</event>
<event>
 5   0  0.1293993E-08  0.3800475E+04  0.7818609E-02  0.8046053E-01
       -2   -1    0    0    0  501  0.00000000000E+00  0.00000000000E+00  0.18615393274E+04  0.18615393274E+04  0.25500000920E-02 0.  1.
        2   -1    0    0  501    0  0.00000000000E+00  0.00000000000E+00 -0.19397401107E+04  0.19397401107E+04  0.25500000920E-02 0. -1.
    10030    2    1    2    0    0  0.00000000000E+00  0.00000000000E+00 -0.78200783272E+02  0.38012794381E+04  0.38004749708E+04 0.  0.
        5    1    3    3  502    0 -0.17928008090E+04  0.27805979319E+03 -0.60440001691E+03  0.19122691912E+04  0.46999998093E+01 0.  1.
       -5    1    3    3    0  502  0.17928008090E+04 -0.27805979319E+03  0.52619923364E+03  0.18890102468E+04  0.46999998093E+01 0. -1.
</event>
<event>
 5   0  0.4071750E-09  0.3802731E+04  0.7818609E-02  0.8045569E-01
       -1   -1    0    0    0  501  0.00000000000E+00  0.00000000000E+00  0.15243627137E+04  0.15243627137E+04  0.50400001928E-02 0.  1.
        1   -1    0    0  501    0  0.00000000000E+00  0.00000000000E+00 -0.23716076720E+04  0.23716076720E+04  0.50400001928E-02 0. -1.
    10030    2    1    2    0    0  0.00000000000E+00  0.00000000000E+00 -0.84724495827E+03  0.38959703857E+04  0.38027307592E+04 0.  0.
        4    1    3    3  502    0 -0.10561827185E+04 -0.11676709415E+04  0.66844538508E+03  0.17104964800E+04  0.12699999809E+01 0. -1.
       -4    1    3    3    0  502  0.10561827185E+04  0.11676709415E+04 -0.15156903433E+04  0.21854739057E+04  0.12699999809E+01 0.  1.
</event>
<event>
 5   0  0.1261152E-08  0.3799819E+04  0.7818609E-02  0.8046194E-01
        2   -1    0    0  501    0  0.00000000000E+00  0.00000000000E+00  0.14290108922E+04  0.14290108922E+04  0.25500000920E-02 0.  1.
       -2   -1    0    0    0  501  0.00000000000E+00  0.00000000000E+00 -0.25259816804E+04  0.25259816804E+04  0.25500000920E-02 0. -1.
    10030    2    1    2    0    0  0.00000000000E+00  0.00000000000E+00 -0.10969707883E+04  0.39549925726E+04  0.37998185929E+04 0.  0.
        2    1    3    3  502    0 -0.13743480524E+03 -0.74947333124E+03  0.12630069907E+04  0.14750543239E+04  0.25500000920E-02 0.  1.
       -2    1    3    3    0  502  0.13743480524E+03  0.74947333124E+03 -0.23599777790E+04  0.24799382487E+04  0.25500000920E-02 0. -1.
</event>
<event>
 5   0  0.1305088E-08  0.3798953E+04  0.7818609E-02  0.8046380E-01
        2   -1    0    0  501    0  0.00000000000E+00  0.00000000000E+00  0.21949079421E+04  0.21949079421E+04  0.25500000920E-02 0. -1.
       -2   -1    0    0    0  501  0.00000000000E+00  0.00000000000E+00 -0.16438097894E+04  0.16438097894E+04  0.25500000920E-02 0.  1.
    10030    2    1    2    0    0  0.00000000000E+00  0.00000000000E+00  0.55109815265E+03  0.38387177315E+04  0.37989530990E+04 0.  0.
        3    1    3    3  502    0 -0.10170872300E+04  0.26615130113E+03 -0.13230050853E+04  0.16898655018E+04  0.10100000352E+00 0.  1.
       -3    1    3    3    0  502  0.10170872300E+04 -0.26615130113E+03  0.18741032379E+04  0.21488522297E+04  0.10100000352E+00 0. -1.
</event>
<event>
 5   0  0.4071750E-09  0.3797865E+04  0.7818609E-02  0.8046613E-01
       -1   -1    0    0    0  501  0.00000000000E+00  0.00000000000E+00  0.25143584081E+04  0.25143584081E+04  0.50400001928E-02 0. -1.
        1   -1    0    0  501    0  0.00000000000E+00  0.00000000000E+00 -0.14341407741E+04  0.14341407741E+04  0.50400001928E-02 0.  1.
    10030    2    1    2    0    0  0.00000000000E+00  0.00000000000E+00  0.10802176340E+04  0.39484991822E+04  0.37978646178E+04 0.  0.
        5    1    3    3  502    0  0.97830340725E+03  0.98604703350E+03  0.18862838831E+04  0.23425318112E+04  0.46999998093E+01 0. -1.
       -5    1    3    3    0  502 -0.97830340725E+03 -0.98604703350E+03 -0.80606624903E+03  0.16059673710E+04  0.46999998093E+01 0.  1.
</event>
<event>
 5   0  0.4071750E-09  0.3795229E+04  0.7818609E-02  0.8047179E-01
        4   -1    0    0  501    0  0.00000000000E+00  0.00000000000E+00  0.24945071217E+04  0.24945074450E+04  0.12699999809E+01 0.  1.
       -4   -1    0    0    0  501  0.00000000000E+00  0.00000000000E+00 -0.14435474325E+04  0.14435479911E+04  0.12699999809E+01 0. -1.
    10030    2    1    2    0    0  0.00000000000E+00  0.00000000000E+00  0.10509596892E+04  0.39380554362E+04  0.37952291564E+04 0.  0.
        3    1    3    3  502    0 -0.63718561987E+03 -0.10873348275E+04  0.19975439179E+04  0.23618815075E+04  0.10100000352E+00 0.  1.
       -3    1    3    3    0  502  0.63718561987E+03  0.10873348275E+04 -0.94658422867E+03  0.15761739287E+04  0.10100000352E+00 0. -1.
</event>
<event>
 5   0  0.1264013E-08  0.3799638E+04  0.7818609E-02  0.8046233E-01
        2   -1    0    0  501    0  0.00000000000E+00  0.00000000000E+00  0.25535582562E+04  0.25535582562E+04  0.25500000920E-02 0. -1.
       -2   -1    0    0    0  501  0.00000000000E+00  0.00000000000E+00 -0.14134440238E+04  0.14134440238E+04  0.25500000920E-02 0.  1.
    10030    2    1    2    0    0  0.00000000000E+00  0.00000000000E+00  0.11401142324E+04  0.39670022800E+04  0.37996376967E+04 0.  0.
        4    1    3    3  502    0 -0.41845767106E+03  0.17742277716E+04  0.11287142818E+04  0.21440588963E+04  0.12699999809E+01 0.  1.
       -4    1    3    3    0  502  0.41845767106E+03 -0.17742277716E+04  0.11399950571E+02  0.18229433836E+04  0.12699999809E+01 0. -1.
</event>
<event>
 5   0  0.1261152E-08  0.3806077E+04  0.7818609E-02  0.8044852E-01
       -2   -1    0    0    0  501  0.00000000000E+00  0.00000000000E+00  0.12440066784E+04  0.12440066784E+04  0.25500000920E-02 0. -1.
        2   -1    0    0  501    0  0.00000000000E+00  0.00000000000E+00 -0.29112027130E+04  0.29112027130E+04  0.25500000920E-02 0.  1.
    10030    2    1    2    0    0  0.00000000000E+00  0.00000000000E+00 -0.16671960346E+04  0.41552093915E+04  0.38060770446E+04 0.  0.
        2    1    3    3  502    0 -0.68004686999E+03 -0.47980693400E+01 -0.27740141836E+04  0.28561585141E+04  0.25500000920E-02 0.  1.
       -2    1    3    3    0  502  0.68004686999E+03  0.47980693400E+01  0.11068181490E+04  0.12990508773E+04  0.25500000920E-02 0. -1.
</event>
<event>
 5   0  0.4071750E-09  0.3800013E+04  0.7818609E-02  0.8046152E-01
       -1   -1    0    0    0  501  0.00000000000E+00  0.00000000000E+00  0.21441522744E+04  0.21441522744E+04  0.50400001928E-02 0.  1.
        1   -1    0    0  501    0  0.00000000000E+00  0.00000000000E+00 -0.16836605496E+04  0.16836605496E+04  0.50400001928E-02 0. -1.
    10030    2    1    2    0    0  0.00000000000E+00  0.00000000000E+00  0.46049172483E+03  0.38278128241E+04  0.38000129457E+04 0.  0.
        2    1    3    3  502    0 -0.82190367620E+03 -0.15734315290E+04  0.91255797370E+03  0.19959896004E+04  0.25500000920E-02 0. -1.
       -2    1    3    3    0  502  0.82190367620E+03  0.15734315290E+04 -0.45206624887E+03  0.18318232237E+04  0.25500000920E-02 0.  1.
</event>
<event>
 5   0  0.1261152E-08  0.3813127E+04  0.7818609E-02  0.8043344E-01
        2   -1    0    0  501    0  0.00000000000E+00  0.00000000000E+00  0.13904320266E+04  0.13904320267E+04  0.25500000920E-02 0. -1.
       -2   -1    0    0    0  501  0.00000000000E+00  0.00000000000E+00 -0.26142846263E+04  0.26142846263E+04  0.25500000920E-02 0.  1.
    10030    2    1    2    0    0  0.00000000000E+00  0.00000000000E+00 -0.12238525996E+04  0.40047166529E+04  0.38131273628E+04 0.  0.
        2    1    3    3  502    0  0.14591204888E+03  0.18982876807E+04 -0.50586393126E+03  0.19699453703E+04  0.25500000920E-02 0.  1.
       -2    1    3    3    0  502 -0.14591204888E+03 -0.18982876807E+04 -0.71798866837E+03  0.20347712827E+04  0.25500000920E-02 0. -1.
</event>
<event>
 5   0  0.1293993E-08  0.3799830E+04  0.7818609E-02  0.8046191E-01
        2   -1    0    0  501    0  0.00000000000E+00  0.00000000000E+00  0.17245967735E+04  0.17245967735E+04  0.25500000920E-02 0.  1.
       -2   -1    0    0    0  501  0.00000000000E+00  0.00000000000E+00 -0.20930555452E+04  0.20930555452E+04  0.25500000920E-02 0. -1.
    10030    2    1    2    0    0  0.00000000000E+00  0.00000000000E+00 -0.36845877172E+03  0.38176523187E+04  0.37998299119E+04 0.  0.
        5    1    3    3  502    0 -0.47772242084E+03 -0.11190823494E+04  0.12817548544E+04  0.17673374360E+04  0.46999998093E+01 0.  1.
       -5    1    3    3    0  502  0.47772242084E+03  0.11190823494E+04 -0.16502136261E+04  0.20503148826E+04  0.46999998093E+01 0. -1.
</event>
<event>
 5   0  0.1264013E-08  0.3800524E+04  0.7818609E-02  0.8046042E-01
       -2   -1    0    0    0  501  0.00000000000E+00  0.00000000000E+00  0.13286297552E+04  0.13286297552E+04  0.25500000920E-02 0. -1.
        2   -1    0    0  501    0  0.00000000000E+00  0.00000000000E+00 -0.27178345470E+04  0.27178345470E+04  0.25500000920E-02 0.  1.
    10030    2    1    2    0    0  0.00000000000E+00  0.00000000000E+00 -0.13892047918E+04  0.40464643022E+04  0.38005240948E+04 0.  0.
        4    1    3    3  502    0  0.32586260102E+03 -0.10896786027E+04  0.92621282458E+03  0.14667848176E+04  0.12699999809E+01 0. -1.
       -4    1    3    3    0  502 -0.32586260102E+03  0.10896786027E+04 -0.23154176164E+04  0.25796794846E+04  0.12699999809E+01 0.  1.
</event>
<event>
 5   0  0.1261152E-08  0.3814072E+04  0.7818609E-02  0.8043142E-01
        2   -1    0    0  501    0  0.00000000000E+00  0.00000000000E+00  0.24095749502E+04  0.24095749502E+04  0.25500000920E-02 0.  1.
       -2   -1    0    0    0  501  0.00000000000E+00  0.00000000000E+00 -0.15093062113E+04  0.15093062113E+04  0.25500000920E-02 0. -1.
    10030    2    1    2    0    0  0.00000000000E+00  0.00000000000E+00  0.90026873890E+03  0.39188811616E+04  0.38140720702E+04 0.  0.
        2    1    3    3  502    0 -0.42106003982E+03 -0.14705122208E+04  0.16203288223E+04  0.22282646254E+04  0.25500000920E-02 0.  1.
       -2    1    3    3    0  502  0.42106003982E+03  0.14705122208E+04 -0.72006008342E+03  0.16906165361E+04  0.25500000920E-02 0. -1.
</event>
<event>
 5   0  0.1293993E-08  0.3799431E+04  0.7818609E-02  0.8046277E-01
       -2   -1    0    0    0  501  0.00000000000E+00  0.00000000000E+00  0.27775305971E+04  0.27775305971E+04  0.25500000920E-02 0. -1.
        2   -1    0    0  501    0  0.00000000000E+00  0.00000000000E+00 -0.12993261728E+04  0.12993261728E+04  0.25500000920E-02 0.  1.
    10030    2    1    2    0    0  0.00000000000E+00  0.00000000000E+00  0.14782044243E+04  0.40768567698E+04  0.37994305891E+04 0.  0.
        5    1    3    3  502    0  0.12320453034E+04 -0.13105201711E+03 -0.80611270601E+03  0.14781576525E+04  0.46999998093E+01 0.  1.
       -5    1    3    3    0  502 -0.12320453034E+04  0.13105201711E+03  0.22843171303E+04  0.25986991174E+04  0.46999998093E+01 0. -1.
</event>
<event>
 5   0  0.4071750E-09  0.3799910E+04  0.7818609E-02  0.8046174E-01
        1   -1    0    0  501    0  0.00000000000E+00  0.00000000000E+00  0.22810986032E+04  0.22810986032E+04  0.50400001928E-02 0.  1.
       -1   -1    0    0    0  501  0.00000000000E+00  0.00000000000E+00 -0.15824954904E+04  0.15824954905E+04  0.50400001928E-02 0. -1.
    10030    2    1    2    0    0  0.00000000000E+00  0.00000000000E+00  0.69860311276E+03  0.38635940937E+04  0.37999096057E+04 0.  0.
        1    1    3    3  502    0  0.18962036755E+04  0.55687018203E+02  0.45661101742E+03  0.19512004111E+04  0.50400001928E-02 0. -1.
       -1    1    3    3    0  502 -0.18962036755E+04 -0.55687018203E+02  0.24199209534E+03  0.19123936826E+04  0.50400001928E-02 0.  1.
</event>
<event>
 5   0  0.1305088E-08  0.3799614E+04  0.7818609E-02  0.8046238E-01
       -2   -1    0    0    0  501  0.00000000000E+00  0.00000000000E+00  0.16064451563E+04  0.16064451563E+04  0.25500000920E-02 0.  1.
        2   -1    0    0  501    0  0.00000000000E+00  0.00000000000E+00 -0.22467416145E+04  0.22467416146E+04  0.25500000920E-02 0. -1.
    10030    2    1    2    0    0  0.00000000000E+00  0.00000000000E+00 -0.64029645827E+03  0.38531867708E+04  0.37996142878E+04 0.  0.
        3    1    3    3  502    0  0.96823396610E+03 -0.15009097415E+04 -0.97662401102E+03  0.20356820808E+04  0.10100000352E+00 0. -1.
       -3    1    3    3    0  502 -0.96823396610E+03  0.15009097415E+04  0.33632755275E+03  0.18175046900E+04  0.10100000352E+00 0.  1.
</event>
<event>
 5   0  0.4071750E-09  0.3798449E+04  0.7818609E-02  0.8046488E-01
        1   -1    0    0  501    0  0.00000000000E+00  0.00000000000E+00  0.25034359010E+04  0.25034359010E+04  0.50400001928E-02 0.  1.
       -1   -1    0    0    0  501  0.00000000000E+00  0.00000000000E+00 -0.14408415228E+04  0.14408415228E+04  0.50400001928E-02 0. -1.
    10030    2    1    2    0    0  0.00000000000E+00  0.00000000000E+00  0.10625943782E+04  0.39442774238E+04  0.37984493656E+04 0.  0.
        1    1    3    3  502    0  0.45883563042E+03 -0.99111178981E+03 -0.10821311658E+04  0.15374786423E+04  0.50400001928E-02 0. -1.
       -1    1    3    3    0  502 -0.45883563042E+03  0.99111178981E+03  0.21447255439E+04  0.24067987815E+04  0.50400001928E-02 0.  1.
</event>
<event>
 5   0  0.1261152E-08  0.3802267E+04  0.7818609E-02  0.8045668E-01
       -2   -1    0    0    0  501  0.00000000000E+00  0.00000000000E+00  0.17638166831E+04  0.17638166831E+04  0.25500000920E-02 0.  1.
        2   -1    0    0  501    0  0.00000000000E+00  0.00000000000E+00 -0.20491412266E+04  0.20491412266E+04  0.25500000920E-02 0. -1.
    10030    2    1    2    0    0  0.00000000000E+00  0.00000000000E+00 -0.28532454346E+03  0.38129579098E+04  0.38022674717E+04 0.  0.
        2    1    3    3  502    0  0.10457802921E+04  0.36056609054E+03 -0.16931806073E+04  0.20225046092E+04  0.25500000920E-02 0. -1.
       -2    1    3    3    0  502 -0.10457802921E+04 -0.36056609054E+03  0.14078560639E+04  0.17904533006E+04  0.25500000920E-02 0.  1.
</event>
<event>
 5   0  0.1293993E-08  0.3783341E+04  0.7818609E-02  0.8049739E-01
       -2   -1    0    0    0  501  0.00000000000E+00  0.00000000000E+00  0.22395918434E+04  0.22395918434E+04  0.25500000920E-02 0. -1.
        2   -1    0    0  501    0  0.00000000000E+00  0.00000000000E+00 -0.15977991211E+04  0.15977991211E+04  0.25500000920E-02 0.  1.
    10030    2    1    2    0    0  0.00000000000E+00  0.00000000000E+00  0.64179272234E+03  0.38373909646E+04  0.37833413164E+04 0.  0.
        5    1    3    3  502    0  0.15978838843E+04 -0.84084775095E+03  0.89299150121E+03  0.20143767670E+04  0.46999998093E+01 0. -1.
       -5    1    3    3    0  502 -0.15978838843E+04  0.84084775095E+03 -0.25119877888E+03  0.18230141976E+04  0.46999998093E+01 0.  1.
</event>
<event>
 5   0  0.4071750E-09  0.3801865E+04  0.7818609E-02  0.8045755E-01
        1   -1    0    0  501    0  0.00000000000E+00  0.00000000000E+00  0.20827384155E+04  0.20827384155E+04  0.50400001928E-02 0.  1.
       -1   -1    0    0    0  501  0.00000000000E+00  0.00000000000E+00 -0.17349971670E+04  0.17349971670E+04  0.50400001928E-02 0. -1.
    10030    2    1    2    0    0  0.00000000000E+00  0.00000000000E+00  0.34774124851E+03  0.38177355824E+04  0.38018654634E+04 0.  0.
        3    1    3    3  502    0 -0.12868947961E+04 -0.21757669501E+03 -0.12139648861E+04  0.17824557748E+04  0.10100000352E+00 0. -1.
       -3    1    3    3    0  502  0.12868947961E+04  0.21757669501E+03  0.15617061346E+04  0.20352798076E+04  0.10100000352E+00 0.  1.
</event>
<event>
 5   0  0.4071750E-09  0.3799318E+04  0.7818609E-02  0.8046301E-01
       -1   -1    0    0    0  501  0.00000000000E+00  0.00000000000E+00  0.19301671762E+04  0.19301671762E+04  0.50400001928E-02 0.  1.
        1   -1    0    0  501    0  0.00000000000E+00  0.00000000000E+00 -0.18696328389E+04  0.18696328389E+04  0.50400001928E-02 0. -1.
    10030    2    1    2    0    0  0.00000000000E+00  0.00000000000E+00  0.60534337240E+02  0.37998000151E+04  0.37993178004E+04 0.  0.
        1    1    3    3  502    0  0.83973978304E+03 -0.73693470880E+03 -0.15063093816E+04  0.18754209185E+04  0.50400001928E-02 0. -1.
       -1    1    3    3    0  502 -0.83973978304E+03  0.73693470880E+03  0.15668437188E+04  0.19243790966E+04  0.50400001928E-02 0.  1.
</event>
<event>
 5   0  0.4071750E-09  0.3804069E+04  0.7818609E-02  0.8045282E-01
        1   -1    0    0  501    0  0.00000000000E+00  0.00000000000E+00  0.12350977158E+04  0.12350977158E+04  0.50400001928E-02 0. -1.
       -1   -1    0    0    0  501  0.00000000000E+00  0.00000000000E+00 -0.29291081905E+04  0.29291081905E+04  0.50400001928E-02 0.  1.
    10030    2    1    2    0    0  0.00000000000E+00  0.00000000000E+00 -0.16940104747E+04  0.41642059063E+04  0.38040687877E+04 0.  0.
        5    1    3    3  502    0 -0.17920449008E+04 -0.43935882749E+03 -0.34149492004E+03  0.18764599585E+04  0.46999998093E+01 0. -1.
       -5    1    3    3    0  502  0.17920449008E+04  0.43935882749E+03 -0.13525155547E+04  0.22877459477E+04  0.46999998093E+01 0.  1.
</event>
<event>
 5   0  0.4071750E-09  0.3799596E+04  0.7818609E-02  0.8046242E-01
       -1   -1    0    0    0  501  0.00000000000E+00  0.00000000000E+00  0.15161899569E+04  0.15161899569E+04  0.50400001928E-02 0.  1.
        1   -1    0    0  501    0  0.00000000000E+00  0.00000000000E+00 -0.23804618571E+04  0.23804618571E+04  0.50400001928E-02 0. -1.
    10030    2    1    2    0    0  0.00000000000E+00  0.00000000000E+00 -0.86427190024E+03  0.38966518140E+04  0.37995959578E+04 0.  0.
        3    1    3    3  502    0 -0.14266302802E+04 -0.97410766951E+03  0.37867467242E+03  0.17684892496E+04  0.10100000352E+00 0.  1.
       -3    1    3    3    0  502  0.14266302802E+04  0.97410766951E+03 -0.12429465727E+04  0.21281625645E+04  0.10100000352E+00 0. -1.
</event>
<event>
 5   0  0.1293993E-08  0.3798706E+04  0.7818609E-02  0.8046433E-01
        2   -1    0    0  501    0  0.00000000000E+00  0.00000000000E+00  0.22181626435E+04  0.22181626435E+04  0.25500000920E-02 0. -1.
       -2   -1    0    0    0  501  0.00000000000E+00  0.00000000000E+00 -0.16263652108E+04  0.16263652108E+04  0.25500000920E-02 0.  1.
    10030    2    1    2    0    0  0.00000000000E+00  0.00000000000E+00  0.59179743269E+03  0.38445278544E+04  0.37987063879E+04 0.  0.
        5    1    3    3  502    0  0.14035211625E+04  0.13921903037E+03  0.15833546013E+04  0.21204451126E+04  0.46999998093E+01 0. -1.
       -5    1    3    3    0  502 -0.14035211625E+04 -0.13921903037E+03 -0.99155716861E+03  0.17240827418E+04  0.46999998093E+01 0.  1.
</event>
<event>
 5   0  0.1293993E-08  0.3793881E+04  0.7818609E-02  0.8047469E-01
        2   -1    0    0  501    0  0.00000000000E+00  0.00000000000E+00  0.26217219652E+04  0.26217219652E+04  0.25500000920E-02 0. -1.
       -2   -1    0    0    0  501  0.00000000000E+00  0.00000000000E+00 -0.13725269670E+04  0.13725269670E+04  0.25500000920E-02 0.  1.
    10030    2    1    2    0    0  0.00000000000E+00  0.00000000000E+00  0.12491949982E+04  0.39942489321E+04  0.37938814410E+04 0.  0.
        5    1    3    3  502    0 -0.16690846890E+04  0.90118103875E+03  0.60377831122E+03  0.19906132982E+04  0.46999998093E+01 0.  1.
       -5    1    3    3    0  502  0.16690846890E+04 -0.90118103875E+03  0.64541668700E+03  0.20036356340E+04  0.46999998093E+01 0. -1.
</event>
<event>
 5   0  0.4071750E-09  0.3798743E+04  0.7818609E-02  0.8046425E-01
       -1   -1    0    0    0  501  0.00000000000E+00  0.00000000000E+00  0.31169739459E+04  0.31169739460E+04  0.50400001928E-02 0. -1.
        1   -1    0    0  501    0  0.00000000000E+00  0.00000000000E+00 -0.11574086496E+04  0.11574086496E+04  0.50400001928E-02 0.  1.
    10030    2    1    2    0    0  0.00000000000E+00  0.00000000000E+00  0.19595652963E+04  0.42743825956E+04  0.37987432689E+04 0.  0.
        1    1    3    3  502    0  0.69500160243E+03 -0.95855237841E+03 -0.69135739250E+03  0.13710670785E+04  0.50400001928E-02 0.  1.
       -1    1    3    3    0  502 -0.69500160243E+03  0.95855237841E+03  0.26509226888E+04  0.29033155171E+04  0.50400001928E-02 0. -1.
</event>
<event>
 5   0  0.4071750E-09  0.3800632E+04  0.7818609E-02  0.8046019E-01
       -3   -1    0    0    0  501  0.00000000000E+00  0.00000000000E+00  0.27809803719E+04  0.27809803737E+04  0.10100000352E+00 0. -1.
        3   -1    0    0  501    0  0.00000000000E+00  0.00000000000E+00 -0.12985349201E+04  0.12985349240E+04  0.10100000352E+00 0.  1.
    10030    2    1    2    0    0  0.00000000000E+00  0.00000000000E+00  0.14824454518E+04  0.40795152977E+04  0.38006315984E+04 0.  0.
        4    1    3    3  502    0  0.49685890041E+03  0.77957176834E+03 -0.10409076771E+04  0.13921534808E+04  0.12699999809E+01 0.  1.
       -4    1    3    3    0  502 -0.49685890041E+03 -0.77957176834E+03  0.25233531289E+04  0.26873618169E+04  0.12699999809E+01 0. -1.
</event>
<event>
 5   0  0.1305088E-08  0.3812018E+04  0.7818609E-02  0.8043581E-01
        2   -1    0    0  501    0  0.00000000000E+00  0.00000000000E+00  0.22420366835E+04  0.22420366835E+04  0.25500000920E-02 0.  1.
       -2   -1    0    0    0  501  0.00000000000E+00  0.00000000000E+00 -0.16203435349E+04  0.16203435349E+04  0.25500000920E-02 0. -1.
    10030    2    1    2    0    0  0.00000000000E+00  0.00000000000E+00  0.62169314863E+03  0.38623802184E+04  0.38120176522E+04 0.  0.
        3    1    3    3  502    0 -0.33957265386E+02 -0.11694900989E+04 -0.12136948820E+04  0.16857981683E+04  0.10100000352E+00 0. -1.
       -3    1    3    3    0  502  0.33957265386E+02  0.11694900989E+04  0.18353880307E+04  0.21765820501E+04  0.10100000352E+00 0.  1.
</event>
<event>
 5   0  0.1293993E-08  0.3804641E+04  0.7818609E-02  0.8045160E-01
        2   -1    0    0  501    0  0.00000000000E+00  0.00000000000E+00  0.29774223109E+04  0.29774223109E+04  0.25500000920E-02 0. -1.
       -2   -1    0    0    0  501  0.00000000000E+00  0.00000000000E+00 -0.12154218114E+04  0.12154218114E+04  0.25500000920E-02 0.  1.
    10030    2    1    2    0    0  0.00000000000E+00  0.00000000000E+00  0.17620004995E+04  0.41928441223E+04  0.38046413856E+04 0.  0.
        5    1    3    3  502    0 -0.42945557026E+03 -0.12463231586E+04 -0.63045389996E+03  0.14612486826E+04  0.46999998093E+01 0.  1.
       -5    1    3    3    0  502  0.42945557026E+03  0.12463231586E+04  0.23924543995E+04  0.27315954397E+04  0.46999998093E+01 0. -1.
</event>
<event>
 5   0  0.1264013E-08  0.3804759E+04  0.7818609E-02  0.8045134E-01
        2   -1    0    0  501    0  0.00000000000E+00  0.00000000000E+00  0.20419256855E+04  0.20419256855E+04  0.25500000920E-02 0.  1.
       -2   -1    0    0    0  501  0.00000000000E+00  0.00000000000E+00 -0.17723699811E+04  0.17723699811E+04  0.25500000920E-02 0. -1.
    10030    2    1    2    0    0  0.00000000000E+00  0.00000000000E+00  0.26955570437E+03  0.38142956666E+04  0.38047590140E+04 0.  0.
        4    1    3    3  502    0 -0.35138348795E+03  0.13066168027E+04  0.14754137084E+04  0.20018903688E+04  0.12699999809E+01 0.  1.
       -4    1    3    3    0  502  0.35138348795E+03 -0.13066168027E+04 -0.12058580040E+04  0.18124052978E+04  0.12699999809E+01 0. -1.
</event>
<event>
 5   0  0.4071750E-09  0.3799944E+04  0.7818609E-02  0.8046167E-01
        1   -1    0    0  501    0  0.00000000000E+00  0.00000000000E+00  0.19913083796E+04  0.19913083796E+04  0.50400001928E-02 0.  1.
       -1   -1    0    0    0  501  0.00000000000E+00  0.00000000000E+00 -0.18128252515E+04  0.18128252515E+04  0.50400001928E-02 0. -1.
    10030    2    1    2    0    0  0.00000000000E+00  0.00000000000E+00  0.17848312807E+03  0.38041336311E+04  0.37999442701E+04 0.  0.
        3    1    3    3  502    0  0.32947322223E+03  0.60435029966E+02 -0.17830312846E+04  0.18142231310E+04  0.10100000352E+00 0. -1.
       -3    1    3    3    0  502 -0.32947322223E+03 -0.60435029966E+02  0.19615144127E+04  0.19899105001E+04  0.10100000352E+00 0.  1.
</event>
<event>
 5   0  0.4071750E-09  0.3794469E+04  0.7818609E-02  0.8047343E-01
        1   -1    0    0  501    0  0.00000000000E+00  0.00000000000E+00  0.24794501092E+04  0.24794501093E+04  0.50400001928E-02 0.  1.
       -1   -1    0    0    0  501  0.00000000000E+00  0.00000000000E+00 -0.14517324921E+04  0.14517324921E+04  0.50400001928E-02 0. -1.
    10030    2    1    2    0    0  0.00000000000E+00  0.00000000000E+00  0.10277176172E+04  0.39311826013E+04  0.37944687565E+04 0.  0.
        4    1    3    3  502    0 -0.83027563711E+03  0.13142364324E+04  0.16406675931E+04  0.22601696392E+04  0.12699999809E+01 0.  1.
       -4    1    3    3    0  502  0.83027563711E+03 -0.13142364324E+04 -0.61294997596E+03  0.16710129621E+04  0.12699999809E+01 0. -1.
</event>
<event>
 5   0  0.4071750E-09  0.3796304E+04  0.7818609E-02  0.8046948E-01
       -1   -1    0    0    0  501  0.00000000000E+00  0.00000000000E+00  0.25413152260E+04  0.25413152260E+04  0.50400001928E-02 0. -1.
        1   -1    0    0  501    0  0.00000000000E+00  0.00000000000E+00 -0.14177626317E+04  0.14177626317E+04  0.50400001928E-02 0.  1.
    10030    2    1    2    0    0  0.00000000000E+00  0.00000000000E+00  0.11235525944E+04  0.39590778577E+04  0.37963043939E+04 0.  0.
        4    1    3    3  502    0  0.81080196446E+03  0.76163008133E+03  0.21657398146E+04  0.24347301214E+04  0.12699999809E+01 0. -1.
       -4    1    3    3    0  502 -0.81080196446E+03 -0.76163008133E+03 -0.10421872202E+04  0.15243477363E+04  0.12699999809E+01 0.  1.
</event>
<event>
 5   0  0.4071750E-09  0.3799399E+04  0.7818609E-02  0.8046284E-01
        1   -1    0    0  501    0  0.00000000000E+00  0.00000000000E+00  0.21205363359E+04  0.21205363359E+04  0.50400001928E-02 0. -1.
       -1   -1    0    0    0  501  0.00000000000E+00  0.00000000000E+00 -0.17018607876E+04  0.17018607876E+04  0.50400001928E-02 0.  1.
    10030    2    1    2    0    0  0.00000000000E+00  0.00000000000E+00  0.41867554831E+03  0.38223971235E+04  0.37993987097E+04 0.  0.
        4    1    3    3  502    0  0.51953814288E+03 -0.55438462547E+03  0.19610245124E+04  0.21030646557E+04  0.12699999809E+01 0. -1.
       -4    1    3    3    0  502 -0.51953814288E+03  0.55438462547E+03 -0.15423489641E+04  0.17193324678E+04  0.12699999809E+01 0.  1.
</event>
<event>
 5   0  0.4071750E-09  0.3798034E+04  0.7818609E-02  0.8046577E-01
        1   -1    0    0  501    0  0.00000000000E+00  0.00000000000E+00  0.12826760533E+04  0.12826760533E+04  0.50400001928E-02 0.  1.
       -1   -1    0    0    0  501  0.00000000000E+00  0.00000000000E+00 -0.28115165565E+04  0.28115165565E+04  0.50400001928E-02 0. -1.
    10030    2    1    2    0    0  0.00000000000E+00  0.00000000000E+00 -0.15288405032E+04  0.40941926097E+04  0.37980336809E+04 0.  0.
        1    1    3    3  502    0  0.10288656905E+04  0.12778029388E+04  0.26668029994E+03  0.16620659860E+04  0.50400001928E-02 0.  1.
       -1    1    3    3    0  502 -0.10288656905E+04 -0.12778029388E+04 -0.17955208032E+04  0.24321266237E+04  0.50400001928E-02 0. -1.
</event>
<event>
 5   0  0.4071750E-09  0.3797465E+04  0.7818609E-02  0.8046699E-01
       -1   -1    0    0    0  501  0.00000000000E+00  0.00000000000E+00  0.23389336879E+04  0.23389336879E+04  0.50400001928E-02 0.  1.
        1   -1    0    0  501    0  0.00000000000E+00  0.00000000000E+00 -0.15413801891E+04  0.15413801891E+04  0.50400001928E-02 0. -1.
    10030    2    1    2    0    0  0.00000000000E+00  0.00000000000E+00  0.79755349880E+03  0.38803138771E+04  0.37974654970E+04 0.  0.
        5    1    3    3  502    0  0.18193729469E+03  0.50075523742E+02  0.23293223877E+04  0.23369581967E+04  0.46999998093E+01 0.  1.
       -5    1    3    3    0  502 -0.18193729469E+03 -0.50075523742E+02 -0.15317688889E+04  0.15433556804E+04  0.46999998093E+01 0. -1.
</event>
<event>
 5   0  0.1264013E-08  0.3802668E+04  0.7818609E-02  0.8045583E-01
        2   -1    0    0  501    0  0.00000000000E+00  0.00000000000E+00  0.18123989992E+04  0.18123989992E+04  0.25500000920E-02 0.  1.
       -2   -1    0    0    0  501  0.00000000000E+00  0.00000000000E+00 -0.19946329381E+04  0.19946329381E+04  0.25500000920E-02 0. -1.
    10030    2    1    2    0    0  0.00000000000E+00  0.00000000000E+00 -0.18223393885E+03  0.38070319373E+04  0.38026678744E+04 0.  0.
        4    1    3    3  502    0  0.18827963141E+04 -0.22115538163E+03 -0.23701501002E+03  0.19104997752E+04  0.12699999809E+01 0.  1.
       -4    1    3    3    0  502 -0.18827963141E+04  0.22115538163E+03  0.54781071164E+02  0.18965321621E+04  0.12699999809E+01 0. -1.
</event>
<event>
 5   0  0.4071750E-09  0.3800389E+04  0.7818609E-02  0.8046071E-01
       -3   -1    0    0    0  501  0.00000000000E+00  0.00000000000E+00  0.16444043600E+04  0.16444043631E+04  0.10100000352E+00 0.  1.
        3   -1    0    0  501    0  0.00000000000E+00  0.00000000000E+00 -0.21957728698E+04  0.21957728721E+04  0.10100000352E+00 0. -1.
    10030    2    1    2    0    0  0.00000000000E+00  0.00000000000E+00 -0.55136850981E+03  0.38401772351E+04  0.38003886596E+04 0.  0.
        2    1    3    3  502    0  0.11862503074E+04 -0.56991853704E+03 -0.16607065889E+04  0.21189486320E+04  0.25500000920E-02 0. -1.
       -2    1    3    3    0  502 -0.11862503074E+04  0.56991853704E+03  0.11093380791E+04  0.17212286032E+04  0.25500000920E-02 0.  1.
</event>
<event>
 5   0  0.1264013E-08  0.3801211E+04  0.7818609E-02  0.8045895E-01
       -2   -1    0    0    0  501  0.00000000000E+00  0.00000000000E+00  0.16332344246E+04  0.16332344246E+04  0.25500000920E-02 0.  1.
        2   -1    0    0  501    0  0.00000000000E+00  0.00000000000E+00 -0.22117474629E+04  0.22117474629E+04  0.25500000920E-02 0. -1.
    10030    2    1    2    0    0  0.00000000000E+00  0.00000000000E+00 -0.57851303833E+03  0.38449818875E+04  0.38012114358E+04 0.  0.
        4    1    3    3  502    0  0.49235203232E+03 -0.10715432043E+04  0.12184385839E+04  0.16956442900E+04  0.12699999809E+01 0.  1.
       -4    1    3    3    0  502 -0.49235203232E+03  0.10715432043E+04 -0.17969516223E+04  0.21493375975E+04  0.12699999809E+01 0. -1.
</event>
<event>
 5   0  0.4071750E-09  0.3800113E+04  0.7818609E-02  0.8046131E-01
       -1   -1    0    0    0  501  0.00000000000E+00  0.00000000000E+00  0.29298528208E+04  0.29298528208E+04  0.50400001928E-02 0. -1.
        1   -1    0    0  501    0  0.00000000000E+00  0.00000000000E+00 -0.12322173923E+04  0.12322173923E+04  0.50400001928E-02 0.  1.
    10030    2    1    2    0    0  0.00000000000E+00  0.00000000000E+00  0.16976354285E+04  0.41620702130E+04  0.38001134734E+04 0.  0.
        1    1    3    3  502    0 -0.30715681832E+03 -0.99659625312E+03 -0.89075557863E+03  0.13714936761E+04  0.50400001928E-02 0.  1.
       -1    1    3    3    0  502  0.30715681832E+03  0.99659625312E+03  0.25883910071E+04  0.27905765369E+04  0.50400001928E-02 0. -1.
</event>
<event>
 5   0  0.1327249E-08  0.3785350E+04  0.7818609E-02  0.8049306E-01
       -2   -1    0    0    0  501  0.00000000000E+00  0.00000000000E+00  0.16134356638E+04  0.16134356638E+04  0.25500000920E-02 0. -1.
        2   -1    0    0  501    0  0.00000000000E+00  0.00000000000E+00 -0.22202426263E+04  0.22202426263E+04  0.25500000920E-02 0.  1.
    10030    2    1    2    0    0  0.00000000000E+00  0.00000000000E+00 -0.60680696257E+03  0.38336782901E+04  0.37853499894E+04 0.  0.
        1    1    3    3  502    0 -0.36736155594E+03  0.66277170227E+03  0.14530974406E+04  0.16388145148E+04  0.50400001928E-02 0. -1.
       -1    1    3    3    0  502  0.36736155594E+03 -0.66277170227E+03 -0.20599044031E+04  0.21948637753E+04  0.50400001928E-02 0.  1.
</event>
<event>
 5   0  0.4071750E-09  0.3799257E+04  0.7818609E-02  0.8046314E-01
        1   -1    0    0  501    0  0.00000000000E+00  0.00000000000E+00  0.25002190315E+04  0.25002190315E+04  0.50400001928E-02 0. -1.
       -1   -1    0    0    0  501  0.00000000000E+00  0.00000000000E+00 -0.14433086647E+04  0.14433086647E+04  0.50400001928E-02 0.  1.
    10030    2    1    2    0    0  0.00000000000E+00  0.00000000000E+00  0.10569103668E+04  0.39435276962E+04  0.37992566598E+04 0.  0.
        3    1    3    3  502    0 -0.79829975510E+03 -0.10679111319E+04 -0.87602348130E+03  0.15953475592E+04  0.10100000352E+00 0.  1.
       -3    1    3    3    0  502  0.79829975510E+03  0.10679111319E+04  0.19329338481E+04  0.23481801370E+04  0.10100000352E+00 0. -1.
</event>
<event>
 5   0  0.1261152E-08  0.3784258E+04  0.7818609E-02  0.8049541E-01
        2   -1    0    0  501    0  0.00000000000E+00  0.00000000000E+00  0.21781766877E+04  0.21781766877E+04  0.25500000920E-02 0. -1.
       -2   -1    0    0    0  501  0.00000000000E+00  0.00000000000E+00 -0.16436467295E+04  0.16436467295E+04  0.25500000920E-02 0.  1.
    10030    2    1    2    0    0  0.00000000000E+00  0.00000000000E+00  0.53452995821E+03  0.38218234171E+04  0.37842584419E+04 0.  0.
        2    1    3    3  502    0  0.15886302202E+04 -0.48386369690E+03 -0.64853465870E+03  0.17828256385E+04  0.25500000920E-02 0.  1.
       -2    1    3    3    0  502 -0.15886302202E+04  0.48386369690E+03  0.11830646169E+04  0.20389977787E+04  0.25500000920E-02 0. -1.
</event>
<event>
 5   0  0.4071750E-09  0.3799680E+04  0.7818609E-02  0.8046224E-01
        1   -1    0    0  501    0  0.00000000000E+00  0.00000000000E+00  0.20908754550E+04  0.20908754550E+04  0.50400001928E-02 0. -1.
       -1   -1    0    0    0  501  0.00000000000E+00  0.00000000000E+00 -0.17262584510E+04  0.17262584510E+04  0.50400001928E-02 0.  1.
    10030    2    1    2    0    0  0.00000000000E+00  0.00000000000E+00  0.36461700400E+03  0.38171339060E+04  0.37996796834E+04 0.  0.
        1    1    3    3  502    0 -0.14614912177E+04  0.12134033001E+04  0.21543384382E+03  0.19117311236E+04  0.50400001928E-02 0. -1.
       -1    1    3    3    0  502  0.14614912177E+04 -0.12134033001E+04  0.14918316018E+03  0.19054027824E+04  0.50400001928E-02 0.  1.
</event>
<event>
 5   0  0.4071750E-09  0.3791154E+04  0.7818609E-02  0.8048056E-01
        1   -1    0    0  501    0  0.00000000000E+00  0.00000000000E+00  0.15726814505E+04  0.15726814506E+04  0.50400001928E-02 0. -1.
       -1   -1    0    0    0  501  0.00000000000E+00  0.00000000000E+00 -0.22847678104E+04  0.22847678104E+04  0.50400001928E-02 0.  1.
    10030    2    1    2    0    0  0.00000000000E+00  0.00000000000E+00 -0.71208635981E+03  0.38574492609E+04  0.37911538899E+04 0.  0.
        5    1    3    3  502    0 -0.63678509947E+03  0.12263110058E+04  0.96428311496E+03  0.16849919767E+04  0.46999998093E+01 0. -1.
       -5    1    3    3    0  502  0.63678509947E+03 -0.12263110058E+04 -0.16763694748E+04  0.21724572842E+04  0.46999998093E+01 0.  1.
</event>
<event>
 5   0  0.4071750E-09  0.3795666E+04  0.7818609E-02  0.8047086E-01
       -1   -1    0    0    0  501  0.00000000000E+00  0.00000000000E+00  0.16492529296E+04  0.16492529296E+04  0.50400001928E-02 0.  1.
        1   -1    0    0  501    0  0.00000000000E+00  0.00000000000E+00 -0.21838791883E+04  0.21838791883E+04  0.50400001928E-02 0. -1.
    10030    2    1    2    0    0  0.00000000000E+00  0.00000000000E+00 -0.53462625873E+03  0.38331321180E+04  0.37956655012E+04 0.  0.
        1    1    3    3  502    0  0.15499957941E+04  0.79071331254E+03 -0.10324558902E+04  0.20232843768E+04  0.50400001928E-02 0. -1.
       -1    1    3    3    0  502 -0.15499957941E+04 -0.79071331254E+03  0.49782963145E+03  0.18098477412E+04  0.50400001928E-02 0.  1.
</event>
<event>
 5   0  0.1293993E-08  0.3801995E+04  0.7818609E-02  0.8045727E-01
        2   -1    0    0  501    0  0.00000000000E+00  0.00000000000E+00  0.26154721576E+04  0.26154721576E+04  0.25500000920E-02 0. -1.
       -2   -1    0    0    0  501  0.00000000000E+00  0.00000000000E+00 -0.13816974144E+04  0.13816974144E+04  0.25500000920E-02 0.  1.
    10030    2    1    2    0    0  0.00000000000E+00  0.00000000000E+00  0.12337747432E+04  0.39971695720E+04  0.38019948015E+04 0.  0.
        5    1    3    3  502    0 -0.14672774753E+04  0.20605936199E+03  0.18689937807E+04  0.23850625762E+04  0.46999998093E+01 0. -1.
       -5    1    3    3    0  502  0.14672774753E+04 -0.20605936199E+03 -0.63521903756E+03  0.16121069958E+04  0.46999998093E+01 0.  1.
</event>
<event>
 5   0  0.1305088E-08  0.3799783E+04  0.7818609E-02  0.8046201E-01
       -2   -1    0    0    0  501  0.00000000000E+00  0.00000000000E+00  0.23019906447E+04  0.23019906447E+04  0.25500000920E-02 0.  1.
        2   -1    0    0  501    0  0.00000000000E+00  0.00000000000E+00 -0.15680290201E+04  0.15680290201E+04  0.25500000920E-02 0. -1.
    10030    2    1    2    0    0  0.00000000000E+00  0.00000000000E+00  0.73396162457E+03  0.38700196648E+04  0.37997832228E+04 0.  0.
        3    1    3    3  502    0 -0.18656554368E+03  0.28189181859E+03 -0.15371541361E+04  0.15738845408E+04  0.10100000352E+00 0. -1.
       -3    1    3    3    0  502  0.18656554368E+03 -0.28189181859E+03  0.22711157606E+04  0.22961351241E+04  0.10100000352E+00 0.  1.
</event>
<event>
 5   0  0.1327249E-08  0.3800704E+04  0.7818609E-02  0.8046004E-01
        2   -1    0    0  501    0  0.00000000000E+00  0.00000000000E+00  0.16539226082E+04  0.16539226082E+04  0.25500000920E-02 0. -1.
       -2   -1    0    0    0  501  0.00000000000E+00  0.00000000000E+00 -0.21834990279E+04  0.21834990279E+04  0.25500000920E-02 0.  1.
    10030    2    1    2    0    0  0.00000000000E+00  0.00000000000E+00 -0.52957641974E+03  0.38374216361E+04  0.38007043596E+04 0.  0.
        1    1    3    3  502    0 -0.14568225927E+04 -0.92525913931E+03  0.53844862988E+03  0.18078615734E+04  0.50400001928E-02 0. -1.
       -1    1    3    3    0  502  0.14568225927E+04  0.92525913931E+03 -0.10680250496E+04  0.20295600627E+04  0.50400001928E-02 0.  1.
</event>
<event>
 5   0  0.4071750E-09  0.3802305E+04  0.7818609E-02  0.8045660E-01
        1   -1    0    0  501    0  0.00000000000E+00  0.00000000000E+00  0.23060553046E+04  0.23060553046E+04  0.50400001928E-02 0.  1.
       -1   -1    0    0    0  501  0.00000000000E+00  0.00000000000E+00 -0.15673434606E+04  0.15673434606E+04  0.50400001928E-02 0. -1.
    10030    2    1    2    0    0  0.00000000000E+00  0.00000000000E+00  0.73871184401E+03  0.38733987652E+04  0.38023049333E+04 0.  0.
        2    1    3    3  502    0 -0.10501062144E+04  0.60278805739E+03  0.18624705672E+04  0.22214574309E+04  0.25500000920E-02 0.  1.
       -2    1    3    3    0  502  0.10501062144E+04 -0.60278805739E+03 -0.11237587232E+04  0.16519413342E+04  0.25500000920E-02 0. -1.
</event>
<event>
 5   0  0.4071750E-09  0.3800009E+04  0.7818609E-02  0.8046153E-01
       -1   -1    0    0    0  501  0.00000000000E+00  0.00000000000E+00  0.22595511830E+04  0.22595511830E+04  0.50400001928E-02 0. -1.
        1   -1    0    0  501    0  0.00000000000E+00  0.00000000000E+00 -0.15976697693E+04  0.15976697693E+04  0.50400001928E-02 0.  1.
    10030    2    1    2    0    0  0.00000000000E+00  0.00000000000E+00  0.66188141369E+03  0.38572209523E+04  0.38000087459E+04 0.  0.
        1    1    3    3  502    0  0.11675960329E+04 -0.62054034003E+03  0.17159120334E+04  0.21662651998E+04  0.50400001928E-02 0. -1.
       -1    1    3    3    0  502 -0.11675960329E+04  0.62054034003E+03 -0.10540306197E+04  0.16909557525E+04  0.50400001928E-02 0.  1.
</event>
<event>
 5   0  0.1293993E-08  0.3800963E+04  0.7818609E-02  0.8045948E-01
       -2   -1    0    0    0  501  0.00000000000E+00  0.00000000000E+00  0.29648919863E+04  0.29648919863E+04  0.25500000920E-02 0.  1.
        2   -1    0    0  501    0  0.00000000000E+00  0.00000000000E+00 -0.12181997675E+04  0.12181997675E+04  0.25500000920E-02 0. -1.
    10030    2    1    2    0    0  0.00000000000E+00  0.00000000000E+00  0.17466922188E+04  0.41830917538E+04  0.38009634192E+04 0.  0.
        5    1    3    3  502    0  0.99888243646E+03  0.89246011517E+03  0.23570518446E+04  0.27110821948E+04  0.46999998093E+01 0. -1.
       -5    1    3    3    0  502 -0.99888243646E+03 -0.89246011517E+03 -0.61035962577E+03  0.14720095590E+04  0.46999998093E+01 0.  1.
</event>
<event>
 5   0  0.4071750E-09  0.3799692E+04  0.7818609E-02  0.8046221E-01
       -1   -1    0    0    0  501  0.00000000000E+00  0.00000000000E+00  0.19487159450E+04  0.19487159450E+04  0.50400001928E-02 0.  1.
        1   -1    0    0  501    0  0.00000000000E+00  0.00000000000E+00 -0.18522012852E+04  0.18522012852E+04  0.50400001928E-02 0. -1.
    10030    2    1    2    0    0  0.00000000000E+00  0.00000000000E+00  0.96514659803E+02  0.38009172302E+04  0.37996916600E+04 0.  0.
        5    1    3    3  502    0 -0.26795247588E+03  0.37577998530E+03 -0.17952649197E+04  0.18536470399E+04  0.46999998093E+01 0. -1.
       -5    1    3    3    0  502  0.26795247588E+03 -0.37577998530E+03  0.18917795795E+04  0.19472701903E+04  0.46999998093E+01 0.  1.
</event>
<event>
 5   0  0.4071750E-09  0.3799675E+04  0.7818609E-02  0.8046225E-01
       -1   -1    0    0    0  501  0.00000000000E+00  0.00000000000E+00  0.16728803852E+04  0.16728803852E+04  0.50400001928E-02 0.  1.
        1   -1    0    0  501    0  0.00000000000E+00  0.00000000000E+00 -0.21575858176E+04  0.21575858176E+04  0.50400001928E-02 0. -1.
    10030    2    1    2    0    0  0.00000000000E+00  0.00000000000E+00 -0.48470543240E+03  0.38304662027E+04  0.37996752459E+04 0.  0.
        4    1    3    3  502    0  0.12203818804E+04 -0.14212679903E+03 -0.17031812109E+04  0.21000856675E+04  0.12699999809E+01 0. -1.
       -4    1    3    3    0  502 -0.12203818804E+04  0.14212679903E+03  0.12184757785E+04  0.17303805352E+04  0.12699999809E+01 0.  1.
</event>
<event>
 5   0  0.1293993E-08  0.3800262E+04  0.7818609E-02  0.8046099E-01
        2   -1    0    0  501    0  0.00000000000E+00  0.00000000000E+00  0.21769984577E+04  0.21769984577E+04  0.25500000920E-02 0.  1.
       -2   -1    0    0    0  501  0.00000000000E+00  0.00000000000E+00 -0.16584755600E+04  0.16584755600E+04  0.25500000920E-02 0. -1.
    10030    2    1    2    0    0  0.00000000000E+00  0.00000000000E+00  0.51852289770E+03  0.38354740177E+04  0.38002624837E+04 0.  0.
        5    1    3    3  502    0  0.26043844355E+03 -0.14723364047E+04  0.14426759765E+04  0.20777244126E+04  0.46999998093E+01 0.  1.
       -5    1    3    3    0  502 -0.26043844355E+03  0.14723364047E+04 -0.92415307875E+03  0.17577496052E+04  0.46999998093E+01 0. -1.
</event>
<event>
 5   0  0.4071750E-09  0.3800468E+04  0.7818609E-02  0.8046054E-01
        3   -1    0    0  501    0  0.00000000000E+00  0.00000000000E+00  0.18662417721E+04  0.18662417749E+04  0.10100000352E+00 0. -1.
       -3   -1    0    0    0  501  0.00000000000E+00  0.00000000000E+00 -0.19348452793E+04  0.19348452819E+04  0.10100000352E+00 0.  1.
    10030    2    1    2    0    0  0.00000000000E+00  0.00000000000E+00 -0.68603507158E+02  0.38010870568E+04  0.38004679149E+04 0.  0.
        5    1    3    3  502    0 -0.11625036986E+04  0.13091838436E+04  0.70439139359E+03  0.18872113053E+04  0.46999998093E+01 0. -1.
       -5    1    3    3    0  502  0.11625036986E+04 -0.13091838436E+04 -0.77299490075E+03  0.19138757515E+04  0.46999998093E+01 0.  1.
</event>
<event>
 5   0  0.1293993E-08  0.3799360E+04  0.7818609E-02  0.8046292E-01
       -2   -1    0    0    0  501  0.00000000000E+00  0.00000000000E+00  0.14156207944E+04  0.14156207944E+04  0.25500000920E-02 0.  1.
        2   -1    0    0  501    0  0.00000000000E+00  0.00000000000E+00 -0.25492588711E+04  0.25492588711E+04  0.25500000920E-02 0. -1.
    10030    2    1    2    0    0  0.00000000000E+00  0.00000000000E+00 -0.11336380767E+04  0.39648796656E+04  0.37993598768E+04 0.  0.
        5    1    3    3  502    0  0.91680597489E+03 -0.62512075571E+03  0.10422530988E+04  0.15223740561E+04  0.46999998093E+01 0.  1.
       -5    1    3    3    0  502 -0.91680597489E+03  0.62512075571E+03 -0.21758911755E+04  0.24425056095E+04  0.46999998093E+01 0. -1.
</event>
<event>
 5   0  0.1264013E-08  0.3801908E+04  0.7818609E-02  0.8045746E-01
       -2   -1    0    0    0  501  0.00000000000E+00  0.00000000000E+00  0.14144892874E+04  0.14144892874E+04  0.25500000920E-02 0. -1.
        2   -1    0    0  501    0  0.00000000000E+00  0.00000000000E+00 -0.25547207733E+04  0.25547207733E+04  0.25500000920E-02 0.  1.
    10030    2    1    2    0    0  0.00000000000E+00  0.00000000000E+00 -0.11402314859E+04  0.39692100607E+04  0.38019075034E+04 0.  0.
        4    1    3    3  502    0 -0.56568610185E+03  0.12952263856E+03  0.13197484527E+04  0.14417054037E+04  0.12699999809E+01 0. -1.
       -4    1    3    3    0  502  0.56568610185E+03 -0.12952263856E+03 -0.24599799386E+04  0.25275046570E+04  0.12699999809E+01 0.  1.
</event>
<event>
 5   0  0.1327249E-08  0.3793912E+04  0.7818609E-02  0.8047463E-01
       -2   -1    0    0    0  501  0.00000000000E+00  0.00000000000E+00  0.12325089901E+04  0.12325089901E+04  0.25500000920E-02 0. -1.
        2   -1    0    0  501    0  0.00000000000E+00  0.00000000000E+00 -0.29196077816E+04  0.29196077816E+04  0.25500000920E-02 0.  1.
    10030    2    1    2    0    0  0.00000000000E+00  0.00000000000E+00 -0.16870987915E+04  0.41521167716E+04  0.37939124071E+04 0.  0.
        1    1    3    3  502    0  0.32596541258E+03 -0.12155480952E+04 -0.23969381127E+04  0.27072352942E+04  0.50400001928E-02 0.  1.
       -1    1    3    3    0  502 -0.32596541258E+03  0.12155480952E+04  0.70983932116E+03  0.14448814775E+04  0.50400001928E-02 0. -1.
</event>
<event>
 5   0  0.1327249E-08  0.3800246E+04  0.7818609E-02  0.8046102E-01
        2   -1    0    0  501    0  0.00000000000E+00  0.00000000000E+00  0.23923586535E+04  0.23923586535E+04  0.25500000920E-02 0. -1.
       -2   -1    0    0    0  501  0.00000000000E+00  0.00000000000E+00 -0.15091665401E+04  0.15091665401E+04  0.25500000920E-02 0.  1.
    10030    2    1    2    0    0  0.00000000000E+00  0.00000000000E+00  0.88319211335E+03  0.39015251936E+04  0.38002461140E+04 0.  0.
        1    1    3    3  502    0  0.11086905059E+04  0.35877087671E+03 -0.10992545509E+04  0.16019587222E+04  0.50400001928E-02 0.  1.
       -1    1    3    3    0  502 -0.11086905059E+04 -0.35877087671E+03  0.19824466642E+04  0.22995664714E+04  0.50400001928E-02 0. -1.
</event>
<event>
 5   0  0.4071750E-09  0.3802566E+04  0.7818609E-02  0.8045605E-01
       -1   -1    0    0    0  501  0.00000000000E+00  0.00000000000E+00  0.24961796185E+04  0.24961796186E+04  0.50400001928E-02 0.  1.
        1   -1    0    0  501    0  0.00000000000E+00  0.00000000000E+00 -0.14481635471E+04  0.14481635471E+04  0.50400001928E-02 0. -1.
    10030    2    1    2    0    0  0.00000000000E+00  0.00000000000E+00  0.10480160714E+04  0.39443431657E+04  0.38025656237E+04 0.  0.
        2    1    3    3  502    0 -0.32697701260E+03 -0.14940639718E+04 -0.64758895108E+03  0.16608770479E+04  0.25500000920E-02 0. -1.
       -2    1    3    3    0  502  0.32697701260E+03  0.14940639718E+04  0.16956050225E+04  0.22834661178E+04  0.25500000920E-02 0.  1.
</event>
<event>
 5   0  0.1327249E-08  0.3793339E+04  0.7818609E-02  0.8047586E-01
        2   -1    0    0  501    0  0.00000000000E+00  0.00000000000E+00  0.26365719540E+04  0.26365719540E+04  0.25500000920E-02 0.  1.
       -2   -1    0    0    0  501  0.00000000000E+00  0.00000000000E+00 -0.13644063983E+04  0.13644063983E+04  0.25500000920E-02 0. -1.
    10030    2    1    2    0    0  0.00000000000E+00  0.00000000000E+00  0.12721655557E+04  0.40009783523E+04  0.37933392379E+04 0.  0.
        1    1    3    3  502    0  0.12685199942E+04  0.63181672313E+03 -0.69348120073E+03  0.15777362020E+04  0.50400001928E-02 0. -1.
       -1    1    3    3    0  502 -0.12685199942E+04 -0.63181672313E+03  0.19656467565E+04  0.24232421502E+04  0.50400001928E-02 0.  1.
</event>
<event>
 5   0  0.4071750E-09  0.3799690E+04  0.7818609E-02  0.8046221E-01
       -1   -1    0    0    0  501  0.00000000000E+00  0.00000000000E+00  0.35458916239E+04  0.35458916239E+04  0.50400001928E-02 0.  1.
        1   -1    0    0  501    0  0.00000000000E+00  0.00000000000E+00 -0.10179135752E+04  0.10179135752E+04  0.50400001928E-02 0. -1.
    10030    2    1    2    0    0  0.00000000000E+00  0.00000000000E+00  0.25279780487E+04  0.45638051991E+04  0.37996901033E+04 0.  0.
        5    1    3    3  502    0  0.55456290309E+03  0.68100146066E+03 -0.75945738427E+03  0.11610773495E+04  0.46999998093E+01 0. -1.
       -5    1    3    3    0  502 -0.55456290309E+03 -0.68100146066E+03  0.32874354330E+04  0.34027278497E+04  0.46999998093E+01 0.  1.
</event>
<event>
 5   0  0.4071750E-09  0.3785625E+04  0.7818609E-02  0.8049247E-01
        1   -1    0    0  501    0  0.00000000000E+00  0.00000000000E+00  0.19692241059E+04  0.19692241059E+04  0.50400001928E-02 0. -1.
       -1   -1    0    0    0  501  0.00000000000E+00  0.00000000000E+00 -0.18193661704E+04  0.18193661704E+04  0.50400001928E-02 0.  1.
    10030    2    1    2    0    0  0.00000000000E+00  0.00000000000E+00  0.14985793547E+03  0.37885902763E+04  0.37856252959E+04 0.  0.
        3    1    3    3  502    0 -0.45549202633E+03 -0.18221986641E+04  0.30933186696E+03  0.19035669601E+04  0.10100000352E+00 0. -1.
       -3    1    3    3    0  502  0.45549202633E+03  0.18221986641E+04 -0.15947393149E+03  0.18850233162E+04  0.10100000352E+00 0.  1.
</event>
<event>
 5   0  0.1264013E-08  0.3800031E+04  0.7818609E-02  0.8046148E-01
       -2   -1    0    0    0  501  0.00000000000E+00  0.00000000000E+00  0.22354564954E+04  0.22354564954E+04  0.25500000920E-02 0.  1.
        2   -1    0    0  501    0  0.00000000000E+00  0.00000000000E+00 -0.16149091621E+04  0.16149091621E+04  0.25500000920E-02 0. -1.
    10030    2    1    2    0    0  0.00000000000E+00  0.00000000000E+00  0.62054733338E+03  0.38503656575E+04  0.38000311451E+04 0.  0.
        4    1    3    3  502    0  0.44366705227E+03  0.18285679097E+04  0.43044591590E+02  0.18821146361E+04  0.12699999809E+01 0. -1.
       -4    1    3    3    0  502 -0.44366705227E+03 -0.18285679097E+04  0.57750274179E+03  0.19682510214E+04  0.12699999809E+01 0.  1.
</event>
<event>
 5   0  0.4071750E-09  0.3800031E+04  0.7818609E-02  0.8046148E-01
        1   -1    0    0  501    0  0.00000000000E+00  0.00000000000E+00  0.27070707974E+04  0.27070707974E+04  0.50400001928E-02 0.  1.
       -1   -1    0    0    0  501  0.00000000000E+00  0.00000000000E+00 -0.13335664669E+04  0.13335664669E+04  0.50400001928E-02 0. -1.
    10030    2    1    2    0    0  0.00000000000E+00  0.00000000000E+00  0.13735043304E+04  0.40406372643E+04  0.38000309677E+04 0.  0.
        1    1    3    3  502    0 -0.22581395378E+03  0.11506083617E+04 -0.90295724866E+03  0.14799403152E+04  0.50400001928E-02 0. -1.
       -1    1    3    3    0  502  0.22581395378E+03 -0.11506083617E+04  0.22764615791E+04  0.25606969490E+04  0.50400001928E-02 0.  1.
</event>
<event>
 5   0  0.1305088E-08  0.3800876E+04  0.7818609E-02  0.8045967E-01
        2   -1    0    0  501    0  0.00000000000E+00  0.00000000000E+00  0.11502847918E+04  0.11502847918E+04  0.25500000920E-02 0.  1.
       -2   -1    0    0    0  501  0.00000000000E+00  0.00000000000E+00 -0.31398008520E+04  0.31398008520E+04  0.25500000920E-02 0. -1.
    10030    2    1    2    0    0  0.00000000000E+00  0.00000000000E+00 -0.19895160602E+04  0.42900856438E+04  0.38008763038E+04 0.  0.
        3    1    3    3  502    0  0.18143726352E+04  0.53576961662E+03 -0.79075171267E+03  0.20504354227E+04  0.10100000352E+00 0. -1.
       -3    1    3    3    0  502 -0.18143726352E+04 -0.53576961662E+03 -0.11987643475E+04  0.22396502210E+04  0.10100000352E+00 0.  1.
</event>
<event>
 5   0  0.1305088E-08  0.3799307E+04  0.7818609E-02  0.8046304E-01
        2   -1    0    0  501    0  0.00000000000E+00  0.00000000000E+00  0.24115179538E+04  0.24115179538E+04  0.25500000920E-02 0.  1.
       -2   -1    0    0    0  501  0.00000000000E+00  0.00000000000E+00 -0.14964367004E+04  0.14964367004E+04  0.25500000920E-02 0. -1.
    10030    2    1    2    0    0  0.00000000000E+00  0.00000000000E+00  0.91508125337E+03  0.39079546542E+04  0.37993072894E+04 0.  0.
        3    1    3    3  502    0 -0.17782496970E+04  0.61803832606E+03  0.19622727406E+03  0.18927885541E+04  0.10100000352E+00 0. -1.
       -3    1    3    3    0  502  0.17782496970E+04 -0.61803832606E+03  0.71885397931E+03  0.20151661001E+04  0.10100000352E+00 0.  1.
</event>
<event>
 5   0  0.1305088E-08  0.3801827E+04  0.7818609E-02  0.8045763E-01
       -2   -1    0    0    0  501  0.00000000000E+00  0.00000000000E+00  0.24704496253E+04  0.24704496253E+04  0.25500000920E-02 0.  1.
        2   -1    0    0  501    0  0.00000000000E+00  0.00000000000E+00 -0.14626779815E+04  0.14626779815E+04  0.25500000920E-02 0. -1.
    10030    2    1    2    0    0  0.00000000000E+00  0.00000000000E+00  0.10077716438E+04  0.39331276068E+04  0.38018270720E+04 0.  0.
        3    1    3    3  502    0 -0.10992424155E+04  0.14513861756E+04 -0.61444928991E+02  0.18217110661E+04  0.10100000352E+00 0. -1.
       -3    1    3    3    0  502  0.10992424155E+04 -0.14513861756E+04  0.10692165728E+04  0.21114165407E+04  0.10100000352E+00 0.  1.
</event>
<event>
 5   0  0.4071750E-09  0.3807016E+04  0.7818609E-02  0.8044651E-01
       -1   -1    0    0    0  501  0.00000000000E+00  0.00000000000E+00  0.17672399589E+04  0.17672399589E+04  0.50400001928E-02 0. -1.
        1   -1    0    0  501    0  0.00000000000E+00  0.00000000000E+00 -0.20502834236E+04  0.20502834236E+04  0.50400001928E-02 0.  1.
    10030    2    1    2    0    0  0.00000000000E+00  0.00000000000E+00 -0.28304346470E+03  0.38175233825E+04  0.38070160458E+04 0.  0.
        2    1    3    3  502    0  0.12069582669E+04 -0.41743680839E+02 -0.16169262338E+04  0.20181529274E+04  0.25500000920E-02 0.  1.
       -2    1    3    3    0  502 -0.12069582669E+04  0.41743680839E+02  0.13338827691E+04  0.17993704551E+04  0.25500000920E-02 0. -1.
</event>
<event>
 5   0  0.1293993E-08  0.3801727E+04  0.7818609E-02  0.8045784E-01
        2   -1    0    0  501    0  0.00000000000E+00  0.00000000000E+00  0.16901052892E+04  0.16901052892E+04  0.25500000920E-02 0. -1.
       -2   -1    0    0    0  501  0.00000000000E+00  0.00000000000E+00 -0.21379034403E+04  0.21379034403E+04  0.25500000920E-02 0.  1.
    10030    2    1    2    0    0  0.00000000000E+00  0.00000000000E+00 -0.44779815111E+03  0.38280087295E+04  0.38017269298E+04 0.  0.
        5    1    3    3  502    0  0.95751148619E+03  0.13703857218E+04 -0.11348491802E+04  0.20205667582E+04  0.46999998093E+01 0.  1.
       -5    1    3    3    0  502 -0.95751148619E+03 -0.13703857218E+04  0.68705102905E+03  0.18074419712E+04  0.46999998093E+01 0. -1.
</event>
<event>
 5   0  0.1293993E-08  0.3797544E+04  0.7818609E-02  0.8046682E-01
        2   -1    0    0  501    0  0.00000000000E+00  0.00000000000E+00  0.21731386340E+04  0.21731386340E+04  0.25500000920E-02 0. -1.
       -2   -1    0    0    0  501  0.00000000000E+00  0.00000000000E+00 -0.16590453779E+04  0.16590453779E+04  0.25500000920E-02 0.  1.
    10030    2    1    2    0    0  0.00000000000E+00  0.00000000000E+00  0.51409325604E+03  0.38321840119E+04  0.37975442624E+04 0.  0.
        5    1    3    3  502    0  0.18612006483E+04 -0.34155969043E+03  0.98827939980E+02  0.18948667307E+04  0.46999998093E+01 0. -1.
       -5    1    3    3    0  502 -0.18612006483E+04  0.34155969043E+03  0.41526531606E+03  0.19373172812E+04  0.46999998093E+01 0.  1.
</event>
<event>
 5   0  0.1264013E-08  0.3798895E+04  0.7818609E-02  0.8046392E-01
        2   -1    0    0  501    0  0.00000000000E+00  0.00000000000E+00  0.22530576246E+04  0.22530576246E+04  0.25500000920E-02 0. -1.
       -2   -1    0    0    0  501  0.00000000000E+00  0.00000000000E+00 -0.16013353453E+04  0.16013353453E+04  0.25500000920E-02 0.  1.
    10030    2    1    2    0    0  0.00000000000E+00  0.00000000000E+00  0.65172227933E+03  0.38543929699E+04  0.37988950021E+04 0.  0.
        4    1    3    3  502    0 -0.69061696625E+03  0.17541911241E+04  0.56111240878E+03  0.19669740827E+04  0.12699999809E+01 0. -1.
       -4    1    3    3    0  502  0.69061696625E+03 -0.17541911241E+04  0.90609870557E+02  0.18874188871E+04  0.12699999809E+01 0.  1.
</event>
<event>
 5   0  0.1264013E-08  0.3800559E+04  0.7818609E-02  0.8046035E-01
       -2   -1    0    0    0  501  0.00000000000E+00  0.00000000000E+00  0.13023367303E+04  0.13023367303E+04  0.25500000920E-02 0. -1.
        2   -1    0    0  501    0  0.00000000000E+00  0.00000000000E+00 -0.27727557181E+04  0.27727557181E+04  0.25500000920E-02 0.  1.
    10030    2    1    2    0    0  0.00000000000E+00  0.00000000000E+00 -0.14704189878E+04  0.40750924484E+04  0.38005587041E+04 0.  0.
        4    1    3    3  502    0 -0.21321788264E+03  0.87512496636E+03 -0.25293233111E+04  0.26849178008E+04  0.12699999809E+01 0.  1.
       -4    1    3    3    0  502  0.21321788264E+03 -0.87512496636E+03  0.10589043232E+04  0.13901746476E+04  0.12699999809E+01 0. -1.
</event>
<event>
 5   0  0.4071750E-09  0.3830107E+04  0.7818609E-02  0.8039725E-01
        1   -1    0    0  501    0  0.00000000000E+00  0.00000000000E+00  0.18877395274E+04  0.18877395274E+04  0.50400001928E-02 0.  1.
       -1   -1    0    0    0  501  0.00000000000E+00  0.00000000000E+00 -0.19427627725E+04  0.19427627725E+04  0.50400001928E-02 0. -1.
    10030    2    1    2    0    0  0.00000000000E+00  0.00000000000E+00 -0.55023245050E+02  0.38305022999E+04  0.38301070888E+04 0.  0.
        4    1    3    3  502    0 -0.80426584571E+03  0.12561377595E+04  0.11737379729E+04  0.18979958018E+04  0.12699999809E+01 0.  1.
       -4    1    3    3    0  502  0.80426584571E+03 -0.12561377595E+04 -0.12287612180E+04  0.19325064981E+04  0.12699999809E+01 0. -1.
</event>
<event>
 5   0  0.1305088E-08  0.3802601E+04  0.7818609E-02  0.8045597E-01
        2   -1    0    0  501    0  0.00000000000E+00  0.00000000000E+00  0.24048106295E+04  0.24048106295E+04  0.25500000920E-02 0.  1.
       -2   -1    0    0    0  501  0.00000000000E+00  0.00000000000E+00 -0.15032136143E+04  0.15032136143E+04  0.25500000920E-02 0. -1.
    10030    2    1    2    0    0  0.00000000000E+00  0.00000000000E+00  0.90159701516E+03  0.39080242438E+04  0.38026012561E+04 0.  0.
        3    1    3    3  502    0 -0.13996026572E+03 -0.86206119309E+02 -0.14958971548E+04  0.15049015512E+04  0.10100000352E+00 0. -1.
       -3    1    3    3    0  502  0.13996026572E+03  0.86206119309E+02  0.23974941699E+04  0.24031226927E+04  0.10100000352E+00 0.  1.
</event>
<event>
 5   0  0.4071750E-09  0.3801092E+04  0.7818609E-02  0.8045921E-01
       -1   -1    0    0    0  501  0.00000000000E+00  0.00000000000E+00  0.14145995571E+04  0.14145995571E+04  0.50400001928E-02 0.  1.
        1   -1    0    0  501    0  0.00000000000E+00  0.00000000000E+00 -0.25534258436E+04  0.25534258436E+04  0.50400001928E-02 0. -1.
    10030    2    1    2    0    0  0.00000000000E+00  0.00000000000E+00 -0.11388262866E+04  0.39680254007E+04  0.38010919839E+04 0.  0.
        4    1    3    3  502    0  0.34161345759E+03  0.18691410312E+04 -0.52655521755E+03  0.19717124433E+04  0.12699999809E+01 0.  1.
       -4    1    3    3    0  502 -0.34161345759E+03 -0.18691410312E+04 -0.61227106900E+03  0.19963129574E+04  0.12699999809E+01 0. -1.
</event>
<event>
 5   0  0.1327249E-08  0.3797634E+04  0.7818609E-02  0.8046663E-01
        2   -1    0    0  501    0  0.00000000000E+00  0.00000000000E+00  0.23368531499E+04  0.23368531499E+04  0.25500000920E-02 0. -1.
       -2   -1    0    0    0  501  0.00000000000E+00  0.00000000000E+00 -0.15428895767E+04  0.15428895767E+04  0.25500000920E-02 0.  1.
    10030    2    1    2    0    0  0.00000000000E+00  0.00000000000E+00  0.79396357317E+03  0.38797427266E+04  0.37976341937E+04 0.  0.
        1    1    3    3  502    0 -0.90168583756E+03 -0.11604195644E+03  0.21000589612E+04  0.22883947924E+04  0.50400001928E-02 0. -1.
       -1    1    3    3    0  502  0.90168583756E+03  0.11604195644E+03 -0.13060953880E+04  0.15913479343E+04  0.50400001928E-02 0.  1.
</event>
<event>
 5   0  0.1261152E-08  0.3799852E+04  0.7818609E-02  0.8046187E-01
       -2   -1    0    0    0  501  0.00000000000E+00  0.00000000000E+00  0.11857004340E+04  0.11857004340E+04  0.25500000920E-02 0. -1.
        2   -1    0    0  501    0  0.00000000000E+00  0.00000000000E+00 -0.30443767867E+04  0.30443767867E+04  0.25500000920E-02 0.  1.
    10030    2    1    2    0    0  0.00000000000E+00  0.00000000000E+00 -0.18586763527E+04  0.42300772207E+04  0.37998520378E+04 0.  0.
        2    1    3    3  502    0 -0.65111030340E+03  0.17300263364E+04 -0.14181212048E+04  0.23298076108E+04  0.25500000920E-02 0. -1.
       -2    1    3    3    0  502  0.65111030340E+03 -0.17300263364E+04 -0.44055514788E+03  0.19002696099E+04  0.25500000920E-02 0.  1.
</event>
<event>
 5   0  0.4071750E-09  0.3816288E+04  0.7818609E-02  0.8042668E-01
        1   -1    0    0  501    0  0.00000000000E+00  0.00000000000E+00  0.23248138951E+04  0.23248138951E+04  0.50400001928E-02 0.  1.
       -1   -1    0    0    0  501  0.00000000000E+00  0.00000000000E+00 -0.15661530659E+04  0.15661530659E+04  0.50400001928E-02 0. -1.
    10030    2    1    2    0    0  0.00000000000E+00  0.00000000000E+00  0.75866082915E+03  0.38909669610E+04  0.38162884637E+04 0.  0.
        1    1    3    3  502    0  0.18602489810E+04 -0.82008120740E+02  0.80433611953E+03  0.20283511028E+04  0.50400001928E-02 0. -1.
       -1    1    3    3    0  502 -0.18602489810E+04  0.82008120740E+02 -0.45675290384E+02  0.18626158582E+04  0.50400001928E-02 0.  1.
</event>
<event>
 5   0  0.4071750E-09  0.3801389E+04  0.7818609E-02  0.8045857E-01
        1   -1    0    0  501    0  0.00000000000E+00  0.00000000000E+00  0.19946485526E+04  0.19946485526E+04  0.50400001928E-02 0. -1.
       -1   -1    0    0    0  501  0.00000000000E+00  0.00000000000E+00 -0.18111658448E+04  0.18111658448E+04  0.50400001928E-02 0.  1.
    10030    2    1    2    0    0  0.00000000000E+00  0.00000000000E+00  0.18348270776E+03  0.38058143974E+04  0.38013888677E+04 0.  0.
        2    1    3    3  502    0  0.15952760965E+03  0.14122613027E+02  0.19878815244E+04  0.19943223063E+04  0.25500000920E-02 0. -1.
       -2    1    3    3    0  502 -0.15952760965E+03 -0.14122613027E+02 -0.18043988166E+04  0.18114920911E+04  0.25500000920E-02 0.  1.
</event>
<event>
 5   0  0.1264013E-08  0.3799727E+04  0.7818609E-02  0.8046214E-01
        2   -1    0    0  501    0  0.00000000000E+00  0.00000000000E+00  0.14026799345E+04  0.14026799345E+04  0.25500000920E-02 0. -1.
       -2   -1    0    0    0  501  0.00000000000E+00  0.00000000000E+00 -0.25732746080E+04  0.25732746080E+04  0.25500000920E-02 0.  1.
    10030    2    1    2    0    0  0.00000000000E+00  0.00000000000E+00 -0.11705946734E+04  0.39759545425E+04  0.37997266526E+04 0.  0.
        4    1    3    3  502    0 -0.16900054884E+03  0.65328060985E+03  0.12730620128E+04  0.14408418519E+04  0.12699999809E+01 0. -1.
       -4    1    3    3    0  502  0.16900054884E+03 -0.65328060985E+03 -0.24436566863E+04  0.25351126906E+04  0.12699999809E+01 0.  1.
</event>
<event>
 5   0  0.1264013E-08  0.3802820E+04  0.7818609E-02  0.8045550E-01
       -2   -1    0    0    0  501  0.00000000000E+00  0.00000000000E+00  0.24121293072E+04  0.24121293072E+04  0.25500000920E-02 0. -1.
        2   -1    0    0  501    0  0.00000000000E+00  0.00000000000E+00 -0.14988253559E+04  0.14988253559E+04  0.25500000920E-02 0.  1.
    10030    2    1    2    0    0  0.00000000000E+00  0.00000000000E+00  0.91330395125E+03  0.39109546631E+04  0.38028203046E+04 0.  0.
        4    1    3    3  502    0 -0.14651120436E+04  0.77776642752E+03  0.14125354506E+04  0.21786995956E+04  0.12699999809E+01 0. -1.
       -4    1    3    3    0  502  0.14651120436E+04 -0.77776642752E+03 -0.49923149931E+03  0.17322550675E+04  0.12699999809E+01 0.  1.
</event>
<event>
 5   0  0.4071750E-09  0.3799794E+04  0.7818609E-02  0.8046199E-01
        1   -1    0    0  501    0  0.00000000000E+00  0.00000000000E+00  0.24647332562E+04  0.24647332562E+04  0.50400001928E-02 0.  1.
       -1   -1    0    0    0  501  0.00000000000E+00  0.00000000000E+00 -0.14645026068E+04  0.14645026069E+04  0.50400001928E-02 0. -1.
    10030    2    1    2    0    0  0.00000000000E+00  0.00000000000E+00  0.10002306493E+04  0.39292358631E+04  0.37997938254E+04 0.  0.
        4    1    3    3  502    0 -0.85800362067E+03 -0.24879020284E+03  0.22339999325E+04  0.24059975248E+04  0.12699999809E+01 0.  1.
       -4    1    3    3    0  502  0.85800362067E+03  0.24879020284E+03 -0.12337692832E+04  0.15232383382E+04  0.12699999809E+01 0. -1.
</event>
<event>
 5   0  0.4071750E-09  0.3802772E+04  0.7818609E-02  0.8045560E-01
       -1   -1    0    0    0  501  0.00000000000E+00  0.00000000000E+00  0.17538158463E+04  0.17538158463E+04  0.50400001928E-02 0.  1.
        1   -1    0    0  501    0  0.00000000000E+00  0.00000000000E+00 -0.20613732914E+04  0.20613732914E+04  0.50400001928E-02 0. -1.
    10030    2    1    2    0    0  0.00000000000E+00  0.00000000000E+00 -0.30755744506E+03  0.38151891377E+04  0.38027722223E+04 0.  0.
        2    1    3    3  502    0  0.14845102592E+04  0.93700331828E+03  0.57903302185E+03  0.18485197236E+04  0.25500000920E-02 0.  1.
       -2    1    3    3    0  502 -0.14845102592E+04 -0.93700331828E+03 -0.88659046692E+03  0.19666694141E+04  0.25500000920E-02 0. -1.
</event>
<event>
 5   0  0.1293993E-08  0.3801039E+04  0.7818609E-02  0.8045932E-01
        2   -1    0    0  501    0  0.00000000000E+00  0.00000000000E+00  0.26613500554E+04  0.26613500554E+04  0.25500000920E-02 0.  1.
       -2   -1    0    0    0  501  0.00000000000E+00  0.00000000000E+00 -0.13571963705E+04  0.13571963705E+04  0.25500000920E-02 0. -1.
    10030    2    1    2    0    0  0.00000000000E+00  0.00000000000E+00  0.13041536849E+04  0.40185464259E+04  0.38010391399E+04 0.  0.
        5    1    3    3  502    0 -0.14025280224E+04 -0.94867891728E+03  0.15645259283E+04  0.23053936783E+04  0.46999998093E+01 0.  1.
       -5    1    3    3    0  502  0.14025280224E+04  0.94867891728E+03 -0.26037224339E+03  0.17131527476E+04  0.46999998093E+01 0. -1.
</event>
<event>
 5   0  0.1293993E-08  0.3803499E+04  0.7818609E-02  0.8045405E-01
        2   -1    0    0  501    0  0.00000000000E+00  0.00000000000E+00  0.26858730589E+04  0.26858730589E+04  0.25500000920E-02 0.  1.
       -2   -1    0    0    0  501  0.00000000000E+00  0.00000000000E+00 -0.13465455223E+04  0.13465455223E+04  0.25500000920E-02 0. -1.
    10030    2    1    2    0    0  0.00000000000E+00  0.00000000000E+00  0.13393275366E+04  0.40324185813E+04  0.38034985690E+04 0.  0.
        5    1    3    3  502    0 -0.34090154590E+03 -0.52570446511E+03 -0.12339690379E+04  0.13839366767E+04  0.46999998093E+01 0. -1.
       -5    1    3    3    0  502  0.34090154590E+03  0.52570446511E+03  0.25732965745E+04  0.26484819046E+04  0.46999998093E+01 0.  1.
</event>
<event>
 5   0  0.4071750E-09  0.3800908E+04  0.7818609E-02  0.8045960E-01
       -1   -1    0    0    0  501  0.00000000000E+00  0.00000000000E+00  0.17636505185E+04  0.17636505185E+04  0.50400001928E-02 0.  1.
        1   -1    0    0  501    0  0.00000000000E+00  0.00000000000E+00 -0.20478695626E+04  0.20478695627E+04  0.50400001928E-02 0. -1.
    10030    2    1    2    0    0  0.00000000000E+00  0.00000000000E+00 -0.28421904419E+03  0.38115200811E+04  0.38009084261E+04 0.  0.
        5    1    3    3  502    0  0.57102763220E+03 -0.32353471572E+03 -0.19306126137E+04  0.20391258968E+04  0.46999998093E+01 0. -1.
       -5    1    3    3    0  502 -0.57102763220E+03  0.32353471572E+03  0.16463935695E+04  0.17723941843E+04  0.46999998093E+01 0.  1.
</event>
<event>
 5   0  0.1261152E-08  0.3798934E+04  0.7818609E-02  0.8046384E-01
       -2   -1    0    0    0  501  0.00000000000E+00  0.00000000000E+00  0.15034849449E+04  0.15034849449E+04  0.25500000920E-02 0. -1.
        2   -1    0    0  501    0  0.00000000000E+00  0.00000000000E+00 -0.23997412169E+04  0.23997412169E+04  0.25500000920E-02 0.  1.
    10030    2    1    2    0    0  0.00000000000E+00  0.00000000000E+00 -0.89625627198E+03  0.39032261618E+04  0.37989339512E+04 0.  0.
        2    1    3    3  502    0  0.14539709729E+04  0.54730369944E+03 -0.15710181224E+04  0.22094503548E+04  0.25500000920E-02 0.  1.
       -2    1    3    3    0  502 -0.14539709729E+04 -0.54730369944E+03  0.67476185044E+03  0.16937758070E+04  0.25500000920E-02 0. -1.
</event>
<event>
 5   0  0.4071750E-09  0.3797501E+04  0.7818609E-02  0.8046691E-01
        1   -1    0    0  501    0  0.00000000000E+00  0.00000000000E+00  0.21056235520E+04  0.21056235520E+04  0.50400001928E-02 0.  1.
       -1   -1    0    0    0  501  0.00000000000E+00  0.00000000000E+00 -0.17122023684E+04  0.17122023684E+04  0.50400001928E-02 0. -1.
    10030    2    1    2    0    0  0.00000000000E+00  0.00000000000E+00  0.39342118359E+03  0.38178259204E+04  0.37975010903E+04 0.  0.
        4    1    3    3  502    0  0.11444088708E+04 -0.97836057948E+03  0.13597909132E+04  0.20287666272E+04  0.12699999809E+01 0.  1.
       -4    1    3    3    0  502 -0.11444088708E+04  0.97836057948E+03 -0.96636972964E+03  0.17890592931E+04  0.12699999809E+01 0. -1.
</event>
<event>
 5   0  0.1305088E-08  0.3801235E+04  0.7818609E-02  0.8045890E-01
       -2   -1    0    0    0  501  0.00000000000E+00  0.00000000000E+00  0.12578609520E+04  0.12578609520E+04  0.25500000920E-02 0. -1.
        2   -1    0    0  501    0  0.00000000000E+00  0.00000000000E+00 -0.28718170314E+04  0.28718170314E+04  0.25500000920E-02 0.  1.
    10030    2    1    2    0    0  0.00000000000E+00  0.00000000000E+00 -0.16139560794E+04  0.41296779834E+04  0.38012348021E+04 0.  0.
        3    1    3    3  502    0  0.11059426104E+04  0.43893722348E+03 -0.24171200036E+04  0.26941128532E+04  0.10100000352E+00 0.  1.
       -3    1    3    3    0  502 -0.11059426104E+04 -0.43893722348E+03  0.80316392418E+03  0.14355651302E+04  0.10100000352E+00 0. -1.
</event>
<event>
 5   0  0.1293993E-08  0.3799345E+04  0.7818609E-02  0.8046295E-01
       -2   -1    0    0    0  501  0.00000000000E+00  0.00000000000E+00  0.15659698954E+04  0.15659698954E+04  0.25500000920E-02 0.  1.
        2   -1    0    0  501    0  0.00000000000E+00  0.00000000000E+00 -0.23044863133E+04  0.23044863133E+04  0.25500000920E-02 0. -1.
    10030    2    1    2    0    0  0.00000000000E+00  0.00000000000E+00 -0.73851641791E+03  0.38704562087E+04  0.37993453073E+04 0.  0.
        5    1    3    3  502    0  0.97544449364E+03  0.12468628120E+04  0.70043075429E+03  0.17311222267E+04  0.46999998093E+01 0.  1.
       -5    1    3    3    0  502 -0.97544449364E+03 -0.12468628120E+04 -0.14389471722E+04  0.21393339820E+04  0.46999998093E+01 0. -1.
</event>
<event>
 5   0  0.1261152E-08  0.3800022E+04  0.7818609E-02  0.8046150E-01
        2   -1    0    0  501    0  0.00000000000E+00  0.00000000000E+00  0.13017031223E+04  0.13017031223E+04  0.25500000920E-02 0.  1.
       -2   -1    0    0    0  501  0.00000000000E+00  0.00000000000E+00 -0.27733221104E+04  0.27733221104E+04  0.25500000920E-02 0. -1.
    10030    2    1    2    0    0  0.00000000000E+00  0.00000000000E+00 -0.14716189881E+04  0.40750252327E+04  0.38000221316E+04 0.  0.
        2    1    3    3  502    0 -0.18274434026E+04 -0.27710923352E+03 -0.26384155357E+03  0.18670702403E+04  0.25500000920E-02 0.  1.
       -2    1    3    3    0  502  0.18274434026E+04  0.27710923352E+03 -0.12077774345E+04  0.22079549923E+04  0.25500000920E-02 0. -1.
</event>
<event>
 5   0  0.4071750E-09  0.3801901E+04  0.7818609E-02  0.8045747E-01
       -1   -1    0    0    0  501  0.00000000000E+00  0.00000000000E+00  0.13848302905E+04  0.13848302905E+04  0.50400001928E-02 0. -1.
        1   -1    0    0  501    0  0.00000000000E+00  0.00000000000E+00 -0.26094263865E+04  0.26094263865E+04  0.50400001928E-02 0.  1.
    10030    2    1    2    0    0  0.00000000000E+00  0.00000000000E+00 -0.12245960960E+04  0.39942566770E+04  0.38019009461E+04 0.  0.
        3    1    3    3  502    0  0.10160811921E+04 -0.10279762296E+04 -0.19094555174E+04  0.23948228538E+04  0.10100000352E+00 0.  1.
       -3    1    3    3    0  502 -0.10160811921E+04  0.10279762296E+04  0.68485942143E+03  0.15994338233E+04  0.10100000352E+00 0. -1.
</event>
<event>
 5   0  0.1261152E-08  0.3803560E+04  0.7818609E-02  0.8045391E-01
       -2   -1    0    0    0  501  0.00000000000E+00  0.00000000000E+00  0.20790996118E+04  0.20790996118E+04  0.25500000920E-02 0.  1.
        2   -1    0    0  501    0  0.00000000000E+00  0.00000000000E+00 -0.17395832531E+04  0.17395832531E+04  0.25500000920E-02 0. -1.
    10030    2    1    2    0    0  0.00000000000E+00  0.00000000000E+00  0.33951635872E+03  0.38186828650E+04  0.38035598412E+04 0.  0.
        2    1    3    3  502    0  0.47318041720E+03 -0.92630146344E+03  0.17682042728E+04  0.20514581299E+04  0.25500000920E-02 0.  1.
       -2    1    3    3    0  502 -0.47318041720E+03  0.92630146344E+03 -0.14286879141E+04  0.17672247351E+04  0.25500000920E-02 0. -1.
</event>
<event>
 5   0  0.4071750E-09  0.3801019E+04  0.7818609E-02  0.8045936E-01
        1   -1    0    0  501    0  0.00000000000E+00  0.00000000000E+00  0.19775346789E+04  0.19775346789E+04  0.50400001928E-02 0.  1.
       -1   -1    0    0    0  501  0.00000000000E+00  0.00000000000E+00 -0.18264845371E+04  0.18264845372E+04  0.50400001928E-02 0. -1.
    10030    2    1    2    0    0  0.00000000000E+00  0.00000000000E+00  0.15105014175E+03  0.38040192161E+04  0.38010190806E+04 0.  0.
        5    1    3    3  502    0 -0.55427047584E+03 -0.16282901389E+04  0.88447605810E+03  0.19341314650E+04  0.46999998093E+01 0. -1.
       -5    1    3    3    0  502  0.55427047584E+03  0.16282901389E+04 -0.73342591635E+03  0.18698877510E+04  0.46999998093E+01 0.  1.
</event>
<event>
 5   0  0.4071750E-09  0.3799367E+04  0.7818609E-02  0.8046291E-01
        1   -1    0    0  501    0  0.00000000000E+00  0.00000000000E+00  0.26465991495E+04  0.26465991495E+04  0.50400001928E-02 0. -1.
       -1   -1    0    0    0  501  0.00000000000E+00  0.00000000000E+00 -0.13635599956E+04  0.13635599956E+04  0.50400001928E-02 0.  1.
    10030    2    1    2    0    0  0.00000000000E+00  0.00000000000E+00  0.12830391539E+04  0.40101591452E+04  0.37993666445E+04 0.  0.
        4    1    3    3  502    0  0.11305881466E+04 -0.15264847582E+04  0.66288720675E+03  0.20119160857E+04  0.12699999809E+01 0. -1.
       -4    1    3    3    0  502 -0.11305881466E+04  0.15264847582E+04  0.62015194716E+03  0.19982430595E+04  0.12699999809E+01 0.  1.
</event>
<event>
 5   0  0.1305088E-08  0.3799884E+04  0.7818609E-02  0.8046180E-01
       -2   -1    0    0    0  501  0.00000000000E+00  0.00000000000E+00  0.13562288607E+04  0.13562288607E+04  0.25500000920E-02 0.  1.
        2   -1    0    0  501    0  0.00000000000E+00  0.00000000000E+00 -0.26616296500E+04  0.26616296500E+04  0.25500000920E-02 0. -1.
    10030    2    1    2    0    0  0.00000000000E+00  0.00000000000E+00 -0.13054007893E+04  0.40178585106E+04  0.37998836549E+04 0.  0.
        3    1    3    3  502    0 -0.73855376334E+03  0.17350704034E+04 -0.89806336041E+03  0.20886475949E+04  0.10100000352E+00 0. -1.
       -3    1    3    3    0  502  0.73855376334E+03 -0.17350704034E+04 -0.40733742889E+03  0.19292109157E+04  0.10100000352E+00 0.  1.
</event>
<event>
 5   0  0.4071750E-09  0.3798618E+04  0.7818609E-02  0.8046452E-01
       -1   -1    0    0    0  501  0.00000000000E+00  0.00000000000E+00  0.20859815264E+04  0.20859815264E+04  0.50400001928E-02 0.  1.
        1   -1    0    0  501    0  0.00000000000E+00  0.00000000000E+00 -0.17293415598E+04  0.17293415598E+04  0.50400001928E-02 0. -1.
    10030    2    1    2    0    0  0.00000000000E+00  0.00000000000E+00  0.35663996662E+03  0.38153230863E+04  0.37986179311E+04 0.  0.
        3    1    3    3  502    0 -0.27716248417E+03  0.57880404544E+02 -0.17080248154E+04  0.17313341573E+04  0.10100000352E+00 0. -1.
       -3    1    3    3    0  502  0.27716248417E+03 -0.57880404544E+02  0.20646647820E+04  0.20839889290E+04  0.10100000352E+00 0.  1.
</event>
<event>
 5   0  0.4071750E-09  0.3795647E+04  0.7818609E-02  0.8047090E-01
        1   -1    0    0  501    0  0.00000000000E+00  0.00000000000E+00  0.24485598253E+04  0.24485598253E+04  0.50400001928E-02 0. -1.
       -1   -1    0    0    0  501  0.00000000000E+00  0.00000000000E+00 -0.14709600759E+04  0.14709600759E+04  0.50400001928E-02 0.  1.
    10030    2    1    2    0    0  0.00000000000E+00  0.00000000000E+00  0.97759974942E+03  0.39195199013E+04  0.37956468469E+04 0.  0.
        2    1    3    3  502    0 -0.17489182974E+04 -0.40804761369E+03  0.11224340742E+04  0.21177998765E+04  0.25500000920E-02 0.  1.
       -2    1    3    3    0  502  0.17489182974E+04  0.40804761369E+03 -0.14483432479E+03  0.18017200248E+04  0.25500000920E-02 0. -1.
</event>
<event>
 5   0  0.4071750E-09  0.3797150E+04  0.7818609E-02  0.8046767E-01
        1   -1    0    0  501    0  0.00000000000E+00  0.00000000000E+00  0.21969122018E+04  0.21969122018E+04  0.50400001928E-02 0. -1.
       -1   -1    0    0    0  501  0.00000000000E+00  0.00000000000E+00 -0.16407512827E+04  0.16407512827E+04  0.50400001928E-02 0.  1.
    10030    2    1    2    0    0  0.00000000000E+00  0.00000000000E+00  0.55616091919E+03  0.38376634845E+04  0.37971497274E+04 0.  0.
        2    1    3    3  502    0  0.67562928256E+03 -0.80343628849E+02  0.20694637377E+04  0.21784421470E+04  0.25500000920E-02 0. -1.
       -2    1    3    3    0  502 -0.67562928256E+03  0.80343628849E+02 -0.15133028185E+04  0.16592213375E+04  0.25500000920E-02 0.  1.
</event>
<event>
 5   0  0.1264013E-08  0.3797896E+04  0.7818609E-02  0.8046607E-01
        2   -1    0    0  501    0  0.00000000000E+00  0.00000000000E+00  0.15696824206E+04  0.15696824206E+04  0.25500000920E-02 0.  1.
       -2   -1    0    0    0  501  0.00000000000E+00  0.00000000000E+00 -0.22972818171E+04  0.22972818171E+04  0.25500000920E-02 0. -1.
    10030    2    1    2    0    0  0.00000000000E+00  0.00000000000E+00 -0.72759939656E+03  0.38669642377E+04  0.37978956718E+04 0.  0.
        4    1    3    3  502    0 -0.11438571893E+04  0.22695626065E+02  0.11793742867E+04  0.16431219316E+04  0.12699999809E+01 0.  1.
       -4    1    3    3    0  502  0.11438571893E+04 -0.22695626065E+02 -0.19069736833E+04  0.22238423061E+04  0.12699999809E+01 0. -1.
</event>
<event>
 5   0  0.4071750E-09  0.3803241E+04  0.7818609E-02  0.8045460E-01
        1   -1    0    0  501    0  0.00000000000E+00  0.00000000000E+00  0.15766782153E+04  0.15766782153E+04  0.50400001928E-02 0.  1.
       -1   -1    0    0    0  501  0.00000000000E+00  0.00000000000E+00 -0.22935316598E+04  0.22935316598E+04  0.50400001928E-02 0. -1.
    10030    2    1    2    0    0  0.00000000000E+00  0.00000000000E+00 -0.71685344456E+03  0.38702098751E+04  0.38032414618E+04 0.  0.
        1    1    3    3  502    0 -0.88141433612E+03 -0.15615897581E+04 -0.10025876925E+04  0.20544186247E+04  0.50400001928E-02 0. -1.
       -1    1    3    3    0  502  0.88141433612E+03  0.15615897581E+04  0.28573424793E+03  0.18157912504E+04  0.50400001928E-02 0.  1.
</event>
<event>
 5   0  0.4071750E-09  0.3799073E+04  0.7818609E-02  0.8046354E-01
       -1   -1    0    0    0  501  0.00000000000E+00  0.00000000000E+00  0.13173770467E+04  0.13173770467E+04  0.50400001928E-02 0.  1.
        1   -1    0    0  501    0  0.00000000000E+00  0.00000000000E+00 -0.27389572307E+04  0.27389572307E+04  0.50400001928E-02 0. -1.
    10030    2    1    2    0    0  0.00000000000E+00  0.00000000000E+00 -0.14215801840E+04  0.40563342774E+04  0.37990732489E+04 0.  0.
        1    1    3    3  502    0 -0.14094603398E+04 -0.10642139139E+04  0.35932345125E+02  0.17664712954E+04  0.50400001928E-02 0. -1.
       -1    1    3    3    0  502  0.14094603398E+04  0.10642139139E+04 -0.14575125291E+04  0.22898629820E+04  0.50400001928E-02 0.  1.
</event>
<event>
 5   0  0.1293993E-08  0.3798986E+04  0.7818609E-02  0.8046373E-01
        2   -1    0    0  501    0  0.00000000000E+00  0.00000000000E+00  0.18887194440E+04  0.18887194440E+04  0.25500000920E-02 0. -1.
       -2   -1    0    0    0  501  0.00000000000E+00  0.00000000000E+00 -0.19103278760E+04  0.19103278760E+04  0.25500000920E-02 0.  1.
    10030    2    1    2    0    0  0.00000000000E+00  0.00000000000E+00 -0.21608431978E+02  0.37990473200E+04  0.37989858667E+04 0.  0.
        5    1    3    3  502    0  0.54377041528E+03 -0.34867106095E+03 -0.17971123561E+04  0.19096839225E+04  0.46999998093E+01 0.  1.
       -5    1    3    3    0  502 -0.54377041528E+03  0.34867106095E+03  0.17755039241E+04  0.18893633975E+04  0.46999998093E+01 0. -1.
</event>
<event>
 5   0  0.1327249E-08  0.3799454E+04  0.7818609E-02  0.8046272E-01
       -2   -1    0    0    0  501  0.00000000000E+00  0.00000000000E+00  0.23105215813E+04  0.23105215813E+04  0.25500000920E-02 0.  1.
        2   -1    0    0  501    0  0.00000000000E+00  0.00000000000E+00 -0.15619691690E+04  0.15619691690E+04  0.25500000920E-02 0. -1.
    10030    2    1    2    0    0  0.00000000000E+00  0.00000000000E+00  0.74855241228E+03  0.38724907504E+04  0.37994544211E+04 0.  0.
        1    1    3    3  502    0 -0.14067546384E+04 -0.11806826427E+04  0.86940597795E+03  0.20319539537E+04  0.50400001928E-02 0. -1.
       -1    1    3    3    0  502  0.14067546384E+04  0.11806826427E+04 -0.12085356567E+03  0.18405367967E+04  0.50400001928E-02 0.  1.
</event>
<event>
 5   0  0.1327249E-08  0.3792985E+04  0.7818609E-02  0.8047662E-01
       -2   -1    0    0    0  501  0.00000000000E+00  0.00000000000E+00  0.11455729263E+04  0.11455729263E+04  0.25500000920E-02 0. -1.
        2   -1    0    0  501    0  0.00000000000E+00  0.00000000000E+00 -0.31396372848E+04  0.31396372848E+04  0.25500000920E-02 0.  1.
    10030    2    1    2    0    0  0.00000000000E+00  0.00000000000E+00 -0.19940643585E+04  0.42852102111E+04  0.37929848256E+04 0.  0.
        1    1    3    3  502    0  0.33713855608E+03  0.11007751528E+04  0.70563483566E+03  0.13502921404E+04  0.50400001928E-02 0. -1.
       -1    1    3    3    0  502 -0.33713855608E+03 -0.11007751528E+04 -0.26996991941E+04  0.29349180707E+04  0.50400001928E-02 0.  1.
</event>
<event>
 5   0  0.4071750E-09  0.3802028E+04  0.7818609E-02  0.8045720E-01
       -1   -1    0    0    0  501  0.00000000000E+00  0.00000000000E+00  0.16418018412E+04  0.16418018412E+04  0.50400001928E-02 0. -1.
        1   -1    0    0  501    0  0.00000000000E+00  0.00000000000E+00 -0.22011511026E+04  0.22011511026E+04  0.50400001928E-02 0.  1.
    10030    2    1    2    0    0  0.00000000000E+00  0.00000000000E+00 -0.55934926140E+03  0.38429529438E+04  0.38020278448E+04 0.  0.
        3    1    3    3  502    0  0.82057542496E+03  0.78702443072E+03 -0.18195902625E+04  0.21456141816E+04  0.10100000352E+00 0.  1.
       -3    1    3    3    0  502 -0.82057542496E+03 -0.78702443072E+03  0.12602410011E+04  0.16973387622E+04  0.10100000352E+00 0. -1.
</event>
<event>
 5   0  0.1293993E-08  0.3799840E+04  0.7818609E-02  0.8046189E-01
       -2   -1    0    0    0  501  0.00000000000E+00  0.00000000000E+00  0.12471778535E+04  0.12471778535E+04  0.25500000920E-02 0. -1.
        2   -1    0    0  501    0  0.00000000000E+00  0.00000000000E+00 -0.28942910743E+04  0.28942910743E+04  0.25500000920E-02 0.  1.
    10030    2    1    2    0    0  0.00000000000E+00  0.00000000000E+00 -0.16471132208E+04  0.41414689278E+04  0.37998398542E+04 0.  0.
        5    1    3    3  502    0 -0.12380387547E+04 -0.11629913241E+04 -0.17511844983E+04  0.24396635045E+04  0.46999998093E+01 0. -1.
       -5    1    3    3    0  502  0.12380387547E+04  0.11629913241E+04  0.10407127753E+03  0.17018054233E+04  0.46999998093E+01 0.  1.
</event>
<event>
 5   0  0.1261152E-08  0.3799759E+04  0.7818609E-02  0.8046207E-01
       -2   -1    0    0    0  501  0.00000000000E+00  0.00000000000E+00  0.17427409646E+04  0.17427409646E+04  0.25500000920E-02 0. -1.
        2   -1    0    0  501    0  0.00000000000E+00  0.00000000000E+00 -0.20711869672E+04  0.20711869673E+04  0.25500000920E-02 0.  1.
    10030    2    1    2    0    0  0.00000000000E+00  0.00000000000E+00 -0.32844600264E+03  0.38139279319E+04  0.37997591362E+04 0.  0.
        2    1    3    3  502    0  0.43510569624E+03 -0.11043403364E+04 -0.16532160659E+04  0.20351923511E+04  0.25500000920E-02 0.  1.
       -2    1    3    3    0  502 -0.43510569624E+03  0.11043403364E+04  0.13247700633E+04  0.17787355807E+04  0.25500000920E-02 0. -1.
</event>
<event>
 5   0  0.4071750E-09  0.3799671E+04  0.7818609E-02  0.8046225E-01
        1   -1    0    0  501    0  0.00000000000E+00  0.00000000000E+00  0.11356765158E+04  0.11356765158E+04  0.50400001928E-02 0.  1.
       -1   -1    0    0    0  501  0.00000000000E+00  0.00000000000E+00 -0.31781720027E+04  0.31781720028E+04  0.50400001928E-02 0. -1.
    10030    2    1    2    0    0  0.00000000000E+00  0.00000000000E+00 -0.20424954870E+04  0.43138485185E+04  0.37996711998E+04 0.  0.
        5    1    3    3  502    0  0.16872697124E+04  0.86977102499E+03 -0.93350789097E+03  0.21153817127E+04  0.46999998093E+01 0.  1.
       -5    1    3    3    0  502 -0.16872697124E+04 -0.86977102499E+03 -0.11089875960E+04  0.21984668058E+04  0.46999998093E+01 0. -1.
</event>
<event>
 5   0  0.1327249E-08  0.3799916E+04  0.7818609E-02  0.8046173E-01
       -2   -1    0    0    0  501  0.00000000000E+00  0.00000000000E+00  0.18655206062E+04  0.18655206062E+04  0.25500000920E-02 0. -1.
        2   -1    0    0  501    0  0.00000000000E+00  0.00000000000E+00 -0.19350307917E+04  0.19350307917E+04  0.25500000920E-02 0.  1.
    10030    2    1    2    0    0  0.00000000000E+00  0.00000000000E+00 -0.69510185519E+02  0.38005513979E+04  0.37999156915E+04 0.  0.
        1    1    3    3  502    0 -0.18922455058E+04 -0.12230684421E+03  0.84796477855E+02  0.18980891605E+04  0.50400001928E-02 0. -1.
       -1    1    3    3    0  502  0.18922455058E+04  0.12230684421E+03 -0.15430666337E+03  0.19024622374E+04  0.50400001928E-02 0.  1.
</event>
<event>
 5   0  0.1264013E-08  0.3795034E+04  0.7818609E-02  0.8047221E-01
        2   -1    0    0  501    0  0.00000000000E+00  0.00000000000E+00  0.28150426682E+04  0.28150426682E+04  0.25500000920E-02 0. -1.
       -2   -1    0    0    0  501  0.00000000000E+00  0.00000000000E+00 -0.12790468417E+04  0.12790468417E+04  0.25500000920E-02 0.  1.
    10030    2    1    2    0    0  0.00000000000E+00  0.00000000000E+00  0.15359958265E+04  0.40940895100E+04  0.37950343525E+04 0.  0.
        4    1    3    3  502    0 -0.16950182369E+04 -0.51661841259E+03  0.15001446422E+04  0.23217271519E+04  0.12699999809E+01 0. -1.
       -4    1    3    3    0  502  0.16950182369E+04  0.51661841259E+03  0.35851184343E+02  0.17723623580E+04  0.12699999809E+01 0.  1.
</event>
<event>
 5   0  0.1327249E-08  0.3808490E+04  0.7818609E-02  0.8044335E-01
       -2   -1    0    0    0  501  0.00000000000E+00  0.00000000000E+00  0.16293331024E+04  0.16293331024E+04  0.25500000920E-02 0. -1.
        2   -1    0    0  501    0  0.00000000000E+00  0.00000000000E+00 -0.22255421911E+04  0.22255421911E+04  0.25500000920E-02 0.  1.
    10030    2    1    2    0    0  0.00000000000E+00  0.00000000000E+00 -0.59620908870E+03  0.38548752936E+04  0.38084902851E+04 0.  0.
        1    1    3    3  502    0  0.14973866993E+04 -0.16467511426E+03  0.88092790994E+03  0.17450841823E+04  0.50400001928E-02 0.  1.
       -1    1    3    3    0  502 -0.14973866993E+04  0.16467511426E+03 -0.14771369986E+04  0.21097911113E+04  0.50400001928E-02 0. -1.
</event>
<event>
 5   0  0.1261152E-08  0.3798117E+04  0.7818609E-02  0.8046559E-01
        2   -1    0    0  501    0  0.00000000000E+00  0.00000000000E+00  0.19032489856E+04  0.19032489856E+04  0.25500000920E-02 0.  1.
       -2   -1    0    0    0  501  0.00000000000E+00  0.00000000000E+00 -0.18948768098E+04  0.18948768098E+04  0.25500000920E-02 0. -1.
    10030    2    1    2    0    0  0.00000000000E+00  0.00000000000E+00  0.83721758051E+01  0.37981257954E+04  0.37981165680E+04 0.  0.
        2    1    3    3  502    0  0.96444727171E+03 -0.71441413916E+03  0.14758812967E+04  0.19023069427E+04  0.25500000920E-02 0.  1.
       -2    1    3    3    0  502 -0.96444727171E+03  0.71441413916E+03 -0.14675091209E+04  0.18958188527E+04  0.25500000920E-02 0. -1.
</event>
<event>
 5   0  0.4071750E-09  0.3798969E+04  0.7818609E-02  0.8046376E-01
       -1   -1    0    0    0  501  0.00000000000E+00  0.00000000000E+00  0.28496947942E+04  0.28496947942E+04  0.50400001928E-02 0. -1.
        1   -1    0    0  501    0  0.00000000000E+00  0.00000000000E+00 -0.12661150132E+04  0.12661150132E+04  0.50400001928E-02 0.  1.
    10030    2    1    2    0    0  0.00000000000E+00  0.00000000000E+00  0.15835797810E+04  0.41158098075E+04  0.37989689981E+04 0.  0.
        2    1    3    3  502    0 -0.13457958387E+02  0.14191486882E+04 -0.57599242295E+03  0.15316433616E+04  0.25500000920E-02 0.  1.
       -2    1    3    3    0  502  0.13457958387E+02 -0.14191486882E+04  0.21595722040E+04  0.25841664459E+04  0.25500000920E-02 0. -1.
</event>
<event>
 5   0  0.4071750E-09  0.3799574E+04  0.7818609E-02  0.8046246E-01
        1   -1    0    0  501    0  0.00000000000E+00  0.00000000000E+00  0.20063266959E+04  0.20063266959E+04  0.50400001928E-02 0.  1.
       -1   -1    0    0    0  501  0.00000000000E+00  0.00000000000E+00 -0.17989046854E+04  0.17989046854E+04  0.50400001928E-02 0. -1.
    10030    2    1    2    0    0  0.00000000000E+00  0.00000000000E+00  0.20742201055E+03  0.38052313813E+04  0.37995739202E+04 0.  0.
        2    1    3    3  502    0  0.18072156079E+03 -0.72078720851E+03  0.18547410892E+04  0.19980638104E+04  0.25500000920E-02 0.  1.
       -2    1    3    3    0  502 -0.18072156079E+03  0.72078720851E+03 -0.16473190787E+04  0.18071675709E+04  0.25500000920E-02 0. -1.
</event>
<event>
 5   0  0.1327249E-08  0.3800582E+04  0.7818609E-02  0.8046030E-01
       -2   -1    0    0    0  501  0.00000000000E+00  0.00000000000E+00  0.13786731021E+04  0.13786731021E+04  0.25500000920E-02 0. -1.
        2   -1    0    0  501    0  0.00000000000E+00  0.00000000000E+00 -0.26192619721E+04  0.26192619721E+04  0.25500000920E-02 0.  1.
    10030    2    1    2    0    0  0.00000000000E+00  0.00000000000E+00 -0.12405888700E+04  0.39979350742E+04  0.38005820755E+04 0.  0.
        1    1    3    3  502    0  0.12676222885E+04 -0.31444677274E+03  0.83173186835E+03  0.15483930186E+04  0.50400001928E-02 0. -1.
       -1    1    3    3    0  502 -0.12676222885E+04  0.31444677274E+03 -0.20723207383E+04  0.24495420555E+04  0.50400001928E-02 0.  1.
</event>
<event>
 5   0  0.4071750E-09  0.3802627E+04  0.7818609E-02  0.8045591E-01
        1   -1    0    0  501    0  0.00000000000E+00  0.00000000000E+00  0.15526015079E+04  0.15526015079E+04  0.50400001928E-02 0. -1.
       -1   -1    0    0    0  501  0.00000000000E+00  0.00000000000E+00 -0.23283457161E+04  0.23283457161E+04  0.50400001928E-02 0.  1.
    10030    2    1    2    0    0  0.00000000000E+00  0.00000000000E+00 -0.77574420818E+03  0.38809472240E+04  0.38026270234E+04 0.  0.
        3    1    3    3  502    0 -0.13257847059E+03  0.72226100644E+03  0.14020324763E+04  0.15826980404E+04  0.10100000352E+00 0. -1.
       -3    1    3    3    0  502  0.13257847059E+03 -0.72226100644E+03 -0.21777766845E+04  0.22982491836E+04  0.10100000352E+00 0.  1.
</event>
<event>
 5   0  0.4071750E-09  0.3803905E+04  0.7818609E-02  0.8045317E-01
       -1   -1    0    0    0  501  0.00000000000E+00  0.00000000000E+00  0.14724168192E+04  0.14724168192E+04  0.50400001928E-02 0.  1.
        1   -1    0    0  501    0  0.00000000000E+00  0.00000000000E+00 -0.24567935052E+04  0.24567935052E+04  0.50400001928E-02 0. -1.
    10030    2    1    2    0    0  0.00000000000E+00  0.00000000000E+00 -0.98437668596E+03  0.39292103244E+04  0.38039054028E+04 0.  0.
        5    1    3    3  502    0 -0.71904690794E+03  0.15536248193E+04  0.36373502871E+03  0.17501725046E+04  0.46999998093E+01 0.  1.
       -5    1    3    3    0  502  0.71904690794E+03 -0.15536248193E+04 -0.13481117147E+04  0.21790378198E+04  0.46999998093E+01 0. -1.
</event>
<event>
 5   0  0.1327249E-08  0.3799845E+04  0.7818609E-02  0.8046188E-01
        2   -1    0    0  501    0  0.00000000000E+00  0.00000000000E+00  0.18557499684E+04  0.18557499684E+04  0.25500000920E-02 0.  1.
       -2   -1    0    0    0  501  0.00000000000E+00  0.00000000000E+00 -0.19451461985E+04  0.19451461985E+04  0.25500000920E-02 0. -1.
    10030    2    1    2    0    0  0.00000000000E+00  0.00000000000E+00 -0.89396230042E+02  0.38008961669E+04  0.37998447318E+04 0.  0.
        1    1    3    3  502    0  0.24855722856E+03  0.82391521438E+03  0.16496088289E+04  0.18605983621E+04  0.50400001928E-02 0.  1.
       -1    1    3    3    0  502 -0.24855722856E+03 -0.82391521438E+03 -0.17390050590E+04  0.19402978049E+04  0.50400001928E-02 0. -1.
</event>
<event>
 5   0  0.4071750E-09  0.3799788E+04  0.7818609E-02  0.8046200E-01
       -1   -1    0    0    0  501  0.00000000000E+00  0.00000000000E+00  0.17305080823E+04  0.17305080823E+04  0.50400001928E-02 0. -1.
        1   -1    0    0  501    0  0.00000000000E+00  0.00000000000E+00 -0.20858597822E+04  0.20858597822E+04  0.50400001928E-02 0.  1.
    10030    2    1    2    0    0  0.00000000000E+00  0.00000000000E+00 -0.35535169990E+03  0.38163678645E+04  0.37997880002E+04 0.  0.
        4    1    3    3  502    0  0.18882685243E+04 -0.15032296184E+03 -0.30610896268E+02  0.18944903411E+04  0.12699999809E+01 0. -1.
       -4    1    3    3    0  502 -0.18882685243E+04  0.15032296184E+03 -0.32474080363E+03  0.19218775234E+04  0.12699999809E+01 0.  1.
</event>
<event>
 5   0  0.1261152E-08  0.3799642E+04  0.7818609E-02  0.8046232E-01
        2   -1    0    0  501    0  0.00000000000E+00  0.00000000000E+00  0.19928868391E+04  0.19928868391E+04  0.25500000920E-02 0. -1.
       -2   -1    0    0    0  501  0.00000000000E+00  0.00000000000E+00 -0.18111008801E+04  0.18111008801E+04  0.25500000920E-02 0.  1.
    10030    2    1    2    0    0  0.00000000000E+00  0.00000000000E+00  0.18178595900E+03  0.38039877191E+04  0.37996416190E+04 0.  0.
        2    1    3    3  502    0 -0.16275997887E+04 -0.97899862226E+03  0.13336477237E+03  0.19040235127E+04  0.25500000920E-02 0. -1.
       -2    1    3    3    0  502  0.16275997887E+04  0.97899862226E+03  0.48421186634E+02  0.18999642064E+04  0.25500000920E-02 0.  1.
</event>
<event>
 5   0  0.4071750E-09  0.3799142E+04  0.7818609E-02  0.8046339E-01
        1   -1    0    0  501    0  0.00000000000E+00  0.00000000000E+00  0.11811778579E+04  0.11811778579E+04  0.50400001928E-02 0. -1.
       -1   -1    0    0    0  501  0.00000000000E+00  0.00000000000E+00 -0.30548916556E+04  0.30548916556E+04  0.50400001928E-02 0.  1.
    10030    2    1    2    0    0  0.00000000000E+00  0.00000000000E+00 -0.18737137977E+04  0.42360695135E+04  0.37991422094E+04 0.  0.
        1    1    3    3  502    0 -0.14563185909E+04 -0.81230475423E+03  0.77534333343E+02  0.16693455079E+04  0.50400001928E-02 0. -1.
       -1    1    3    3    0  502  0.14563185909E+04  0.81230475423E+03 -0.19512481311E+04  0.25667240056E+04  0.50400001928E-02 0.  1.
</event>
<event>
 5   0  0.4071750E-09  0.3800897E+04  0.7818609E-02  0.8045962E-01
       -1   -1    0    0    0  501  0.00000000000E+00  0.00000000000E+00  0.25900520170E+04  0.25900520170E+04  0.50400001928E-02 0.  1.
        1   -1    0    0  501    0  0.00000000000E+00  0.00000000000E+00 -0.13944524585E+04  0.13944524585E+04  0.50400001928E-02 0. -1.
    10030    2    1    2    0    0  0.00000000000E+00  0.00000000000E+00  0.11955995585E+04  0.39845044755E+04  0.38008969482E+04 0.  0.
        1    1    3    3  502    0  0.16795411809E+03  0.10357222823E+04 -0.10632862923E+04  0.14938229384E+04  0.50400001928E-02 0. -1.
       -1    1    3    3    0  502 -0.16795411809E+03 -0.10357222823E+04  0.22588858508E+04  0.24906815370E+04  0.50400001928E-02 0.  1.
</event>
<event>
 5   0  0.1293993E-08  0.3800172E+04  0.7818609E-02  0.8046118E-01
       -2   -1    0    0    0  501  0.00000000000E+00  0.00000000000E+00  0.29294682642E+04  0.29294682642E+04  0.25500000920E-02 0. -1.
        2   -1    0    0  501    0  0.00000000000E+00  0.00000000000E+00 -0.12324173439E+04  0.12324173439E+04  0.25500000920E-02 0.  1.
    10030    2    1    2    0    0  0.00000000000E+00  0.00000000000E+00  0.16970509203E+04  0.41618856081E+04  0.38001723631E+04 0.  0.
        5    1    3    3  502    0 -0.13144334865E+03  0.15130541901E+04 -0.40194908563E+03  0.15710491696E+04  0.46999998093E+01 0.  1.
       -5    1    3    3    0  502  0.13144334865E+03 -0.15130541901E+04  0.20990000060E+04  0.25908364385E+04  0.46999998093E+01 0. -1.
</event>
<event>
 5   0  0.4071750E-09  0.3799392E+04  0.7818609E-02  0.8046285E-01
        1   -1    0    0  501    0  0.00000000000E+00  0.00000000000E+00  0.19981364552E+04  0.19981364552E+04  0.50400001928E-02 0.  1.
       -1   -1    0    0    0  501  0.00000000000E+00  0.00000000000E+00 -0.18061056950E+04  0.18061056950E+04  0.50400001928E-02 0. -1.
    10030    2    1    2    0    0  0.00000000000E+00  0.00000000000E+00  0.19203076019E+03  0.38042421502E+04  0.37993923888E+04 0.  0.
        3    1    3    3  502    0  0.60356952496E+03  0.11998417953E+04 -0.12491760136E+04  0.18342184244E+04  0.10100000352E+00 0. -1.
       -3    1    3    3    0  502 -0.60356952496E+03 -0.11998417953E+04  0.14412067738E+04  0.19700237258E+04  0.10100000352E+00 0.  1.
</event>
<event>
 5   0  0.4071750E-09  0.3798985E+04  0.7818609E-02  0.8046373E-01
        1   -1    0    0  501    0  0.00000000000E+00  0.00000000000E+00  0.31329780527E+04  0.31329780527E+04  0.50400001928E-02 0. -1.
       -1   -1    0    0    0  501  0.00000000000E+00  0.00000000000E+00 -0.11516426637E+04  0.11516426637E+04  0.50400001928E-02 0.  1.
    10030    2    1    2    0    0  0.00000000000E+00  0.00000000000E+00  0.19813353890E+04  0.42846207164E+04  0.37989847012E+04 0.  0.
        5    1    3    3  502    0 -0.94020463507E+03 -0.13863352462E+04  0.20007799391E+04  0.26094161464E+04  0.46999998093E+01 0. -1.
       -5    1    3    3    0  502  0.94020463507E+03  0.13863352462E+04 -0.19444550029E+02  0.16752045700E+04  0.46999998093E+01 0.  1.
</event>
<event>
 5   0  0.1261152E-08  0.3799338E+04  0.7818609E-02  0.8046297E-01
       -2   -1    0    0    0  501  0.00000000000E+00  0.00000000000E+00  0.11621319590E+04  0.11621319590E+04  0.25500000920E-02 0.  1.
        2   -1    0    0  501    0  0.00000000000E+00  0.00000000000E+00 -0.31052772112E+04  0.31052772112E+04  0.25500000920E-02 0. -1.
    10030    2    1    2    0    0  0.00000000000E+00  0.00000000000E+00 -0.19431452522E+04  0.42674091702E+04  0.37993377785E+04 0.  0.
        2    1    3    3  502    0  0.73201417405E+03 -0.97502863749E+03  0.66468318677E+03  0.13886429828E+04  0.25500000920E-02 0.  1.
       -2    1    3    3    0  502 -0.73201417405E+03  0.97502863749E+03 -0.26078284389E+04  0.28787661874E+04  0.25500000920E-02 0. -1.
</event>
<event>
 5   0  0.1264013E-08  0.3775345E+04  0.7818609E-02  0.8051467E-01
       -2   -1    0    0    0  501  0.00000000000E+00  0.00000000000E+00  0.22593697926E+04  0.22593697926E+04  0.25500000920E-02 0. -1.
        2   -1    0    0  501    0  0.00000000000E+00  0.00000000000E+00 -0.15771242131E+04  0.15771242131E+04  0.25500000920E-02 0.  1.
    10030    2    1    2    0    0  0.00000000000E+00  0.00000000000E+00  0.68224557954E+03  0.38364940057E+04  0.37753446498E+04 0.  0.
        4    1    3    3  502    0  0.12210738396E+04  0.10080863934E+04 -0.70316277527E+03  0.17325411971E+04  0.12699999809E+01 0.  1.
       -4    1    3    3    0  502 -0.12210738396E+04 -0.10080863934E+04  0.13854083548E+04  0.21039528086E+04  0.12699999809E+01 0. -1.
</event>
<event>
 5   0  0.4071750E-09  0.3798655E+04  0.7818609E-02  0.8046444E-01
        1   -1    0    0  501    0  0.00000000000E+00  0.00000000000E+00  0.27327705054E+04  0.27327705054E+04  0.50400001928E-02 0.  1.
       -1   -1    0    0    0  501  0.00000000000E+00  0.00000000000E+00 -0.13200685760E+04  0.13200685760E+04  0.50400001928E-02 0. -1.
    10030    2    1    2    0    0  0.00000000000E+00  0.00000000000E+00  0.14127019295E+04  0.40528390814E+04  0.37986547459E+04 0.  0.
        3    1    3    3  502    0  0.58872947876E+02  0.10272895929E+04 -0.99692501795E+03  0.14327070299E+04  0.10100000352E+00 0. -1.
       -3    1    3    3    0  502 -0.58872947876E+02 -0.10272895929E+04  0.24096269474E+04  0.26201320516E+04  0.10100000352E+00 0.  1.
</event>
<event>
 5   0  0.1261152E-08  0.3790093E+04  0.7818609E-02  0.8048284E-01
       -2   -1    0    0    0  501  0.00000000000E+00  0.00000000000E+00  0.12674955201E+04  0.12674955201E+04  0.25500000920E-02 0.  1.
        2   -1    0    0  501    0  0.00000000000E+00  0.00000000000E+00 -0.28333043441E+04  0.28333043441E+04  0.25500000920E-02 0. -1.
    10030    2    1    2    0    0  0.00000000000E+00  0.00000000000E+00 -0.15658088240E+04  0.41007998641E+04  0.37900926443E+04 0.  0.
        2    1    3    3  502    0 -0.16771204172E+04  0.79645452882E+03 -0.11936687266E+04  0.22072421116E+04  0.25500000920E-02 0. -1.
       -2    1    3    3    0  502  0.16771204172E+04 -0.79645452882E+03 -0.37214009741E+03  0.18935577526E+04  0.25500000920E-02 0.  1.
</event>
<event>
 5   0  0.1264013E-08  0.3799628E+04  0.7818609E-02  0.8046235E-01
        2   -1    0    0  501    0  0.00000000000E+00  0.00000000000E+00  0.17017324186E+04  0.17017324187E+04  0.25500000920E-02 0.  1.
       -2   -1    0    0    0  501  0.00000000000E+00  0.00000000000E+00 -0.21209517735E+04  0.21209517735E+04  0.25500000920E-02 0. -1.
    10030    2    1    2    0    0  0.00000000000E+00  0.00000000000E+00 -0.41921935483E+03  0.38226841921E+04  0.37996275561E+04 0.  0.
        4    1    3    3  502    0 -0.12428721881E+04  0.93278596728E+03 -0.13091596865E+04  0.20319255977E+04  0.12699999809E+01 0. -1.
       -4    1    3    3    0  502  0.12428721881E+04 -0.93278596728E+03  0.88994033171E+03  0.17907585945E+04  0.12699999809E+01 0.  1.
</event>
<event>
 5   0  0.1305088E-08  0.3800171E+04  0.7818609E-02  0.8046118E-01
       -2   -1    0    0    0  501  0.00000000000E+00  0.00000000000E+00  0.13540459210E+04  0.13540459210E+04  0.25500000920E-02 0.  1.
        2   -1    0    0  501    0  0.00000000000E+00  0.00000000000E+00 -0.26663234527E+04  0.26663234527E+04  0.25500000920E-02 0. -1.
    10030    2    1    2    0    0  0.00000000000E+00  0.00000000000E+00 -0.13122775317E+04  0.40203693737E+04  0.38001707305E+04 0.  0.
        3    1    3    3  502    0  0.34274886186E+03  0.14228996224E+04 -0.19380444946E+04  0.24286079533E+04  0.10100000352E+00 0. -1.
       -3    1    3    3    0  502 -0.34274886186E+03 -0.14228996224E+04  0.62576696282E+03  0.15917614204E+04  0.10100000352E+00 0.  1.
</event>
<event>
 5   0  0.4071750E-09  0.3799504E+04  0.7818609E-02  0.8046261E-01
        1   -1    0    0  501    0  0.00000000000E+00  0.00000000000E+00  0.20899067379E+04  0.20899067379E+04  0.50400001928E-02 0.  1.
       -1   -1    0    0    0  501  0.00000000000E+00  0.00000000000E+00 -0.17268986614E+04  0.17268986614E+04  0.50400001928E-02 0. -1.
    10030    2    1    2    0    0  0.00000000000E+00  0.00000000000E+00  0.36300807651E+03  0.38168053993E+04  0.37995037298E+04 0.  0.
        5    1    3    3  502    0 -0.23155995377E+03  0.74194112246E+03 -0.15598654505E+04  0.17427848275E+04  0.46999998093E+01 0. -1.
       -5    1    3    3    0  502  0.23155995377E+03 -0.74194112246E+03  0.19228735270E+04  0.20740205718E+04  0.46999998093E+01 0.  1.
</event>
<event>
 5   0  0.1261152E-08  0.3801118E+04  0.7818609E-02  0.8045915E-01
        2   -1    0    0  501    0  0.00000000000E+00  0.00000000000E+00  0.17632609608E+04  0.17632609608E+04  0.25500000920E-02 0.  1.
       -2   -1    0    0    0  501  0.00000000000E+00  0.00000000000E+00 -0.20485477977E+04  0.20485477977E+04  0.25500000920E-02 0. -1.
    10030    2    1    2    0    0  0.00000000000E+00  0.00000000000E+00 -0.28528683696E+03  0.38118087585E+04  0.38011179187E+04 0.  0.
        2    1    3    3  502    0 -0.17078677840E+04  0.46264699170E+03 -0.83833066890E+03  0.19579716334E+04  0.25500000920E-02 0. -1.
       -2    1    3    3    0  502  0.17078677840E+04 -0.46264699170E+03  0.55304383193E+03  0.18538371252E+04  0.25500000920E-02 0.  1.
</event>
<event>
 5   0  0.4071750E-09  0.3802589E+04  0.7818609E-02  0.8045599E-01
       -1   -1    0    0    0  501  0.00000000000E+00  0.00000000000E+00  0.19947530645E+04  0.19947530645E+04  0.50400001928E-02 0. -1.
        1   -1    0    0  501    0  0.00000000000E+00  0.00000000000E+00 -0.18122151425E+04  0.18122151425E+04  0.50400001928E-02 0.  1.
    10030    2    1    2    0    0  0.00000000000E+00  0.00000000000E+00  0.18253792200E+03  0.38069682070E+04  0.38025894909E+04 0.  0.
        4    1    3    3  502    0  0.14602403088E+04 -0.10922330890E+04  0.63007565943E+03  0.19293190067E+04  0.12699999809E+01 0. -1.
       -4    1    3    3    0  502 -0.14602403088E+04  0.10922330890E+04 -0.44753773744E+03  0.18776492003E+04  0.12699999809E+01 0.  1.
</event>
<event>
 5   0  0.1261152E-08  0.3799018E+04  0.7818609E-02  0.8046366E-01
        2   -1    0    0  501    0  0.00000000000E+00  0.00000000000E+00  0.23089249011E+04  0.23089249011E+04  0.25500000920E-02 0. -1.
       -2   -1    0    0    0  501  0.00000000000E+00  0.00000000000E+00 -0.15626904570E+04  0.15626904570E+04  0.25500000920E-02 0.  1.
    10030    2    1    2    0    0  0.00000000000E+00  0.00000000000E+00  0.74623444414E+03  0.38716153581E+04  0.37990182462E+04 0.  0.
        2    1    3    3  502    0 -0.16708185371E+04 -0.77039898769E+03 -0.10812015922E+03  0.18430515872E+04  0.25500000920E-02 0. -1.
       -2    1    3    3    0  502  0.16708185371E+04  0.77039898769E+03  0.85435460336E+03  0.20285637709E+04  0.25500000920E-02 0.  1.
</event>
<event>
 5   0  0.4071750E-09  0.3800631E+04  0.7818609E-02  0.8046020E-01
       -1   -1    0    0    0  501  0.00000000000E+00  0.00000000000E+00  0.28041246031E+04  0.28041246031E+04  0.50400001928E-02 0.  1.
        1   -1    0    0  501    0  0.00000000000E+00  0.00000000000E+00 -0.12878167877E+04  0.12878167877E+04  0.50400001928E-02 0. -1.
    10030    2    1    2    0    0  0.00000000000E+00  0.00000000000E+00  0.15163078154E+04  0.40919413907E+04  0.38006308627E+04 0.  0.
        5    1    3    3  502    0 -0.10394459444E+04 -0.15854216040E+04  0.89921991372E+03  0.20982440461E+04  0.46999998093E+01 0.  1.
       -5    1    3    3    0  502  0.10394459444E+04  0.15854216040E+04  0.61708790169E+03  0.19936973447E+04  0.46999998093E+01 0. -1.
</event>
<event>
 5   0  0.4071750E-09  0.3799559E+04  0.7818609E-02  0.8046249E-01
       -1   -1    0    0    0  501  0.00000000000E+00  0.00000000000E+00  0.28415534324E+04  0.28415534324E+04  0.50400001928E-02 0. -1.
        1   -1    0    0  501    0  0.00000000000E+00  0.00000000000E+00 -0.12701372961E+04  0.12701372961E+04  0.50400001928E-02 0.  1.
    10030    2    1    2    0    0  0.00000000000E+00  0.00000000000E+00  0.15714161364E+04  0.41116907285E+04  0.37995594446E+04 0.  0.
        5    1    3    3  502    0 -0.72580289115E+03  0.30470267089E+03 -0.10853488962E+04  0.13407601840E+04  0.46999998093E+01 0.  1.
       -5    1    3    3    0  502  0.72580289115E+03 -0.30470267089E+03  0.26567650326E+04  0.27709305445E+04  0.46999998093E+01 0. -1.
</event>
<event>
 5   0  0.4071750E-09  0.3797209E+04  0.7818609E-02  0.8046754E-01
        1   -1    0    0  501    0  0.00000000000E+00  0.00000000000E+00  0.20050194662E+04  0.20050194662E+04  0.50400001928E-02 0. -1.
       -1   -1    0    0    0  501  0.00000000000E+00  0.00000000000E+00 -0.17978374302E+04  0.17978374302E+04  0.50400001928E-02 0.  1.
    10030    2    1    2    0    0  0.00000000000E+00  0.00000000000E+00  0.20718203595E+03  0.38028568964E+04  0.37972089985E+04 0.  0.
        3    1    3    3  502    0 -0.14535989665E+04 -0.13716579728E+03 -0.11118593153E+04  0.18352099494E+04  0.10100000352E+00 0.  1.
       -3    1    3    3    0  502  0.14535989665E+04  0.13716579728E+03  0.13190413513E+04  0.19676469470E+04  0.10100000352E+00 0. -1.
</event>
<event>
 5   0  0.4071750E-09  0.3798666E+04  0.7818609E-02  0.8046441E-01
        1   -1    0    0  501    0  0.00000000000E+00  0.00000000000E+00  0.19034848197E+04  0.19034848197E+04  0.50400001928E-02 0.  1.
       -1   -1    0    0    0  501  0.00000000000E+00  0.00000000000E+00 -0.18951898573E+04  0.18951898573E+04  0.50400001928E-02 0. -1.
    10030    2    1    2    0    0  0.00000000000E+00  0.00000000000E+00  0.82949623848E+01  0.37986746770E+04  0.37986656203E+04 0.  0.
        2    1    3    3  502    0  0.88217601731E+03  0.10307554716E+04 -0.13250561076E+04  0.18964348278E+04  0.25500000920E-02 0. -1.
       -2    1    3    3    0  502 -0.88217601731E+03 -0.10307554716E+04  0.13333510700E+04  0.19022398492E+04  0.25500000920E-02 0.  1.
</event>
<event>
 5   0  0.1293993E-08  0.3799023E+04  0.7818609E-02  0.8046365E-01
        2   -1    0    0  501    0  0.00000000000E+00  0.00000000000E+00  0.15196689093E+04  0.15196689093E+04  0.25500000920E-02 0.  1.
       -2   -1    0    0    0  501  0.00000000000E+00  0.00000000000E+00 -0.23742956737E+04  0.23742956737E+04  0.25500000920E-02 0. -1.
    10030    2    1    2    0    0  0.00000000000E+00  0.00000000000E+00 -0.85462676437E+03  0.38939645831E+04  0.37990226727E+04 0.  0.
        5    1    3    3  502    0  0.16299173597E+04  0.90051665602E+03 -0.43030027975E+02  0.18626418122E+04  0.46999998093E+01 0.  1.
       -5    1    3    3    0  502 -0.16299173597E+04 -0.90051665602E+03 -0.81159673640E+03  0.20313227709E+04  0.46999998093E+01 0. -1.
</event>
<event>
 5   0  0.4071750E-09  0.3798336E+04  0.7818609E-02  0.8046512E-01
        1   -1    0    0  501    0  0.00000000000E+00  0.00000000000E+00  0.14333460241E+04  0.14333460242E+04  0.50400001928E-02 0.  1.
       -1   -1    0    0    0  501  0.00000000000E+00  0.00000000000E+00 -0.25163772527E+04  0.25163772527E+04  0.50400001928E-02 0. -1.
    10030    2    1    2    0    0  0.00000000000E+00  0.00000000000E+00 -0.10830312286E+04  0.39497232769E+04  0.37983361254E+04 0.  0.
        4    1    3    3  502    0 -0.65785531290E+03 -0.94014949192E+03 -0.21151664337E+04  0.24063635085E+04  0.12699999809E+01 0. -1.
       -4    1    3    3    0  502  0.65785531290E+03  0.94014949192E+03  0.10321352052E+04  0.15433597683E+04  0.12699999809E+01 0.  1.
</event>
<event>
 5   0  0.4071750E-09  0.3794339E+04  0.7818609E-02  0.8047371E-01
        1   -1    0    0  501    0  0.00000000000E+00  0.00000000000E+00  0.14100878409E+04  0.14100878409E+04  0.50400001928E-02 0.  1.
       -1   -1    0    0    0  501  0.00000000000E+00  0.00000000000E+00 -0.25525016344E+04  0.25525016344E+04  0.50400001928E-02 0. -1.
    10030    2    1    2    0    0  0.00000000000E+00  0.00000000000E+00 -0.11424137935E+04  0.39625894753E+04  0.37943386874E+04 0.  0.
        5    1    3    3  502    0  0.52074952877E+02 -0.17721832203E+04  0.13392488153E+03  0.17780053799E+04  0.46999998093E+01 0.  1.
       -5    1    3    3    0  502 -0.52074952877E+02  0.17721832203E+04 -0.12763386750E+04  0.21845840955E+04  0.46999998093E+01 0. -1.
</event>
<event>
 5   0  0.1261152E-08  0.3805908E+04  0.7818609E-02  0.8044888E-01
        2   -1    0    0  501    0  0.00000000000E+00  0.00000000000E+00  0.21128046264E+04  0.21128046264E+04  0.25500000920E-02 0. -1.
       -2   -1    0    0    0  501  0.00000000000E+00  0.00000000000E+00 -0.17139466363E+04  0.17139466363E+04  0.25500000920E-02 0.  1.
    10030    2    1    2    0    0  0.00000000000E+00  0.00000000000E+00  0.39885799008E+03  0.38267512627E+04  0.38059082399E+04 0.  0.
        2    1    3    3  502    0 -0.51602034220E+03  0.16051286202E+04  0.10865986301E+04  0.20058443269E+04  0.25500000920E-02 0. -1.
       -2    1    3    3    0  502  0.51602034220E+03 -0.16051286202E+04 -0.68774063998E+03  0.18209069358E+04  0.25500000920E-02 0.  1.
</event>
<event>
 5   0  0.4071750E-09  0.3803576E+04  0.7818609E-02  0.8045388E-01
       -1   -1    0    0    0  501  0.00000000000E+00  0.00000000000E+00  0.15339799322E+04  0.15339799322E+04  0.50400001928E-02 0.  1.
        1   -1    0    0  501    0  0.00000000000E+00  0.00000000000E+00 -0.23577862172E+04  0.23577862172E+04  0.50400001928E-02 0. -1.
    10030    2    1    2    0    0  0.00000000000E+00  0.00000000000E+00 -0.82380628496E+03  0.38917661494E+04  0.38035755502E+04 0.  0.
        2    1    3    3  502    0  0.11712884415E+04  0.52603847284E+03  0.10235376797E+04  0.16420299845E+04  0.25500000920E-02 0.  1.
       -2    1    3    3    0  502 -0.11712884415E+04 -0.52603847284E+03 -0.18473439646E+04  0.22497361649E+04  0.25500000920E-02 0. -1.
</event>
<event>
 5   0  0.1293993E-08  0.3802076E+04  0.7818609E-02  0.8045710E-01
       -2   -1    0    0    0  501  0.00000000000E+00  0.00000000000E+00  0.20695339920E+04  0.20695339920E+04  0.25500000920E-02 0.  1.
        2   -1    0    0  501    0  0.00000000000E+00  0.00000000000E+00 -0.17462602422E+04  0.17462602422E+04  0.25500000920E-02 0. -1.
    10030    2    1    2    0    0  0.00000000000E+00  0.00000000000E+00  0.32327374983E+03  0.38157942343E+04  0.38020757121E+04 0.  0.
        5    1    3    3  502    0 -0.16860845774E+04  0.36711247733E+03  0.96218036982E+03  0.19757190912E+04  0.46999998093E+01 0.  1.
       -5    1    3    3    0  502  0.16860845774E+04 -0.36711247733E+03 -0.63890661999E+03  0.18400751431E+04  0.46999998093E+01 0. -1.
</event>
<event>
 5   0  0.4071750E-09  0.3799769E+04  0.7818609E-02  0.8046204E-01
        1   -1    0    0  501    0  0.00000000000E+00  0.00000000000E+00  0.17741421073E+04  0.17741421074E+04  0.50400001928E-02 0. -1.
       -1   -1    0    0    0  501  0.00000000000E+00  0.00000000000E+00 -0.20345389118E+04  0.20345389118E+04  0.50400001928E-02 0.  1.
    10030    2    1    2    0    0  0.00000000000E+00  0.00000000000E+00 -0.26039680442E+03  0.38086810191E+04  0.37997690206E+04 0.  0.
        1    1    3    3  502    0  0.89568245428E+03 -0.10774703842E+04  0.11559211642E+04  0.18164094322E+04  0.50400001928E-02 0. -1.
       -1    1    3    3    0  502 -0.89568245428E+03  0.10774703842E+04 -0.14163179686E+04  0.19922715869E+04  0.50400001928E-02 0.  1.
</event>
<event>
 5   0  0.1305088E-08  0.3799189E+04  0.7818609E-02  0.8046329E-01
       -2   -1    0    0    0  501  0.00000000000E+00  0.00000000000E+00  0.29300423384E+04  0.29300423384E+04  0.25500000920E-02 0.  1.
        2   -1    0    0  501    0  0.00000000000E+00  0.00000000000E+00 -0.12315382576E+04  0.12315382576E+04  0.25500000920E-02 0. -1.
    10030    2    1    2    0    0  0.00000000000E+00  0.00000000000E+00  0.16985040807E+04  0.41615805960E+04  0.37991889851E+04 0.  0.
        3    1    3    3  502    0  0.13724988971E+04 -0.20130916531E+03 -0.57229666999E+03  0.15006005769E+04  0.10100000352E+00 0. -1.
       -3    1    3    3    0  502 -0.13724988971E+04  0.20130916531E+03  0.22708007507E+04  0.26609800192E+04  0.10100000352E+00 0.  1.
</event>
<event>
 5   0  0.1293993E-08  0.3801789E+04  0.7818609E-02  0.8045771E-01
       -2   -1    0    0    0  501  0.00000000000E+00  0.00000000000E+00  0.15146063445E+04  0.15146063445E+04  0.25500000920E-02 0. -1.
        2   -1    0    0  501    0  0.00000000000E+00  0.00000000000E+00 -0.23857025788E+04  0.23857025788E+04  0.25500000920E-02 0.  1.
    10030    2    1    2    0    0  0.00000000000E+00  0.00000000000E+00 -0.87109623435E+03  0.39003089233E+04  0.38017891904E+04 0.  0.
        5    1    3    3  502    0 -0.99682763806E+03 -0.11349622447E+04 -0.16193895963E+04  0.22145539938E+04  0.46999998093E+01 0. -1.
       -5    1    3    3    0  502  0.99682763806E+03  0.11349622447E+04  0.74829336198E+03  0.16857549295E+04  0.46999998093E+01 0.  1.
</event>
<event>
 5   0  0.4071750E-09  0.3801090E+04  0.7818609E-02  0.8045921E-01
       -1   -1    0    0    0  501  0.00000000000E+00  0.00000000000E+00  0.16219054725E+04  0.16219054725E+04  0.50400001928E-02 0. -1.
        1   -1    0    0  501    0  0.00000000000E+00  0.00000000000E+00 -0.22270542841E+04  0.22270542841E+04  0.50400001928E-02 0.  1.
    10030    2    1    2    0    0  0.00000000000E+00  0.00000000000E+00 -0.60514881158E+03  0.38489597567E+04  0.38010901231E+04 0.  0.
        1    1    3    3  502    0  0.12538142516E+04  0.10759477022E+04 -0.12537431958E+04  0.20740264310E+04  0.50400001928E-02 0.  1.
       -1    1    3    3    0  502 -0.12538142516E+04 -0.10759477022E+04  0.64859438426E+03  0.17749333257E+04  0.50400001928E-02 0. -1.
</event>
<event>
 5   0  0.1261152E-08  0.3798010E+04  0.7818609E-02  0.8046582E-01
        2   -1    0    0  501    0  0.00000000000E+00  0.00000000000E+00  0.28323408890E+04  0.28323408890E+04  0.25500000920E-02 0.  1.
       -2   -1    0    0    0  501  0.00000000000E+00  0.00000000000E+00 -0.12732295694E+04  0.12732295694E+04  0.25500000920E-02 0. -1.
    10030    2    1    2    0    0  0.00000000000E+00  0.00000000000E+00  0.15591113196E+04  0.41055704583E+04  0.37980100949E+04 0.  0.
        2    1    3    3  502    0 -0.20444489041E+03  0.88833830492E+03  0.25803768958E+04  0.27366562776E+04  0.25500000920E-02 0.  1.
       -2    1    3    3    0  502  0.20444489041E+03 -0.88833830492E+03 -0.10212655762E+04  0.13689141808E+04  0.25500000920E-02 0. -1.
</event>
<event>
 5   0  0.1293993E-08  0.3801466E+04  0.7818609E-02  0.8045840E-01
       -2   -1    0    0    0  501  0.00000000000E+00  0.00000000000E+00  0.30682480811E+04  0.30682480811E+04  0.25500000920E-02 0. -1.
        2   -1    0    0  501    0  0.00000000000E+00  0.00000000000E+00 -0.11774752620E+04  0.11774752621E+04  0.25500000920E-02 0.  1.
    10030    2    1    2    0    0  0.00000000000E+00  0.00000000000E+00  0.18907728190E+04  0.42457233431E+04  0.38014661452E+04 0.  0.
        5    1    3    3  502    0  0.78242691818E+03 -0.17313167517E+04  0.88305628979E+03  0.20951038346E+04  0.46999998093E+01 0.  1.
       -5    1    3    3    0  502 -0.78242691818E+03  0.17313167517E+04  0.10077165292E+04  0.21506195085E+04  0.46999998093E+01 0. -1.
</event>
<event>
 5   0  0.4071750E-09  0.3798240E+04  0.7818609E-02  0.8046533E-01
       -1   -1    0    0    0  501  0.00000000000E+00  0.00000000000E+00  0.21234115779E+04  0.21234115779E+04  0.50400001928E-02 0. -1.
        1   -1    0    0  501    0  0.00000000000E+00  0.00000000000E+00 -0.16985199037E+04  0.16985199037E+04  0.50400001928E-02 0.  1.
    10030    2    1    2    0    0  0.00000000000E+00  0.00000000000E+00  0.42489167422E+03  0.38219314817E+04  0.37982400287E+04 0.  0.
        2    1    3    3  502    0 -0.16772437365E+04 -0.12078232581E+03  0.11005163491E+04  0.20096942943E+04  0.25500000920E-02 0. -1.
       -2    1    3    3    0  502  0.16772437365E+04  0.12078232581E+03 -0.67562467485E+03  0.18122371874E+04  0.25500000920E-02 0.  1.
</event>
<event>
 5   0  0.1293993E-08  0.3799551E+04  0.7818609E-02  0.8046251E-01
        2   -1    0    0  501    0  0.00000000000E+00  0.00000000000E+00  0.22453682775E+04  0.22453682776E+04  0.25500000920E-02 0. -1.
       -2   -1    0    0    0  501  0.00000000000E+00  0.00000000000E+00 -0.16073741082E+04  0.16073741082E+04  0.25500000920E-02 0.  1.
    10030    2    1    2    0    0  0.00000000000E+00  0.00000000000E+00  0.63799416935E+03  0.38527423857E+04  0.37995509380E+04 0.  0.
        5    1    3    3  502    0 -0.30095920365E+03  0.11837927510E+04  0.17944212798E+04  0.21706937921E+04  0.46999998093E+01 0. -1.
       -5    1    3    3    0  502  0.30095920365E+03 -0.11837927510E+04 -0.11564271105E+04  0.16820485936E+04  0.46999998093E+01 0.  1.
</event>
<event>
 5   0  0.4071750E-09  0.3800137E+04  0.7818609E-02  0.8046126E-01
        1   -1    0    0  501    0  0.00000000000E+00  0.00000000000E+00  0.21147177195E+04  0.21147177195E+04  0.50400001928E-02 0.  1.
       -1   -1    0    0    0  501  0.00000000000E+00  0.00000000000E+00 -0.17072066386E+04  0.17072066386E+04  0.50400001928E-02 0. -1.
    10030    2    1    2    0    0  0.00000000000E+00  0.00000000000E+00  0.40751108091E+03  0.38219243581E+04  0.38001369078E+04 0.  0.
        4    1    3    3  502    0 -0.49396963776E+03  0.15187040607E+04  0.12391190466E+04  0.20213573784E+04  0.12699999809E+01 0.  1.
       -4    1    3    3    0  502  0.49396963776E+03 -0.15187040607E+04 -0.83160796565E+03  0.18005669797E+04  0.12699999809E+01 0. -1.
</event>
<event>
 5   0  0.4071750E-09  0.3795009E+04  0.7818609E-02  0.8047227E-01
       -1   -1    0    0    0  501  0.00000000000E+00  0.00000000000E+00  0.99793678905E+03  0.99793678906E+03  0.50400001928E-02 0.  1.
        1   -1    0    0  501    0  0.00000000000E+00  0.00000000000E+00 -0.36079679929E+04  0.36079679929E+04  0.50400001928E-02 0. -1.
    10030    2    1    2    0    0  0.00000000000E+00  0.00000000000E+00 -0.26100312039E+04  0.46059047820E+04  0.37950093512E+04 0.  0.
        5    1    3    3  502    0 -0.10512754197E+04  0.83560533412E+03 -0.29320116193E+04  0.32249233337E+04  0.46999998093E+01 0. -1.
       -5    1    3    3    0  502  0.10512754197E+04 -0.83560533412E+03  0.32198041549E+03  0.13809814482E+04  0.46999998093E+01 0.  1.
</event>
<event>
 5   0  0.4071750E-09  0.3799078E+04  0.7818609E-02  0.8046353E-01
       -1   -1    0    0    0  501  0.00000000000E+00  0.00000000000E+00  0.14133806584E+04  0.14133806584E+04  0.50400001928E-02 0.  1.
        1   -1    0    0  501    0  0.00000000000E+00  0.00000000000E+00 -0.25529207605E+04  0.25529207605E+04  0.50400001928E-02 0. -1.
    10030    2    1    2    0    0  0.00000000000E+00  0.00000000000E+00 -0.11395401021E+04  0.39663014190E+04  0.37990782174E+04 0.  0.
        5    1    3    3  502    0  0.15301677881E+04 -0.89144779841E+03  0.14759491578E+03  0.17770478289E+04  0.46999998093E+01 0. -1.
       -5    1    3    3    0  502 -0.15301677881E+04  0.89144779841E+03 -0.12871350179E+04  0.21892535900E+04  0.46999998093E+01 0.  1.
</event>
<event>
 5   0  0.1305088E-08  0.3789974E+04  0.7818609E-02  0.8048310E-01
       -2   -1    0    0    0  501  0.00000000000E+00  0.00000000000E+00  0.16838647615E+04  0.16838647615E+04  0.25500000920E-02 0. -1.
        2   -1    0    0  501    0  0.00000000000E+00  0.00000000000E+00 -0.21325793429E+04  0.21325793429E+04  0.25500000920E-02 0.  1.
    10030    2    1    2    0    0  0.00000000000E+00  0.00000000000E+00 -0.44871458139E+03  0.38164441044E+04  0.37899737238E+04 0.  0.
        3    1    3    3  502    0 -0.15220028621E+04 -0.74521568437E+03 -0.10782990321E+04  0.20086233946E+04  0.10100000352E+00 0.  1.
       -3    1    3    3    0  502  0.15220028621E+04  0.74521568437E+03  0.62958445066E+03  0.18078207099E+04  0.10100000352E+00 0. -1.
</event>
<event>
 5   0  0.4071750E-09  0.3797874E+04  0.7818609E-02  0.8046611E-01
       -1   -1    0    0    0  501  0.00000000000E+00  0.00000000000E+00  0.14723446899E+04  0.14723446899E+04  0.50400001928E-02 0.  1.
        1   -1    0    0  501    0  0.00000000000E+00  0.00000000000E+00 -0.24491285208E+04  0.24491285208E+04  0.50400001928E-02 0. -1.
    10030    2    1    2    0    0  0.00000000000E+00  0.00000000000E+00 -0.97678383090E+03  0.39214732108E+04  0.37978738118E+04 0.  0.
        5    1    3    3  502    0  0.64496889070E+03 -0.17756046200E+04 -0.28928842748E+03  0.19111427264E+04  0.46999998093E+01 0. -1.
       -5    1    3    3    0  502 -0.64496889070E+03  0.17756046200E+04 -0.68749540342E+03  0.20103304843E+04  0.46999998093E+01 0.  1.
</event>
<event>
 5   0  0.4071750E-09  0.3802738E+04  0.7818609E-02  0.8045568E-01
        1   -1    0    0  501    0  0.00000000000E+00  0.00000000000E+00  0.18538733001E+04  0.18538733001E+04  0.50400001928E-02 0. -1.
       -1   -1    0    0    0  501  0.00000000000E+00  0.00000000000E+00 -0.19500812083E+04  0.19500812083E+04  0.50400001928E-02 0.  1.
    10030    2    1    2    0    0  0.00000000000E+00  0.00000000000E+00 -0.96207908208E+02  0.38039545084E+04  0.38027376902E+04 0.  0.
        5    1    3    3  502    0 -0.15025436125E+04 -0.16190583586E+03 -0.12023061614E+04  0.19311688178E+04  0.46999998093E+01 0. -1.
       -5    1    3    3    0  502  0.15025436125E+04  0.16190583586E+03  0.11060982531E+04  0.18727856906E+04  0.46999998093E+01 0.  1.
</event>
<event>
 5   0  0.1305088E-08  0.3797083E+04  0.7818609E-02  0.8046781E-01
        2   -1    0    0  501    0  0.00000000000E+00  0.00000000000E+00  0.14216686611E+04  0.14216686611E+04  0.25500000920E-02 0. -1.
       -2   -1    0    0    0  501  0.00000000000E+00  0.00000000000E+00 -0.25353730845E+04  0.25353730845E+04  0.25500000920E-02 0.  1.
    10030    2    1    2    0    0  0.00000000000E+00  0.00000000000E+00 -0.11137044234E+04  0.39570417455E+04  0.37970833324E+04 0.  0.
        3    1    3    3  502    0 -0.54499340430E+03  0.18103796073E+04 -0.37644592629E+03  0.19277457506E+04  0.10100000352E+00 0.  1.
       -3    1    3    3    0  502  0.54499340430E+03 -0.18103796073E+04 -0.73725849708E+03  0.20292959949E+04  0.10100000352E+00 0. -1.
</event>
<event>
 5   0  0.1327249E-08  0.3801257E+04  0.7818609E-02  0.8045885E-01
        2   -1    0    0  501    0  0.00000000000E+00  0.00000000000E+00  0.14541379700E+04  0.14541379700E+04  0.25500000920E-02 0. -1.
       -2   -1    0    0    0  501  0.00000000000E+00  0.00000000000E+00 -0.24842128841E+04  0.24842128841E+04  0.25500000920E-02 0.  1.
    10030    2    1    2    0    0  0.00000000000E+00  0.00000000000E+00 -0.10300749141E+04  0.39383508541E+04  0.38012567818E+04 0.  0.
        1    1    3    3  502    0 -0.99777289478E+03 -0.47371049044E+03  0.10874969060E+04  0.15500328703E+04  0.50400001928E-02 0. -1.
       -1    1    3    3    0  502  0.99777289478E+03  0.47371049044E+03 -0.21175718201E+04  0.23883179838E+04  0.50400001928E-02 0.  1.
</event>
<event>
 5   0  0.1264013E-08  0.3825187E+04  0.7818609E-02  0.8040771E-01
        2   -1    0    0  501    0  0.00000000000E+00  0.00000000000E+00  0.24187501168E+04  0.24187501168E+04  0.25500000920E-02 0.  1.
       -2   -1    0    0    0  501  0.00000000000E+00  0.00000000000E+00 -0.15123570946E+04  0.15123570946E+04  0.25500000920E-02 0. -1.
    10030    2    1    2    0    0  0.00000000000E+00  0.00000000000E+00  0.90639302214E+03  0.39311072114E+04  0.38251870016E+04 0.  0.
        4    1    3    3  502    0  0.59016778274E+03  0.13902982002E+04 -0.75265910304E+03  0.16875202030E+04  0.12699999809E+01 0. -1.
       -4    1    3    3    0  502 -0.59016778274E+03 -0.13902982002E+04  0.16590521252E+04  0.22435870084E+04  0.12699999809E+01 0.  1.
</event>
<event>
 5   0  0.4071750E-09  0.3801966E+04  0.7818609E-02  0.8045733E-01
       -1   -1    0    0    0  501  0.00000000000E+00  0.00000000000E+00  0.16767795751E+04  0.16767795751E+04  0.50400001928E-02 0. -1.
        1   -1    0    0  501    0  0.00000000000E+00  0.00000000000E+00 -0.21551647910E+04  0.21551647910E+04  0.50400001928E-02 0.  1.
    10030    2    1    2    0    0  0.00000000000E+00  0.00000000000E+00 -0.47838521584E+03  0.38319443661E+04  0.38019659665E+04 0.  0.
        2    1    3    3  502    0  0.86098740562E+03  0.15776485107E+04  0.38493332918E+03  0.18380554409E+04  0.25500000920E-02 0. -1.
       -2    1    3    3    0  502 -0.86098740562E+03 -0.15776485107E+04 -0.86331854502E+03  0.19938889252E+04  0.25500000920E-02 0.  1.
</event>
<event>
 5   0  0.1293993E-08  0.3803488E+04  0.7818609E-02  0.8045407E-01
       -2   -1    0    0    0  501  0.00000000000E+00  0.00000000000E+00  0.34579725983E+04  0.34579725983E+04  0.25500000920E-02 0.  1.
        2   -1    0    0  501    0  0.00000000000E+00  0.00000000000E+00 -0.10458815966E+04  0.10458815966E+04  0.25500000920E-02 0. -1.
    10030    2    1    2    0    0  0.00000000000E+00  0.00000000000E+00  0.24120910017E+04  0.45038541949E+04  0.38034878215E+04 0.  0.
        5    1    3    3  502    0 -0.45148068364E+03  0.10736819659E+04  0.29861872851E+04  0.32053025385E+04  0.46999998093E+01 0.  1.
       -5    1    3    3    0  502  0.45148068364E+03 -0.10736819659E+04 -0.57409628340E+03  0.12985516564E+04  0.46999998093E+01 0. -1.
</event>
<event>
 5   0  0.4071750E-09  0.3801373E+04  0.7818609E-02  0.8045860E-01
       -1   -1    0    0    0  501  0.00000000000E+00  0.00000000000E+00  0.22584839019E+04  0.22584839019E+04  0.50400001928E-02 0. -1.
        1   -1    0    0  501    0  0.00000000000E+00  0.00000000000E+00 -0.15995725118E+04  0.15995725118E+04  0.50400001928E-02 0.  1.
    10030    2    1    2    0    0  0.00000000000E+00  0.00000000000E+00  0.65891139014E+03  0.38580564137E+04  0.38013727877E+04 0.  0.
        4    1    3    3  502    0 -0.47556654747E+03  0.36231158804E+03 -0.15016575811E+04  0.16162952489E+04  0.12699999809E+01 0.  1.
       -4    1    3    3    0  502  0.47556654747E+03 -0.36231158804E+03  0.21605689712E+04  0.22417611648E+04  0.12699999809E+01 0. -1.
</event>
<event>
 5   0  0.1327249E-08  0.3800687E+04  0.7818609E-02  0.8046007E-01
        2   -1    0    0  501    0  0.00000000000E+00  0.00000000000E+00  0.24364653024E+04  0.24364653024E+04  0.25500000920E-02 0. -1.
       -2   -1    0    0    0  501  0.00000000000E+00  0.00000000000E+00 -0.14821904974E+04  0.14821904974E+04  0.25500000920E-02 0.  1.
    10030    2    1    2    0    0  0.00000000000E+00  0.00000000000E+00  0.95427480501E+03  0.39186557998E+04  0.38006871581E+04 0.  0.
        1    1    3    3  502    0 -0.55669973814E+03  0.12587845750E+04 -0.87381948318E+03  0.16303415881E+04  0.50400001928E-02 0.  1.
       -1    1    3    3    0  502  0.55669973814E+03 -0.12587845750E+04  0.18280942882E+04  0.22883142117E+04  0.50400001928E-02 0. -1.
</event>
<event>
 5   0  0.1293993E-08  0.3799841E+04  0.7818609E-02  0.8046189E-01
        2   -1    0    0  501    0  0.00000000000E+00  0.00000000000E+00  0.26447370491E+04  0.26447370491E+04  0.25500000920E-02 0.  1.
       -2   -1    0    0    0  501  0.00000000000E+00  0.00000000000E+00 -0.13648605671E+04  0.13648605671E+04  0.25500000920E-02 0. -1.
    10030    2    1    2    0    0  0.00000000000E+00  0.00000000000E+00  0.12798764820E+04  0.40095976163E+04  0.37998406855E+04 0.  0.
        5    1    3    3  502    0  0.14181940302E+04 -0.32161921813E+03  0.19301187540E+04  0.24166285861E+04  0.46999998093E+01 0.  1.
       -5    1    3    3    0  502 -0.14181940302E+04  0.32161921813E+03 -0.65024227201E+03  0.15929690301E+04  0.46999998093E+01 0. -1.
</event>
<event>
 5   0  0.1261152E-08  0.3814072E+04  0.7818609E-02  0.8043142E-01
        2   -1    0    0  501    0  0.00000000000E+00  0.00000000000E+00  0.27847000683E+04  0.27847000683E+04  0.25500000920E-02 0.  1.
       -2   -1    0    0    0  501  0.00000000000E+00  0.00000000000E+00 -0.13059881920E+04  0.13059881920E+04  0.25500000920E-02 0. -1.
    10030    2    1    2    0    0  0.00000000000E+00  0.00000000000E+00  0.14787118764E+04  0.40906882603E+04  0.38140715292E+04 0.  0.
        2    1    3    3  502    0 -0.19324654846E+03  0.92538174120E+03 -0.10369965459E+04  0.14032239421E+04  0.25500000920E-02 0. -1.
       -2    1    3    3    0  502  0.19324654846E+03 -0.92538174120E+03  0.25157084223E+04  0.26874643182E+04  0.25500000920E-02 0.  1.
</event>
<event>
 5   0  0.4071750E-09  0.3798557E+04  0.7818609E-02  0.8046465E-01
       -1   -1    0    0    0  501  0.00000000000E+00  0.00000000000E+00  0.12642182085E+04  0.12642182085E+04  0.50400001928E-02 0.  1.
        1   -1    0    0  501    0  0.00000000000E+00  0.00000000000E+00 -0.28533508321E+04  0.28533508321E+04  0.50400001928E-02 0. -1.
    10030    2    1    2    0    0  0.00000000000E+00  0.00000000000E+00 -0.15891326237E+04  0.41175690406E+04  0.37985566086E+04 0.  0.
        1    1    3    3  502    0  0.16416606052E+04 -0.64110861066E+03 -0.27164638444E+02  0.17626138860E+04  0.50400001928E-02 0.  1.
       -1    1    3    3    0  502 -0.16416606052E+04  0.64110861066E+03 -0.15619679852E+04  0.23549551546E+04  0.50400001928E-02 0. -1.
</event>
<event>
 5   0  0.4071750E-09  0.3799937E+04  0.7818609E-02  0.8046168E-01
        1   -1    0    0  501    0  0.00000000000E+00  0.00000000000E+00  0.13415122129E+04  0.13415122129E+04  0.50400001928E-02 0. -1.
       -1   -1    0    0    0  501  0.00000000000E+00  0.00000000000E+00 -0.26909040651E+04  0.26909040651E+04  0.50400001928E-02 0.  1.
    10030    2    1    2    0    0  0.00000000000E+00  0.00000000000E+00 -0.13493918522E+04  0.40324162780E+04  0.37999371927E+04 0.  0.
        4    1    3    3  502    0  0.11341479952E+04 -0.15148558593E+02 -0.22922060165E+04  0.25574853253E+04  0.12699999809E+01 0.  1.
       -4    1    3    3    0  502 -0.11341479952E+04  0.15148558593E+02  0.94281416435E+03  0.14749309527E+04  0.12699999809E+01 0. -1.
</event>
<event>
 5   0  0.1261152E-08  0.3798984E+04  0.7818609E-02  0.8046373E-01
        2   -1    0    0  501    0  0.00000000000E+00  0.00000000000E+00  0.12716627244E+04  0.12716627244E+04  0.25500000920E-02 0.  1.
       -2   -1    0    0    0  501  0.00000000000E+00  0.00000000000E+00 -0.28372849227E+04  0.28372849227E+04  0.25500000920E-02 0. -1.
    10030    2    1    2    0    0  0.00000000000E+00  0.00000000000E+00 -0.15656221983E+04  0.41089476472E+04  0.37989837982E+04 0.  0.
        2    1    3    3  502    0  0.92008857994E+03 -0.27683611557E+03 -0.25550597551E+04  0.27297493625E+04  0.25500000920E-02 0. -1.
       -2    1    3    3    0  502 -0.92008857994E+03  0.27683611557E+03  0.98943755674E+03  0.13791982847E+04  0.25500000920E-02 0.  1.
</event>
<event>
 5   0  0.1293993E-08  0.3802210E+04  0.7818609E-02  0.8045681E-01
       -2   -1    0    0    0  501  0.00000000000E+00  0.00000000000E+00  0.24989915925E+04  0.24989915925E+04  0.25500000920E-02 0.  1.
        2   -1    0    0  501    0  0.00000000000E+00  0.00000000000E+00 -0.14462633424E+04  0.14462633424E+04  0.25500000920E-02 0. -1.
    10030    2    1    2    0    0  0.00000000000E+00  0.00000000000E+00  0.10527282501E+04  0.39452549349E+04  0.38022098486E+04 0.  0.
        5    1    3    3  502    0  0.78926705511E+03  0.74466201282E+03  0.21460890108E+04  0.24048251765E+04  0.46999998093E+01 0.  1.
       -5    1    3    3    0  502 -0.78926705511E+03 -0.74466201282E+03 -0.10933607606E+04  0.15404297584E+04  0.46999998093E+01 0. -1.
</event>
<event>
 5   0  0.4071750E-09  0.3802198E+04  0.7818609E-02  0.8045683E-01
       -1   -1    0    0    0  501  0.00000000000E+00  0.00000000000E+00  0.16785460605E+04  0.16785460605E+04  0.50400001928E-02 0.  1.
        1   -1    0    0  501    0  0.00000000000E+00  0.00000000000E+00 -0.21531596524E+04  0.21531596524E+04  0.50400001928E-02 0. -1.
    10030    2    1    2    0    0  0.00000000000E+00  0.00000000000E+00 -0.47461359191E+03  0.38317057130E+04  0.38021981286E+04 0.  0.
        1    1    3    3  502    0 -0.33222719277E+03  0.16764497024E+04  0.60181305949E+03  0.18119154149E+04  0.50400001928E-02 0.  1.
       -1    1    3    3    0  502  0.33222719277E+03 -0.16764497024E+04 -0.10764266514E+04  0.20197902980E+04  0.50400001928E-02 0. -1.
</event>
<event>
 5   0  0.4071750E-09  0.3800697E+04  0.7818609E-02  0.8046005E-01
        1   -1    0    0  501    0  0.00000000000E+00  0.00000000000E+00  0.23197754465E+04  0.23197754465E+04  0.50400001928E-02 0. -1.
       -1   -1    0    0    0  501  0.00000000000E+00  0.00000000000E+00 -0.15567563943E+04  0.15567563943E+04  0.50400001928E-02 0.  1.
    10030    2    1    2    0    0  0.00000000000E+00  0.00000000000E+00  0.76301905221E+03  0.38765318409E+04  0.38006974412E+04 0.  0.
        2    1    3    3  502    0  0.15706802311E+04  0.18416596960E+03 -0.69325732323E+03  0.17267192038E+04  0.25500000920E-02 0.  1.
       -2    1    3    3    0  502 -0.15706802311E+04 -0.18416596960E+03  0.14562763754E+04  0.21498126370E+04  0.25500000920E-02 0. -1.
</event>
<event>
 5   0  0.1264013E-08  0.3796959E+04  0.7818609E-02  0.8046808E-01
        2   -1    0    0  501    0  0.00000000000E+00  0.00000000000E+00  0.26619890254E+04  0.26619890254E+04  0.25500000920E-02 0. -1.
       -2   -1    0    0    0  501  0.00000000000E+00  0.00000000000E+00 -0.13539590370E+04  0.13539590370E+04  0.25500000920E-02 0.  1.
    10030    2    1    2    0    0  0.00000000000E+00  0.00000000000E+00  0.13080299884E+04  0.40159480624E+04  0.37969588342E+04 0.  0.
        4    1    3    3  502    0  0.16135442963E+04 -0.14206422096E+03  0.17013348322E+04  0.23490954138E+04  0.12699999809E+01 0. -1.
       -4    1    3    3    0  502 -0.16135442963E+04  0.14206422096E+03 -0.39330484381E+03  0.16668526485E+04  0.12699999809E+01 0.  1.
</event>
<event>
 5   0  0.4071750E-09  0.3798714E+04  0.7818609E-02  0.8046431E-01
       -3   -1    0    0    0  501  0.00000000000E+00  0.00000000000E+00  0.17484378365E+04  0.17484378395E+04  0.10100000352E+00 0.  1.
        3   -1    0    0  501    0  0.00000000000E+00  0.00000000000E+00 -0.20633029873E+04  0.20633029898E+04  0.10100000352E+00 0. -1.
    10030    2    1    2    0    0  0.00000000000E+00  0.00000000000E+00 -0.31486515076E+03  0.38117408292E+04  0.37987140042E+04 0.  0.
        5    1    3    3  502    0  0.52259725757E+03  0.79960782652E+03  0.14898592039E+04  0.17697974764E+04  0.46999998093E+01 0.  1.
       -5    1    3    3    0  502 -0.52259725757E+03 -0.79960782652E+03 -0.18047243547E+04  0.20419433528E+04  0.46999998093E+01 0. -1.
</event>
<event>
 5   0  0.1264013E-08  0.3805296E+04  0.7818609E-02  0.8045019E-01
        2   -1    0    0  501    0  0.00000000000E+00  0.00000000000E+00  0.17312942551E+04  0.17312942551E+04  0.25500000920E-02 0. -1.
       -2   -1    0    0    0  501  0.00000000000E+00  0.00000000000E+00 -0.20909610629E+04  0.20909610629E+04  0.25500000920E-02 0.  1.
    10030    2    1    2    0    0  0.00000000000E+00  0.00000000000E+00 -0.35966680775E+03  0.38222553180E+04  0.38052957182E+04 0.  0.
        4    1    3    3  502    0 -0.78706800090E+03 -0.17306203799E+04 -0.25462548964E+03  0.19181654491E+04  0.12699999809E+01 0. -1.
       -4    1    3    3    0  502  0.78706800090E+03  0.17306203799E+04 -0.10504131811E+03  0.19040898689E+04  0.12699999809E+01 0.  1.
</event>
<event>
 5   0  0.1264013E-08  0.3798264E+04  0.7818609E-02  0.8046528E-01
        2   -1    0    0  501    0  0.00000000000E+00  0.00000000000E+00  0.26368296022E+04  0.26368296022E+04  0.25500000920E-02 0.  1.
       -2   -1    0    0    0  501  0.00000000000E+00  0.00000000000E+00 -0.13678177926E+04  0.13678177926E+04  0.25500000920E-02 0. -1.
    10030    2    1    2    0    0  0.00000000000E+00  0.00000000000E+00  0.12690118096E+04  0.40046473948E+04  0.37982640487E+04 0.  0.
        4    1    3    3  502    0  0.65438498521E+03 -0.13609899311E+04 -0.57966997264E+03  0.16175698413E+04  0.12699999809E+01 0.  1.
       -4    1    3    3    0  502 -0.65438498521E+03  0.13609899311E+04  0.18486817822E+04  0.23870775535E+04  0.12699999809E+01 0. -1.
</event>
<event>
 5   0  0.1305088E-08  0.3799185E+04  0.7818609E-02  0.8046330E-01
       -2   -1    0    0    0  501  0.00000000000E+00  0.00000000000E+00  0.20317009013E+04  0.20317009013E+04  0.25500000920E-02 0. -1.
        2   -1    0    0  501    0  0.00000000000E+00  0.00000000000E+00 -0.17760743190E+04  0.17760743190E+04  0.25500000920E-02 0.  1.
    10030    2    1    2    0    0  0.00000000000E+00  0.00000000000E+00  0.25562658224E+03  0.38077752203E+04  0.37991850678E+04 0.  0.
        3    1    3    3  502    0 -0.17294903778E+03 -0.48251734695E+03  0.19610792858E+04  0.20269598751E+04  0.10100000352E+00 0. -1.
       -3    1    3    3    0  502  0.17294903778E+03  0.48251734695E+03 -0.17054527035E+04  0.17808153453E+04  0.10100000352E+00 0.  1.
</event>
<event>
 5   0  0.4071750E-09  0.3801158E+04  0.7818609E-02  0.8045906E-01
        1   -1    0    0  501    0  0.00000000000E+00  0.00000000000E+00  0.16680724434E+04  0.16680724434E+04  0.50400001928E-02 0. -1.
       -1   -1    0    0    0  501  0.00000000000E+00  0.00000000000E+00 -0.21654937551E+04  0.21654937552E+04  0.50400001928E-02 0.  1.
    10030    2    1    2    0    0  0.00000000000E+00  0.00000000000E+00 -0.49742131176E+03  0.38335661985E+04  0.38011579601E+04 0.  0.
        2    1    3    3  502    0  0.15258514710E+04  0.97930436132E+03  0.32618511799E+03  0.18421879586E+04  0.25500000920E-02 0. -1.
       -2    1    3    3    0  502 -0.15258514710E+04 -0.97930436132E+03 -0.82360642975E+03  0.19913782400E+04  0.25500000920E-02 0.  1.
</event>
<event>
 5   0  0.4071750E-09  0.3799478E+04  0.7818609E-02  0.8046267E-01
        1   -1    0    0  501    0  0.00000000000E+00  0.00000000000E+00  0.14915950114E+04  0.14915950115E+04  0.50400001928E-02 0. -1.
       -1   -1    0    0    0  501  0.00000000000E+00  0.00000000000E+00 -0.24195631052E+04  0.24195631052E+04  0.50400001928E-02 0.  1.
    10030    2    1    2    0    0  0.00000000000E+00  0.00000000000E+00 -0.92796809377E+03  0.39111581167E+04  0.37994779945E+04 0.  0.
        1    1    3    3  502    0 -0.12684884576E+04 -0.90653392399E+03 -0.15813107384E+04  0.22206779086E+04  0.50400001928E-02 0.  1.
       -1    1    3    3    0  502  0.12684884576E+04  0.90653392399E+03  0.65334264468E+03  0.16904802080E+04  0.50400001928E-02 0. -1.
</event>
<event>
 5   0  0.4071750E-09  0.3804807E+04  0.7818609E-02  0.8045124E-01
       -3   -1    0    0    0  501  0.00000000000E+00  0.00000000000E+00  0.26188247505E+04  0.26188247525E+04  0.10100000352E+00 0. -1.
        3   -1    0    0  501    0  0.00000000000E+00  0.00000000000E+00 -0.13819708550E+04  0.13819708587E+04  0.10100000352E+00 0.  1.
    10030    2    1    2    0    0  0.00000000000E+00  0.00000000000E+00  0.12368538955E+04  0.40007956112E+04  0.38048072177E+04 0.  0.
        4    1    3    3  502    0 -0.97990301475E+03 -0.13510003669E+04  0.15785466300E+04  0.22972207090E+04  0.12699999809E+01 0. -1.
       -4    1    3    3    0  502  0.97990301475E+03  0.13510003669E+04 -0.34169273450E+03  0.17035749022E+04  0.12699999809E+01 0.  1.
</event>
<event>
 5   0  0.1327249E-08  0.3801049E+04  0.7818609E-02  0.8045930E-01
       -2   -1    0    0    0  501  0.00000000000E+00  0.00000000000E+00  0.17838888725E+04  0.17838888725E+04  0.25500000920E-02 0.  1.
        2   -1    0    0  501    0  0.00000000000E+00  0.00000000000E+00 -0.20247858262E+04  0.20247858262E+04  0.25500000920E-02 0. -1.
    10030    2    1    2    0    0  0.00000000000E+00  0.00000000000E+00 -0.24089695372E+03  0.38086746987E+04  0.38010487524E+04 0.  0.
        1    1    3    3  502    0 -0.14930895681E+04  0.25571222833E+03 -0.12704826874E+04  0.19770764935E+04  0.50400001928E-02 0. -1.
       -1    1    3    3    0  502  0.14930895681E+04 -0.25571222833E+03  0.10295857337E+04  0.18315982052E+04  0.50400001928E-02 0.  1.
</event>
<event>
 5   0  0.1293993E-08  0.3799339E+04  0.7818609E-02  0.8046297E-01
       -2   -1    0    0    0  501  0.00000000000E+00  0.00000000000E+00  0.28158401370E+04  0.28158401370E+04  0.25500000920E-02 0. -1.
        2   -1    0    0  501    0  0.00000000000E+00  0.00000000000E+00 -0.12815872791E+04  0.12815872791E+04  0.25500000920E-02 0.  1.
    10030    2    1    2    0    0  0.00000000000E+00  0.00000000000E+00  0.15342528579E+04  0.40974274161E+04  0.37993393634E+04 0.  0.
        5    1    3    3  502    0  0.22398572679E+03 -0.18847167105E+04  0.85337693459E+03  0.20810096028E+04  0.46999998093E+01 0. -1.
       -5    1    3    3    0  502 -0.22398572679E+03  0.18847167105E+04  0.68087592330E+03  0.20164178132E+04  0.46999998093E+01 0.  1.
</event>
<event>
 5   0  0.1264013E-08  0.3800304E+04  0.7818609E-02  0.8046090E-01
        2   -1    0    0  501    0  0.00000000000E+00  0.00000000000E+00  0.20408004779E+04  0.20408004779E+04  0.25500000920E-02 0. -1.
       -2   -1    0    0    0  501  0.00000000000E+00  0.00000000000E+00 -0.17691964870E+04  0.17691964870E+04  0.25500000920E-02 0.  1.
    10030    2    1    2    0    0  0.00000000000E+00  0.00000000000E+00  0.27160399086E+03  0.38099969649E+04  0.38003036911E+04 0.  0.
        4    1    3    3  502    0  0.14694892777E+04  0.11807562807E+04 -0.10353540836E+03  0.18879367906E+04  0.12699999809E+01 0. -1.
       -4    1    3    3    0  502 -0.14694892777E+04 -0.11807562807E+04  0.37513939922E+03  0.19220601743E+04  0.12699999809E+01 0.  1.
</event>
<event>
 5   0  0.4071750E-09  0.3800301E+04  0.7818609E-02  0.8046090E-01
       -3   -1    0    0    0  501  0.00000000000E+00  0.00000000000E+00  0.21554184497E+04  0.21554184521E+04  0.10100000352E+00 0. -1.
        3   -1    0    0  501    0  0.00000000000E+00  0.00000000000E+00 -0.16751141838E+04  0.16751141868E+04  0.10100000352E+00 0.  1.
    10030    2    1    2    0    0  0.00000000000E+00  0.00000000000E+00  0.48030426594E+03  0.38305326389E+04  0.38003010551E+04 0.  0.
        2    1    3    3  502    0 -0.96402322366E+03 -0.14782875593E+04 -0.46964945770E+03  0.18262654509E+04  0.25500000920E-02 0.  1.
       -2    1    3    3    0  502  0.96402322366E+03  0.14782875593E+04  0.94995372364E+03  0.20042671880E+04  0.25500000920E-02 0. -1.
</event>
<event>
 5   0  0.4071750E-09  0.3801780E+04  0.7818609E-02  0.8045773E-01
       -1   -1    0    0    0  501  0.00000000000E+00  0.00000000000E+00  0.18176238147E+04  0.18176238147E+04  0.50400001928E-02 0.  1.
        1   -1    0    0  501    0  0.00000000000E+00  0.00000000000E+00 -0.19879703080E+04  0.19879703080E+04  0.50400001928E-02 0. -1.
    10030    2    1    2    0    0  0.00000000000E+00  0.00000000000E+00 -0.17034649332E+03  0.38055941228E+04  0.38017796753E+04 0.  0.
        3    1    3    3  502    0 -0.11200551360E+04 -0.10923505057E+03 -0.16186784525E+04  0.19714400185E+04  0.10100000352E+00 0. -1.
       -3    1    3    3    0  502  0.11200551360E+04  0.10923505057E+03  0.14483319592E+04  0.18341541042E+04  0.10100000352E+00 0.  1.
</event>
<event>
 5   0  0.4071750E-09  0.3788702E+04  0.7818609E-02  0.8048584E-01
        1   -1    0    0  501    0  0.00000000000E+00  0.00000000000E+00  0.15303885092E+04  0.15303885092E+04  0.50400001928E-02 0.  1.
       -1   -1    0    0    0  501  0.00000000000E+00  0.00000000000E+00 -0.23448719835E+04  0.23448719835E+04  0.50400001928E-02 0. -1.
    10030    2    1    2    0    0  0.00000000000E+00  0.00000000000E+00 -0.81448347429E+03  0.38752604927E+04  0.37887016980E+04 0.  0.
        2    1    3    3  502    0  0.13403321259E+04 -0.12984653052E+04 -0.74035505517E+03  0.20076423896E+04  0.25500000920E-02 0. -1.
       -2    1    3    3    0  502 -0.13403321259E+04  0.12984653052E+04 -0.74128419120E+02  0.18676181031E+04  0.25500000920E-02 0.  1.
</event>
<event>
 5   0  0.4071750E-09  0.3801817E+04  0.7818609E-02  0.8045765E-01
        1   -1    0    0  501    0  0.00000000000E+00  0.00000000000E+00  0.14614174249E+04  0.14614174249E+04  0.50400001928E-02 0.  1.
       -1   -1    0    0    0  501  0.00000000000E+00  0.00000000000E+00 -0.24725668534E+04  0.24725668534E+04  0.50400001928E-02 0. -1.
    10030    2    1    2    0    0  0.00000000000E+00  0.00000000000E+00 -0.10111494285E+04  0.39339842783E+04  0.38018165572E+04 0.  0.
        2    1    3    3  502    0 -0.19724721583E+03 -0.18147144951E+04 -0.10544458818E+04  0.21080681395E+04  0.25500000920E-02 0. -1.
       -2    1    3    3    0  502  0.19724721583E+03  0.18147144951E+04  0.43296453316E+02  0.18259161388E+04  0.25500000920E-02 0.  1.
</event>
<event>
 5   0  0.4071750E-09  0.3800888E+04  0.7818609E-02  0.8045964E-01
        1   -1    0    0  501    0  0.00000000000E+00  0.00000000000E+00  0.11054965257E+04  0.11054965257E+04  0.50400001928E-02 0. -1.
       -1   -1    0    0    0  501  0.00000000000E+00  0.00000000000E+00 -0.32670275825E+04  0.32670275825E+04  0.50400001928E-02 0.  1.
    10030    2    1    2    0    0  0.00000000000E+00  0.00000000000E+00 -0.21615310567E+04  0.43725241082E+04  0.38008881288E+04 0.  0.
        5    1    3    3  502    0  0.16886738666E+04 -0.70341396904E+03 -0.48827850475E+03  0.18933696490E+04  0.46999998093E+01 0. -1.
       -5    1    3    3    0  502 -0.16886738666E+04  0.70341396904E+03 -0.16732525520E+04  0.24791544592E+04  0.46999998093E+01 0.  1.
</event>
<event>
 5   0  0.1327249E-08  0.3799288E+04  0.7818609E-02  0.8046308E-01
       -2   -1    0    0    0  501  0.00000000000E+00  0.00000000000E+00  0.13974468535E+04  0.13974468535E+04  0.25500000920E-02 0. -1.
        2   -1    0    0  501    0  0.00000000000E+00  0.00000000000E+00 -0.25823148486E+04  0.25823148486E+04  0.25500000920E-02 0.  1.
    10030    2    1    2    0    0  0.00000000000E+00  0.00000000000E+00 -0.11848679951E+04  0.39797617021E+04  0.37992882280E+04 0.  0.
        1    1    3    3  502    0  0.16977422231E+04 -0.60381362640E+03  0.37573931180E+02  0.18023127786E+04  0.50400001928E-02 0. -1.
       -1    1    3    3    0  502 -0.16977422231E+04  0.60381362640E+03 -0.12224419262E+04  0.21774489235E+04  0.50400001928E-02 0.  1.
</event>
<event>
 5   0  0.4071750E-09  0.3799942E+04  0.7818609E-02  0.8046167E-01
       -1   -1    0    0    0  501  0.00000000000E+00  0.00000000000E+00  0.17458779850E+04  0.17458779850E+04  0.50400001928E-02 0. -1.
        1   -1    0    0  501    0  0.00000000000E+00  0.00000000000E+00 -0.20676640231E+04  0.20676640231E+04  0.50400001928E-02 0.  1.
    10030    2    1    2    0    0  0.00000000000E+00  0.00000000000E+00 -0.32178603816E+03  0.38135420081E+04  0.37999416303E+04 0.  0.
        4    1    3    3  502    0  0.33561186593E+03  0.17366823450E+04  0.53526586308E+03  0.18480292338E+04  0.12699999809E+01 0. -1.
       -4    1    3    3    0  502 -0.33561186593E+03 -0.17366823450E+04 -0.85705190124E+03  0.19655127744E+04  0.12699999809E+01 0.  1.
</event>
<event>
 5   0  0.4071750E-09  0.3800592E+04  0.7818609E-02  0.8046028E-01
       -1   -1    0    0    0  501  0.00000000000E+00  0.00000000000E+00  0.16680231473E+04  0.16680231473E+04  0.50400001928E-02 0.  1.
        1   -1    0    0  501    0  0.00000000000E+00  0.00000000000E+00 -0.21649132092E+04  0.21649132092E+04  0.50400001928E-02 0. -1.
    10030    2    1    2    0    0  0.00000000000E+00  0.00000000000E+00 -0.49689006191E+03  0.38329363565E+04  0.38005922406E+04 0.  0.
        1    1    3    3  502    0 -0.51428507581E+03  0.14245400690E+04  0.90906901523E+03  0.17664116230E+04  0.50400001928E-02 0.  1.
       -1    1    3    3    0  502  0.51428507581E+03 -0.14245400690E+04 -0.14059590771E+04  0.20665247335E+04  0.50400001928E-02 0. -1.
</event>
<event>
 5   0  0.1264013E-08  0.3799781E+04  0.7818609E-02  0.8046202E-01
        2   -1    0    0  501    0  0.00000000000E+00  0.00000000000E+00  0.27475558668E+04  0.27475558668E+04  0.25500000920E-02 0.  1.
       -2   -1    0    0    0  501  0.00000000000E+00  0.00000000000E+00 -0.13137432781E+04  0.13137432781E+04  0.25500000920E-02 0. -1.
    10030    2    1    2    0    0  0.00000000000E+00  0.00000000000E+00  0.14338125888E+04  0.40612991449E+04  0.37997805469E+04 0.  0.
        4    1    3    3  502    0  0.62793748042E+03 -0.15105958819E+04 -0.31570004965E+03  0.16660952950E+04  0.12699999809E+01 0. -1.
       -4    1    3    3    0  502 -0.62793748042E+03  0.15105958819E+04  0.17495126384E+04  0.23952038499E+04  0.12699999809E+01 0.  1.
</event>
<event>
 5   0  0.4071750E-09  0.3799080E+04  0.7818609E-02  0.8046352E-01
        1   -1    0    0  501    0  0.00000000000E+00  0.00000000000E+00  0.15947500541E+04  0.15947500541E+04  0.50400001928E-02 0. -1.
       -1   -1    0    0    0  501  0.00000000000E+00  0.00000000000E+00 -0.22625812907E+04  0.22625812907E+04  0.50400001928E-02 0.  1.
    10030    2    1    2    0    0  0.00000000000E+00  0.00000000000E+00 -0.66783123655E+03  0.38573313448E+04  0.37990796968E+04 0.  0.
        5    1    3    3  502    0  0.11913365186E+03 -0.22216124292E+03  0.15776848445E+04  0.15977046046E+04  0.46999998093E+01 0. -1.
       -5    1    3    3    0  502 -0.11913365186E+03  0.22216124292E+03 -0.22455160811E+04  0.22596267402E+04  0.46999998093E+01 0.  1.
</event>
<event>
 5   0  0.4071750E-09  0.3802500E+04  0.7818609E-02  0.8045619E-01
        3   -1    0    0  501    0  0.00000000000E+00  0.00000000000E+00  0.17145434258E+04  0.17145434287E+04  0.10100000352E+00 0. -1.
       -3   -1    0    0    0  501  0.00000000000E+00  0.00000000000E+00 -0.21082877066E+04  0.21082877090E+04  0.10100000352E+00 0.  1.
    10030    2    1    2    0    0  0.00000000000E+00  0.00000000000E+00 -0.39374428080E+03  0.38228311377E+04  0.38024996185E+04 0.  0.
        4    1    3    3  502    0 -0.68716394560E+03  0.19221355152E+01 -0.19790749318E+04  0.20949790408E+04  0.12699999809E+01 0.  1.
       -4    1    3    3    0  502  0.68716394560E+03 -0.19221355152E+01  0.15853306510E+04  0.17278520969E+04  0.12699999809E+01 0. -1.
</event>
<event>
 5   0  0.4071750E-09  0.3794124E+04  0.7818609E-02  0.8047417E-01
       -1   -1    0    0    0  501  0.00000000000E+00  0.00000000000E+00  0.26603457855E+04  0.26603457855E+04  0.50400001928E-02 0.  1.
        1   -1    0    0  501    0  0.00000000000E+00  0.00000000000E+00 -0.13527730521E+04  0.13527730521E+04  0.50400001928E-02 0. -1.
    10030    2    1    2    0    0  0.00000000000E+00  0.00000000000E+00  0.13075727334E+04  0.40131188376E+04  0.37941239242E+04 0.  0.
        4    1    3    3  502    0  0.11941560097E+04 -0.60564110863E+03  0.20752420327E+04  0.24697046049E+04  0.12699999809E+01 0.  1.
       -4    1    3    3    0  502 -0.11941560097E+04  0.60564110863E+03 -0.76766929939E+03  0.15434142328E+04  0.12699999809E+01 0. -1.
</event>
<event>
 5   0  0.1327249E-08  0.3798112E+04  0.7818609E-02  0.8046560E-01
       -2   -1    0    0    0  501  0.00000000000E+00  0.00000000000E+00  0.19707436512E+04  0.19707436512E+04  0.25500000920E-02 0. -1.
        2   -1    0    0  501    0  0.00000000000E+00  0.00000000000E+00 -0.18299763806E+04  0.18299763806E+04  0.25500000920E-02 0.  1.
    10030    2    1    2    0    0  0.00000000000E+00  0.00000000000E+00  0.14076727059E+03  0.38007200318E+04  0.37981123385E+04 0.  0.
        1    1    3    3  502    0  0.11103393297E+04  0.11815952929E+04  0.10596945274E+04  0.19370011241E+04  0.50400001928E-02 0. -1.
       -1    1    3    3    0  502 -0.11103393297E+04 -0.11815952929E+04 -0.91892725686E+03  0.18637189077E+04  0.50400001928E-02 0.  1.
</event>
<event>
 5   0  0.4071750E-09  0.3800010E+04  0.7818609E-02  0.8046153E-01
       -1   -1    0    0    0  501  0.00000000000E+00  0.00000000000E+00  0.14051813659E+04  0.14051813659E+04  0.50400001928E-02 0. -1.
        1   -1    0    0  501    0  0.00000000000E+00  0.00000000000E+00 -0.25690763864E+04  0.25690763864E+04  0.50400001928E-02 0.  1.
    10030    2    1    2    0    0  0.00000000000E+00  0.00000000000E+00 -0.11638950206E+04  0.39742577523E+04  0.38000096135E+04 0.  0.
        4    1    3    3  502    0 -0.12115959189E+04  0.88636746155E+03  0.63610490860E+03  0.16304119158E+04  0.12699999809E+01 0. -1.
       -4    1    3    3    0  502  0.12115959189E+04 -0.88636746155E+03 -0.17999999292E+04  0.23438458365E+04  0.12699999809E+01 0.  1.
</event>
<event>
 5   0  0.1327249E-08  0.3791483E+04  0.7818609E-02  0.8047985E-01
       -2   -1    0    0    0  501  0.00000000000E+00  0.00000000000E+00  0.19812545666E+04  0.19812545666E+04  0.25500000920E-02 0. -1.
        2   -1    0    0  501    0  0.00000000000E+00  0.00000000000E+00 -0.18139197409E+04  0.18139197409E+04  0.25500000920E-02 0.  1.
    10030    2    1    2    0    0  0.00000000000E+00  0.00000000000E+00  0.16733482575E+03  0.37951743075E+04  0.37914834934E+04 0.  0.
        1    1    3    3  502    0  0.15778638272E+04  0.74328139077E+03  0.82716586118E+03  0.19303690956E+04  0.50400001928E-02 0. -1.
       -1    1    3    3    0  502 -0.15778638272E+04 -0.74328139077E+03 -0.65983103543E+03  0.18648052119E+04  0.50400001928E-02 0.  1.
</event>
<event>
 5   0  0.1305088E-08  0.3799745E+04  0.7818609E-02  0.8046210E-01
       -2   -1    0    0    0  501  0.00000000000E+00  0.00000000000E+00  0.22496349297E+04  0.22496349297E+04  0.25500000920E-02 0.  1.
        2   -1    0    0  501    0  0.00000000000E+00  0.00000000000E+00 -0.16044892423E+04  0.16044892423E+04  0.25500000920E-02 0. -1.
    10030    2    1    2    0    0  0.00000000000E+00  0.00000000000E+00  0.64514568739E+03  0.38541241719E+04  0.37997447513E+04 0.  0.
        3    1    3    3  502    0  0.14843723160E+04  0.31423494549E+03 -0.83721145061E+03  0.17329246367E+04  0.10100000352E+00 0. -1.
       -3    1    3    3    0  502 -0.14843723160E+04 -0.31423494549E+03  0.14823571380E+04  0.21211995352E+04  0.10100000352E+00 0.  1.
</event>
<event>
 5   0  0.1305088E-08  0.3800425E+04  0.7818609E-02  0.8046064E-01
        2   -1    0    0  501    0  0.00000000000E+00  0.00000000000E+00  0.12635597962E+04  0.12635597962E+04  0.25500000920E-02 0. -1.
       -2   -1    0    0    0  501  0.00000000000E+00  0.00000000000E+00 -0.28576469705E+04  0.28576469705E+04  0.25500000920E-02 0.  1.
    10030    2    1    2    0    0  0.00000000000E+00  0.00000000000E+00 -0.15940871743E+04  0.41212067667E+04  0.38004251465E+04 0.  0.
        3    1    3    3  502    0  0.51592876033E+03 -0.18240367478E+04 -0.94055969308E+03  0.21161155662E+04  0.10100000352E+00 0.  1.
       -3    1    3    3    0  502 -0.51592876033E+03  0.18240367478E+04 -0.65352748117E+03  0.20050912004E+04  0.10100000352E+00 0. -1.
</event>
<event>
 5   0  0.4071750E-09  0.3798777E+04  0.7818609E-02  0.8046417E-01
        1   -1    0    0  501    0  0.00000000000E+00  0.00000000000E+00  0.16132997729E+04  0.16132997729E+04  0.50400001928E-02 0. -1.
       -1   -1    0    0    0  501  0.00000000000E+00  0.00000000000E+00 -0.22362097753E+04  0.22362097753E+04  0.50400001928E-02 0.  1.
    10030    2    1    2    0    0  0.00000000000E+00  0.00000000000E+00 -0.62291000237E+03  0.38495095482E+04  0.37987770256E+04 0.  0.
        1    1    3    3  502    0  0.12472657647E+04  0.88723083645E+02 -0.17602808253E+04  0.21591971326E+04  0.50400001928E-02 0.  1.
       -1    1    3    3    0  502 -0.12472657647E+04 -0.88723083645E+02  0.11373708230E+04  0.16903124156E+04  0.50400001928E-02 0. -1.
</event>
<event>
 5   0  0.4071750E-09  0.3793923E+04  0.7818609E-02  0.8047460E-01
        1   -1    0    0  501    0  0.00000000000E+00  0.00000000000E+00  0.27709377912E+04  0.27709377912E+04  0.50400001928E-02 0.  1.
       -1   -1    0    0    0  501  0.00000000000E+00  0.00000000000E+00 -0.12986447656E+04  0.12986447657E+04  0.50400001928E-02 0. -1.
    10030    2    1    2    0    0  0.00000000000E+00  0.00000000000E+00  0.14722930255E+04  0.40695825568E+04  0.37939234881E+04 0.  0.
        5    1    3    3  502    0 -0.58912648277E+03  0.18075578401E+03  0.26605737026E+04  0.27310102862E+04  0.46999998093E+01 0.  1.
       -5    1    3    3    0  502  0.58912648277E+03 -0.18075578401E+03 -0.11882806771E+04  0.13385722706E+04  0.46999998093E+01 0. -1.
</event>
<event>
 5   0  0.1305088E-08  0.3800769E+04  0.7818609E-02  0.8045990E-01
       -2   -1    0    0    0  501  0.00000000000E+00  0.00000000000E+00  0.26478783370E+04  0.26478783370E+04  0.25500000920E-02 0.  1.
        2   -1    0    0  501    0  0.00000000000E+00  0.00000000000E+00 -0.13639072483E+04  0.13639072483E+04  0.25500000920E-02 0. -1.
    10030    2    1    2    0    0  0.00000000000E+00  0.00000000000E+00  0.12839710888E+04  0.40117855853E+04  0.38007685835E+04 0.  0.
        3    1    3    3  502    0  0.62754490302E+03  0.30399623309E+03 -0.12239969507E+04  0.14086855080E+04  0.10100000352E+00 0. -1.
       -3    1    3    3    0  502 -0.62754490302E+03 -0.30399623309E+03  0.25079680395E+04  0.26031000773E+04  0.10100000352E+00 0.  1.
</event>
<event>
 5   0  0.4071750E-09  0.3804346E+04  0.7818609E-02  0.8045223E-01
       -1   -1    0    0    0  501  0.00000000000E+00  0.00000000000E+00  0.16422781343E+04  0.16422781343E+04  0.50400001928E-02 0.  1.
        1   -1    0    0  501    0  0.00000000000E+00  0.00000000000E+00 -0.22031972373E+04  0.22031972373E+04  0.50400001928E-02 0. -1.
    10030    2    1    2    0    0  0.00000000000E+00  0.00000000000E+00 -0.56091910304E+03  0.38454753716E+04  0.38043462768E+04 0.  0.
        5    1    3    3  502    0 -0.40654186716E+03 -0.12103862689E+04  0.11447229022E+04  0.17148538779E+04  0.46999998093E+01 0.  1.
       -5    1    3    3    0  502  0.40654186716E+03  0.12103862689E+04 -0.17056420052E+04  0.21306214938E+04  0.46999998093E+01 0. -1.
</event>
<event>
 5   0  0.1261152E-08  0.3800421E+04  0.7818609E-02  0.8046065E-01
       -2   -1    0    0    0  501  0.00000000000E+00  0.00000000000E+00  0.12896933608E+04  0.12896933608E+04  0.25500000920E-02 0. -1.
        2   -1    0    0  501    0  0.00000000000E+00  0.00000000000E+00 -0.27997354336E+04  0.27997354336E+04  0.25500000920E-02 0.  1.
    10030    2    1    2    0    0  0.00000000000E+00  0.00000000000E+00 -0.15100420728E+04  0.40894287944E+04  0.38004211349E+04 0.  0.
        2    1    3    3  502    0 -0.15943494241E+04  0.74483533767E+03 -0.15265322442E+04  0.23295987764E+04  0.25500000920E-02 0.  1.
       -2    1    3    3    0  502  0.15943494241E+04 -0.74483533767E+03  0.16490171439E+02  0.17598300180E+04  0.25500000920E-02 0. -1.
</event>
<event>
 5   0  0.4071750E-09  0.3794436E+04  0.7818609E-02  0.8047350E-01
        1   -1    0    0  501    0  0.00000000000E+00  0.00000000000E+00  0.23008465530E+04  0.23008465530E+04  0.50400001928E-02 0.  1.
       -1   -1    0    0    0  501  0.00000000000E+00  0.00000000000E+00 -0.15643960620E+04  0.15643960620E+04  0.50400001928E-02 0. -1.
    10030    2    1    2    0    0  0.00000000000E+00  0.00000000000E+00  0.73645049100E+03  0.38652426150E+04  0.37944355505E+04 0.  0.
        3    1    3    3  502    0  0.13978493876E+04 -0.60763525746E+03  0.15190106698E+04  0.21518821858E+04  0.10100000352E+00 0.  1.
       -3    1    3    3    0  502 -0.13978493876E+04  0.60763525746E+03 -0.78256017884E+03  0.17133604291E+04  0.10100000352E+00 0. -1.
</event>
<event>
 5   0  0.4071750E-09  0.3799549E+04  0.7818609E-02  0.8046252E-01
       -1   -1    0    0    0  501  0.00000000000E+00  0.00000000000E+00  0.29452425199E+04  0.29452425199E+04  0.50400001928E-02 0. -1.
        1   -1    0    0  501    0  0.00000000000E+00  0.00000000000E+00 -0.12254143825E+04  0.12254143825E+04  0.50400001928E-02 0.  1.
    10030    2    1    2    0    0  0.00000000000E+00  0.00000000000E+00  0.17198281374E+04  0.41706569025E+04  0.37995486806E+04 0.  0.
        3    1    3    3  502    0  0.27737936944E+03 -0.18575148864E+04  0.54589235322E+03  0.19558372477E+04  0.10100000352E+00 0.  1.
       -3    1    3    3    0  502 -0.27737936944E+03  0.18575148864E+04  0.11739357842E+04  0.22148196548E+04  0.10100000352E+00 0. -1.
</event>
<event>
 5   0  0.4071750E-09  0.3799599E+04  0.7818609E-02  0.8046241E-01
       -1   -1    0    0    0  501  0.00000000000E+00  0.00000000000E+00  0.17797567396E+04  0.17797567396E+04  0.50400001928E-02 0. -1.
        1   -1    0    0  501    0  0.00000000000E+00  0.00000000000E+00 -0.20279385414E+04  0.20279385414E+04  0.50400001928E-02 0.  1.
    10030    2    1    2    0    0  0.00000000000E+00  0.00000000000E+00 -0.24818180176E+03  0.38076952810E+04  0.37995985507E+04 0.  0.
        4    1    3    3  502    0 -0.88749838626E+03 -0.11045480975E+04 -0.13923135592E+04  0.19865091355E+04  0.12699999809E+01 0.  1.
       -4    1    3    3    0  502  0.88749838626E+03  0.11045480975E+04  0.11441317575E+04  0.18211861455E+04  0.12699999809E+01 0. -1.
</event>
<event>
 5   0  0.1264013E-08  0.3801288E+04  0.7818609E-02  0.8045879E-01
       -2   -1    0    0    0  501  0.00000000000E+00  0.00000000000E+00  0.18039736782E+04  0.18039736782E+04  0.25500000920E-02 0. -1.
        2   -1    0    0  501    0  0.00000000000E+00  0.00000000000E+00 -0.20024941928E+04  0.20024941928E+04  0.25500000920E-02 0.  1.
    10030    2    1    2    0    0  0.00000000000E+00  0.00000000000E+00 -0.19852051461E+03  0.38064678711E+04  0.38012875791E+04 0.  0.
        4    1    3    3  502    0  0.15155156850E+04  0.79370197439E+03 -0.92845550065E+03  0.19464793462E+04  0.12699999809E+01 0.  1.
       -4    1    3    3    0  502 -0.15155156850E+04 -0.79370197439E+03  0.72993498604E+03  0.18599885248E+04  0.12699999809E+01 0. -1.
</event>
<event>
 5   0  0.4071750E-09  0.3803599E+04  0.7818609E-02  0.8045383E-01
        1   -1    0    0  501    0  0.00000000000E+00  0.00000000000E+00  0.31748671985E+04  0.31748671985E+04  0.50400001928E-02 0.  1.
       -1   -1    0    0    0  501  0.00000000000E+00  0.00000000000E+00 -0.11392103014E+04  0.11392103014E+04  0.50400001928E-02 0. -1.
    10030    2    1    2    0    0  0.00000000000E+00  0.00000000000E+00  0.20356568971E+04  0.43140774999E+04  0.38035990420E+04 0.  0.
        3    1    3    3  502    0 -0.58493390597E+03 -0.18029849959E+04  0.84234153032E+03  0.20742328302E+04  0.10100000352E+00 0.  1.
       -3    1    3    3    0  502  0.58493390597E+03  0.18029849959E+04  0.11933153668E+04  0.22398446698E+04  0.10100000352E+00 0. -1.
</event>
<event>
 5   0  0.4071750E-09  0.3797942E+04  0.7818609E-02  0.8046597E-01
        1   -1    0    0  501    0  0.00000000000E+00  0.00000000000E+00  0.20031102618E+04  0.20031102618E+04  0.50400001928E-02 0.  1.
       -1   -1    0    0    0  501  0.00000000000E+00  0.00000000000E+00 -0.18002455195E+04  0.18002455195E+04  0.50400001928E-02 0. -1.
    10030    2    1    2    0    0  0.00000000000E+00  0.00000000000E+00  0.20286474230E+03  0.38033557813E+04  0.37979416919E+04 0.  0.
        5    1    3    3  502    0  0.99429798656E+03 -0.15205242362E+04  0.65489168427E+03  0.19311985002E+04  0.46999998093E+01 0. -1.
       -5    1    3    3    0  502 -0.99429798656E+03  0.15205242362E+04 -0.45202694198E+03  0.18721572811E+04  0.46999998093E+01 0.  1.
</event>
<event>
 5   0  0.4071750E-09  0.3800336E+04  0.7818609E-02  0.8046083E-01
       -1   -1    0    0    0  501  0.00000000000E+00  0.00000000000E+00  0.20590805437E+04  0.20590805437E+04  0.50400001928E-02 0.  1.
        1   -1    0    0  501    0  0.00000000000E+00  0.00000000000E+00 -0.17535195208E+04  0.17535195208E+04  0.50400001928E-02 0. -1.
    10030    2    1    2    0    0  0.00000000000E+00  0.00000000000E+00  0.30556102288E+03  0.38126000645E+04  0.38003357369E+04 0.  0.
        4    1    3    3  502    0  0.78772120759E+03 -0.12205136258E+04  0.13816736415E+04  0.20047897336E+04  0.12699999809E+01 0.  1.
       -4    1    3    3    0  502 -0.78772120759E+03  0.12205136258E+04 -0.10761126186E+04  0.18078103309E+04  0.12699999809E+01 0. -1.
</event>
<event>
 5   0  0.1261152E-08  0.3800994E+04  0.7818609E-02  0.8045942E-01
        2   -1    0    0  501    0  0.00000000000E+00  0.00000000000E+00  0.15281677263E+04  0.15281677263E+04  0.25500000920E-02 0. -1.
       -2   -1    0    0    0  501  0.00000000000E+00  0.00000000000E+00 -0.23635420659E+04  0.23635420659E+04  0.25500000920E-02 0.  1.
    10030    2    1    2    0    0  0.00000000000E+00  0.00000000000E+00 -0.83537433959E+03  0.38917097922E+04  0.38009939252E+04 0.  0.
        2    1    3    3  502    0 -0.84493806919E+03 -0.18557794510E+02  0.13251799815E+04  0.15717400281E+04  0.25500000920E-02 0. -1.
       -2    1    3    3    0  502  0.84493806919E+03  0.18557794510E+02 -0.21605543210E+04  0.23199697642E+04  0.25500000920E-02 0.  1.
</event>
<event>
 5   0  0.1264013E-08  0.3800163E+04  0.7818609E-02  0.8046120E-01
       -2   -1    0    0    0  501  0.00000000000E+00  0.00000000000E+00  0.23318769151E+04  0.23318769151E+04  0.25500000920E-02 0.  1.
        2   -1    0    0  501    0  0.00000000000E+00  0.00000000000E+00 -0.15482422457E+04  0.15482422457E+04  0.25500000920E-02 0. -1.
    10030    2    1    2    0    0  0.00000000000E+00  0.00000000000E+00  0.78363466942E+03  0.38801191609E+04  0.38001633396E+04 0.  0.
        4    1    3    3  502    0  0.10264941310E+04  0.54772099668E+03 -0.11419943416E+04  0.16302886801E+04  0.12699999809E+01 0. -1.
       -4    1    3    3    0  502 -0.10264941310E+04 -0.54772099668E+03  0.19256290111E+04  0.22498304808E+04  0.12699999809E+01 0.  1.
</event>
<event>
 5   0  0.1264013E-08  0.3799620E+04  0.7818609E-02  0.8046236E-01
        2   -1    0    0  501    0  0.00000000000E+00  0.00000000000E+00  0.19755335979E+04  0.19755335979E+04  0.25500000920E-02 0. -1.
       -2   -1    0    0    0  501  0.00000000000E+00  0.00000000000E+00 -0.18269892529E+04  0.18269892529E+04  0.25500000920E-02 0.  1.
    10030    2    1    2    0    0  0.00000000000E+00  0.00000000000E+00  0.14854434498E+03  0.38025228508E+04  0.37996203243E+04 0.  0.
        4    1    3    3  502    0  0.13709835677E+04  0.42150373918E+02 -0.12412297621E+04  0.18498717610E+04  0.12699999809E+01 0.  1.
       -4    1    3    3    0  502 -0.13709835677E+04 -0.42150373918E+02  0.13897741071E+04  0.19526510898E+04  0.12699999809E+01 0. -1.
</event>
<event>
 5   0  0.4071750E-09  0.3802486E+04  0.7818609E-02  0.8045622E-01
       -1   -1    0    0    0  501  0.00000000000E+00  0.00000000000E+00  0.19679601345E+04  0.19679601345E+04  0.50400001928E-02 0.  1.
        1   -1    0    0  501    0  0.00000000000E+00  0.00000000000E+00 -0.18367878035E+04  0.18367878036E+04  0.50400001928E-02 0. -1.
    10030    2    1    2    0    0  0.00000000000E+00  0.00000000000E+00  0.13117233096E+03  0.38047479381E+04  0.38024861199E+04 0.  0.
        4    1    3    3  502    0 -0.14135067327E+04 -0.29235413646E+03  0.13037596324E+04  0.19450611857E+04  0.12699999809E+01 0.  1.
       -4    1    3    3    0  502  0.14135067327E+04  0.29235413646E+03 -0.11725873014E+04  0.18596867523E+04  0.12699999809E+01 0. -1.
</event>
<event>
 5   0  0.1261152E-08  0.3801089E+04  0.7818609E-02  0.8045921E-01
       -2   -1    0    0    0  501  0.00000000000E+00  0.00000000000E+00  0.12345288843E+04  0.12345288843E+04  0.25500000920E-02 0.  1.
        2   -1    0    0  501    0  0.00000000000E+00  0.00000000000E+00 -0.29258691380E+04  0.29258691380E+04  0.25500000920E-02 0. -1.
    10030    2    1    2    0    0  0.00000000000E+00  0.00000000000E+00 -0.16913402537E+04  0.41603980223E+04  0.38010892978E+04 0.  0.
        2    1    3    3  502    0  0.71068170405E+02  0.46590585520E+03  0.11695547698E+04  0.12609430242E+04  0.25500000920E-02 0.  1.
       -2    1    3    3    0  502 -0.71068170405E+02 -0.46590585520E+03 -0.28608950235E+04  0.28994549981E+04  0.25500000920E-02 0. -1.
</event>
<event>
 5   0  0.1264013E-08  0.3799977E+04  0.7818609E-02  0.8046160E-01
       -2   -1    0    0    0  501  0.00000000000E+00  0.00000000000E+00  0.22273137809E+04  0.22273137809E+04  0.25500000920E-02 0.  1.
        2   -1    0    0  501    0  0.00000000000E+00  0.00000000000E+00 -0.16207665244E+04  0.16207665244E+04  0.25500000920E-02 0. -1.
    10030    2    1    2    0    0  0.00000000000E+00  0.00000000000E+00  0.60654725659E+03  0.38480803053E+04  0.37999766396E+04 0.  0.
        4    1    3    3  502    0 -0.13967487061E+04  0.48998564763E+03 -0.90300726171E+03  0.17339021341E+04  0.12699999809E+01 0. -1.
       -4    1    3    3    0  502  0.13967487061E+04 -0.48998564763E+03  0.15095545183E+04  0.21141781712E+04  0.12699999809E+01 0.  1.
</event>
<event>
 5   0  0.1293993E-08  0.3796338E+04  0.7818609E-02  0.8046941E-01
       -2   -1    0    0    0  501  0.00000000000E+00  0.00000000000E+00  0.20614597028E+04  0.20614597028E+04  0.25500000920E-02 0.  1.
        2   -1    0    0  501    0  0.00000000000E+00  0.00000000000E+00 -0.17478128603E+04  0.17478128603E+04  0.25500000920E-02 0. -1.
    10030    2    1    2    0    0  0.00000000000E+00  0.00000000000E+00  0.31364684253E+03  0.38092725631E+04  0.37963381195E+04 0.  0.
        5    1    3    3  502    0 -0.71808798219E+03  0.20127968748E+03  0.19082962333E+04  0.20488485709E+04  0.46999998093E+01 0.  1.
       -5    1    3    3    0  502  0.71808798219E+03 -0.20127968748E+03 -0.15946493907E+04  0.17604239921E+04  0.46999998093E+01 0. -1.
</event>
<event>
 5   0  0.4071750E-09  0.3799511E+04  0.7818609E-02  0.8046260E-01
        1   -1    0    0  501    0  0.00000000000E+00  0.00000000000E+00  0.16801877190E+04  0.16801877190E+04  0.50400001928E-02 0.  1.
       -1   -1    0    0    0  501  0.00000000000E+00  0.00000000000E+00 -0.21480163836E+04  0.21480163836E+04  0.50400001928E-02 0. -1.
    10030    2    1    2    0    0  0.00000000000E+00  0.00000000000E+00 -0.46782866463E+03  0.38282041026E+04  0.37995108885E+04 0.  0.
        2    1    3    3  502    0 -0.18902362049E+04  0.30133986452E+02 -0.42286664827E+03  0.19371931163E+04  0.25500000920E-02 0. -1.
       -2    1    3    3    0  502  0.18902362049E+04 -0.30133986452E+02 -0.44962016361E+02  0.18910109863E+04  0.25500000920E-02 0.  1.
</event>
<event>
 5   0  0.1293993E-08  0.3798525E+04  0.7818609E-02  0.8046471E-01
       -2   -1    0    0    0  501  0.00000000000E+00  0.00000000000E+00  0.29130097692E+04  0.29130097692E+04  0.25500000920E-02 0.  1.
        2   -1    0    0  501    0  0.00000000000E+00  0.00000000000E+00 -0.12383064022E+04  0.12383064022E+04  0.25500000920E-02 0. -1.
    10030    2    1    2    0    0  0.00000000000E+00  0.00000000000E+00  0.16747033670E+04  0.41513161714E+04  0.37985253175E+04 0.  0.
        5    1    3    3  502    0  0.76821147277E+03  0.11792959549E+02  0.27355886386E+04  0.28414354172E+04  0.46999998093E+01 0.  1.
       -5    1    3    3    0  502 -0.76821147277E+03 -0.11792959549E+02 -0.10608852716E+04  0.13098807542E+04  0.46999998093E+01 0. -1.
</event>
<event>
 5   0  0.4071750E-09  0.3802103E+04  0.7818609E-02  0.8045704E-01
       -3   -1    0    0    0  501  0.00000000000E+00  0.00000000000E+00  0.21690050423E+04  0.21690050446E+04  0.10100000352E+00 0. -1.
        3   -1    0    0  501    0  0.00000000000E+00  0.00000000000E+00 -0.16662005493E+04  0.16662005523E+04  0.10100000352E+00 0.  1.
    10030    2    1    2    0    0  0.00000000000E+00  0.00000000000E+00  0.50280449301E+03  0.38352055970E+04  0.38021033143E+04 0.  0.
        1    1    3    3  502    0 -0.18823646531E+03 -0.25917908027E+03  0.21415872376E+04  0.21654105058E+04  0.50400001928E-02 0. -1.
       -1    1    3    3    0  502  0.18823646531E+03  0.25917908027E+03 -0.16387827446E+04  0.16697950911E+04  0.50400001928E-02 0.  1.
</event>
<event>
 5   0  0.4071750E-09  0.3800735E+04  0.7818609E-02  0.8045997E-01
       -1   -1    0    0    0  501  0.00000000000E+00  0.00000000000E+00  0.14392771775E+04  0.14392771775E+04  0.50400001928E-02 0. -1.
        1   -1    0    0  501    0  0.00000000000E+00  0.00000000000E+00 -0.25091737023E+04  0.25091737023E+04  0.50400001928E-02 0.  1.
    10030    2    1    2    0    0  0.00000000000E+00  0.00000000000E+00 -0.10698965248E+04  0.39484508798E+04  0.38007348995E+04 0.  0.
        2    1    3    3  502    0 -0.12610788569E+04 -0.12159422029E+04 -0.13001632989E+04  0.21815728106E+04  0.25500000920E-02 0.  1.
       -2    1    3    3    0  502  0.12610788569E+04  0.12159422029E+04  0.23026677411E+03  0.17668780692E+04  0.25500000920E-02 0. -1.
</event>
<event>
 5   0  0.1327249E-08  0.3798863E+04  0.7818609E-02  0.8046399E-01
        2   -1    0    0  501    0  0.00000000000E+00  0.00000000000E+00  0.28641448069E+04  0.28641448069E+04  0.25500000920E-02 0. -1.
       -2   -1    0    0    0  501  0.00000000000E+00  0.00000000000E+00 -0.12596569075E+04  0.12596569075E+04  0.25500000920E-02 0.  1.
    10030    2    1    2    0    0  0.00000000000E+00  0.00000000000E+00  0.16044878993E+04  0.41238017144E+04  0.37988628773E+04 0.  0.
        1    1    3    3  502    0 -0.48856846031E+03  0.45093842203E+03  0.27337032653E+04  0.28133926394E+04  0.50400001928E-02 0. -1.
       -1    1    3    3    0  502  0.48856846031E+03 -0.45093842203E+03 -0.11292153660E+04  0.13104090749E+04  0.50400001928E-02 0.  1.
</event>
<event>
 5   0  0.4071750E-09  0.3797412E+04  0.7818609E-02  0.8046711E-01
        1   -1    0    0  501    0  0.00000000000E+00  0.00000000000E+00  0.13759750881E+04  0.13759750881E+04  0.50400001928E-02 0. -1.
       -1   -1    0    0    0  501  0.00000000000E+00  0.00000000000E+00 -0.26200210629E+04  0.26200210629E+04  0.50400001928E-02 0.  1.
    10030    2    1    2    0    0  0.00000000000E+00  0.00000000000E+00 -0.12440459748E+04  0.39959961510E+04  0.37974115989E+04 0.  0.
        4    1    3    3  502    0 -0.12502154994E+04  0.13562778222E+04 -0.14842749665E+03  0.18505568514E+04  0.12699999809E+01 0. -1.
       -4    1    3    3    0  502  0.12502154994E+04 -0.13562778222E+04 -0.10956184781E+04  0.21454392996E+04  0.12699999809E+01 0.  1.
</event>
<event>
 5   0  0.1305088E-08  0.3799770E+04  0.7818609E-02  0.8046204E-01
        2   -1    0    0  501    0  0.00000000000E+00  0.00000000000E+00  0.26979099786E+04  0.26979099786E+04  0.25500000920E-02 0. -1.
       -2   -1    0    0    0  501  0.00000000000E+00  0.00000000000E+00 -0.13379105078E+04  0.13379105078E+04  0.25500000920E-02 0.  1.
    10030    2    1    2    0    0  0.00000000000E+00  0.00000000000E+00  0.13599994708E+04  0.40358204864E+04  0.37997695244E+04 0.  0.
        3    1    3    3  502    0 -0.32275591716E+03  0.44113535737E+03  0.26125928295E+04  0.26691596221E+04  0.10100000352E+00 0. -1.
       -3    1    3    3    0  502  0.32275591716E+03 -0.44113535737E+03 -0.12525933587E+04  0.13666608643E+04  0.10100000352E+00 0.  1.
</event>
<event>
 5   0  0.4071750E-09  0.3799952E+04  0.7818609E-02  0.8046165E-01
        1   -1    0    0  501    0  0.00000000000E+00  0.00000000000E+00  0.14394598472E+04  0.14394598472E+04  0.50400001928E-02 0.  1.
       -1   -1    0    0    0  501  0.00000000000E+00  0.00000000000E+00 -0.25078219957E+04  0.25078219957E+04  0.50400001928E-02 0. -1.
    10030    2    1    2    0    0  0.00000000000E+00  0.00000000000E+00 -0.10683621486E+04  0.39472818429E+04  0.37999521401E+04 0.  0.
        5    1    3    3  502    0 -0.88732637778E+03  0.75185558859E+03  0.10264851739E+04  0.15512346144E+04  0.46999998093E+01 0. -1.
       -5    1    3    3    0  502  0.88732637778E+03 -0.75185558859E+03 -0.20948473224E+04  0.23960472285E+04  0.46999998093E+01 0.  1.
</event>
<event>
 5   0  0.4071750E-09  0.3800427E+04  0.7818609E-02  0.8046063E-01
       -1   -1    0    0    0  501  0.00000000000E+00  0.00000000000E+00  0.13357832127E+04  0.13357832127E+04  0.50400001928E-02 0. -1.
        1   -1    0    0  501    0  0.00000000000E+00  0.00000000000E+00 -0.27031413235E+04  0.27031413235E+04  0.50400001928E-02 0.  1.
    10030    2    1    2    0    0  0.00000000000E+00  0.00000000000E+00 -0.13673581108E+04  0.40389245362E+04  0.38004267137E+04 0.  0.
        3    1    3    3  502    0  0.21902025650E+02  0.12596923037E+04  0.82809075045E+03  0.15076600081E+04  0.10100000352E+00 0. -1.
       -3    1    3    3    0  502 -0.21902025650E+02 -0.12596923037E+04 -0.21954488612E+04  0.25312645281E+04  0.10100000352E+00 0.  1.
</event>
<event>
 5   0  0.1261152E-08  0.3800518E+04  0.7818609E-02  0.8046044E-01
        2   -1    0    0  501    0  0.00000000000E+00  0.00000000000E+00  0.24681684481E+04  0.24681684481E+04  0.25500000920E-02 0. -1.
       -2   -1    0    0    0  501  0.00000000000E+00  0.00000000000E+00 -0.14630217611E+04  0.14630217611E+04  0.25500000920E-02 0.  1.
    10030    2    1    2    0    0  0.00000000000E+00  0.00000000000E+00  0.10051466870E+04  0.39311902092E+04  0.38005179381E+04 0.  0.
        2    1    3    3  502    0 -0.65497968624E+03  0.17707820561E+04  0.72518604197E+03  0.20225138504E+04  0.25500000920E-02 0.  1.
       -2    1    3    3    0  502  0.65497968624E+03 -0.17707820561E+04  0.27996064502E+03  0.19086763587E+04  0.25500000920E-02 0. -1.
</event>
<event>
 5   0  0.1293993E-08  0.3803230E+04  0.7818609E-02  0.8045462E-01
       -2   -1    0    0    0  501  0.00000000000E+00  0.00000000000E+00  0.12339678514E+04  0.12339678514E+04  0.25500000920E-02 0.  1.
        2   -1    0    0  501    0  0.00000000000E+00  0.00000000000E+00 -0.29304969075E+04  0.29304969075E+04  0.25500000920E-02 0. -1.
    10030    2    1    2    0    0  0.00000000000E+00  0.00000000000E+00 -0.16965290562E+04  0.41644647589E+04  0.38032296657E+04 0.  0.
        5    1    3    3  502    0  0.12831097722E+04 -0.73776884655E+03  0.45905460261E+03  0.15496537603E+04  0.46999998093E+01 0. -1.
       -5    1    3    3    0  502 -0.12831097722E+04  0.73776884655E+03 -0.21555836588E+04  0.26148109986E+04  0.46999998093E+01 0.  1.
</event>
<event>
 5   0  0.4071750E-09  0.3798346E+04  0.7818609E-02  0.8046510E-01
       -1   -1    0    0    0  501  0.00000000000E+00  0.00000000000E+00  0.32039058843E+04  0.32039058843E+04  0.50400001928E-02 0. -1.
        1   -1    0    0  501    0  0.00000000000E+00  0.00000000000E+00 -0.11257692940E+04  0.11257692940E+04  0.50400001928E-02 0.  1.
    10030    2    1    2    0    0  0.00000000000E+00  0.00000000000E+00  0.20781365902E+04  0.43296751783E+04  0.37983464115E+04 0.  0.
        4    1    3    3  502    0 -0.93096417064E+03  0.12914794875E+04 -0.14127271623E+03  0.15983032087E+04  0.12699999809E+01 0.  1.
       -4    1    3    3    0  502  0.93096417064E+03 -0.12914794875E+04  0.22194093065E+04  0.27313719696E+04  0.12699999809E+01 0. -1.
</event>
<event>
 5   0  0.1264013E-08  0.3799203E+04  0.7818609E-02  0.8046326E-01
       -2   -1    0    0    0  501  0.00000000000E+00  0.00000000000E+00  0.11916612730E+04  0.11916612730E+04  0.25500000920E-02 0.  1.
        2   -1    0    0  501    0  0.00000000000E+00  0.00000000000E+00 -0.30281144180E+04  0.30281144180E+04  0.25500000920E-02 0. -1.
    10030    2    1    2    0    0  0.00000000000E+00  0.00000000000E+00 -0.18364531450E+04  0.42197756909E+04  0.37992034334E+04 0.  0.
        4    1    3    3  502    0  0.12697883474E+04 -0.37751952667E+03  0.59395874897E+03  0.14517823695E+04  0.12699999809E+01 0.  1.
       -4    1    3    3    0  502 -0.12697883474E+04  0.37751952667E+03 -0.24304118940E+04  0.27679933214E+04  0.12699999809E+01 0. -1.
</event>
<event>
 5   0  0.4071750E-09  0.3813210E+04  0.7818609E-02  0.8043326E-01
       -1   -1    0    0    0  501  0.00000000000E+00  0.00000000000E+00  0.13616719995E+04  0.13616719995E+04  0.50400001928E-02 0.  1.
        1   -1    0    0  501    0  0.00000000000E+00  0.00000000000E+00 -0.26696174798E+04  0.26696174798E+04  0.50400001928E-02 0. -1.
    10030    2    1    2    0    0  0.00000000000E+00  0.00000000000E+00 -0.13079454803E+04  0.40312894793E+04  0.38132103911E+04 0.  0.
        5    1    3    3  502    0 -0.11148349572E+03  0.32740069962E+02 -0.26658649322E+04  0.26683999717E+04  0.46999998093E+01 0. -1.
       -5    1    3    3    0  502  0.11148349572E+03 -0.32740069962E+02  0.13579194519E+04  0.13628895076E+04  0.46999998093E+01 0.  1.
</event>
<event>
 5   0  0.1261152E-08  0.3797479E+04  0.7818609E-02  0.8046696E-01
        2   -1    0    0  501    0  0.00000000000E+00  0.00000000000E+00  0.21461289788E+04  0.21461289788E+04  0.25500000920E-02 0.  1.
       -2   -1    0    0    0  501  0.00000000000E+00  0.00000000000E+00 -0.16798672527E+04  0.16798672527E+04  0.25500000920E-02 0. -1.
    10030    2    1    2    0    0  0.00000000000E+00  0.00000000000E+00  0.46626172608E+03  0.38259962315E+04  0.37974790541E+04 0.  0.
        2    1    3    3  502    0  0.68489271837E+03 -0.88860053288E+03  0.17764706223E+04  0.21010799163E+04  0.25500000920E-02 0.  1.
       -2    1    3    3    0  502 -0.68489271837E+03  0.88860053288E+03 -0.13102088963E+04  0.17249163152E+04  0.25500000920E-02 0. -1.
</event>
<event>
 5   0  0.1305088E-08  0.3799081E+04  0.7818609E-02  0.8046352E-01
       -2   -1    0    0    0  501  0.00000000000E+00  0.00000000000E+00  0.23503664018E+04  0.23503664018E+04  0.25500000920E-02 0. -1.
        2   -1    0    0  501    0  0.00000000000E+00  0.00000000000E+00 -0.15351882654E+04  0.15351882654E+04  0.25500000920E-02 0.  1.
    10030    2    1    2    0    0  0.00000000000E+00  0.00000000000E+00  0.81517813633E+03  0.38855546672E+04  0.37990814255E+04 0.  0.
        3    1    3    3  502    0  0.11914161163E+04  0.13855058165E+04  0.93820049628E+03  0.20540980773E+04  0.10100000352E+00 0. -1.
       -3    1    3    3    0  502 -0.11914161163E+04 -0.13855058165E+04 -0.12302235995E+03  0.18314565899E+04  0.10100000352E+00 0.  1.
</event>
<event>
 5   0  0.4071750E-09  0.3797853E+04  0.7818609E-02  0.8046616E-01
        1   -1    0    0  501    0  0.00000000000E+00  0.00000000000E+00  0.18330690775E+04  0.18330690775E+04  0.50400001928E-02 0. -1.
       -1   -1    0    0    0  501  0.00000000000E+00  0.00000000000E+00 -0.19671495616E+04  0.19671495616E+04  0.50400001928E-02 0.  1.
    10030    2    1    2    0    0  0.00000000000E+00  0.00000000000E+00 -0.13408048411E+03  0.38002186391E+04  0.37978525681E+04 0.  0.
        2    1    3    3  502    0  0.64562944798E+03 -0.59578743118E+03  0.16174933471E+04  0.18406750868E+04  0.25500000920E-02 0. -1.
       -2    1    3    3    0  502 -0.64562944798E+03  0.59578743118E+03 -0.17515738312E+04  0.19595435523E+04  0.25500000920E-02 0.  1.
</event>
<event>
 5   0  0.4071750E-09  0.3799938E+04  0.7818609E-02  0.8046168E-01
       -1   -1    0    0    0  501  0.00000000000E+00  0.00000000000E+00  0.23068671267E+04  0.23068671267E+04  0.50400001928E-02 0. -1.
        1   -1    0    0  501    0  0.00000000000E+00  0.00000000000E+00 -0.15648416286E+04  0.15648416287E+04  0.50400001928E-02 0.  1.
    10030    2    1    2    0    0  0.00000000000E+00  0.00000000000E+00  0.74202549806E+03  0.38717087554E+04  0.37999377425E+04 0.  0.
        5    1    3    3  502    0  0.16683929176E+04 -0.31946395231E+03 -0.49610023893E+03  0.17696693706E+04  0.46999998093E+01 0.  1.
       -5    1    3    3    0  502 -0.16683929176E+04  0.31946395231E+03  0.12381257370E+04  0.21020393847E+04  0.46999998093E+01 0. -1.
</event>
<event>
 5   0  0.1305088E-08  0.3800243E+04  0.7818609E-02  0.8046103E-01
       -2   -1    0    0    0  501  0.00000000000E+00  0.00000000000E+00  0.18173327367E+04  0.18173327367E+04  0.25500000920E-02 0. -1.
        2   -1    0    0  501    0  0.00000000000E+00  0.00000000000E+00 -0.19866817364E+04  0.19866817364E+04  0.25500000920E-02 0.  1.
    10030    2    1    2    0    0  0.00000000000E+00  0.00000000000E+00 -0.16934899966E+03  0.38040144731E+04  0.38002430222E+04 0.  0.
        3    1    3    3  502    0 -0.16603420620E+04  0.36658318613E+03 -0.93365697631E+03  0.19398026587E+04  0.10100000352E+00 0.  1.
       -3    1    3    3    0  502  0.16603420620E+04 -0.36658318613E+03  0.76430797664E+03  0.18642118143E+04  0.10100000352E+00 0. -1.
</event>
<event>
 5   0  0.1305088E-08  0.3799654E+04  0.7818609E-02  0.8046229E-01
       -2   -1    0    0    0  501  0.00000000000E+00  0.00000000000E+00  0.14690985603E+04  0.14690985603E+04  0.25500000920E-02 0.  1.
        2   -1    0    0  501    0  0.00000000000E+00  0.00000000000E+00 -0.24568415699E+04  0.24568415699E+04  0.25500000920E-02 0. -1.
    10030    2    1    2    0    0  0.00000000000E+00  0.00000000000E+00 -0.98774300954E+03  0.39259401302E+04  0.37996538859E+04 0.  0.
        3    1    3    3  502    0  0.39293559403E+03 -0.13240932468E+04 -0.18417285271E+04  0.23020828145E+04  0.10100000352E+00 0. -1.
       -3    1    3    3    0  502 -0.39293559403E+03  0.13240932468E+04  0.85398551752E+03  0.16238573157E+04  0.10100000352E+00 0.  1.
</event>
<event>
 5   0  0.1261152E-08  0.3799805E+04  0.7818609E-02  0.8046197E-01
        2   -1    0    0  501    0  0.00000000000E+00  0.00000000000E+00  0.17070048398E+04  0.17070048398E+04  0.25500000920E-02 0. -1.
       -2   -1    0    0    0  501  0.00000000000E+00  0.00000000000E+00 -0.21145984692E+04  0.21145984692E+04  0.25500000920E-02 0.  1.
    10030    2    1    2    0    0  0.00000000000E+00  0.00000000000E+00 -0.40759362940E+03  0.38216033090E+04  0.37998051640E+04 0.  0.
        2    1    3    3  502    0 -0.10544601948E+04  0.39718078780E+03 -0.17422750747E+04  0.20748882660E+04  0.25500000920E-02 0.  1.
       -2    1    3    3    0  502  0.10544601948E+04 -0.39718078780E+03  0.13346814453E+04  0.17467150429E+04  0.25500000920E-02 0. -1.
</event>
<event>
 5   0  0.4071750E-09  0.3797853E+04  0.7818609E-02  0.8046616E-01
       -1   -1    0    0    0  501  0.00000000000E+00  0.00000000000E+00  0.14113435885E+04  0.14113435885E+04  0.50400001928E-02 0. -1.
        1   -1    0    0  501    0  0.00000000000E+00  0.00000000000E+00 -0.25549568480E+04  0.25549568480E+04  0.50400001928E-02 0.  1.
    10030    2    1    2    0    0  0.00000000000E+00  0.00000000000E+00 -0.11436132595E+04  0.39663004365E+04  0.37978530600E+04 0.  0.
        1    1    3    3  502    0 -0.19053648088E+02  0.15313434755E+04 -0.17443443262E+04  0.23212309256E+04  0.50400001928E-02 0.  1.
       -1    1    3    3    0  502  0.19053648088E+02 -0.15313434755E+04  0.60073106666E+03  0.16450695110E+04  0.50400001928E-02 0. -1.
</event>
<event>
 5   0  0.1264013E-08  0.3798327E+04  0.7818609E-02  0.8046514E-01
       -2   -1    0    0    0  501  0.00000000000E+00  0.00000000000E+00  0.14583666521E+04  0.14583666521E+04  0.25500000920E-02 0. -1.
        2   -1    0    0  501    0  0.00000000000E+00  0.00000000000E+00 -0.24731922333E+04  0.24731922333E+04  0.25500000920E-02 0.  1.
    10030    2    1    2    0    0  0.00000000000E+00  0.00000000000E+00 -0.10148255811E+04  0.39315588854E+04  0.37983265143E+04 0.  0.
        4    1    3    3  502    0 -0.24781203918E+03 -0.11767735113E+04 -0.20288742584E+04  0.23585035665E+04  0.12699999809E+01 0.  1.
       -4    1    3    3    0  502  0.24781203918E+03  0.11767735113E+04  0.10140486773E+04  0.15730553189E+04  0.12699999809E+01 0. -1.
</event>
<event>
 5   0  0.1305088E-08  0.3797157E+04  0.7818609E-02  0.8046765E-01
        2   -1    0    0  501    0  0.00000000000E+00  0.00000000000E+00  0.24274172123E+04  0.24274172123E+04  0.25500000920E-02 0. -1.
       -2   -1    0    0    0  501  0.00000000000E+00  0.00000000000E+00 -0.14849530290E+04  0.14849530290E+04  0.25500000920E-02 0.  1.
    10030    2    1    2    0    0  0.00000000000E+00  0.00000000000E+00  0.94246418331E+03  0.39123702413E+04  0.37971571166E+04 0.  0.
        3    1    3    3  502    0  0.34409294118E+03 -0.92276326560E+03 -0.12011968272E+04  0.15533080262E+04  0.10100000352E+00 0.  1.
       -3    1    3    3    0  502 -0.34409294118E+03  0.92276326560E+03  0.21436610105E+04  0.23590622151E+04  0.10100000352E+00 0. -1.
</event>
<event>
 5   0  0.4071750E-09  0.3798815E+04  0.7818609E-02  0.8046409E-01
        1   -1    0    0  501    0  0.00000000000E+00  0.00000000000E+00  0.22995764008E+04  0.22995764008E+04  0.50400001928E-02 0. -1.
       -1   -1    0    0    0  501  0.00000000000E+00  0.00000000000E+00 -0.15688754625E+04  0.15688754625E+04  0.50400001928E-02 0.  1.
    10030    2    1    2    0    0  0.00000000000E+00  0.00000000000E+00  0.73070093829E+03  0.38684518633E+04  0.37988150728E+04 0.  0.
        2    1    3    3  502    0  0.42673019704E+03  0.43950395707E+03 -0.14655191206E+04  0.15883981498E+04  0.25500000920E-02 0.  1.
       -2    1    3    3    0  502 -0.42673019704E+03 -0.43950395707E+03  0.21962200589E+04  0.22800537135E+04  0.25500000920E-02 0. -1.
</event>
<event>
 5   0  0.4071750E-09  0.3799369E+04  0.7818609E-02  0.8046290E-01
       -1   -1    0    0    0  501  0.00000000000E+00  0.00000000000E+00  0.14672194269E+04  0.14672194269E+04  0.50400001928E-02 0.  1.
        1   -1    0    0  501    0  0.00000000000E+00  0.00000000000E+00 -0.24596189432E+04  0.24596189432E+04  0.50400001928E-02 0. -1.
    10030    2    1    2    0    0  0.00000000000E+00  0.00000000000E+00 -0.99239951631E+03  0.39268383701E+04  0.37993687351E+04 0.  0.
        1    1    3    3  502    0  0.11980037877E+04 -0.57755770390E+02 -0.20188026597E+04  0.23482148503E+04  0.50400001928E-02 0. -1.
       -1    1    3    3    0  502 -0.11980037877E+04  0.57755770390E+02  0.10264031434E+04  0.15786235198E+04  0.50400001928E-02 0.  1.
</event>
<event>
 5   0  0.1327249E-08  0.3800794E+04  0.7818609E-02  0.8045985E-01
       -2   -1    0    0    0  501  0.00000000000E+00  0.00000000000E+00  0.18715931243E+04  0.18715931243E+04  0.25500000920E-02 0. -1.
        2   -1    0    0  501    0  0.00000000000E+00  0.00000000000E+00 -0.19296438987E+04  0.19296438987E+04  0.25500000920E-02 0.  1.
    10030    2    1    2    0    0  0.00000000000E+00  0.00000000000E+00 -0.58050774415E+02  0.38012370230E+04  0.38007937345E+04 0.  0.
        1    1    3    3  502    0 -0.66785887522E+03 -0.33673219559E+03 -0.17762506669E+04  0.19273013466E+04  0.50400001928E-02 0.  1.
       -1    1    3    3    0  502  0.66785887522E+03  0.33673219559E+03  0.17181998925E+04  0.18739356764E+04  0.50400001928E-02 0. -1.
</event>
<event>
 5   0  0.4071750E-09  0.3800476E+04  0.7818609E-02  0.8046053E-01
       -1   -1    0    0    0  501  0.00000000000E+00  0.00000000000E+00  0.17716459974E+04  0.17716459974E+04  0.50400001928E-02 0. -1.
        1   -1    0    0  501    0  0.00000000000E+00  0.00000000000E+00 -0.20381631839E+04  0.20381631839E+04  0.50400001928E-02 0.  1.
    10030    2    1    2    0    0  0.00000000000E+00  0.00000000000E+00 -0.26651718651E+03  0.38098091813E+04  0.38004755738E+04 0.  0.
        5    1    3    3  502    0  0.64956842335E+03  0.17670134181E+04 -0.39197380015E+03  0.19230031478E+04  0.46999998093E+01 0.  1.
       -5    1    3    3    0  502 -0.64956842335E+03 -0.17670134181E+04  0.12545661364E+03  0.18868060336E+04  0.46999998093E+01 0. -1.
</event>
<event>
 5   0  0.4071750E-09  0.3799636E+04  0.7818609E-02  0.8046233E-01
       -1   -1    0    0    0  501  0.00000000000E+00  0.00000000000E+00  0.14923822014E+04  0.14923822014E+04  0.50400001928E-02 0.  1.
        1   -1    0    0  501    0  0.00000000000E+00  0.00000000000E+00 -0.24184880289E+04  0.24184880289E+04  0.50400001928E-02 0. -1.
    10030    2    1    2    0    0  0.00000000000E+00  0.00000000000E+00 -0.92610582751E+03  0.39108702303E+04  0.37996360292E+04 0.  0.
        1    1    3    3  502    0 -0.11198989948E+04  0.89870474359E+03 -0.17434413928E+04  0.22586349561E+04  0.50400001928E-02 0. -1.
       -1    1    3    3    0  502  0.11198989948E+04 -0.89870474359E+03  0.81733556534E+03  0.16522352742E+04  0.50400001928E-02 0.  1.
</event>
<event>
 5   0  0.1305088E-08  0.3798681E+04  0.7818609E-02  0.8046438E-01
       -2   -1    0    0    0  501  0.00000000000E+00  0.00000000000E+00  0.22589548242E+04  0.22589548242E+04  0.25500000920E-02 0.  1.
        2   -1    0    0  501    0  0.00000000000E+00  0.00000000000E+00 -0.15969751586E+04  0.15969751586E+04  0.25500000920E-02 0. -1.
    10030    2    1    2    0    0  0.00000000000E+00  0.00000000000E+00  0.66197966562E+03  0.38559299829E+04  0.37986812126E+04 0.  0.
        3    1    3    3  502    0  0.54479205849E+03 -0.12768175623E+04 -0.98486180091E+03  0.17020617649E+04  0.10100000352E+00 0. -1.
       -3    1    3    3    0  502 -0.54479205849E+03  0.12768175623E+04  0.16468414665E+04  0.21538682180E+04  0.10100000352E+00 0.  1.
</event>
<event>
 5   0  0.4071750E-09  0.3802162E+04  0.7818609E-02  0.8045691E-01
        1   -1    0    0  501    0  0.00000000000E+00  0.00000000000E+00  0.15828784670E+04  0.15828784670E+04  0.50400001928E-02 0.  1.
       -1   -1    0    0    0  501  0.00000000000E+00  0.00000000000E+00 -0.22832515716E+04  0.22832515716E+04  0.50400001928E-02 0. -1.
    10030    2    1    2    0    0  0.00000000000E+00  0.00000000000E+00 -0.70037310455E+03  0.38661300386E+04  0.38021624097E+04 0.  0.
        1    1    3    3  502    0 -0.15501779579E+03  0.81054904550E+03  0.13912531820E+04  0.16175925595E+04  0.50400001928E-02 0.  1.
       -1    1    3    3    0  502  0.15501779579E+03 -0.81054904550E+03 -0.20916262865E+04  0.22485374791E+04  0.50400001928E-02 0. -1.
</event>
<event>
 5   0  0.4071750E-09  0.3811294E+04  0.7818609E-02  0.8043736E-01
       -1   -1    0    0    0  501  0.00000000000E+00  0.00000000000E+00  0.17802059185E+04  0.17802059185E+04  0.50400001928E-02 0. -1.
        1   -1    0    0  501    0  0.00000000000E+00  0.00000000000E+00 -0.20399270140E+04  0.20399270140E+04  0.50400001928E-02 0.  1.
    10030    2    1    2    0    0  0.00000000000E+00  0.00000000000E+00 -0.25972109548E+03  0.38201329324E+04  0.38112938189E+04 0.  0.
        1    1    3    3  502    0  0.46871454171E+03 -0.31333201280E+03  0.16946962535E+04  0.17860195025E+04  0.50400001928E-02 0. -1.
       -1    1    3    3    0  502 -0.46871454171E+03  0.31333201280E+03 -0.19544173489E+04  0.20341134299E+04  0.50400001928E-02 0.  1.
</event>
<event>
 5   0  0.4071750E-09  0.3799750E+04  0.7818609E-02  0.8046208E-01
        1   -1    0    0  501    0  0.00000000000E+00  0.00000000000E+00  0.22644424490E+04  0.22644424490E+04  0.50400001928E-02 0. -1.
       -1   -1    0    0    0  501  0.00000000000E+00  0.00000000000E+00 -0.15940018634E+04  0.15940018634E+04  0.50400001928E-02 0.  1.
    10030    2    1    2    0    0  0.00000000000E+00  0.00000000000E+00  0.67044058559E+03  0.38584443124E+04  0.37997502461E+04 0.  0.
        2    1    3    3  502    0  0.10122658962E+04  0.83207586016E+03 -0.10617086833E+04  0.16864927542E+04  0.25500000920E-02 0.  1.
       -2    1    3    3    0  502 -0.10122658962E+04 -0.83207586016E+03  0.17321492689E+04  0.21719515582E+04  0.25500000920E-02 0. -1.
</event>
<event>
 5   0  0.1327249E-08  0.3800219E+04  0.7818609E-02  0.8046108E-01
       -2   -1    0    0    0  501  0.00000000000E+00  0.00000000000E+00  0.14627020641E+04  0.14627020641E+04  0.25500000920E-02 0. -1.
        2   -1    0    0  501    0  0.00000000000E+00  0.00000000000E+00 -0.24683199790E+04  0.24683199790E+04  0.25500000920E-02 0.  1.
    10030    2    1    2    0    0  0.00000000000E+00  0.00000000000E+00 -0.10056179149E+04  0.39310220431E+04  0.38002193243E+04 0.  0.
        1    1    3    3  502    0 -0.11473173576E+04 -0.13062659379E+04  0.29022673223E+03  0.17626398883E+04  0.50400001928E-02 0. -1.
       -1    1    3    3    0  502  0.11473173576E+04  0.13062659379E+04 -0.12958446471E+04  0.21683821548E+04  0.50400001928E-02 0.  1.
</event>
<event>
 5   0  0.1305088E-08  0.3798562E+04  0.7818609E-02  0.8046463E-01
        2   -1    0    0  501    0  0.00000000000E+00  0.00000000000E+00  0.28921188119E+04  0.28921188119E+04  0.25500000920E-02 0.  1.
       -2   -1    0    0    0  501  0.00000000000E+00  0.00000000000E+00 -0.12472755526E+04  0.12472755526E+04  0.25500000920E-02 0. -1.
    10030    2    1    2    0    0  0.00000000000E+00  0.00000000000E+00  0.16448432593E+04  0.41393943645E+04  0.37985624066E+04 0.  0.
        3    1    3    3  502    0 -0.18914082350E+04  0.32962110729E+02  0.63762550799E+03  0.19962659920E+04  0.10100000352E+00 0.  1.
       -3    1    3    3    0  502  0.18914082350E+04 -0.32962110729E+02  0.10072177513E+04  0.21431283725E+04  0.10100000352E+00 0. -1.
</event>
<event>
 5   0  0.1261152E-08  0.3802504E+04  0.7818609E-02  0.8045618E-01
       -2   -1    0    0    0  501  0.00000000000E+00  0.00000000000E+00  0.17976455852E+04  0.17976455852E+04  0.25500000920E-02 0. -1.
        2   -1    0    0  501    0  0.00000000000E+00  0.00000000000E+00 -0.20108296954E+04  0.20108296954E+04  0.25500000920E-02 0.  1.
    10030    2    1    2    0    0  0.00000000000E+00  0.00000000000E+00 -0.21318411016E+03  0.38084752806E+04  0.38025039774E+04 0.  0.
        2    1    3    3  502    0  0.60772621948E+03  0.14635163244E+04  0.94555650527E+03  0.18453423245E+04  0.25500000920E-02 0. -1.
       -2    1    3    3    0  502 -0.60772621948E+03 -0.14635163244E+04 -0.11587406154E+04  0.19631329562E+04  0.25500000920E-02 0.  1.
</event>
<event>
 5   0  0.1264013E-08  0.3799470E+04  0.7818609E-02  0.8046269E-01
       -2   -1    0    0    0  501  0.00000000000E+00  0.00000000000E+00  0.16712004814E+04  0.16712004814E+04  0.25500000920E-02 0.  1.
        2   -1    0    0  501    0  0.00000000000E+00  0.00000000000E+00 -0.21595213517E+04  0.21595213517E+04  0.25500000920E-02 0. -1.
    10030    2    1    2    0    0  0.00000000000E+00  0.00000000000E+00 -0.48832087031E+03  0.38307218331E+04  0.37994700275E+04 0.  0.
        4    1    3    3  502    0 -0.73666706966E+03  0.79937503977E+03  0.13266379882E+04  0.17151235496E+04  0.12699999809E+01 0.  1.
       -4    1    3    3    0  502  0.73666706966E+03 -0.79937503977E+03 -0.18149588586E+04  0.21155982834E+04  0.12699999809E+01 0. -1.
</event>
<event>
 5   0  0.1305088E-08  0.3799640E+04  0.7818609E-02  0.8046232E-01
       -2   -1    0    0    0  501  0.00000000000E+00  0.00000000000E+00  0.20852997476E+04  0.20852997476E+04  0.25500000920E-02 0.  1.
        2   -1    0    0  501    0  0.00000000000E+00  0.00000000000E+00 -0.17308382329E+04  0.17308382329E+04  0.25500000920E-02 0. -1.
    10030    2    1    2    0    0  0.00000000000E+00  0.00000000000E+00  0.35446151475E+03  0.38161379805E+04  0.37996402620E+04 0.  0.
        3    1    3    3  502    0  0.87234337620E+03  0.31993695492E+03  0.18415237731E+04  0.20626566457E+04  0.10100000352E+00 0.  1.
       -3    1    3    3    0  502 -0.87234337620E+03 -0.31993695492E+03 -0.14870622583E+04  0.17534813348E+04  0.10100000352E+00 0. -1.
</event>
<event>
 5   0  0.4071750E-09  0.3800075E+04  0.7818609E-02  0.8046139E-01
       -1   -1    0    0    0  501  0.00000000000E+00  0.00000000000E+00  0.28292901161E+04  0.28292901161E+04  0.50400001928E-02 0.  1.
        1   -1    0    0  501    0  0.00000000000E+00  0.00000000000E+00 -0.12759885312E+04  0.12759885312E+04  0.50400001928E-02 0. -1.
    10030    2    1    2    0    0  0.00000000000E+00  0.00000000000E+00  0.15533015849E+04  0.41052786473E+04  0.38000745990E+04 0.  0.
        3    1    3    3  502    0 -0.59178984506E+03  0.21368106137E+03 -0.11601791341E+04  0.13198069746E+04  0.10100000352E+00 0. -1.
       -3    1    3    3    0  502  0.59178984506E+03 -0.21368106137E+03  0.27134807190E+04  0.27854716727E+04  0.10100000352E+00 0.  1.
</event>
<event>
 5   0  0.1264013E-08  0.3802222E+04  0.7818609E-02  0.8045678E-01
        2   -1    0    0  501    0  0.00000000000E+00  0.00000000000E+00  0.20157930178E+04  0.20157930178E+04  0.25500000920E-02 0.  1.
       -2   -1    0    0    0  501  0.00000000000E+00  0.00000000000E+00 -0.17929532354E+04  0.17929532354E+04  0.25500000920E-02 0. -1.
    10030    2    1    2    0    0  0.00000000000E+00  0.00000000000E+00  0.22283978239E+03  0.38087462531E+04  0.38022217784E+04 0.  0.
        4    1    3    3  502    0 -0.79826723401E+03  0.77370330453E+03 -0.14334241232E+04  0.18139883435E+04  0.12699999809E+01 0. -1.
       -4    1    3    3    0  502  0.79826723401E+03 -0.77370330453E+03  0.16562639056E+04  0.19947579097E+04  0.12699999809E+01 0.  1.
</event>
<event>
 5   0  0.1261152E-08  0.3798571E+04  0.7818609E-02  0.8046462E-01
        2   -1    0    0  501    0  0.00000000000E+00  0.00000000000E+00  0.26994968453E+04  0.26994968453E+04  0.25500000920E-02 0.  1.
       -2   -1    0    0    0  501  0.00000000000E+00  0.00000000000E+00 -0.13362805186E+04  0.13362805186E+04  0.25500000920E-02 0. -1.
    10030    2    1    2    0    0  0.00000000000E+00  0.00000000000E+00  0.13632163267E+04  0.40357773639E+04  0.37985708072E+04 0.  0.
        2    1    3    3  502    0 -0.59092219162E+02 -0.52231088775E+03  0.26206772338E+04  0.26728729333E+04  0.25500000920E-02 0.  1.
       -2    1    3    3    0  502  0.59092219162E+02  0.52231088775E+03 -0.12574609071E+04  0.13629044306E+04  0.25500000920E-02 0. -1.
</event>
<event>
 5   0  0.4071750E-09  0.3804084E+04  0.7818609E-02  0.8045279E-01
       -1   -1    0    0    0  501  0.00000000000E+00  0.00000000000E+00  0.29945820836E+04  0.29945820836E+04  0.50400001928E-02 0. -1.
        1   -1    0    0  501    0  0.00000000000E+00  0.00000000000E+00 -0.12081030402E+04  0.12081030402E+04  0.50400001928E-02 0.  1.
    10030    2    1    2    0    0  0.00000000000E+00  0.00000000000E+00  0.17864790435E+04  0.42026851238E+04  0.38040839735E+04 0.  0.
        2    1    3    3  502    0 -0.66006293345E+03 -0.59030288790E+03  0.27529605553E+04  0.28918735094E+04  0.25500000920E-02 0. -1.
       -2    1    3    3    0  502  0.66006293345E+03  0.59030288790E+03 -0.96648151185E+03  0.13108116144E+04  0.25500000920E-02 0.  1.
</event>
<event>
 5   0  0.4071750E-09  0.3801023E+04  0.7818609E-02  0.8045935E-01
        1   -1    0    0  501    0  0.00000000000E+00  0.00000000000E+00  0.24061085397E+04  0.24061085397E+04  0.50400001928E-02 0.  1.
       -1   -1    0    0    0  501  0.00000000000E+00  0.00000000000E+00 -0.15011562230E+04  0.15011562230E+04  0.50400001928E-02 0. -1.
    10030    2    1    2    0    0  0.00000000000E+00  0.00000000000E+00  0.90495231669E+03  0.39072647627E+04  0.38010234451E+04 0.  0.
        2    1    3    3  502    0 -0.82963499783E+01 -0.18124809738E+04  0.10401086572E+04  0.20897325495E+04  0.25500000920E-02 0.  1.
       -2    1    3    3    0  502  0.82963499783E+01  0.18124809738E+04 -0.13515634048E+03  0.18175322132E+04  0.25500000920E-02 0. -1.
</event>
<event>
 5   0  0.1327249E-08  0.3799982E+04  0.7818609E-02  0.8046159E-01
        2   -1    0    0  501    0  0.00000000000E+00  0.00000000000E+00  0.18106655897E+04  0.18106655897E+04  0.25500000920E-02 0. -1.
       -2   -1    0    0    0  501  0.00000000000E+00  0.00000000000E+00 -0.19937228183E+04  0.19937228184E+04  0.25500000920E-02 0.  1.
    10030    2    1    2    0    0  0.00000000000E+00  0.00000000000E+00 -0.18305722864E+03  0.38043884081E+04  0.37999817382E+04 0.  0.
        1    1    3    3  502    0 -0.25854902222E+03 -0.16742956535E+04 -0.95267245341E+03  0.19436301952E+04  0.50400001928E-02 0.  1.
       -1    1    3    3    0  502  0.25854902222E+03  0.16742956535E+04  0.76961522478E+03  0.18607582128E+04  0.50400001928E-02 0. -1.
</event>
<event>
 5   0  0.4071750E-09  0.3802864E+04  0.7818609E-02  0.8045541E-01
       -1   -1    0    0    0  501  0.00000000000E+00  0.00000000000E+00  0.24219974887E+04  0.24219974887E+04  0.50400001928E-02 0.  1.
        1   -1    0    0  501    0  0.00000000000E+00  0.00000000000E+00 -0.14927524701E+04  0.14927524701E+04  0.50400001928E-02 0. -1.
    10030    2    1    2    0    0  0.00000000000E+00  0.00000000000E+00  0.92924501858E+03  0.39147499589E+04  0.38028635179E+04 0.  0.
        1    1    3    3  502    0  0.17118007017E+04 -0.67235377039E+03 -0.32409607443E+02  0.18393943617E+04  0.50400001928E-02 0. -1.
       -1    1    3    3    0  502 -0.17118007017E+04  0.67235377039E+03  0.96165462603E+03  0.20753555972E+04  0.50400001928E-02 0.  1.
</event>
<event>
 5   0  0.4071750E-09  0.3800173E+04  0.7818609E-02  0.8046118E-01
       -1   -1    0    0    0  501  0.00000000000E+00  0.00000000000E+00  0.17683596568E+04  0.17683596568E+04  0.50400001928E-02 0.  1.
        1   -1    0    0  501    0  0.00000000000E+00  0.00000000000E+00 -0.20416255599E+04  0.20416255599E+04  0.50400001928E-02 0. -1.
    10030    2    1    2    0    0  0.00000000000E+00  0.00000000000E+00 -0.27326590304E+03  0.38099852167E+04  0.38001727721E+04 0.  0.
        5    1    3    3  502    0 -0.16415380110E+04 -0.78269911656E+03 -0.68854619184E+03  0.19445778197E+04  0.46999998093E+01 0. -1.
       -5    1    3    3    0  502  0.16415380110E+04  0.78269911656E+03  0.41528028880E+03  0.18654073970E+04  0.46999998093E+01 0.  1.
</event>
<event>
 5   0  0.4071750E-09  0.3799592E+04  0.7818609E-02  0.8046242E-01
       -1   -1    0    0    0  501  0.00000000000E+00  0.00000000000E+00  0.14604030259E+04  0.14604030259E+04  0.50400001928E-02 0. -1.
        1   -1    0    0  501    0  0.00000000000E+00  0.00000000000E+00 -0.24713892647E+04  0.24713892647E+04  0.50400001928E-02 0.  1.
    10030    2    1    2    0    0  0.00000000000E+00  0.00000000000E+00 -0.10109862389E+04  0.39317922906E+04  0.37995917467E+04 0.  0.
        1    1    3    3  502    0  0.53965390030E+03  0.10400320499E+04  0.10419749925E+04  0.15679939036E+04  0.50400001928E-02 0. -1.
       -1    1    3    3    0  502 -0.53965390030E+03 -0.10400320499E+04 -0.20529612313E+04  0.23637983870E+04  0.50400001928E-02 0.  1.
</event>
<event>
 5   0  0.4071750E-09  0.3800109E+04  0.7818609E-02  0.8046131E-01
        1   -1    0    0  501    0  0.00000000000E+00  0.00000000000E+00  0.25352850103E+04  0.25352850103E+04  0.50400001928E-02 0. -1.
       -1   -1    0    0    0  501  0.00000000000E+00  0.00000000000E+00 -0.14239849444E+04  0.14239849444E+04  0.50400001928E-02 0.  1.
    10030    2    1    2    0    0  0.00000000000E+00  0.00000000000E+00  0.11113000658E+04  0.39592699547E+04  0.38001093061E+04 0.  0.
        3    1    3    3  502    0  0.47602290582E+03 -0.89702437457E+03 -0.11175238913E+04  0.15100033752E+04  0.10100000352E+00 0.  1.
       -3    1    3    3    0  502 -0.47602290582E+03  0.89702437457E+03  0.22288239571E+04  0.24492665795E+04  0.10100000352E+00 0. -1.
</event>
<event>
 5   0  0.1327249E-08  0.3798543E+04  0.7818609E-02  0.8046468E-01
       -2   -1    0    0    0  501  0.00000000000E+00  0.00000000000E+00  0.19451141395E+04  0.19451141395E+04  0.25500000920E-02 0.  1.
        2   -1    0    0  501    0  0.00000000000E+00  0.00000000000E+00 -0.18545096674E+04  0.18545096674E+04  0.25500000920E-02 0. -1.
    10030    2    1    2    0    0  0.00000000000E+00  0.00000000000E+00  0.90604472029E+02  0.37996238069E+04  0.37985433924E+04 0.  0.
        1    1    3    3  502    0 -0.18560036967E+04 -0.40129427790E+03  0.83341412434E+02  0.19007189721E+04  0.50400001928E-02 0.  1.
       -1    1    3    3    0  502  0.18560036967E+04  0.40129427790E+03  0.72630595946E+01  0.18989048348E+04  0.50400001928E-02 0. -1.
</event>
<event>
 5   0  0.1327249E-08  0.3800242E+04  0.7818609E-02  0.8046103E-01
        2   -1    0    0  501    0  0.00000000000E+00  0.00000000000E+00  0.17993279134E+04  0.17993279134E+04  0.25500000920E-02 0.  1.
       -2   -1    0    0    0  501  0.00000000000E+00  0.00000000000E+00 -0.20065597659E+04  0.20065597659E+04  0.25500000920E-02 0. -1.
    10030    2    1    2    0    0  0.00000000000E+00  0.00000000000E+00 -0.20723185252E+03  0.38058876793E+04  0.38002415695E+04 0.  0.
        1    1    3    3  502    0 -0.14018071260E+04 -0.36133666701E+03  0.11289976295E+04  0.18358276207E+04  0.50400001928E-02 0.  1.
       -1    1    3    3    0  502  0.14018071260E+04  0.36133666701E+03 -0.13362294820E+04  0.19700600585E+04  0.50400001928E-02 0. -1.
</event>
<event>
 5   0  0.1264013E-08  0.3799618E+04  0.7818609E-02  0.8046237E-01
       -2   -1    0    0    0  501  0.00000000000E+00  0.00000000000E+00  0.14607756150E+04  0.14607756150E+04  0.25500000920E-02 0. -1.
        2   -1    0    0  501    0  0.00000000000E+00  0.00000000000E+00 -0.24707924997E+04  0.24707924997E+04  0.25500000920E-02 0.  1.
    10030    2    1    2    0    0  0.00000000000E+00  0.00000000000E+00 -0.10100168846E+04  0.39315681147E+04  0.37996175773E+04 0.  0.
        4    1    3    3  502    0 -0.18039857453E+04  0.54711236275E+02 -0.11188328401E+04  0.21234750824E+04  0.12699999809E+01 0.  1.
       -4    1    3    3    0  502  0.18039857453E+04 -0.54711236275E+02  0.10881595546E+03  0.18080930323E+04  0.12699999809E+01 0. -1.
</event>
<event>
 5   0  0.4071750E-09  0.3796772E+04  0.7818609E-02  0.8046848E-01
        1   -1    0    0  501    0  0.00000000000E+00  0.00000000000E+00  0.16190079619E+04  0.16190079619E+04  0.50400001928E-02 0. -1.
       -1   -1    0    0    0  501  0.00000000000E+00  0.00000000000E+00 -0.22259738927E+04  0.22259738927E+04  0.50400001928E-02 0.  1.
    10030    2    1    2    0    0  0.00000000000E+00  0.00000000000E+00 -0.60696593081E+03  0.38449818546E+04  0.37967720265E+04 0.  0.
        2    1    3    3  502    0 -0.17040802878E+04  0.80259937914E+03 -0.64233157137E+02  0.18847231333E+04  0.25500000920E-02 0.  1.
       -2    1    3    3    0  502  0.17040802878E+04 -0.80259937914E+03 -0.54273277368E+03  0.19602587213E+04  0.25500000920E-02 0. -1.
</event>
<event>
 5   0  0.1293993E-08  0.3796263E+04  0.7818609E-02  0.8046957E-01
        2   -1    0    0  501    0  0.00000000000E+00  0.00000000000E+00  0.25184745581E+04  0.25184745581E+04  0.25500000920E-02 0.  1.
       -2   -1    0    0    0  501  0.00000000000E+00  0.00000000000E+00 -0.14305893666E+04  0.14305893666E+04  0.25500000920E-02 0. -1.
    10030    2    1    2    0    0  0.00000000000E+00  0.00000000000E+00  0.10878851915E+04  0.39490639247E+04  0.37962628586E+04 0.  0.
        5    1    3    3  502    0 -0.82270308994E+03 -0.23448276490E+03 -0.12186782132E+04  0.14889664934E+04  0.46999998093E+01 0. -1.
       -5    1    3    3    0  502  0.82270308994E+03  0.23448276490E+03  0.23065634048E+04  0.24600974313E+04  0.46999998093E+01 0.  1.
</event>
<event>
 5   0  0.1293993E-08  0.3799188E+04  0.7818609E-02  0.8046329E-01
        2   -1    0    0  501    0  0.00000000000E+00  0.00000000000E+00  0.22442612832E+04  0.22442612832E+04  0.25500000920E-02 0. -1.
       -2   -1    0    0    0  501  0.00000000000E+00  0.00000000000E+00 -0.16078595095E+04  0.16078595095E+04  0.25500000920E-02 0.  1.
    10030    2    1    2    0    0  0.00000000000E+00  0.00000000000E+00  0.63640177365E+03  0.38521207927E+04  0.37991877269E+04 0.  0.
        5    1    3    3  502    0 -0.17545326980E+04  0.25281386940E+03 -0.37405229509E+03  0.18116945245E+04  0.46999998093E+01 0. -1.
       -5    1    3    3    0  502  0.17545326980E+04 -0.25281386940E+03  0.10104540687E+04  0.20404262682E+04  0.46999998093E+01 0.  1.
</event>
<event>
 5   0  0.1305088E-08  0.3799495E+04  0.7818609E-02  0.8046263E-01
        2   -1    0    0  501    0  0.00000000000E+00  0.00000000000E+00  0.30310760121E+04  0.30310760121E+04  0.25500000920E-02 0.  1.
       -2   -1    0    0    0  501  0.00000000000E+00  0.00000000000E+00 -0.11906795313E+04  0.11906795313E+04  0.25500000920E-02 0. -1.
    10030    2    1    2    0    0  0.00000000000E+00  0.00000000000E+00  0.18403964808E+04  0.42217555435E+04  0.37994947904E+04 0.  0.
        3    1    3    3  502    0 -0.17915533445E+03  0.16045951392E+04  0.20325658124E+04  0.25957939029E+04  0.10100000352E+00 0. -1.
       -3    1    3    3    0  502  0.17915533445E+03 -0.16045951392E+04 -0.19216933158E+03  0.16259616406E+04  0.10100000352E+00 0.  1.
</event>
<event>
 5   0  0.1293993E-08  0.3807297E+04  0.7818609E-02  0.8044591E-01
        2   -1    0    0  501    0  0.00000000000E+00  0.00000000000E+00  0.24121495553E+04  0.24121495553E+04  0.25500000920E-02 0. -1.
       -2   -1    0    0    0  501  0.00000000000E+00  0.00000000000E+00 -0.15023436328E+04  0.15023436328E+04  0.25500000920E-02 0.  1.
    10030    2    1    2    0    0  0.00000000000E+00  0.00000000000E+00  0.90980592251E+03  0.39144931881E+04  0.38072969550E+04 0.  0.
        5    1    3    3  502    0 -0.73097541788E+03  0.17570511599E+04  0.50422866787E+03  0.19687108674E+04  0.46999998093E+01 0.  1.
       -5    1    3    3    0  502  0.73097541788E+03 -0.17570511599E+04  0.40557725463E+03  0.19457823207E+04  0.46999998093E+01 0. -1.
</event>
<event>
 5   0  0.1261152E-08  0.3798740E+04  0.7818609E-02  0.8046425E-01
       -2   -1    0    0    0  501  0.00000000000E+00  0.00000000000E+00  0.13893044175E+04  0.13893044175E+04  0.25500000920E-02 0.  1.
        2   -1    0    0  501    0  0.00000000000E+00  0.00000000000E+00 -0.25966999971E+04  0.25966999971E+04  0.25500000920E-02 0. -1.
    10030    2    1    2    0    0  0.00000000000E+00  0.00000000000E+00 -0.12073955796E+04  0.39860044147E+04  0.37987402001E+04 0.  0.
        2    1    3    3  502    0 -0.86041724660E+02 -0.63338553893E+03 -0.24804506734E+04  0.25614870608E+04  0.25500000920E-02 0. -1.
       -2    1    3    3    0  502  0.86041724660E+02  0.63338553893E+03  0.12730550939E+04  0.14245173538E+04  0.25500000920E-02 0.  1.
</event>
<event>
 5   0  0.1293993E-08  0.3799927E+04  0.7818609E-02  0.8046171E-01
        2   -1    0    0  501    0  0.00000000000E+00  0.00000000000E+00  0.24223585993E+04  0.24223585993E+04  0.25500000920E-02 0.  1.
       -2   -1    0    0    0  501  0.00000000000E+00  0.00000000000E+00 -0.14902255498E+04  0.14902255498E+04  0.25500000920E-02 0. -1.
    10030    2    1    2    0    0  0.00000000000E+00  0.00000000000E+00  0.93213304949E+03  0.39125841492E+04  0.37999266707E+04 0.  0.
        5    1    3    3  502    0 -0.55705979649E+03 -0.98562664127E+03 -0.11049684310E+04  0.15820091075E+04  0.46999998093E+01 0. -1.
       -5    1    3    3    0  502  0.55705979649E+03  0.98562664127E+03  0.20371014805E+04  0.23305750416E+04  0.46999998093E+01 0.  1.
</event>
<event>
 5   0  0.1261152E-08  0.3800678E+04  0.7818609E-02  0.8046009E-01
        2   -1    0    0  501    0  0.00000000000E+00  0.00000000000E+00  0.21051855574E+04  0.21051855574E+04  0.25500000920E-02 0. -1.
       -2   -1    0    0    0  501  0.00000000000E+00  0.00000000000E+00 -0.17154249714E+04  0.17154249714E+04  0.25500000920E-02 0.  1.
    10030    2    1    2    0    0  0.00000000000E+00  0.00000000000E+00  0.38976058599E+03  0.38206105288E+04  0.38006777683E+04 0.  0.
        2    1    3    3  502    0  0.16954375697E+04  0.26787878166E+03 -0.62488431135E+03  0.18266767631E+04  0.25500000920E-02 0.  1.
       -2    1    3    3    0  502 -0.16954375697E+04 -0.26787878166E+03  0.10146448973E+04  0.19939337657E+04  0.25500000920E-02 0. -1.
</event>
<event>
 5   0  0.1264013E-08  0.3796416E+04  0.7818609E-02  0.8046924E-01
        2   -1    0    0  501    0  0.00000000000E+00  0.00000000000E+00  0.20101639192E+04  0.20101639192E+04  0.25500000920E-02 0. -1.
       -2   -1    0    0    0  501  0.00000000000E+00  0.00000000000E+00 -0.17924873746E+04  0.17924873746E+04  0.25500000920E-02 0.  1.
    10030    2    1    2    0    0  0.00000000000E+00  0.00000000000E+00  0.21767654465E+03  0.38026512938E+04  0.37964159130E+04 0.  0.
        4    1    3    3  502    0 -0.60147578382E+03  0.10539385598E+04  0.15709042218E+04  0.19850192174E+04  0.12699999809E+01 0. -1.
       -4    1    3    3    0  502  0.60147578382E+03 -0.10539385598E+04 -0.13532276771E+04  0.18176320765E+04  0.12699999809E+01 0.  1.
</event>
<event>
 5   0  0.1327249E-08  0.3799017E+04  0.7818609E-02  0.8046366E-01
       -2   -1    0    0    0  501  0.00000000000E+00  0.00000000000E+00  0.12987196338E+04  0.12987196338E+04  0.25500000920E-02 0.  1.
        2   -1    0    0  501    0  0.00000000000E+00  0.00000000000E+00 -0.27782227315E+04  0.27782227315E+04  0.25500000920E-02 0. -1.
    10030    2    1    2    0    0  0.00000000000E+00  0.00000000000E+00 -0.14795030977E+04  0.40769423652E+04  0.37990169299E+04 0.  0.
        1    1    3    3  502    0 -0.12399970625E+03  0.12859919623E+04  0.75459091261E+03  0.14961813726E+04  0.50400001928E-02 0.  1.
       -1    1    3    3    0  502  0.12399970625E+03 -0.12859919623E+04 -0.22340940103E+04  0.25807609927E+04  0.50400001928E-02 0. -1.
</event>
<event>
 5   0  0.4071750E-09  0.3799665E+04  0.7818609E-02  0.8046227E-01
       -1   -1    0    0    0  501  0.00000000000E+00  0.00000000000E+00  0.24031081424E+04  0.24031081425E+04  0.50400001928E-02 0. -1.
        1   -1    0    0  501    0  0.00000000000E+00  0.00000000000E+00 -0.15019563049E+04  0.15019563050E+04  0.50400001928E-02 0.  1.
    10030    2    1    2    0    0  0.00000000000E+00  0.00000000000E+00  0.90115183750E+03  0.39050644474E+04  0.37996649463E+04 0.  0.
        1    1    3    3  502    0  0.29998650571E+03 -0.11731712878E+04 -0.10539445757E+04  0.16053416904E+04  0.50400001928E-02 0.  1.
       -1    1    3    3    0  502 -0.29998650571E+03  0.11731712878E+04  0.19550964132E+04  0.22997227570E+04  0.50400001928E-02 0. -1.
</event>
<event>
 5   0  0.4071750E-09  0.3799342E+04  0.7818609E-02  0.8046296E-01
       -1   -1    0    0    0  501  0.00000000000E+00  0.00000000000E+00  0.17036295765E+04  0.17036295766E+04  0.50400001928E-02 0. -1.
        1   -1    0    0  501    0  0.00000000000E+00  0.00000000000E+00 -0.21182716543E+04  0.21182716543E+04  0.50400001928E-02 0.  1.
    10030    2    1    2    0    0  0.00000000000E+00  0.00000000000E+00 -0.41464207774E+03  0.38219012308E+04  0.37993421754E+04 0.  0.
        5    1    3    3  502    0  0.59844153049E+03 -0.35836015325E+03  0.15701379713E+04  0.17181122210E+04  0.46999998093E+01 0. -1.
       -5    1    3    3    0  502 -0.59844153049E+03  0.35836015325E+03 -0.19847800491E+04  0.21037890099E+04  0.46999998093E+01 0.  1.
</event>
<event>
 5   0  0.4071750E-09  0.3802388E+04  0.7818609E-02  0.8045643E-01
       -1   -1    0    0    0  501  0.00000000000E+00  0.00000000000E+00  0.24777488503E+04  0.24777488503E+04  0.50400001928E-02 0.  1.
        1   -1    0    0  501    0  0.00000000000E+00  0.00000000000E+00 -0.14587991911E+04  0.14587991911E+04  0.50400001928E-02 0. -1.
    10030    2    1    2    0    0  0.00000000000E+00  0.00000000000E+00  0.10189496592E+04  0.39365480414E+04  0.38023876806E+04 0.  0.
        2    1    3    3  502    0 -0.37317127752E+03  0.24056994759E+03 -0.14043735736E+04  0.14728869054E+04  0.25500000920E-02 0. -1.
       -2    1    3    3    0  502  0.37317127752E+03 -0.24056994759E+03  0.24233232328E+04  0.24636611359E+04  0.25500000920E-02 0.  1.
</event>
<event>
 5   0  0.4071750E-09  0.3801347E+04  0.7818609E-02  0.8045866E-01
       -3   -1    0    0    0  501  0.00000000000E+00  0.00000000000E+00  0.21200689924E+04  0.21200689948E+04  0.10100000352E+00 0. -1.
        3   -1    0    0  501    0  0.00000000000E+00  0.00000000000E+00 -0.17039819912E+04  0.17039819942E+04  0.10100000352E+00 0.  1.
    10030    2    1    2    0    0  0.00000000000E+00  0.00000000000E+00  0.41608700120E+03  0.38240509890E+04  0.38013468105E+04 0.  0.
        4    1    3    3  502    0  0.11581363753E+03  0.18888039694E+04  0.38676877032E+03  0.19314722178E+04  0.12699999809E+01 0.  1.
       -4    1    3    3    0  502 -0.11581363753E+03 -0.18888039694E+04  0.29318230883E+02  0.18925787712E+04  0.12699999809E+01 0. -1.
</event>
<event>
 5   0  0.1327249E-08  0.3799582E+04  0.7818609E-02  0.8046245E-01
       -2   -1    0    0    0  501  0.00000000000E+00  0.00000000000E+00  0.18161743898E+04  0.18161743898E+04  0.25500000920E-02 0.  1.
        2   -1    0    0  501    0  0.00000000000E+00  0.00000000000E+00 -0.19872571503E+04  0.19872571503E+04  0.25500000920E-02 0. -1.
    10030    2    1    2    0    0  0.00000000000E+00  0.00000000000E+00 -0.17108276053E+03  0.38034315401E+04  0.37995818414E+04 0.  0.
        1    1    3    3  502    0  0.46160960943E+03  0.32388355479E+03 -0.19015518975E+04  0.19834020287E+04  0.50400001928E-02 0. -1.
       -1    1    3    3    0  502 -0.46160960943E+03 -0.32388355479E+03  0.17304691369E+04  0.18200295114E+04  0.50400001928E-02 0.  1.
</event>
<event>
 5   0  0.1264013E-08  0.3801346E+04  0.7818609E-02  0.8045866E-01
       -2   -1    0    0    0  501  0.00000000000E+00  0.00000000000E+00  0.17847056465E+04  0.17847056465E+04  0.25500000920E-02 0. -1.
        2   -1    0    0  501    0  0.00000000000E+00  0.00000000000E+00 -0.20241757796E+04  0.20241757796E+04  0.25500000920E-02 0.  1.
    10030    2    1    2    0    0  0.00000000000E+00  0.00000000000E+00 -0.23947013306E+03  0.38088814261E+04  0.38013460476E+04 0.  0.
        4    1    3    3  502    0  0.10543691717E+04 -0.33461757961E+03  0.14289332035E+04  0.18070735978E+04  0.12699999809E+01 0. -1.
       -4    1    3    3    0  502 -0.10543691717E+04  0.33461757961E+03 -0.16684033366E+04  0.20018078283E+04  0.12699999809E+01 0.  1.
</event>
<event>
 5   0  0.4071750E-09  0.3798818E+04  0.7818609E-02  0.8046409E-01
       -1   -1    0    0    0  501  0.00000000000E+00  0.00000000000E+00  0.22386587589E+04  0.22386587589E+04  0.50400001928E-02 0. -1.
        1   -1    0    0  501    0  0.00000000000E+00  0.00000000000E+00 -0.16115698891E+04  0.16115698891E+04  0.50400001928E-02 0.  1.
    10030    2    1    2    0    0  0.00000000000E+00  0.00000000000E+00  0.62708886980E+03  0.38502286481E+04  0.37988182625E+04 0.  0.
        4    1    3    3  502    0  0.68418752785E+03  0.13326129274E+04  0.14971602060E+04  0.21178904794E+04  0.12699999809E+01 0.  1.
       -4    1    3    3    0  502 -0.68418752785E+03 -0.13326129274E+04 -0.87007133622E+03  0.17323381686E+04  0.12699999809E+01 0. -1.
</event>
<event>
 5   0  0.4071750E-09  0.3796760E+04  0.7818609E-02  0.8046850E-01
        1   -1    0    0  501    0  0.00000000000E+00  0.00000000000E+00  0.12945354837E+04  0.12945354837E+04  0.50400001928E-02 0. -1.
       -1   -1    0    0    0  501  0.00000000000E+00  0.00000000000E+00 -0.27838919464E+04  0.27838919464E+04  0.50400001928E-02 0.  1.
    10030    2    1    2    0    0  0.00000000000E+00  0.00000000000E+00 -0.14893564627E+04  0.40784274301E+04  0.37967601491E+04 0.  0.
        2    1    3    3  502    0  0.10046844601E+04 -0.67570662686E+03 -0.23152973988E+04  0.26127710108E+04  0.25500000920E-02 0.  1.
       -2    1    3    3    0  502 -0.10046844601E+04  0.67570662686E+03  0.82594093603E+03  0.14656564194E+04  0.25500000920E-02 0. -1.
</event>
<event>
 5   0  0.4071750E-09  0.3802580E+04  0.7818609E-02  0.8045601E-01
        1   -1    0    0  501    0  0.00000000000E+00  0.00000000000E+00  0.19433104679E+04  0.19433104679E+04  0.50400001928E-02 0.  1.
       -1   -1    0    0    0  501  0.00000000000E+00  0.00000000000E+00 -0.18601780789E+04  0.18601780789E+04  0.50400001928E-02 0. -1.
    10030    2    1    2    0    0  0.00000000000E+00  0.00000000000E+00  0.83132388934E+02  0.38034885468E+04  0.38025799310E+04 0.  0.
        2    1    3    3  502    0  0.11846411337E+04  0.10564089718E+04 -0.10053591187E+04  0.18788617535E+04  0.25500000920E-02 0. -1.
       -2    1    3    3    0  502 -0.11846411337E+04 -0.10564089718E+04  0.10884915076E+04  0.19246267933E+04  0.25500000920E-02 0.  1.
</event>
<event>
 5   0  0.1261152E-08  0.3801017E+04  0.7818609E-02  0.8045937E-01
        2   -1    0    0  501    0  0.00000000000E+00  0.00000000000E+00  0.15993612868E+04  0.15993612868E+04  0.25500000920E-02 0. -1.
       -2   -1    0    0    0  501  0.00000000000E+00  0.00000000000E+00 -0.22583588910E+04  0.22583588910E+04  0.25500000920E-02 0.  1.
    10030    2    1    2    0    0  0.00000000000E+00  0.00000000000E+00 -0.65899760413E+03  0.38577201778E+04  0.38010165914E+04 0.  0.
        2    1    3    3  502    0 -0.11820437012E+04 -0.11958242202E+04 -0.12285517054E+04  0.20824413965E+04  0.25500000920E-02 0. -1.
       -2    1    3    3    0  502  0.11820437012E+04  0.11958242202E+04  0.56955410123E+03  0.17752787813E+04  0.25500000920E-02 0.  1.
</event>
<event>
 5   0  0.4071750E-09  0.3800656E+04  0.7818609E-02  0.8046014E-01
       -1   -1    0    0    0  501  0.00000000000E+00  0.00000000000E+00  0.16482944412E+04  0.16482944412E+04  0.50400001928E-02 0. -1.
        1   -1    0    0  501    0  0.00000000000E+00  0.00000000000E+00 -0.21908983982E+04  0.21908983982E+04  0.50400001928E-02 0.  1.
    10030    2    1    2    0    0  0.00000000000E+00  0.00000000000E+00 -0.54260395698E+03  0.38391928394E+04  0.38006555493E+04 0.  0.
        1    1    3    3  502    0 -0.47337321239E+03  0.87096527859E+02 -0.21283050833E+04  0.21820519084E+04  0.50400001928E-02 0.  1.
       -1    1    3    3    0  502  0.47337321239E+03 -0.87096527859E+02  0.15857011263E+04  0.16571409310E+04  0.50400001928E-02 0. -1.
</event>
<event>
 5   0  0.4071750E-09  0.3801110E+04  0.7818609E-02  0.8045917E-01
       -1   -1    0    0    0  501  0.00000000000E+00  0.00000000000E+00  0.23877091481E+04  0.23877091481E+04  0.50400001928E-02 0. -1.
        1   -1    0    0  501    0  0.00000000000E+00  0.00000000000E+00 -0.15127928340E+04  0.15127928340E+04  0.50400001928E-02 0.  1.
    10030    2    1    2    0    0  0.00000000000E+00  0.00000000000E+00  0.87491631411E+03  0.39005019822E+04  0.38011099900E+04 0.  0.
        4    1    3    3  502    0  0.42767095047E+03 -0.56991827022E+03  0.22454596790E+04  0.23558013625E+04  0.12699999809E+01 0. -1.
       -4    1    3    3    0  502 -0.42767095047E+03  0.56991827022E+03 -0.13705433649E+04  0.15447006197E+04  0.12699999809E+01 0.  1.
</event>
<event>
 5   0  0.4071750E-09  0.3798473E+04  0.7818609E-02  0.8046483E-01
       -1   -1    0    0    0  501  0.00000000000E+00  0.00000000000E+00  0.26771781030E+04  0.26771781030E+04  0.50400001928E-02 0.  1.
        1   -1    0    0  501    0  0.00000000000E+00  0.00000000000E+00 -0.13473510599E+04  0.13473510599E+04  0.50400001928E-02 0. -1.
    10030    2    1    2    0    0  0.00000000000E+00  0.00000000000E+00  0.13298270432E+04  0.40245291629E+04  0.37984727218E+04 0.  0.
        3    1    3    3  502    0  0.18187797409E+04  0.51068423370E+03  0.87237410120E+03  0.20808158773E+04  0.10100000352E+00 0. -1.
       -3    1    3    3    0  502 -0.18187797409E+04 -0.51068423370E+03  0.45745294195E+03  0.19437132857E+04  0.10100000352E+00 0.  1.
</event>
<event>
 5   0  0.4071750E-09  0.3797294E+04  0.7818609E-02  0.8046736E-01
       -1   -1    0    0    0  501  0.00000000000E+00  0.00000000000E+00  0.13755644349E+04  0.13755644349E+04  0.50400001928E-02 0. -1.
        1   -1    0    0  501    0  0.00000000000E+00  0.00000000000E+00 -0.26206407363E+04  0.26206407363E+04  0.50400001928E-02 0.  1.
    10030    2    1    2    0    0  0.00000000000E+00  0.00000000000E+00 -0.12450763014E+04  0.39962051712E+04  0.37972938752E+04 0.  0.
        4    1    3    3  502    0 -0.95009012020E+03 -0.10576066335E+04 -0.19468916782E+04  0.24107243408E+04  0.12699999809E+01 0.  1.
       -4    1    3    3    0  502  0.95009012020E+03  0.10576066335E+04  0.70181537686E+03  0.15854808305E+04  0.12699999809E+01 0. -1.
</event>
<event>
 5   0  0.1264013E-08  0.3799252E+04  0.7818609E-02  0.8046315E-01
       -2   -1    0    0    0  501  0.00000000000E+00  0.00000000000E+00  0.22208828676E+04  0.22208828676E+04  0.25500000920E-02 0.  1.
        2   -1    0    0  501    0  0.00000000000E+00  0.00000000000E+00 -0.16248396579E+04  0.16248396579E+04  0.25500000920E-02 0. -1.
    10030    2    1    2    0    0  0.00000000000E+00  0.00000000000E+00  0.59604320966E+03  0.38457225255E+04  0.37992517994E+04 0.  0.
        4    1    3    3  502    0 -0.41340991112E+03  0.79327326106E+03  0.19943437194E+04  0.21857718786E+04  0.12699999809E+01 0.  1.
       -4    1    3    3    0  502  0.41340991112E+03 -0.79327326106E+03 -0.13983005098E+04  0.16599506468E+04  0.12699999809E+01 0. -1.
</event>
<event>
 5   0  0.1261152E-08  0.3800754E+04  0.7818609E-02  0.8045993E-01
       -2   -1    0    0    0  501  0.00000000000E+00  0.00000000000E+00  0.15144130822E+04  0.15144130822E+04  0.25500000920E-02 0.  1.
        2   -1    0    0  501    0  0.00000000000E+00  0.00000000000E+00 -0.23847075477E+04  0.23847075477E+04  0.25500000920E-02 0. -1.
    10030    2    1    2    0    0  0.00000000000E+00  0.00000000000E+00 -0.87029446557E+03  0.38991206299E+04  0.38007537713E+04 0.  0.
        2    1    3    3  502    0 -0.39904258346E+03 -0.49635495268E+02  0.14702683751E+04  0.15242663024E+04  0.25500000920E-02 0.  1.
       -2    1    3    3    0  502  0.39904258346E+03  0.49635495268E+02 -0.23405628407E+04  0.23748543275E+04  0.25500000920E-02 0. -1.
</event>
<event>
 5   0  0.1293993E-08  0.3800613E+04  0.7818609E-02  0.8046023E-01
       -2   -1    0    0    0  501  0.00000000000E+00  0.00000000000E+00  0.16485547141E+04  0.16485547141E+04  0.25500000920E-02 0.  1.
        2   -1    0    0  501    0  0.00000000000E+00  0.00000000000E+00 -0.21905029621E+04  0.21905029622E+04  0.25500000920E-02 0. -1.
    10030    2    1    2    0    0  0.00000000000E+00  0.00000000000E+00 -0.54194824805E+03  0.38390576762E+04  0.38006125740E+04 0.  0.
        5    1    3    3  502    0  0.16317273252E+04  0.78870935095E+03 -0.84819604357E+03  0.20010135238E+04  0.46999998093E+01 0. -1.
       -5    1    3    3    0  502 -0.16317273252E+04 -0.78870935095E+03  0.30624779551E+03  0.18380441525E+04  0.46999998093E+01 0.  1.
</event>
<event>
 5   0  0.1305088E-08  0.3800112E+04  0.7818609E-02  0.8046131E-01
        2   -1    0    0  501    0  0.00000000000E+00  0.00000000000E+00  0.28396154350E+04  0.28396154350E+04  0.25500000920E-02 0. -1.
       -2   -1    0    0    0  501  0.00000000000E+00  0.00000000000E+00 -0.12713739917E+04  0.12713739917E+04  0.25500000920E-02 0.  1.
    10030    2    1    2    0    0  0.00000000000E+00  0.00000000000E+00  0.15682414433E+04  0.41109894267E+04  0.38001122144E+04 0.  0.
        3    1    3    3  502    0 -0.18573435494E+04 -0.22539859444E+03  0.11423992763E+04  0.21921691776E+04  0.10100000352E+00 0. -1.
       -3    1    3    3    0  502  0.18573435494E+04  0.22539859444E+03  0.42584216704E+03  0.19188202491E+04  0.10100000352E+00 0.  1.
</event>
<event>
 5   0  0.1327249E-08  0.3799430E+04  0.7818609E-02  0.8046277E-01
       -2   -1    0    0    0  501  0.00000000000E+00  0.00000000000E+00  0.11924118675E+04  0.11924118675E+04  0.25500000920E-02 0. -1.
        2   -1    0    0  501    0  0.00000000000E+00  0.00000000000E+00 -0.30265692072E+04  0.30265692072E+04  0.25500000920E-02 0.  1.
    10030    2    1    2    0    0  0.00000000000E+00  0.00000000000E+00 -0.18341573397E+04  0.42189810746E+04  0.37994299785E+04 0.  0.
        1    1    3    3  502    0 -0.11581636892E+04  0.44508399818E+03 -0.25144987320E+04  0.28039519913E+04  0.50400001928E-02 0.  1.
       -1    1    3    3    0  502  0.11581636892E+04 -0.44508399818E+03  0.68034139231E+03  0.14150290833E+04  0.50400001928E-02 0. -1.
</event>
<event>
 5   0  0.4071750E-09  0.3799463E+04  0.7818609E-02  0.8046270E-01
       -1   -1    0    0    0  501  0.00000000000E+00  0.00000000000E+00  0.16374427663E+04  0.16374427663E+04  0.50400001928E-02 0. -1.
        1   -1    0    0  501    0  0.00000000000E+00  0.00000000000E+00 -0.22040340828E+04  0.22040340828E+04  0.50400001928E-02 0.  1.
    10030    2    1    2    0    0  0.00000000000E+00  0.00000000000E+00 -0.56659131652E+03  0.38414768491E+04  0.37994629439E+04 0.  0.
        3    1    3    3  502    0  0.78075809975E+03 -0.16649806152E+04 -0.76525962607E+03  0.19918247827E+04  0.10100000352E+00 0.  1.
       -3    1    3    3    0  502 -0.78075809975E+03  0.16649806152E+04  0.19866830955E+03  0.18496520664E+04  0.10100000352E+00 0. -1.
</event>
<event>
 5   0  0.4071750E-09  0.3800060E+04  0.7818609E-02  0.8046142E-01
        1   -1    0    0  501    0  0.00000000000E+00  0.00000000000E+00  0.21343647325E+04  0.21343647325E+04  0.50400001928E-02 0.  1.
       -1   -1    0    0    0  501  0.00000000000E+00  0.00000000000E+00 -0.16914228273E+04  0.16914228273E+04  0.50400001928E-02 0. -1.
    10030    2    1    2    0    0  0.00000000000E+00  0.00000000000E+00  0.44294190517E+03  0.38257875598E+04  0.38000595944E+04 0.  0.
        3    1    3    3  502    0 -0.16228962587E+04  0.20273951059E+03 -0.75214300018E+03  0.18001707360E+04  0.10100000352E+00 0. -1.
       -3    1    3    3    0  502  0.16228962587E+04 -0.20273951059E+03  0.11950849054E+04  0.20256168238E+04  0.10100000352E+00 0.  1.
</event>
<event>
 5   0  0.1293993E-08  0.3786398E+04  0.7818609E-02  0.8049080E-01
       -2   -1    0    0    0  501  0.00000000000E+00  0.00000000000E+00  0.16294253058E+04  0.16294253058E+04  0.25500000920E-02 0. -1.
        2   -1    0    0  501    0  0.00000000000E+00  0.00000000000E+00 -0.21996732648E+04  0.21996732648E+04  0.25500000920E-02 0.  1.
    10030    2    1    2    0    0  0.00000000000E+00  0.00000000000E+00 -0.57024795898E+03  0.38290985707E+04  0.37863984377E+04 0.  0.
        5    1    3    3  502    0  0.20145875140E+03  0.41032539055E+03  0.15727738727E+04  0.16378621125E+04  0.46999998093E+01 0. -1.
       -5    1    3    3    0  502 -0.20145875140E+03 -0.41032539055E+03 -0.21430218317E+04  0.21912364582E+04  0.46999998093E+01 0.  1.
</event>
<event>
 5   0  0.4071750E-09  0.3800678E+04  0.7818609E-02  0.8046009E-01
        1   -1    0    0  501    0  0.00000000000E+00  0.00000000000E+00  0.15244213473E+04  0.15244213473E+04  0.50400001928E-02 0.  1.
       -1   -1    0    0    0  501  0.00000000000E+00  0.00000000000E+00 -0.23689571495E+04  0.23689571495E+04  0.50400001928E-02 0. -1.
    10030    2    1    2    0    0  0.00000000000E+00  0.00000000000E+00 -0.84453580221E+03  0.38933784968E+04  0.38006782813E+04 0.  0.
        4    1    3    3  502    0 -0.95760151152E+03 -0.48945628531E+03  0.11827002550E+04  0.15985460945E+04  0.12699999809E+01 0.  1.
       -4    1    3    3    0  502  0.95760151152E+03  0.48945628531E+03 -0.20272360572E+04  0.22948324023E+04  0.12699999809E+01 0. -1.
</event>
<event>
 5   0  0.1327249E-08  0.3810591E+04  0.7818609E-02  0.8043886E-01
        2   -1    0    0  501    0  0.00000000000E+00  0.00000000000E+00  0.19355379883E+04  0.19355379883E+04  0.25500000920E-02 0. -1.
       -2   -1    0    0    0  501  0.00000000000E+00  0.00000000000E+00 -0.18755258133E+04  0.18755258133E+04  0.25500000920E-02 0.  1.
    10030    2    1    2    0    0  0.00000000000E+00  0.00000000000E+00  0.60012175048E+02  0.38110638016E+04  0.38105912715E+04 0.  0.
        1    1    3    3  502    0 -0.15210637750E+04 -0.19621811735E+03  0.11606394857E+04  0.19233357931E+04  0.50400001928E-02 0. -1.
       -1    1    3    3    0  502  0.15210637750E+04  0.19621811735E+03 -0.11006273107E+04  0.18877280085E+04  0.50400001928E-02 0.  1.
</event>
<event>
 5   0  0.1305088E-08  0.3800094E+04  0.7818609E-02  0.8046135E-01
       -2   -1    0    0    0  501  0.00000000000E+00  0.00000000000E+00  0.14620729715E+04  0.14620729715E+04  0.25500000920E-02 0.  1.
        2   -1    0    0  501    0  0.00000000000E+00  0.00000000000E+00 -0.24692196906E+04  0.24692196906E+04  0.25500000920E-02 0. -1.
    10030    2    1    2    0    0  0.00000000000E+00  0.00000000000E+00 -0.10071467190E+04  0.39312926621E+04  0.38000944043E+04 0.  0.
        3    1    3    3  502    0  0.48651830662E+03 -0.15372859323E+04 -0.15433771384E+04  0.22320307126E+04  0.10100000352E+00 0. -1.
       -3    1    3    3    0  502 -0.48651830662E+03  0.15372859323E+04  0.53623041933E+03  0.16992619496E+04  0.10100000352E+00 0.  1.
</event>
<event>
 5   0  0.4071750E-09  0.3800007E+04  0.7818609E-02  0.8046153E-01
        1   -1    0    0  501    0  0.00000000000E+00  0.00000000000E+00  0.21946252123E+04  0.21946252123E+04  0.50400001928E-02 0.  1.
       -1   -1    0    0    0  501  0.00000000000E+00  0.00000000000E+00 -0.16449339955E+04  0.16449339955E+04  0.50400001928E-02 0. -1.
    10030    2    1    2    0    0  0.00000000000E+00  0.00000000000E+00  0.54969121684E+03  0.38395592078E+04  0.38000071679E+04 0.  0.
        3    1    3    3  502    0  0.56563918084E+03  0.29099886637E+03 -0.15341482523E+04  0.16607946572E+04  0.10100000352E+00 0. -1.
       -3    1    3    3    0  502 -0.56563918084E+03 -0.29099886637E+03  0.20838394692E+04  0.21787645505E+04  0.10100000352E+00 0.  1.
</event>
<event>
 5   0  0.1305088E-08  0.3800512E+04  0.7818609E-02  0.8046045E-01
       -2   -1    0    0    0  501  0.00000000000E+00  0.00000000000E+00  0.21944886089E+04  0.21944886089E+04  0.25500000920E-02 0. -1.
        2   -1    0    0  501    0  0.00000000000E+00  0.00000000000E+00 -0.16454732679E+04  0.16454732679E+04  0.25500000920E-02 0.  1.
    10030    2    1    2    0    0  0.00000000000E+00  0.00000000000E+00  0.54901534103E+03  0.38399618768E+04  0.38005117248E+04 0.  0.
        3    1    3    3  502    0 -0.67443065311E+02  0.14764274559E+04 -0.93228808545E+03  0.17474403235E+04  0.10100000352E+00 0.  1.
       -3    1    3    3    0  502  0.67443065311E+02 -0.14764274559E+04  0.14813034265E+04  0.20925215533E+04  0.10100000352E+00 0. -1.
</event>
<event>
 5   0  0.1327249E-08  0.3801348E+04  0.7818609E-02  0.8045866E-01
       -2   -1    0    0    0  501  0.00000000000E+00  0.00000000000E+00  0.12611608293E+04  0.12611608293E+04  0.25500000920E-02 0.  1.
        2   -1    0    0  501    0  0.00000000000E+00  0.00000000000E+00 -0.28644735910E+04  0.28644735910E+04  0.25500000920E-02 0. -1.
    10030    2    1    2    0    0  0.00000000000E+00  0.00000000000E+00 -0.16033127617E+04  0.41256344203E+04  0.38013481238E+04 0.  0.
        1    1    3    3  502    0  0.16969275671E+04 -0.16023204153E+03  0.11111585677E+03  0.17080937354E+04  0.50400001928E-02 0.  1.
       -1    1    3    3    0  502 -0.16969275671E+04  0.16023204153E+03 -0.17144286185E+04  0.24175406849E+04  0.50400001928E-02 0. -1.
</event>
<event>
 5   0  0.4071750E-09  0.3825786E+04  0.7818609E-02  0.8040644E-01
        1   -1    0    0  501    0  0.00000000000E+00  0.00000000000E+00  0.24073865490E+04  0.24073865490E+04  0.50400001928E-02 0.  1.
       -1   -1    0    0    0  501  0.00000000000E+00  0.00000000000E+00 -0.15199714322E+04  0.15199714322E+04  0.50400001928E-02 0. -1.
    10030    2    1    2    0    0  0.00000000000E+00  0.00000000000E+00  0.88741511680E+03  0.39273579811E+04  0.38257855563E+04 0.  0.
        2    1    3    3  502    0 -0.95496314745E+03 -0.76106975556E+03  0.19552042496E+04  0.23052126677E+04  0.25500000920E-02 0.  1.
       -2    1    3    3    0  502  0.95496314745E+03  0.76106975556E+03 -0.10677891328E+04  0.16221453134E+04  0.25500000920E-02 0. -1.
</event>
<event>
 5   0  0.1264013E-08  0.3800879E+04  0.7818609E-02  0.8045966E-01
       -2   -1    0    0    0  501  0.00000000000E+00  0.00000000000E+00  0.15772292563E+04  0.15772292563E+04  0.25500000920E-02 0. -1.
        2   -1    0    0  501    0  0.00000000000E+00  0.00000000000E+00 -0.22898824433E+04  0.22898824433E+04  0.25500000920E-02 0.  1.
    10030    2    1    2    0    0  0.00000000000E+00  0.00000000000E+00 -0.71265318696E+03  0.38671116996E+04  0.38008786264E+04 0.  0.
        4    1    3    3  502    0  0.14952870865E+04  0.21626621875E+03  0.81659072446E+03  0.17174040214E+04  0.12699999809E+01 0. -1.
       -4    1    3    3    0  502 -0.14952870865E+04 -0.21626621875E+03 -0.15292439114E+04  0.21497076783E+04  0.12699999809E+01 0.  1.
</event>
<event>
 5   0  0.1261152E-08  0.3800333E+04  0.7818609E-02  0.8046083E-01
        2   -1    0    0  501    0  0.00000000000E+00  0.00000000000E+00  0.26367949848E+04  0.26367949848E+04  0.25500000920E-02 0. -1.
       -2   -1    0    0    0  501  0.00000000000E+00  0.00000000000E+00 -0.13693263545E+04  0.13693263545E+04  0.25500000920E-02 0.  1.
    10030    2    1    2    0    0  0.00000000000E+00  0.00000000000E+00  0.12674686303E+04  0.40061213393E+04  0.38003330717E+04 0.  0.
        2    1    3    3  502    0  0.17129863395E+04 -0.25432724136E+03 -0.19068134147E+03  0.17422295828E+04  0.25500000920E-02 0.  1.
       -2    1    3    3    0  502 -0.17129863395E+04  0.25432724136E+03  0.14581499717E+04  0.22638917565E+04  0.25500000920E-02 0. -1.
</event>
<event>
 5   0  0.4071750E-09  0.3800369E+04  0.7818609E-02  0.8046076E-01
        1   -1    0    0  501    0  0.00000000000E+00  0.00000000000E+00  0.24059968863E+04  0.24059968863E+04  0.50400001928E-02 0.  1.
       -1   -1    0    0    0  501  0.00000000000E+00  0.00000000000E+00 -0.15007093242E+04  0.15007093242E+04  0.50400001928E-02 0. -1.
    10030    2    1    2    0    0  0.00000000000E+00  0.00000000000E+00  0.90528756211E+03  0.39067062104E+04  0.38003694353E+04 0.  0.
        3    1    3    3  502    0  0.15793416818E+04  0.36858526031E+03 -0.56527856966E+03  0.17174734681E+04  0.10100000352E+00 0. -1.
       -3    1    3    3    0  502 -0.15793416818E+04 -0.36858526031E+03  0.14705661318E+04  0.21892327423E+04  0.10100000352E+00 0.  1.
</event>
<event>
 5   0  0.4071750E-09  0.3799884E+04  0.7818609E-02  0.8046180E-01
        1   -1    0    0  501    0  0.00000000000E+00  0.00000000000E+00  0.18442405711E+04  0.18442405712E+04  0.50400001928E-02 0. -1.
       -1   -1    0    0    0  501  0.00000000000E+00  0.00000000000E+00 -0.19573260971E+04  0.19573260971E+04  0.50400001928E-02 0.  1.
    10030    2    1    2    0    0  0.00000000000E+00  0.00000000000E+00 -0.11308552596E+03  0.38015666683E+04  0.37998843136E+04 0.  0.
        4    1    3    3  502    0 -0.14471761214E+04 -0.28948331527E+03 -0.12535921570E+04  0.19363920639E+04  0.12699999809E+01 0.  1.
       -4    1    3    3    0  502  0.14471761214E+04  0.28948331527E+03  0.11405066311E+04  0.18651746043E+04  0.12699999809E+01 0. -1.
</event>
<event>
 5   0  0.4071750E-09  0.3801682E+04  0.7818609E-02  0.8045794E-01
        1   -1    0    0  501    0  0.00000000000E+00  0.00000000000E+00  0.18704822168E+04  0.18704822168E+04  0.50400001928E-02 0.  1.
       -1   -1    0    0    0  501  0.00000000000E+00  0.00000000000E+00 -0.19316924185E+04  0.19316924185E+04  0.50400001928E-02 0. -1.
    10030    2    1    2    0    0  0.00000000000E+00  0.00000000000E+00 -0.61210201698E+02  0.38021746354E+04  0.38016819000E+04 0.  0.
        5    1    3    3  502    0  0.16182118486E+04 -0.36556102596E+03  0.89737817542E+03  0.18861479609E+04  0.46999998093E+01 0.  1.
       -5    1    3    3    0  502 -0.16182118486E+04  0.36556102596E+03 -0.95858837712E+03  0.19160266745E+04  0.46999998093E+01 0. -1.
</event>
<event>
 5   0  0.4071750E-09  0.3799332E+04  0.7818609E-02  0.8046298E-01
       -1   -1    0    0    0  501  0.00000000000E+00  0.00000000000E+00  0.13209050515E+04  0.13209050515E+04  0.50400001928E-02 0.  1.
        1   -1    0    0  501    0  0.00000000000E+00  0.00000000000E+00 -0.27320142739E+04  0.27320142739E+04  0.50400001928E-02 0. -1.
    10030    2    1    2    0    0  0.00000000000E+00  0.00000000000E+00 -0.14111092225E+04  0.40529193254E+04  0.37993322862E+04 0.  0.
        4    1    3    3  502    0  0.68117973609E+03 -0.17426144708E+04 -0.35495584275E+03  0.19043913174E+04  0.12699999809E+01 0.  1.
       -4    1    3    3    0  502 -0.68117973609E+03  0.17426144708E+04 -0.10561533797E+04  0.21485280080E+04  0.12699999809E+01 0. -1.
</event>
<event>
 5   0  0.4071750E-09  0.3800158E+04  0.7818609E-02  0.8046121E-01
        1   -1    0    0  501    0  0.00000000000E+00  0.00000000000E+00  0.20208665607E+04  0.20208665607E+04  0.50400001928E-02 0. -1.
       -1   -1    0    0    0  501  0.00000000000E+00  0.00000000000E+00 -0.17865110975E+04  0.17865110975E+04  0.50400001928E-02 0.  1.
    10030    2    1    2    0    0  0.00000000000E+00  0.00000000000E+00  0.23435546321E+03  0.38073776583E+04  0.38001581743E+04 0.  0.
        1    1    3    3  502    0 -0.18088223036E+04  0.49146633522E+02 -0.46361919238E+03  0.18679390443E+04  0.50400001928E-02 0.  1.
       -1    1    3    3    0  502  0.18088223036E+04 -0.49146633522E+02  0.69797465560E+03  0.19394386140E+04  0.50400001928E-02 0. -1.
</event>
<event>
 5   0  0.1293993E-08  0.3800052E+04  0.7818609E-02  0.8046144E-01
       -2   -1    0    0    0  501  0.00000000000E+00  0.00000000000E+00  0.19124493461E+04  0.19124493461E+04  0.25500000920E-02 0. -1.
        2   -1    0    0  501    0  0.00000000000E+00  0.00000000000E+00 -0.18876830457E+04  0.18876830457E+04  0.25500000920E-02 0.  1.
    10030    2    1    2    0    0  0.00000000000E+00  0.00000000000E+00  0.24766300416E+02  0.38001323917E+04  0.38000516871E+04 0.  0.
        5    1    3    3  502    0  0.18483169829E+04  0.43742358057E+03  0.61993257095E+02  0.19003895159E+04  0.46999998093E+01 0. -1.
       -5    1    3    3    0  502 -0.18483169829E+04 -0.43742358057E+03 -0.37226956679E+02  0.18997428759E+04  0.46999998093E+01 0.  1.
</event>
<event>
 5   0  0.4071750E-09  0.3795815E+04  0.7818609E-02  0.8047054E-01
        1   -1    0    0  501    0  0.00000000000E+00  0.00000000000E+00  0.22747993613E+04  0.22747993613E+04  0.50400001928E-02 0.  1.
       -1   -1    0    0    0  501  0.00000000000E+00  0.00000000000E+00 -0.15834597429E+04  0.15834597429E+04  0.50400001928E-02 0. -1.
    10030    2    1    2    0    0  0.00000000000E+00  0.00000000000E+00  0.69133961846E+03  0.38582591042E+04  0.37958151756E+04 0.  0.
        4    1    3    3  502    0 -0.23383453772E+03  0.94757772520E+03 -0.13088264555E+04  0.16326697277E+04  0.12699999809E+01 0. -1.
       -4    1    3    3    0  502  0.23383453772E+03 -0.94757772520E+03  0.20001660740E+04  0.22255893765E+04  0.12699999809E+01 0.  1.
</event>
<event>
 5   0  0.1293993E-08  0.3801386E+04  0.7818609E-02  0.8045858E-01
        2   -1    0    0  501    0  0.00000000000E+00  0.00000000000E+00  0.22604303618E+04  0.22604303618E+04  0.25500000920E-02 0.  1.
       -2   -1    0    0    0  501  0.00000000000E+00  0.00000000000E+00 -0.15982061124E+04  0.15982061124E+04  0.25500000920E-02 0. -1.
    10030    2    1    2    0    0  0.00000000000E+00  0.00000000000E+00  0.66222424939E+03  0.38586364743E+04  0.38013858636E+04 0.  0.
        5    1    3    3  502    0  0.10082959351E+04 -0.11558282432E+04  0.14705200477E+04  0.21248649184E+04  0.46999998093E+01 0.  1.
       -5    1    3    3    0  502 -0.10082959351E+04  0.11558282432E+04 -0.80829579835E+03  0.17337715559E+04  0.46999998093E+01 0. -1.
</event>
<event>
 5   0  0.1305088E-08  0.3799971E+04  0.7818609E-02  0.8046161E-01
       -2   -1    0    0    0  501  0.00000000000E+00  0.00000000000E+00  0.14827833920E+04  0.14827833920E+04  0.25500000920E-02 0. -1.
        2   -1    0    0  501    0  0.00000000000E+00  0.00000000000E+00 -0.24345728131E+04  0.24345728131E+04  0.25500000920E-02 0.  1.
    10030    2    1    2    0    0  0.00000000000E+00  0.00000000000E+00 -0.95178942103E+03  0.39173562051E+04  0.37999705967E+04 0.  0.
        3    1    3    3  502    0 -0.16015168662E+04 -0.78635581241E+03  0.19753245306E+03  0.17950573296E+04  0.10100000352E+00 0. -1.
       -3    1    3    3    0  502  0.16015168662E+04  0.78635581241E+03 -0.11493218741E+04  0.21222988755E+04  0.10100000352E+00 0.  1.
</event>
<event>
 5   0  0.1305088E-08  0.3800104E+04  0.7818609E-02  0.8046133E-01
        2   -1    0    0  501    0  0.00000000000E+00  0.00000000000E+00  0.19018106115E+04  0.19018106115E+04  0.25500000920E-02 0. -1.
       -2   -1    0    0    0  501  0.00000000000E+00  0.00000000000E+00 -0.18982946517E+04  0.18982946517E+04  0.25500000920E-02 0.  1.
    10030    2    1    2    0    0  0.00000000000E+00  0.00000000000E+00  0.35159598223E+01  0.38001052632E+04  0.38001036366E+04 0.  0.
        3    1    3    3  502    0 -0.17449075245E+03  0.60407470327E+03 -0.17912412907E+04  0.18983937003E+04  0.10100000352E+00 0.  1.
       -3    1    3    3    0  502  0.17449075245E+03 -0.60407470327E+03  0.17947572505E+04  0.19017115628E+04  0.10100000352E+00 0. -1.
</event>
<event>
 5   0  0.4071750E-09  0.3797952E+04  0.7818609E-02  0.8046595E-01
        1   -1    0    0  501    0  0.00000000000E+00  0.00000000000E+00  0.34245335428E+04  0.34245335428E+04  0.50400001928E-02 0.  1.
       -1   -1    0    0    0  501  0.00000000000E+00  0.00000000000E+00 -0.10530221478E+04  0.10530221478E+04  0.50400001928E-02 0. -1.
    10030    2    1    2    0    0  0.00000000000E+00  0.00000000000E+00  0.23715113950E+04  0.44775556906E+04  0.37979519040E+04 0.  0.
        5    1    3    3  502    0 -0.13677382308E+04 -0.51166644892E+03  0.26168820384E+04  0.29967656091E+04  0.46999998093E+01 0.  1.
       -5    1    3    3    0  502  0.13677382308E+04  0.51166644892E+03 -0.24537064331E+03  0.14807900815E+04  0.46999998093E+01 0. -1.
</event>
<event>
 5   0  0.1293993E-08  0.3799922E+04  0.7818609E-02  0.8046172E-01
       -2   -1    0    0    0  501  0.00000000000E+00  0.00000000000E+00  0.24321111557E+04  0.24321111557E+04  0.25500000920E-02 0.  1.
        2   -1    0    0  501    0  0.00000000000E+00  0.00000000000E+00 -0.14842463956E+04  0.14842463956E+04  0.25500000920E-02 0. -1.
    10030    2    1    2    0    0  0.00000000000E+00  0.00000000000E+00  0.94786476009E+03  0.39163575514E+04  0.37999222185E+04 0.  0.
        5    1    3    3  502    0 -0.76509102056E+03  0.76087947881E+03  0.20856686230E+04  0.23482626654E+04  0.46999998093E+01 0.  1.
       -5    1    3    3    0  502  0.76509102056E+03 -0.76087947881E+03 -0.11378038629E+04  0.15680948860E+04  0.46999998093E+01 0. -1.
</event>
<event>
 5   0  0.1305088E-08  0.3793357E+04  0.7818609E-02  0.8047582E-01
        2   -1    0    0  501    0  0.00000000000E+00  0.00000000000E+00  0.17429346094E+04  0.17429346094E+04  0.25500000920E-02 0. -1.
       -2   -1    0    0    0  501  0.00000000000E+00  0.00000000000E+00 -0.20639836419E+04  0.20639836419E+04  0.25500000920E-02 0.  1.
    10030    2    1    2    0    0  0.00000000000E+00  0.00000000000E+00 -0.32104903252E+03  0.38069182513E+04  0.37933565731E+04 0.  0.
        3    1    3    3  502    0 -0.23573303424E+03  0.18817517887E+04 -0.18941379289E+03  0.19058954465E+04  0.10100000352E+00 0.  1.
       -3    1    3    3    0  502  0.23573303424E+03 -0.18817517887E+04 -0.13163523963E+03  0.19010228048E+04  0.10100000352E+00 0. -1.
</event>
<event>
 5   0  0.4071750E-09  0.3801050E+04  0.7818609E-02  0.8045930E-01
        1   -1    0    0  501    0  0.00000000000E+00  0.00000000000E+00  0.22675008789E+04  0.22675008789E+04  0.50400001928E-02 0. -1.
       -1   -1    0    0    0  501  0.00000000000E+00  0.00000000000E+00 -0.15929413022E+04  0.15929413022E+04  0.50400001928E-02 0.  1.
    10030    2    1    2    0    0  0.00000000000E+00  0.00000000000E+00  0.67455957670E+03  0.38604421810E+04  0.38010502773E+04 0.  0.
        3    1    3    3  502    0 -0.18502324352E+04  0.19256674408E+02 -0.10339492148E+03  0.18532192001E+04  0.10100000352E+00 0.  1.
       -3    1    3    3    0  502  0.18502324352E+04 -0.19256674408E+02  0.77795449819E+03  0.20072229809E+04  0.10100000352E+00 0. -1.
</event>
<event>
 5   0  0.4071750E-09  0.3797682E+04  0.7818609E-02  0.8046653E-01
        1   -1    0    0  501    0  0.00000000000E+00  0.00000000000E+00  0.19109361396E+04  0.19109361396E+04  0.50400001928E-02 0. -1.
       -1   -1    0    0    0  501  0.00000000000E+00  0.00000000000E+00 -0.18868223474E+04  0.18868223474E+04  0.50400001928E-02 0.  1.
    10030    2    1    2    0    0  0.00000000000E+00  0.00000000000E+00  0.24113792258E+02  0.37977584870E+04  0.37976819312E+04 0.  0.
        3    1    3    3  502    0  0.21771972263E+02 -0.16653581137E+02  0.19107382755E+04  0.19109348833E+04  0.10100000352E+00 0. -1.
       -3    1    3    3    0  502 -0.21771972263E+02  0.16653581137E+02 -0.18866244832E+04  0.18868236037E+04  0.10100000352E+00 0.  1.
</event>
<event>
 5   0  0.4071750E-09  0.3799303E+04  0.7818609E-02  0.8046305E-01
        1   -1    0    0  501    0  0.00000000000E+00  0.00000000000E+00  0.15551082897E+04  0.15551082897E+04  0.50400001928E-02 0. -1.
       -1   -1    0    0    0  501  0.00000000000E+00  0.00000000000E+00 -0.23205298804E+04  0.23205298804E+04  0.50400001928E-02 0.  1.
    10030    2    1    2    0    0  0.00000000000E+00  0.00000000000E+00 -0.76542159073E+03  0.38756381701E+04  0.37993027010E+04 0.  0.
        4    1    3    3  502    0  0.16297905929E+04  0.92436612622E+03 -0.70205584190E+03  0.20008883353E+04  0.12699999809E+01 0. -1.
       -4    1    3    3    0  502 -0.16297905929E+04 -0.92436612622E+03 -0.63365748827E+02  0.18747498348E+04  0.12699999809E+01 0.  1.
</event>
<event>
 5   0  0.1327249E-08  0.3805007E+04  0.7818609E-02  0.8045081E-01
        2   -1    0    0  501    0  0.00000000000E+00  0.00000000000E+00  0.12625014070E+04  0.12625014070E+04  0.25500000920E-02 0.  1.
       -2   -1    0    0    0  501  0.00000000000E+00  0.00000000000E+00 -0.28669430591E+04  0.28669430591E+04  0.25500000920E-02 0. -1.
    10030    2    1    2    0    0  0.00000000000E+00  0.00000000000E+00 -0.16044416521E+04  0.41294444661E+04  0.38050070412E+04 0.  0.
        1    1    3    3  502    0  0.16732544067E+04  0.90473840693E+03 -0.76481847157E+03  0.20501900373E+04  0.50400001928E-02 0. -1.
       -1    1    3    3    0  502 -0.16732544067E+04 -0.90473840693E+03 -0.83962318057E+03  0.20792544288E+04  0.50400001928E-02 0.  1.
</event>
<event>
 5   0  0.1293993E-08  0.3799874E+04  0.7818609E-02  0.8046182E-01
       -2   -1    0    0    0  501  0.00000000000E+00  0.00000000000E+00  0.21300717437E+04  0.21300717437E+04  0.25500000920E-02 0.  1.
        2   -1    0    0  501    0  0.00000000000E+00  0.00000000000E+00 -0.16946664364E+04  0.16946664364E+04  0.25500000920E-02 0. -1.
    10030    2    1    2    0    0  0.00000000000E+00  0.00000000000E+00  0.43540530723E+03  0.38247381801E+04  0.37998742564E+04 0.  0.
        5    1    3    3  502    0  0.16447717079E+04  0.66924060308E+03  0.89783260465E+03  0.19897945703E+04  0.46999998093E+01 0.  1.
       -5    1    3    3    0  502 -0.16447717079E+04 -0.66924060308E+03 -0.46242729742E+03  0.18349436098E+04  0.46999998093E+01 0. -1.
</event>
<event>
 5   0  0.1261152E-08  0.3799951E+04  0.7818609E-02  0.8046165E-01
       -2   -1    0    0    0  501  0.00000000000E+00  0.00000000000E+00  0.20307500054E+04  0.20307500054E+04  0.25500000920E-02 0.  1.
        2   -1    0    0  501    0  0.00000000000E+00  0.00000000000E+00 -0.17776222999E+04  0.17776222999E+04  0.25500000920E-02 0. -1.
    10030    2    1    2    0    0  0.00000000000E+00  0.00000000000E+00  0.25312770546E+03  0.38083723053E+04  0.37999507865E+04 0.  0.
        2    1    3    3  502    0 -0.16356220955E+04 -0.77773027677E+03 -0.44897574787E+03  0.18659322723E+04  0.25500000920E-02 0. -1.
       -2    1    3    3    0  502  0.16356220955E+04  0.77773027677E+03  0.70210345333E+03  0.19424400330E+04  0.25500000920E-02 0.  1.
</event>
<event>
 5   0  0.1305088E-08  0.3800273E+04  0.7818609E-02  0.8046096E-01
       -2   -1    0    0    0  501  0.00000000000E+00  0.00000000000E+00  0.13575908505E+04  0.13575908505E+04  0.25500000920E-02 0.  1.
        2   -1    0    0  501    0  0.00000000000E+00  0.00000000000E+00 -0.26595044491E+04  0.26595044491E+04  0.25500000920E-02 0. -1.
    10030    2    1    2    0    0  0.00000000000E+00  0.00000000000E+00 -0.13019135986E+04  0.40170952996E+04  0.38002730991E+04 0.  0.
        3    1    3    3  502    0  0.10675064010E+04 -0.11943881507E+04  0.42930205017E+03  0.16584430141E+04  0.10100000352E+00 0.  1.
       -3    1    3    3    0  502 -0.10675064010E+04  0.11943881507E+04 -0.17312156488E+04  0.23586522854E+04  0.10100000352E+00 0. -1.
</event>
<event>
 5   0  0.4071750E-09  0.3802264E+04  0.7818609E-02  0.8045669E-01
        1   -1    0    0  501    0  0.00000000000E+00  0.00000000000E+00  0.25010740830E+04  0.25010740830E+04  0.50400001928E-02 0.  1.
       -1   -1    0    0    0  501  0.00000000000E+00  0.00000000000E+00 -0.14451006390E+04  0.14451006390E+04  0.50400001928E-02 0. -1.
    10030    2    1    2    0    0  0.00000000000E+00  0.00000000000E+00  0.10559734440E+04  0.39461747221E+04  0.38022644599E+04 0.  0.
        4    1    3    3  502    0  0.15587685328E+04  0.10563308079E+04  0.25594361072E+03  0.19002902040E+04  0.12699999809E+01 0. -1.
       -4    1    3    3    0  502 -0.15587685328E+04 -0.10563308079E+04  0.80002983326E+03  0.20458845181E+04  0.12699999809E+01 0.  1.
</event>
<event>
 5   0  0.4071750E-09  0.3802710E+04  0.7818609E-02  0.8045574E-01
        1   -1    0    0  501    0  0.00000000000E+00  0.00000000000E+00  0.24853715365E+04  0.24853715365E+04  0.50400001928E-02 0.  1.
       -1   -1    0    0    0  501  0.00000000000E+00  0.00000000000E+00 -0.14545714331E+04  0.14545714331E+04  0.50400001928E-02 0. -1.
    10030    2    1    2    0    0  0.00000000000E+00  0.00000000000E+00  0.10308001034E+04  0.39399429696E+04  0.38027097905E+04 0.  0.
        1    1    3    3  502    0  0.56405751769E+03  0.17761508644E+04  0.90620955114E+03  0.20722182624E+04  0.50400001928E-02 0.  1.
       -1    1    3    3    0  502 -0.56405751769E+03 -0.17761508644E+04  0.12459055228E+03  0.18677247072E+04  0.50400001928E-02 0. -1.
</event>
<event>
 5   0  0.1305088E-08  0.3799419E+04  0.7818609E-02  0.8046280E-01
        2   -1    0    0  501    0  0.00000000000E+00  0.00000000000E+00  0.21716231704E+04  0.21716231704E+04  0.25500000920E-02 0.  1.
       -2   -1    0    0    0  501  0.00000000000E+00  0.00000000000E+00 -0.16618423025E+04  0.16618423025E+04  0.25500000920E-02 0. -1.
    10030    2    1    2    0    0  0.00000000000E+00  0.00000000000E+00  0.50978086782E+03  0.38334654729E+04  0.37994185080E+04 0.  0.
        3    1    3    3  502    0  0.15338167709E+04  0.88958078485E+03  0.94287124389E+03  0.20082216143E+04  0.10100000352E+00 0.  1.
       -3    1    3    3    0  502 -0.15338167709E+04 -0.88958078485E+03 -0.43309037607E+03  0.18252438586E+04  0.10100000352E+00 0. -1.
</event>
<event>
 5   0  0.1293993E-08  0.3799999E+04  0.7818609E-02  0.8046155E-01
       -2   -1    0    0    0  501  0.00000000000E+00  0.00000000000E+00  0.12210626215E+04  0.12210626215E+04  0.25500000920E-02 0.  1.
        2   -1    0    0  501    0  0.00000000000E+00  0.00000000000E+00 -0.29564401825E+04  0.29564401825E+04  0.25500000920E-02 0. -1.
    10030    2    1    2    0    0  0.00000000000E+00  0.00000000000E+00 -0.17353775611E+04  0.41775028040E+04  0.37999992629E+04 0.  0.
        5    1    3    3  502    0  0.10525599807E+04 -0.14897810607E+04 -0.14521490007E+04  0.23315421789E+04  0.46999998093E+01 0.  1.
       -5    1    3    3    0  502 -0.10525599807E+04  0.14897810607E+04 -0.28322856033E+03  0.18459606251E+04  0.46999998093E+01 0. -1.
</event>
<event>
 5   0  0.4071750E-09  0.3799687E+04  0.7818609E-02  0.8046222E-01
        1   -1    0    0  501    0  0.00000000000E+00  0.00000000000E+00  0.27244456078E+04  0.27244456078E+04  0.50400001928E-02 0. -1.
       -1   -1    0    0    0  501  0.00000000000E+00  0.00000000000E+00 -0.13248218541E+04  0.13248218541E+04  0.50400001928E-02 0.  1.
    10030    2    1    2    0    0  0.00000000000E+00  0.00000000000E+00  0.13996237537E+04  0.40492674619E+04  0.37996868721E+04 0.  0.
        3    1    3    3  502    0  0.10310475737E+03  0.57952812881E+03 -0.12251936318E+04  0.13592582127E+04  0.10100000352E+00 0.  1.
       -3    1    3    3    0  502 -0.10310475737E+03 -0.57952812881E+03  0.26248173855E+04  0.26900092492E+04  0.10100000352E+00 0. -1.
</event>
<event>
 5   0  0.4071750E-09  0.3799462E+04  0.7818609E-02  0.8046270E-01
       -1   -1    0    0    0  501  0.00000000000E+00  0.00000000000E+00  0.12240456089E+04  0.12240456089E+04  0.50400001928E-02 0. -1.
        1   -1    0    0  501    0  0.00000000000E+00  0.00000000000E+00 -0.29484014767E+04  0.29484014767E+04  0.50400001928E-02 0.  1.
    10030    2    1    2    0    0  0.00000000000E+00  0.00000000000E+00 -0.17243558678E+04  0.41724470856E+04  0.37994620045E+04 0.  0.
        4    1    3    3  502    0 -0.57067176667E+03  0.16757396291E+04 -0.16192025621E+04  0.23990806823E+04  0.12699999809E+01 0.  1.
       -4    1    3    3    0  502  0.57067176667E+03 -0.16757396291E+04 -0.10515330566E+03  0.17733664033E+04  0.12699999809E+01 0. -1.
</event>
<event>
 5   0  0.4071750E-09  0.3797505E+04  0.7818609E-02  0.8046691E-01
       -1   -1    0    0    0  501  0.00000000000E+00  0.00000000000E+00  0.18703095557E+04  0.18703095557E+04  0.50400001928E-02 0. -1.
        1   -1    0    0  501    0  0.00000000000E+00  0.00000000000E+00 -0.19276275295E+04  0.19276275295E+04  0.50400001928E-02 0.  1.
    10030    2    1    2    0    0  0.00000000000E+00  0.00000000000E+00 -0.57317973857E+02  0.37979370852E+04  0.37975045429E+04 0.  0.
        2    1    3    3  502    0 -0.24788287462E+03  0.10744168546E+04 -0.15746172805E+04  0.19222999447E+04  0.25500000920E-02 0.  1.
       -2    1    3    3    0  502  0.24788287462E+03 -0.10744168546E+04  0.15172993067E+04  0.18756371406E+04  0.25500000920E-02 0. -1.
</event>
<event>
 5   0  0.1264013E-08  0.3799439E+04  0.7818609E-02  0.8046275E-01
        2   -1    0    0  501    0  0.00000000000E+00  0.00000000000E+00  0.26706503245E+04  0.26706503245E+04  0.25500000920E-02 0. -1.
       -2   -1    0    0    0  501  0.00000000000E+00  0.00000000000E+00 -0.13513314914E+04  0.13513314914E+04  0.25500000920E-02 0.  1.
    10030    2    1    2    0    0  0.00000000000E+00  0.00000000000E+00  0.13193188330E+04  0.40219818159E+04  0.37994388460E+04 0.  0.
        4    1    3    3  502    0  0.16564752422E+03  0.18914467935E+04  0.59336370815E+03  0.19892441223E+04  0.12699999809E+01 0.  1.
       -4    1    3    3    0  502 -0.16564752422E+03 -0.18914467935E+04  0.72595512489E+03  0.20327376937E+04  0.12699999809E+01 0. -1.
</event>
<event>
 5   0  0.4071750E-09  0.3801115E+04  0.7818609E-02  0.8045916E-01
        1   -1    0    0  501    0  0.00000000000E+00  0.00000000000E+00  0.22581296300E+04  0.22581296300E+04  0.50400001928E-02 0. -1.
       -1   -1    0    0    0  501  0.00000000000E+00  0.00000000000E+00 -0.15996064975E+04  0.15996064975E+04  0.50400001928E-02 0.  1.
    10030    2    1    2    0    0  0.00000000000E+00  0.00000000000E+00  0.65852313253E+03  0.38577361275E+04  0.38011150092E+04 0.  0.
        5    1    3    3  502    0 -0.15216683201E+04  0.35129523364E+03 -0.77002295245E+03  0.17412180377E+04  0.46999998093E+01 0.  1.
       -5    1    3    3    0  502  0.15216683201E+04 -0.35129523364E+03  0.14285460850E+04  0.21165180898E+04  0.46999998093E+01 0. -1.
</event>
<event>
 5   0  0.1293993E-08  0.3798515E+04  0.7818609E-02  0.8046474E-01
        2   -1    0    0  501    0  0.00000000000E+00  0.00000000000E+00  0.20396737118E+04  0.20396737118E+04  0.25500000920E-02 0. -1.
       -2   -1    0    0    0  501  0.00000000000E+00  0.00000000000E+00 -0.17685076374E+04  0.17685076374E+04  0.25500000920E-02 0.  1.
    10030    2    1    2    0    0  0.00000000000E+00  0.00000000000E+00  0.27116607443E+03  0.38081813492E+04  0.37985147293E+04 0.  0.
        5    1    3    3  502    0 -0.10612723398E+04 -0.74389475998E+03 -0.12562864937E+04  0.18049809521E+04  0.46999998093E+01 0.  1.
       -5    1    3    3    0  502  0.10612723398E+04  0.74389475998E+03  0.15274525681E+04  0.20032003971E+04  0.46999998093E+01 0. -1.
</event>
<event>
 5   0  0.4071750E-09  0.3800437E+04  0.7818609E-02  0.8046061E-01
        1   -1    0    0  501    0  0.00000000000E+00  0.00000000000E+00  0.13048259950E+04  0.13048259950E+04  0.50400001928E-02 0.  1.
       -1   -1    0    0    0  501  0.00000000000E+00  0.00000000000E+00 -0.27672887255E+04  0.27672887255E+04  0.50400001928E-02 0. -1.
    10030    2    1    2    0    0  0.00000000000E+00  0.00000000000E+00 -0.14624627305E+04  0.40721147205E+04  0.38004369563E+04 0.  0.
        2    1    3    3  502    0  0.10157744475E+03 -0.18966886947E+04 -0.67172497913E+03  0.20146861863E+04  0.25500000920E-02 0. -1.
       -2    1    3    3    0  502 -0.10157744475E+03  0.18966886947E+04 -0.79073775139E+03  0.20574285342E+04  0.25500000920E-02 0.  1.
</event>
<event>
 5   0  0.1327249E-08  0.3800378E+04  0.7818609E-02  0.8046074E-01
        2   -1    0    0  501    0  0.00000000000E+00  0.00000000000E+00  0.21088214205E+04  0.21088214205E+04  0.25500000920E-02 0. -1.
       -2   -1    0    0    0  501  0.00000000000E+00  0.00000000000E+00 -0.17121971935E+04  0.17121971935E+04  0.25500000920E-02 0.  1.
    10030    2    1    2    0    0  0.00000000000E+00  0.00000000000E+00  0.39662422706E+03  0.38210186140E+04  0.38003779379E+04 0.  0.
        1    1    3    3  502    0  0.39831710420E+03 -0.78118347193E+03  0.18932359551E+04  0.20864435085E+04  0.50400001928E-02 0. -1.
       -1    1    3    3    0  502 -0.39831710420E+03  0.78118347193E+03 -0.14966117280E+04  0.17345751055E+04  0.50400001928E-02 0.  1.
</event>
<event>
 5   0  0.4071750E-09  0.3798042E+04  0.7818609E-02  0.8046575E-01
        1   -1    0    0  501    0  0.00000000000E+00  0.00000000000E+00  0.19087521488E+04  0.19087521488E+04  0.50400001928E-02 0.  1.
       -1   -1    0    0    0  501  0.00000000000E+00  0.00000000000E+00 -0.18893398173E+04  0.18893398174E+04  0.50400001928E-02 0. -1.
    10030    2    1    2    0    0  0.00000000000E+00  0.00000000000E+00  0.19412331452E+02  0.37980919662E+04  0.37980423569E+04 0.  0.
        5    1    3    3  502    0 -0.76065729170E+03 -0.31732052958E+03 -0.17011544293E+04  0.18903016469E+04  0.46999998093E+01 0. -1.
       -5    1    3    3    0  502  0.76065729170E+03  0.31732052958E+03  0.17205667608E+04  0.19077903192E+04  0.46999998093E+01 0.  1.
</event>
<event>
 5   0  0.4071750E-09  0.3798759E+04  0.7818609E-02  0.8046421E-01
       -1   -1    0    0    0  501  0.00000000000E+00  0.00000000000E+00  0.16159982498E+04  0.16159982498E+04  0.50400001928E-02 0. -1.
        1   -1    0    0  501    0  0.00000000000E+00  0.00000000000E+00 -0.22324546106E+04  0.22324546106E+04  0.50400001928E-02 0.  1.
    10030    2    1    2    0    0  0.00000000000E+00  0.00000000000E+00 -0.61645636078E+03  0.38484528604E+04  0.37987591360E+04 0.  0.
        2    1    3    3  502    0  0.65219585160E+03  0.16026809054E+04 -0.11018644284E+04  0.20513533903E+04  0.25500000920E-02 0.  1.
       -2    1    3    3    0  502 -0.65219585160E+03 -0.16026809054E+04  0.48540806760E+03  0.17970994701E+04  0.25500000920E-02 0. -1.
</event>
<event>
 5   0  0.1261152E-08  0.3801604E+04  0.7818609E-02  0.8045811E-01
       -2   -1    0    0    0  501  0.00000000000E+00  0.00000000000E+00  0.18843247116E+04  0.18843247116E+04  0.25500000920E-02 0. -1.
        2   -1    0    0  501    0  0.00000000000E+00  0.00000000000E+00 -0.19174236325E+04  0.19174236325E+04  0.25500000920E-02 0.  1.
    10030    2    1    2    0    0  0.00000000000E+00  0.00000000000E+00 -0.33098920844E+02  0.38017483441E+04  0.38016042578E+04 0.  0.
        2    1    3    3  502    0  0.12696771601E+04  0.66640777201E+03 -0.12643424485E+04  0.19117377531E+04  0.25500000920E-02 0.  1.
       -2    1    3    3    0  502 -0.12696771601E+04 -0.66640777201E+03  0.12312435277E+04  0.18900105910E+04  0.25500000920E-02 0. -1.
</event>
<event>
 5   0  0.1261152E-08  0.3800412E+04  0.7818609E-02  0.8046066E-01
        2   -1    0    0  501    0  0.00000000000E+00  0.00000000000E+00  0.25751803204E+04  0.25751803204E+04  0.25500000920E-02 0. -1.
       -2   -1    0    0    0  501  0.00000000000E+00  0.00000000000E+00 -0.14021476948E+04  0.14021476948E+04  0.25500000920E-02 0.  1.
    10030    2    1    2    0    0  0.00000000000E+00  0.00000000000E+00  0.11730326256E+04  0.39773280152E+04  0.38004121619E+04 0.  0.
        2    1    3    3  502    0 -0.10612315492E+04 -0.38734094989E+03 -0.10125304311E+04  0.15170574433E+04  0.25500000920E-02 0.  1.
       -2    1    3    3    0  502  0.10612315492E+04  0.38734094989E+03  0.21855630567E+04  0.24602705719E+04  0.25500000920E-02 0. -1.
</event>
<event>
 5   0  0.1264013E-08  0.3802490E+04  0.7818609E-02  0.8045621E-01
       -2   -1    0    0    0  501  0.00000000000E+00  0.00000000000E+00  0.20686293961E+04  0.20686293961E+04  0.25500000920E-02 0. -1.
        2   -1    0    0  501    0  0.00000000000E+00  0.00000000000E+00 -0.17474048794E+04  0.17474048794E+04  0.25500000920E-02 0.  1.
    10030    2    1    2    0    0  0.00000000000E+00  0.00000000000E+00  0.32122451666E+03  0.38160342755E+04  0.38024902895E+04 0.  0.
        4    1    3    3  502    0 -0.39469893958E+03 -0.98648313925E+03  0.17428685460E+04  0.20412076373E+04  0.12699999809E+01 0. -1.
       -4    1    3    3    0  502  0.39469893958E+03  0.98648313925E+03 -0.14216440293E+04  0.17748266383E+04  0.12699999809E+01 0.  1.
</event>
<event>
 5   0  0.1261152E-08  0.3801192E+04  0.7818609E-02  0.8045899E-01
        2   -1    0    0  501    0  0.00000000000E+00  0.00000000000E+00  0.17196415996E+04  0.17196415996E+04  0.25500000920E-02 0. -1.
       -2   -1    0    0    0  501  0.00000000000E+00  0.00000000000E+00 -0.21005916442E+04  0.21005916442E+04  0.25500000920E-02 0.  1.
    10030    2    1    2    0    0  0.00000000000E+00  0.00000000000E+00 -0.38095004465E+03  0.38202332438E+04  0.38011918000E+04 0.  0.
        2    1    3    3  502    0 -0.13326647540E+04  0.84248718220E+03  0.87620155631E+03  0.18037486427E+04  0.25500000920E-02 0. -1.
       -2    1    3    3    0  502  0.13326647540E+04 -0.84248718220E+03 -0.12571516010E+04  0.20164846011E+04  0.25500000920E-02 0.  1.
</event>
<event>
 5   0  0.1261152E-08  0.3801975E+04  0.7818609E-02  0.8045731E-01
       -2   -1    0    0    0  501  0.00000000000E+00  0.00000000000E+00  0.18913346953E+04  0.18913346953E+04  0.25500000920E-02 0. -1.
        2   -1    0    0  501    0  0.00000000000E+00  0.00000000000E+00 -0.19106897270E+04  0.19106897270E+04  0.25500000920E-02 0.  1.
    10030    2    1    2    0    0  0.00000000000E+00  0.00000000000E+00 -0.19355031691E+02  0.38020244222E+04  0.38019751564E+04 0.  0.
        2    1    3    3  502    0  0.90873465399E+03 -0.55342196048E+03  0.15656775394E+04  0.18929925238E+04  0.25500000920E-02 0. -1.
       -2    1    3    3    0  502 -0.90873465399E+03  0.55342196048E+03 -0.15850325711E+04  0.19090318984E+04  0.25500000920E-02 0.  1.
</event>
<event>
 5   0  0.1305088E-08  0.3798430E+04  0.7818609E-02  0.8046492E-01
       -2   -1    0    0    0  501  0.00000000000E+00  0.00000000000E+00  0.22032342137E+04  0.22032342137E+04  0.25500000920E-02 0.  1.
        2   -1    0    0  501    0  0.00000000000E+00  0.00000000000E+00 -0.16371464147E+04  0.16371464147E+04  0.25500000920E-02 0. -1.
    10030    2    1    2    0    0  0.00000000000E+00  0.00000000000E+00  0.56608779905E+03  0.38403806284E+04  0.37984296722E+04 0.  0.
        3    1    3    3  502    0  0.48225156403E+03 -0.18171089515E+04  0.10689002028E+02  0.18800440893E+04  0.10100000352E+00 0. -1.
       -3    1    3    3    0  502 -0.48225156403E+03  0.18171089515E+04  0.55539879702E+03  0.19603365391E+04  0.10100000352E+00 0.  1.
</event>
<event>
 5   0  0.4071750E-09  0.3800621E+04  0.7818609E-02  0.8046022E-01
        1   -1    0    0  501    0  0.00000000000E+00  0.00000000000E+00  0.19407532942E+04  0.19407532942E+04  0.50400001928E-02 0. -1.
       -1   -1    0    0    0  501  0.00000000000E+00  0.00000000000E+00 -0.18607103375E+04  0.18607103375E+04  0.50400001928E-02 0.  1.
    10030    2    1    2    0    0  0.00000000000E+00  0.00000000000E+00  0.80042956650E+02  0.38014636317E+04  0.38006208530E+04 0.  0.
        4    1    3    3  502    0  0.12576512103E+04  0.68555991889E+03 -0.12090545171E+04  0.18744314891E+04  0.12699999809E+01 0.  1.
       -4    1    3    3    0  502 -0.12576512103E+04 -0.68555991889E+03  0.12890974737E+04  0.19270321426E+04  0.12699999809E+01 0. -1.
</event>
<event>
 5   0  0.4071750E-09  0.3800267E+04  0.7818609E-02  0.8046098E-01
       -1   -1    0    0    0  501  0.00000000000E+00  0.00000000000E+00  0.18290975765E+04  0.18290975765E+04  0.50400001928E-02 0.  1.
        1   -1    0    0  501    0  0.00000000000E+00  0.00000000000E+00 -0.19739283621E+04  0.19739283621E+04  0.50400001928E-02 0. -1.
    10030    2    1    2    0    0  0.00000000000E+00  0.00000000000E+00 -0.14483078565E+03  0.38030259386E+04  0.38002671397E+04 0.  0.
        1    1    3    3  502    0  0.82490340179E+03  0.69638601495E+03 -0.16372284121E+04  0.19611058048E+04  0.50400001928E-02 0. -1.
       -1    1    3    3    0  502 -0.82490340179E+03 -0.69638601495E+03  0.14923976264E+04  0.18419201339E+04  0.50400001928E-02 0.  1.
</event>
<event>
 5   0  0.4071750E-09  0.3796344E+04  0.7818609E-02  0.8046940E-01
       -1   -1    0    0    0  501  0.00000000000E+00  0.00000000000E+00  0.14760285696E+04  0.14760285697E+04  0.50400001928E-02 0. -1.
        1   -1    0    0  501    0  0.00000000000E+00  0.00000000000E+00 -0.24410480197E+04  0.24410480197E+04  0.50400001928E-02 0.  1.
    10030    2    1    2    0    0  0.00000000000E+00  0.00000000000E+00 -0.96501945003E+03  0.39170765893E+04  0.37963438290E+04 0.  0.
        3    1    3    3  502    0 -0.19891017523E+03 -0.89664714774E+03 -0.21965180339E+04  0.23808050842E+04  0.10100000352E+00 0.  1.
       -3    1    3    3    0  502  0.19891017523E+03  0.89664714774E+03  0.12314985839E+04  0.15362715052E+04  0.10100000352E+00 0. -1.
</event>
<event>
 5   0  0.4071750E-09  0.3799500E+04  0.7818609E-02  0.8046262E-01
        1   -1    0    0  501    0  0.00000000000E+00  0.00000000000E+00  0.21532050897E+04  0.21532050897E+04  0.50400001928E-02 0.  1.
       -1   -1    0    0    0  501  0.00000000000E+00  0.00000000000E+00 -0.16761291189E+04  0.16761291189E+04  0.50400001928E-02 0. -1.
    10030    2    1    2    0    0  0.00000000000E+00  0.00000000000E+00  0.47707597081E+03  0.38293342086E+04  0.37994998354E+04 0.  0.
        2    1    3    3  502    0  0.13334925750E+03  0.62948099619E+03 -0.15629597775E+04  0.16902282731E+04  0.25500000920E-02 0. -1.
       -2    1    3    3    0  502 -0.13334925750E+03 -0.62948099619E+03  0.20400357483E+04  0.21391059355E+04  0.25500000920E-02 0.  1.
</event>
<event>
 5   0  0.4071750E-09  0.3801571E+04  0.7818609E-02  0.8045818E-01
        1   -1    0    0  501    0  0.00000000000E+00  0.00000000000E+00  0.23729158245E+04  0.23729158245E+04  0.50400001928E-02 0.  1.
       -1   -1    0    0    0  501  0.00000000000E+00  0.00000000000E+00 -0.15225932176E+04  0.15225932176E+04  0.50400001928E-02 0. -1.
    10030    2    1    2    0    0  0.00000000000E+00  0.00000000000E+00  0.85032260691E+03  0.38955090421E+04  0.38015710123E+04 0.  0.
        3    1    3    3  502    0 -0.80194305207E+03 -0.60749949653E+03 -0.12273940920E+04  0.15870301082E+04  0.10100000352E+00 0. -1.
       -3    1    3    3    0  502  0.80194305207E+03  0.60749949653E+03  0.20777166989E+04  0.23084789339E+04  0.10100000352E+00 0.  1.
</event>
<event>
 5   0  0.1264013E-08  0.3801572E+04  0.7818609E-02  0.8045818E-01
        2   -1    0    0  501    0  0.00000000000E+00  0.00000000000E+00  0.12795551854E+04  0.12795551854E+04  0.25500000920E-02 0.  1.
       -2   -1    0    0    0  501  0.00000000000E+00  0.00000000000E+00 -0.28236280693E+04  0.28236280693E+04  0.25500000920E-02 0. -1.
    10030    2    1    2    0    0  0.00000000000E+00  0.00000000000E+00 -0.15440728838E+04  0.41031832547E+04  0.38015722736E+04 0.  0.
        4    1    3    3  502    0  0.10134688535E+04 -0.53617298519E+03  0.86428688360E+03  0.14358252042E+04  0.12699999809E+01 0.  1.
       -4    1    3    3    0  502 -0.10134688535E+04  0.53617298519E+03 -0.24083597674E+04  0.26673580505E+04  0.12699999809E+01 0. -1.
</event>
<event>
 5   0  0.1264013E-08  0.3795463E+04  0.7818609E-02  0.8047129E-01
        2   -1    0    0  501    0  0.00000000000E+00  0.00000000000E+00  0.26566382706E+04  0.26566382706E+04  0.25500000920E-02 0.  1.
       -2   -1    0    0    0  501  0.00000000000E+00  0.00000000000E+00 -0.13556175986E+04  0.13556175986E+04  0.25500000920E-02 0. -1.
    10030    2    1    2    0    0  0.00000000000E+00  0.00000000000E+00  0.13010206720E+04  0.40122558692E+04  0.37954633935E+04 0.  0.
        4    1    3    3  502    0 -0.18005115478E+04  0.45853870784E+03  0.24206774101E+03  0.18736856686E+04  0.12699999809E+01 0.  1.
       -4    1    3    3    0  502  0.18005115478E+04 -0.45853870784E+03  0.10589529310E+04  0.21385702007E+04  0.12699999809E+01 0. -1.
</event>
<event>
 5   0  0.1261152E-08  0.3799530E+04  0.7818609E-02  0.8046256E-01
       -2   -1    0    0    0  501  0.00000000000E+00  0.00000000000E+00  0.17028845306E+04  0.17028845306E+04  0.25500000920E-02 0.  1.
        2   -1    0    0  501    0  0.00000000000E+00  0.00000000000E+00 -0.21194080945E+04  0.21194080945E+04  0.25500000920E-02 0. -1.
    10030    2    1    2    0    0  0.00000000000E+00  0.00000000000E+00 -0.41652356385E+03  0.38222926251E+04  0.37995301068E+04 0.  0.
        2    1    3    3  502    0 -0.17612990592E+02  0.43253524225E+03  0.16526066187E+04  0.17083634243E+04  0.25500000920E-02 0.  1.
       -2    1    3    3    0  502  0.17612990592E+02 -0.43253524225E+03 -0.20691301826E+04  0.21139292007E+04  0.25500000920E-02 0. -1.
</event>
<event>
 5   0  0.4071750E-09  0.3804238E+04  0.7818609E-02  0.8045246E-01
       -1   -1    0    0    0  501  0.00000000000E+00  0.00000000000E+00  0.21023479238E+04  0.21023479238E+04  0.50400001928E-02 0.  1.
        1   -1    0    0  501    0  0.00000000000E+00  0.00000000000E+00 -0.17209598173E+04  0.17209598173E+04  0.50400001928E-02 0. -1.
    10030    2    1    2    0    0  0.00000000000E+00  0.00000000000E+00  0.38138810651E+03  0.38233077411E+04  0.38042377942E+04 0.  0.
        4    1    3    3  502    0  0.18980014296E+04 -0.10345473970E+03  0.26134849798E+03  0.19187018946E+04  0.12699999809E+01 0.  1.
       -4    1    3    3    0  502 -0.18980014296E+04  0.10345473970E+03  0.12003960853E+03  0.19046058465E+04  0.12699999809E+01 0. -1.
</event>
<event>
 5   0  0.4071750E-09  0.3800178E+04  0.7818609E-02  0.8046117E-01
        1   -1    0    0  501    0  0.00000000000E+00  0.00000000000E+00  0.14219314061E+04  0.14219314061E+04  0.50400001928E-02 0.  1.
       -1   -1    0    0    0  501  0.00000000000E+00  0.00000000000E+00 -0.25390377630E+04  0.25390377630E+04  0.50400001928E-02 0. -1.
    10030    2    1    2    0    0  0.00000000000E+00  0.00000000000E+00 -0.11171063569E+04  0.39609691692E+04  0.38001776467E+04 0.  0.
        3    1    3    3  502    0 -0.18430515493E+04  0.29724453727E+03 -0.92727846599E+03  0.20844756396E+04  0.10100000352E+00 0.  1.
       -3    1    3    3    0  502  0.18430515493E+04 -0.29724453727E+03 -0.18982789088E+03  0.18764935296E+04  0.10100000352E+00 0. -1.
</event>
<event>
 5   0  0.4071750E-09  0.3801141E+04  0.7818609E-02  0.8045910E-01
        1   -1    0    0  501    0  0.00000000000E+00  0.00000000000E+00  0.16386431453E+04  0.16386431454E+04  0.50400001928E-02 0.  1.
       -1   -1    0    0    0  501  0.00000000000E+00  0.00000000000E+00 -0.22043650465E+04  0.22043650465E+04  0.50400001928E-02 0. -1.
    10030    2    1    2    0    0  0.00000000000E+00  0.00000000000E+00 -0.56572190116E+03  0.38430081919E+04  0.38011407095E+04 0.  0.
        4    1    3    3  502    0  0.10602510248E+04  0.23499963650E+03 -0.18597871556E+04  0.21536403929E+04  0.12699999809E+01 0. -1.
       -4    1    3    3    0  502 -0.10602510248E+04 -0.23499963650E+03  0.12940652544E+04  0.16893677990E+04  0.12699999809E+01 0.  1.
</event>
<event>
 5   0  0.4071750E-09  0.3799763E+04  0.7818609E-02  0.8046206E-01
        1   -1    0    0  501    0  0.00000000000E+00  0.00000000000E+00  0.21576019421E+04  0.21576019422E+04  0.50400001928E-02 0. -1.
       -1   -1    0    0    0  501  0.00000000000E+00  0.00000000000E+00 -0.16729450859E+04  0.16729450859E+04  0.50400001928E-02 0.  1.
    10030    2    1    2    0    0  0.00000000000E+00  0.00000000000E+00  0.48465685621E+03  0.38305470281E+04  0.37997629224E+04 0.  0.
        4    1    3    3  502    0  0.68867618632E+03  0.11705922403E+04  0.15816196969E+04  0.20847262557E+04  0.12699999809E+01 0. -1.
       -4    1    3    3    0  502 -0.68867618632E+03 -0.11705922403E+04 -0.10969628407E+04  0.17458207724E+04  0.12699999809E+01 0.  1.
</event>
<event>
 5   0  0.1327249E-08  0.3798641E+04  0.7818609E-02  0.8046446E-01
       -2   -1    0    0    0  501  0.00000000000E+00  0.00000000000E+00  0.25559470391E+04  0.25559470391E+04  0.25500000920E-02 0.  1.
        2   -1    0    0  501    0  0.00000000000E+00  0.00000000000E+00 -0.14113826244E+04  0.14113826244E+04  0.25500000920E-02 0. -1.
    10030    2    1    2    0    0  0.00000000000E+00  0.00000000000E+00  0.11445644146E+04  0.39673296635E+04  0.37986414624E+04 0.  0.
        1    1    3    3  502    0 -0.11756280997E+04  0.35648898733E+02 -0.98526766806E+03  0.15343156945E+04  0.50400001928E-02 0. -1.
       -1    1    3    3    0  502  0.11756280997E+04 -0.35648898733E+02  0.21298320827E+04  0.24330139690E+04  0.50400001928E-02 0.  1.
</event>
<event>
 5   0  0.1261152E-08  0.3803570E+04  0.7818609E-02  0.8045389E-01
        2   -1    0    0  501    0  0.00000000000E+00  0.00000000000E+00  0.18650803397E+04  0.18650803397E+04  0.25500000920E-02 0. -1.
       -2   -1    0    0    0  501  0.00000000000E+00  0.00000000000E+00 -0.19392124683E+04  0.19392124683E+04  0.25500000920E-02 0.  1.
    10030    2    1    2    0    0  0.00000000000E+00  0.00000000000E+00 -0.74132128508E+02  0.38042928080E+04  0.38035704537E+04 0.  0.
        2    1    3    3  502    0 -0.12993141854E+04 -0.14474210335E+03  0.13443622037E+04  0.18752272831E+04  0.25500000920E-02 0. -1.
       -2    1    3    3    0  502  0.12993141854E+04  0.14474210335E+03 -0.14184943322E+04  0.19290655249E+04  0.25500000920E-02 0.  1.
</event>
<event>
 5   0  0.1305088E-08  0.3800467E+04  0.7818609E-02  0.8046055E-01
        2   -1    0    0  501    0  0.00000000000E+00  0.00000000000E+00  0.19969074371E+04  0.19969074371E+04  0.25500000920E-02 0. -1.
       -2   -1    0    0    0  501  0.00000000000E+00  0.00000000000E+00 -0.18082397088E+04  0.18082397088E+04  0.25500000920E-02 0.  1.
    10030    2    1    2    0    0  0.00000000000E+00  0.00000000000E+00  0.18866772831E+03  0.38051471460E+04  0.38004669832E+04 0.  0.
        3    1    3    3  502    0  0.97540243423E+03 -0.54563517698E+03 -0.14443604243E+04  0.18262816597E+04  0.10100000352E+00 0.  1.
       -3    1    3    3    0  502 -0.97540243423E+03  0.54563517698E+03  0.16330281526E+04  0.19788654862E+04  0.10100000352E+00 0. -1.
</event>
<event>
 5   0  0.1293993E-08  0.3800153E+04  0.7818609E-02  0.8046122E-01
       -2   -1    0    0    0  501  0.00000000000E+00  0.00000000000E+00  0.26628751119E+04  0.26628751119E+04  0.25500000920E-02 0. -1.
        2   -1    0    0  501    0  0.00000000000E+00  0.00000000000E+00 -0.13557867533E+04  0.13557867533E+04  0.25500000920E-02 0.  1.
    10030    2    1    2    0    0  0.00000000000E+00  0.00000000000E+00  0.13070883586E+04  0.40186618652E+04  0.38001530508E+04 0.  0.
        5    1    3    3  502    0 -0.10668152779E+04  0.15425467638E+04  0.33153003369E+03  0.19045943424E+04  0.46999998093E+01 0. -1.
       -5    1    3    3    0  502  0.10668152779E+04 -0.15425467638E+04  0.97555832491E+03  0.21140675228E+04  0.46999998093E+01 0.  1.
</event>
<event>
 5   0  0.4071750E-09  0.3799561E+04  0.7818609E-02  0.8046249E-01
        1   -1    0    0  501    0  0.00000000000E+00  0.00000000000E+00  0.25667332371E+04  0.25667332371E+04  0.50400001928E-02 0. -1.
       -1   -1    0    0    0  501  0.00000000000E+00  0.00000000000E+00 -0.14061321425E+04  0.14061321425E+04  0.50400001928E-02 0.  1.
    10030    2    1    2    0    0  0.00000000000E+00  0.00000000000E+00  0.11606010946E+04  0.39728653797E+04  0.37995610831E+04 0.  0.
        5    1    3    3  502    0 -0.17844870220E+04 -0.60985864778E+03  0.33998605999E+03  0.19162291389E+04  0.46999998093E+01 0.  1.
       -5    1    3    3    0  502  0.17844870220E+04  0.60985864778E+03  0.82061503461E+03  0.20566362408E+04  0.46999998093E+01 0. -1.
</event>
<event>
 5   0  0.4071750E-09  0.3801197E+04  0.7818609E-02  0.8045898E-01
        1   -1    0    0  501    0  0.00000000000E+00  0.00000000000E+00  0.22765200648E+04  0.22765200648E+04  0.50400001928E-02 0. -1.
       -1   -1    0    0    0  501  0.00000000000E+00  0.00000000000E+00 -0.15867528029E+04  0.15867528029E+04  0.50400001928E-02 0.  1.
    10030    2    1    2    0    0  0.00000000000E+00  0.00000000000E+00  0.68976726193E+03  0.38632728677E+04  0.38011969660E+04 0.  0.
        2    1    3    3  502    0 -0.15827982183E+04  0.99398354124E+03  0.69551197027E+03  0.19942392988E+04  0.25500000920E-02 0. -1.
       -2    1    3    3    0  502  0.15827982183E+04 -0.99398354124E+03 -0.57447083401E+01  0.18690335689E+04  0.25500000920E-02 0.  1.
</event>
<event>
 5   0  0.4071750E-09  0.3798691E+04  0.7818609E-02  0.8046436E-01
       -1   -1    0    0    0  501  0.00000000000E+00  0.00000000000E+00  0.30310774032E+04  0.30310774032E+04  0.50400001928E-02 0. -1.
        1   -1    0    0  501    0  0.00000000000E+00  0.00000000000E+00 -0.11901753070E+04  0.11901753070E+04  0.50400001928E-02 0.  1.
    10030    2    1    2    0    0  0.00000000000E+00  0.00000000000E+00  0.18409020963E+04  0.42212527102E+04  0.37986910792E+04 0.  0.
        5    1    3    3  502    0 -0.16426882323E+04  0.95045102059E+03  0.83648361080E+03  0.20740078814E+04  0.46999998093E+01 0.  1.
       -5    1    3    3    0  502  0.16426882323E+04 -0.95045102059E+03  0.10044184855E+04  0.21472448288E+04  0.46999998093E+01 0. -1.
</event>
<event>
 5   0  0.1261152E-08  0.3799436E+04  0.7818609E-02  0.8046276E-01
       -2   -1    0    0    0  501  0.00000000000E+00  0.00000000000E+00  0.13784157616E+04  0.13784157616E+04  0.25500000920E-02 0. -1.
        2   -1    0    0  501    0  0.00000000000E+00  0.00000000000E+00 -0.26181709478E+04  0.26181709478E+04  0.25500000920E-02 0.  1.
    10030    2    1    2    0    0  0.00000000000E+00  0.00000000000E+00 -0.12397551861E+04  0.39965867094E+04  0.37994358008E+04 0.  0.
        2    1    3    3  502    0  0.52011943603E+03 -0.61131624141E+03  0.11912966642E+04  0.14364607606E+04  0.25500000920E-02 0. -1.
       -2    1    3    3    0  502 -0.52011943603E+03  0.61131624141E+03 -0.24310518503E+04  0.25601259488E+04  0.25500000920E-02 0.  1.
</event>
<event>
 5   0  0.1327249E-08  0.3800226E+04  0.7818609E-02  0.8046106E-01
       -2   -1    0    0    0  501  0.00000000000E+00  0.00000000000E+00  0.15815656140E+04  0.15815656140E+04  0.25500000920E-02 0.  1.
        2   -1    0    0  501    0  0.00000000000E+00  0.00000000000E+00 -0.22828201293E+04  0.22828201293E+04  0.25500000920E-02 0. -1.
    10030    2    1    2    0    0  0.00000000000E+00  0.00000000000E+00 -0.70125451530E+03  0.38643857433E+04  0.38002262141E+04 0.  0.
        1    1    3    3  502    0 -0.91174226101E+03  0.78169099681E+01 -0.20458341126E+04  0.22398152314E+04  0.50400001928E-02 0. -1.
       -1    1    3    3    0  502  0.91174226101E+03 -0.78169099681E+01  0.13445795973E+04  0.16245705119E+04  0.50400001928E-02 0.  1.
</event>
<event>
 5   0  0.1327249E-08  0.3800327E+04  0.7818609E-02  0.8046085E-01
       -2   -1    0    0    0  501  0.00000000000E+00  0.00000000000E+00  0.26003542676E+04  0.26003542676E+04  0.25500000920E-02 0. -1.
        2   -1    0    0  501    0  0.00000000000E+00  0.00000000000E+00 -0.13885115786E+04  0.13885115787E+04  0.25500000920E-02 0.  1.
    10030    2    1    2    0    0  0.00000000000E+00  0.00000000000E+00  0.12118426889E+04  0.39888658462E+04  0.38003273591E+04 0.  0.
        1    1    3    3  502    0  0.12462128780E+04  0.64914021894E+03  0.19485181639E+04  0.24023223339E+04  0.50400001928E-02 0. -1.
       -1    1    3    3    0  502 -0.12462128780E+04 -0.64914021894E+03 -0.73667547494E+03  0.15865435123E+04  0.50400001928E-02 0.  1.
</event>
<event>
 5   0  0.1305088E-08  0.3799266E+04  0.7818609E-02  0.8046312E-01
       -2   -1    0    0    0  501  0.00000000000E+00  0.00000000000E+00  0.24825054753E+04  0.24825054753E+04  0.25500000920E-02 0. -1.
        2   -1    0    0  501    0  0.00000000000E+00  0.00000000000E+00 -0.14536142754E+04  0.14536142754E+04  0.25500000920E-02 0.  1.
    10030    2    1    2    0    0  0.00000000000E+00  0.00000000000E+00  0.10288911999E+04  0.39361197507E+04  0.37992659279E+04 0.  0.
        3    1    3    3  502    0  0.18240921376E+04  0.46000027907E+03  0.24094190203E+03  0.18965667385E+04  0.10100000352E+00 0. -1.
       -3    1    3    3    0  502 -0.18240921376E+04 -0.46000027907E+03  0.78794929791E+03  0.20395530122E+04  0.10100000352E+00 0.  1.
</event>
<event>
 5   0  0.4071750E-09  0.3798812E+04  0.7818609E-02  0.8046410E-01
       -1   -1    0    0    0  501  0.00000000000E+00  0.00000000000E+00  0.22671547008E+04  0.22671547008E+04  0.50400001928E-02 0.  1.
        1   -1    0    0  501    0  0.00000000000E+00  0.00000000000E+00 -0.15913091325E+04  0.15913091325E+04  0.50400001928E-02 0. -1.
    10030    2    1    2    0    0  0.00000000000E+00  0.00000000000E+00  0.67584556829E+03  0.38584638333E+04  0.37988124356E+04 0.  0.
        4    1    3    3  502    0  0.40652266619E+03  0.11146727996E+03 -0.15432003939E+04  0.15997358223E+04  0.12699999809E+01 0. -1.
       -4    1    3    3    0  502 -0.40652266619E+03 -0.11146727996E+03  0.22190459621E+04  0.22587280110E+04  0.12699999809E+01 0.  1.
</event>
<event>
 5   0  0.1305088E-08  0.3806654E+04  0.7818609E-02  0.8044728E-01
       -2   -1    0    0    0  501  0.00000000000E+00  0.00000000000E+00  0.17865625421E+04  0.17865625421E+04  0.25500000920E-02 0.  1.
        2   -1    0    0  501    0  0.00000000000E+00  0.00000000000E+00 -0.20277232499E+04  0.20277232499E+04  0.25500000920E-02 0. -1.
    10030    2    1    2    0    0  0.00000000000E+00  0.00000000000E+00 -0.24116070782E+03  0.38142857920E+04  0.38066543863E+04 0.  0.
        3    1    3    3  502    0 -0.37182781853E+03  0.12368672637E+04 -0.15214381305E+04  0.19957130429E+04  0.10100000352E+00 0. -1.
       -3    1    3    3    0  502  0.37182781853E+03 -0.12368672637E+04  0.12802774226E+04  0.18185727491E+04  0.10100000352E+00 0.  1.
</event>
<event>
 5   0  0.4071750E-09  0.3799564E+04  0.7818609E-02  0.8046248E-01
       -1   -1    0    0    0  501  0.00000000000E+00  0.00000000000E+00  0.13634409539E+04  0.13634409539E+04  0.50400001928E-02 0. -1.
        1   -1    0    0  501    0  0.00000000000E+00  0.00000000000E+00 -0.26471055440E+04  0.26471055441E+04  0.50400001928E-02 0.  1.
    10030    2    1    2    0    0  0.00000000000E+00  0.00000000000E+00 -0.12836645901E+04  0.40105464980E+04  0.37995642425E+04 0.  0.
        2    1    3    3  502    0  0.56710793548E+03 -0.10388392948E+04 -0.22104100044E+04  0.25073314257E+04  0.25500000920E-02 0.  1.
       -2    1    3    3    0  502 -0.56710793548E+03  0.10388392948E+04  0.92674541423E+03  0.15032150723E+04  0.25500000920E-02 0. -1.
</event>
<event>
 5   0  0.1293993E-08  0.3803721E+04  0.7818609E-02  0.8045357E-01
        2   -1    0    0  501    0  0.00000000000E+00  0.00000000000E+00  0.26031447924E+04  0.26031447924E+04  0.25500000920E-02 0. -1.
       -2   -1    0    0    0  501  0.00000000000E+00  0.00000000000E+00 -0.13895016181E+04  0.13895016181E+04  0.25500000920E-02 0.  1.
    10030    2    1    2    0    0  0.00000000000E+00  0.00000000000E+00  0.12136431742E+04  0.39926464105E+04  0.38037212838E+04 0.  0.
        5    1    3    3  502    0 -0.13909848145E+04  0.12914558534E+04  0.48105905253E+03  0.19580952166E+04  0.46999998093E+01 0.  1.
       -5    1    3    3    0  502  0.13909848145E+04 -0.12914558534E+04  0.73258412172E+03  0.20345511939E+04  0.46999998093E+01 0. -1.
</event>
<event>
 5   0  0.1305088E-08  0.3800753E+04  0.7818609E-02  0.8045993E-01
       -2   -1    0    0    0  501  0.00000000000E+00  0.00000000000E+00  0.19661693141E+04  0.19661693141E+04  0.25500000920E-02 0.  1.
        2   -1    0    0  501    0  0.00000000000E+00  0.00000000000E+00 -0.18367855568E+04  0.18367855568E+04  0.25500000920E-02 0. -1.
    10030    2    1    2    0    0  0.00000000000E+00  0.00000000000E+00  0.12938375735E+03  0.38029548709E+04  0.38007532929E+04 0.  0.
        3    1    3    3  502    0  0.13202944273E+04  0.11710707623E+04  0.76997412386E+03  0.19254724788E+04  0.10100000352E+00 0.  1.
       -3    1    3    3    0  502 -0.13202944273E+04 -0.11710707623E+04 -0.64059036651E+03  0.18774823921E+04  0.10100000352E+00 0. -1.
</event>
<event>
 5   0  0.4071750E-09  0.3801466E+04  0.7818609E-02  0.8045840E-01
        1   -1    0    0  501    0  0.00000000000E+00  0.00000000000E+00  0.13435054791E+04  0.13435054791E+04  0.50400001928E-02 0.  1.
       -1   -1    0    0    0  501  0.00000000000E+00  0.00000000000E+00 -0.26890742832E+04  0.26890742832E+04  0.50400001928E-02 0. -1.
    10030    2    1    2    0    0  0.00000000000E+00  0.00000000000E+00 -0.13455688041E+04  0.40325797623E+04  0.38014660505E+04 0.  0.
        2    1    3    3  502    0 -0.62032598963E+03 -0.92010327450E+03 -0.23097790687E+04  0.25625131639E+04  0.25500000920E-02 0. -1.
       -2    1    3    3    0  502  0.62032598963E+03  0.92010327450E+03  0.96421026465E+03  0.14700665984E+04  0.25500000920E-02 0.  1.
</event>
<event>
 5   0  0.4071750E-09  0.3800336E+04  0.7818609E-02  0.8046083E-01
       -1   -1    0    0    0  501  0.00000000000E+00  0.00000000000E+00  0.28058612331E+04  0.28058612331E+04  0.50400001928E-02 0. -1.
        1   -1    0    0  501    0  0.00000000000E+00  0.00000000000E+00 -0.12868200965E+04  0.12868200965E+04  0.50400001928E-02 0.  1.
    10030    2    1    2    0    0  0.00000000000E+00  0.00000000000E+00  0.15190411366E+04  0.40926813296E+04  0.38003361024E+04 0.  0.
        2    1    3    3  502    0 -0.10462741018E+03  0.18204457862E+04  0.13351160542E+04  0.22599789011E+04  0.25500000920E-02 0. -1.
       -2    1    3    3    0  502  0.10462741018E+03 -0.18204457862E+04  0.18392508233E+03  0.18327024285E+04  0.25500000920E-02 0.  1.
</event>
<event>
 5   0  0.4071750E-09  0.3799235E+04  0.7818609E-02  0.8046319E-01
       -3   -1    0    0    0  501  0.00000000000E+00  0.00000000000E+00  0.19781430070E+04  0.19781430095E+04  0.10100000352E+00 0.  1.
        3   -1    0    0  501    0  0.00000000000E+00  0.00000000000E+00 -0.18242088023E+04  0.18242088051E+04  0.10100000352E+00 0. -1.
    10030    2    1    2    0    0  0.00000000000E+00  0.00000000000E+00  0.15393420466E+03  0.38023518146E+04  0.37992346049E+04 0.  0.
        1    1    3    3  502    0  0.83453228206E+03 -0.16211902479E+04  0.61017430016E+03  0.19227622386E+04  0.50400001928E-02 0.  1.
       -1    1    3    3    0  502 -0.83453228206E+03  0.16211902479E+04 -0.45624009550E+03  0.18795895760E+04  0.50400001928E-02 0. -1.
</event>
<event>
 5   0  0.1261152E-08  0.3799071E+04  0.7818609E-02  0.8046354E-01
        2   -1    0    0  501    0  0.00000000000E+00  0.00000000000E+00  0.11327359869E+04  0.11327359869E+04  0.25500000920E-02 0. -1.
       -2   -1    0    0    0  501  0.00000000000E+00  0.00000000000E+00 -0.31854156333E+04  0.31854156333E+04  0.25500000920E-02 0.  1.
    10030    2    1    2    0    0  0.00000000000E+00  0.00000000000E+00 -0.20526796464E+04  0.43181516202E+04  0.37990708975E+04 0.  0.
        2    1    3    3  502    0 -0.40794704945E+03 -0.33789454561E+03  0.10470871718E+04  0.11734500690E+04  0.25500000920E-02 0. -1.
       -2    1    3    3    0  502  0.40794704945E+03  0.33789454561E+03 -0.30997668182E+04  0.31447015513E+04  0.25500000920E-02 0.  1.
</event>
<event>
 5   0  0.1261152E-08  0.3798613E+04  0.7818609E-02  0.8046453E-01
        2   -1    0    0  501    0  0.00000000000E+00  0.00000000000E+00  0.12709003722E+04  0.12709003722E+04  0.25500000920E-02 0.  1.
       -2   -1    0    0    0  501  0.00000000000E+00  0.00000000000E+00 -0.28384331203E+04  0.28384331203E+04  0.25500000920E-02 0. -1.
    10030    2    1    2    0    0  0.00000000000E+00  0.00000000000E+00 -0.15675327482E+04  0.41093334925E+04  0.37986132780E+04 0.  0.
        2    1    3    3  502    0 -0.31249369962E+03  0.18607652927E+04 -0.10189571982E+04  0.21443818593E+04  0.25500000920E-02 0. -1.
       -2    1    3    3    0  502  0.31249369962E+03 -0.18607652927E+04 -0.54857555000E+03  0.19649516332E+04  0.25500000920E-02 0.  1.
</event>
<event>
 5   0  0.4071750E-09  0.3799997E+04  0.7818609E-02  0.8046155E-01
       -1   -1    0    0    0  501  0.00000000000E+00  0.00000000000E+00  0.16524290924E+04  0.16524290924E+04  0.50400001928E-02 0. -1.
        1   -1    0    0  501    0  0.00000000000E+00  0.00000000000E+00 -0.21846596307E+04  0.21846596307E+04  0.50400001928E-02 0.  1.
    10030    2    1    2    0    0  0.00000000000E+00  0.00000000000E+00 -0.53223053831E+03  0.38370887231E+04  0.37999974373E+04 0.  0.
        3    1    3    3  502    0  0.34423127785E+03  0.12672372649E+03  0.16163349511E+04  0.16574355975E+04  0.10100000352E+00 0. -1.
       -3    1    3    3    0  502 -0.34423127785E+03 -0.12672372649E+03 -0.21485654894E+04  0.21796531256E+04  0.10100000352E+00 0.  1.
</event>
<event>
 5   0  0.1264013E-08  0.3819398E+04  0.7818609E-02  0.8042005E-01
        2   -1    0    0  501    0  0.00000000000E+00  0.00000000000E+00  0.13911780061E+04  0.13911780061E+04  0.25500000920E-02 0.  1.
       -2   -1    0    0    0  501  0.00000000000E+00  0.00000000000E+00 -0.26214839501E+04  0.26214839501E+04  0.25500000920E-02 0. -1.
    10030    2    1    2    0    0  0.00000000000E+00  0.00000000000E+00 -0.12303059440E+04  0.40126619562E+04  0.38193982849E+04 0.  0.
        4    1    3    3  502    0  0.21379837011E+03  0.11813394924E+04  0.94514854247E+03  0.15279332838E+04  0.12699999809E+01 0.  1.
       -4    1    3    3    0  502 -0.21379837011E+03 -0.11813394924E+04 -0.21754544865E+04  0.24847286724E+04  0.12699999809E+01 0. -1.
</event>
<event>
 5   0  0.4071750E-09  0.3799593E+04  0.7818609E-02  0.8046242E-01
       -1   -1    0    0    0  501  0.00000000000E+00  0.00000000000E+00  0.13473825109E+04  0.13473825110E+04  0.50400001928E-02 0.  1.
        1   -1    0    0  501    0  0.00000000000E+00  0.00000000000E+00 -0.26786944572E+04  0.26786944572E+04  0.50400001928E-02 0. -1.
    10030    2    1    2    0    0  0.00000000000E+00  0.00000000000E+00 -0.13313119462E+04  0.40260769681E+04  0.37995926433E+04 0.  0.
        1    1    3    3  502    0  0.10851186259E+04  0.96449075002E+03 -0.19640541005E+04  0.24423827196E+04  0.50400001928E-02 0. -1.
       -1    1    3    3    0  502 -0.10851186259E+04 -0.96449075002E+03  0.63274215424E+03  0.15836942486E+04  0.50400001928E-02 0.  1.
</event>
<event>
 5   0  0.1261152E-08  0.3802307E+04  0.7818609E-02  0.8045660E-01
        2   -1    0    0  501    0  0.00000000000E+00  0.00000000000E+00  0.24348656770E+04  0.24348656770E+04  0.25500000920E-02 0. -1.
       -2   -1    0    0    0  501  0.00000000000E+00  0.00000000000E+00 -0.14844289360E+04  0.14844289360E+04  0.25500000920E-02 0.  1.
    10030    2    1    2    0    0  0.00000000000E+00  0.00000000000E+00  0.95043674107E+03  0.39192946130E+04  0.38023072291E+04 0.  0.
        2    1    3    3  502    0 -0.15465720196E+04  0.13896724681E+03  0.16058665294E+04  0.22338317344E+04  0.25500000920E-02 0.  1.
       -2    1    3    3    0  502  0.15465720196E+04 -0.13896724681E+03 -0.65542978838E+03  0.16854628785E+04  0.25500000920E-02 0. -1.
</event>
<event>
 5   0  0.4071750E-09  0.3796985E+04  0.7818609E-02  0.8046802E-01
       -1   -1    0    0    0  501  0.00000000000E+00  0.00000000000E+00  0.15205557737E+04  0.15205557738E+04  0.50400001928E-02 0. -1.
        1   -1    0    0  501    0  0.00000000000E+00  0.00000000000E+00 -0.23703661995E+04  0.23703661995E+04  0.50400001928E-02 0.  1.
    10030    2    1    2    0    0  0.00000000000E+00  0.00000000000E+00 -0.84981042577E+03  0.38909219733E+04  0.37969851254E+04 0.  0.
        5    1    3    3  502    0 -0.83931156709E+03 -0.13674552909E+04 -0.14648389838E+04  0.21725913600E+04  0.46999998093E+01 0.  1.
       -5    1    3    3    0  502  0.83931156709E+03  0.13674552909E+04  0.61502855807E+03  0.17183306132E+04  0.46999998093E+01 0. -1.
</event>
<event>
 5   0  0.1327249E-08  0.3796906E+04  0.7818609E-02  0.8046819E-01
        2   -1    0    0  501    0  0.00000000000E+00  0.00000000000E+00  0.20502362971E+04  0.20502362971E+04  0.25500000920E-02 0.  1.
       -2   -1    0    0    0  501  0.00000000000E+00  0.00000000000E+00 -0.17579064081E+04  0.17579064081E+04  0.25500000920E-02 0. -1.
    10030    2    1    2    0    0  0.00000000000E+00  0.00000000000E+00  0.29232988906E+03  0.38081427052E+04  0.37969058586E+04 0.  0.
        1    1    3    3  502    0  0.24655279165E+03  0.18549105204E+04 -0.17516143149E+03  0.18794049178E+04  0.50400001928E-02 0. -1.
       -1    1    3    3    0  502 -0.24655279165E+03 -0.18549105204E+04  0.46749132054E+03  0.19287377874E+04  0.50400001928E-02 0.  1.
</event>
<event>
 5   0  0.1293993E-08  0.3790709E+04  0.7818609E-02  0.8048152E-01
       -2   -1    0    0    0  501  0.00000000000E+00  0.00000000000E+00  0.14889843318E+04  0.14889843318E+04  0.25500000920E-02 0.  1.
        2   -1    0    0  501    0  0.00000000000E+00  0.00000000000E+00 -0.24126304117E+04  0.24126304117E+04  0.25500000920E-02 0. -1.
    10030    2    1    2    0    0  0.00000000000E+00  0.00000000000E+00 -0.92364607994E+03  0.39016147435E+04  0.37907091059E+04 0.  0.
        5    1    3    3  502    0  0.52316703410E+03  0.17745426319E+04 -0.37897122583E+02  0.18504495616E+04  0.46999998093E+01 0.  1.
       -5    1    3    3    0  502 -0.52316703410E+03 -0.17745426319E+04 -0.88574895736E+03  0.20511651819E+04  0.46999998093E+01 0. -1.
</event>
<event>
 5   0  0.4071750E-09  0.3800213E+04  0.7818609E-02  0.8046109E-01
        1   -1    0    0  501    0  0.00000000000E+00  0.00000000000E+00  0.19434774025E+04  0.19434774025E+04  0.50400001928E-02 0.  1.
       -1   -1    0    0    0  501  0.00000000000E+00  0.00000000000E+00 -0.18577035458E+04  0.18577035458E+04  0.50400001928E-02 0. -1.
    10030    2    1    2    0    0  0.00000000000E+00  0.00000000000E+00  0.85773856725E+02  0.38011809483E+04  0.38002130792E+04 0.  0.
        1    1    3    3  502    0 -0.10846921592E+04  0.61402849677E+03 -0.13916389911E+04  0.18682203180E+04  0.50400001928E-02 0. -1.
       -1    1    3    3    0  502  0.10846921592E+04 -0.61402849677E+03  0.14774128478E+04  0.19329606302E+04  0.50400001928E-02 0.  1.
</event>
<event>
 5   0  0.4071750E-09  0.3794964E+04  0.7818609E-02  0.8047236E-01
       -1   -1    0    0    0  501  0.00000000000E+00  0.00000000000E+00  0.29750741991E+04  0.29750741991E+04  0.50400001928E-02 0.  1.
        1   -1    0    0  501    0  0.00000000000E+00  0.00000000000E+00 -0.12102010139E+04  0.12102010139E+04  0.50400001928E-02 0. -1.
    10030    2    1    2    0    0  0.00000000000E+00  0.00000000000E+00  0.17648731852E+04  0.41852752130E+04  0.37949639325E+04 0.  0.
        4    1    3    3  502    0 -0.14505193142E+04  0.10325441300E+04  0.15901206477E+03  0.17875793999E+04  0.12699999809E+01 0. -1.
       -4    1    3    3    0  502  0.14505193142E+04 -0.10325441300E+04  0.16058611204E+04  0.23976958131E+04  0.12699999809E+01 0.  1.
</event>
<event>
 5   0  0.4071750E-09  0.3799326E+04  0.7818609E-02  0.8046300E-01
        1   -1    0    0  501    0  0.00000000000E+00  0.00000000000E+00  0.23214168188E+04  0.23214168188E+04  0.50400001928E-02 0. -1.
       -1   -1    0    0    0  501  0.00000000000E+00  0.00000000000E+00 -0.15545329355E+04  0.15545329355E+04  0.50400001928E-02 0.  1.
    10030    2    1    2    0    0  0.00000000000E+00  0.00000000000E+00  0.76688388330E+03  0.38759497543E+04  0.37993256780E+04 0.  0.
        4    1    3    3  502    0 -0.65811020630E+02  0.91718932202E+03  0.20792388618E+04  0.22735002090E+04  0.12699999809E+01 0. -1.
       -4    1    3    3    0  502  0.65811020630E+02 -0.91718932202E+03 -0.13123549785E+04  0.16024495453E+04  0.12699999809E+01 0.  1.
</event>
<event>
 5   0  0.1261152E-08  0.3799951E+04  0.7818609E-02  0.8046165E-01
        2   -1    0    0  501    0  0.00000000000E+00  0.00000000000E+00  0.23789096044E+04  0.23789096044E+04  0.25500000920E-02 0.  1.
       -2   -1    0    0    0  501  0.00000000000E+00  0.00000000000E+00 -0.15174625232E+04  0.15174625232E+04  0.25500000920E-02 0. -1.
    10030    2    1    2    0    0  0.00000000000E+00  0.00000000000E+00  0.86144708114E+03  0.38963721276E+04  0.37999506159E+04 0.  0.
        2    1    3    3  502    0 -0.85462721714E+02 -0.72554652608E+03 -0.13676862885E+04  0.15505764805E+04  0.25500000920E-02 0. -1.
       -2    1    3    3    0  502  0.85462721714E+02  0.72554652608E+03  0.22291333696E+04  0.23457956471E+04  0.25500000920E-02 0.  1.
</event>
<event>
 5   0  0.1261152E-08  0.3804023E+04  0.7818609E-02  0.8045292E-01
       -2   -1    0    0    0  501  0.00000000000E+00  0.00000000000E+00  0.12297734585E+04  0.12297734585E+04  0.25500000920E-02 0.  1.
        2   -1    0    0  501    0  0.00000000000E+00  0.00000000000E+00 -0.29417182063E+04  0.29417182063E+04  0.25500000920E-02 0. -1.
    10030    2    1    2    0    0  0.00000000000E+00  0.00000000000E+00 -0.17119447477E+04  0.41714916648E+04  0.38040225933E+04 0.  0.
        2    1    3    3  502    0 -0.98045397556E+03  0.16117258913E+04 -0.59029482240E+03  0.19767140219E+04  0.25500000920E-02 0.  1.
       -2    1    3    3    0  502  0.98045397556E+03 -0.16117258913E+04 -0.11216499253E+04  0.21947776429E+04  0.25500000920E-02 0. -1.
</event>
<event>
 5   0  0.1264013E-08  0.3798999E+04  0.7818609E-02  0.8046370E-01
        2   -1    0    0  501    0  0.00000000000E+00  0.00000000000E+00  0.15150546066E+04  0.15150546066E+04  0.25500000920E-02 0.  1.
       -2   -1    0    0    0  501  0.00000000000E+00  0.00000000000E+00 -0.23814972683E+04  0.23814972683E+04  0.25500000920E-02 0. -1.
    10030    2    1    2    0    0  0.00000000000E+00  0.00000000000E+00 -0.86644266169E+03  0.38965518749E+04  0.37989990297E+04 0.  0.
        4    1    3    3  502    0 -0.10650675890E+04 -0.14427566210E+04  0.20910339723E+03  0.18054477229E+04  0.12699999809E+01 0. -1.
       -4    1    3    3    0  502  0.10650675890E+04  0.14427566210E+04 -0.10755460589E+04  0.20911041519E+04  0.12699999809E+01 0.  1.
</event>
<event>
 5   0  0.1293993E-08  0.3798292E+04  0.7818609E-02  0.8046522E-01
        2   -1    0    0  501    0  0.00000000000E+00  0.00000000000E+00  0.20117901267E+04  0.20117901267E+04  0.25500000920E-02 0. -1.
       -2   -1    0    0    0  501  0.00000000000E+00  0.00000000000E+00 -0.17928090166E+04  0.17928090166E+04  0.25500000920E-02 0.  1.
    10030    2    1    2    0    0  0.00000000000E+00  0.00000000000E+00  0.21898111005E+03  0.38045991433E+04  0.37982919733E+04 0.  0.
        5    1    3    3  502    0 -0.75491143686E+03  0.74256893890E+03 -0.14696530733E+04  0.18114088860E+04  0.46999998093E+01 0.  1.
       -5    1    3    3    0  502  0.75491143686E+03 -0.74256893890E+03  0.16886341833E+04  0.19931902573E+04  0.46999998093E+01 0. -1.
</event>
<event>
 5   0  0.1261152E-08  0.3800365E+04  0.7818609E-02  0.8046077E-01
        2   -1    0    0  501    0  0.00000000000E+00  0.00000000000E+00  0.22724624438E+04  0.22724624438E+04  0.25500000920E-02 0.  1.
       -2   -1    0    0    0  501  0.00000000000E+00  0.00000000000E+00 -0.15888899268E+04  0.15888899268E+04  0.25500000920E-02 0. -1.
    10030    2    1    2    0    0  0.00000000000E+00  0.00000000000E+00  0.68357251702E+03  0.38613523706E+04  0.38003645541E+04 0.  0.
        2    1    3    3  502    0 -0.16309238097E+04  0.97507256888E+03  0.34554678119E+03  0.19313419080E+04  0.25500000920E-02 0.  1.
       -2    1    3    3    0  502  0.16309238097E+04 -0.97507256888E+03  0.33802573583E+03  0.19300104626E+04  0.25500000920E-02 0. -1.
</event>
<event>
 5   0  0.1327249E-08  0.3799428E+04  0.7818609E-02  0.8046278E-01
       -2   -1    0    0    0  501  0.00000000000E+00  0.00000000000E+00  0.16376262056E+04  0.16376262056E+04  0.25500000920E-02 0. -1.
        2   -1    0    0  501    0  0.00000000000E+00  0.00000000000E+00 -0.22037470838E+04  0.22037470838E+04  0.25500000920E-02 0.  1.
    10030    2    1    2    0    0  0.00000000000E+00  0.00000000000E+00 -0.56612087820E+03  0.38413732894E+04  0.37994283649E+04 0.  0.
        1    1    3    3  502    0  0.20208320722E+03  0.79079649202E+03 -0.20174335025E+04  0.21762891930E+04  0.50400001928E-02 0.  1.
       -1    1    3    3    0  502 -0.20208320722E+03 -0.79079649202E+03  0.14513126243E+04  0.16650840964E+04  0.50400001928E-02 0. -1.
</event>
<event>
 5   0  0.1264013E-08  0.3799243E+04  0.7818609E-02  0.8046317E-01
       -2   -1    0    0    0  501  0.00000000000E+00  0.00000000000E+00  0.13810223895E+04  0.13810223895E+04  0.25500000920E-02 0. -1.
        2   -1    0    0  501    0  0.00000000000E+00  0.00000000000E+00 -0.26129637079E+04  0.26129637079E+04  0.25500000920E-02 0.  1.
    10030    2    1    2    0    0  0.00000000000E+00  0.00000000000E+00 -0.12319413185E+04  0.39939860974E+04  0.37992427580E+04 0.  0.
        4    1    3    3  502    0  0.79460424015E+03  0.15165479090E+04 -0.14811035608E+04  0.22638424922E+04  0.12699999809E+01 0.  1.
       -4    1    3    3    0  502 -0.79460424015E+03 -0.15165479090E+04  0.24916224230E+03  0.17301436052E+04  0.12699999809E+01 0. -1.
</event>
<event>
 5   0  0.1264013E-08  0.3795931E+04  0.7818609E-02  0.8047029E-01
       -2   -1    0    0    0  501  0.00000000000E+00  0.00000000000E+00  0.26268576807E+04  0.26268576807E+04  0.25500000920E-02 0.  1.
        2   -1    0    0  501    0  0.00000000000E+00  0.00000000000E+00 -0.13713238863E+04  0.13713238863E+04  0.25500000920E-02 0. -1.
    10030    2    1    2    0    0  0.00000000000E+00  0.00000000000E+00  0.12555337944E+04  0.39981815670E+04  0.37959308126E+04 0.  0.
        4    1    3    3  502    0 -0.14128630740E+04  0.10677792831E+04 -0.91197769760E+02  0.17733170358E+04  0.12699999809E+01 0. -1.
       -4    1    3    3    0  502  0.14128630740E+04 -0.10677792831E+04  0.13467315642E+04  0.22248645312E+04  0.12699999809E+01 0.  1.
</event>
<event>
 5   0  0.1293993E-08  0.3800582E+04  0.7818609E-02  0.8046030E-01
       -2   -1    0    0    0  501  0.00000000000E+00  0.00000000000E+00  0.17866653620E+04  0.17866653620E+04  0.25500000920E-02 0. -1.
        2   -1    0    0  501    0  0.00000000000E+00  0.00000000000E+00 -0.20211423966E+04  0.20211423966E+04  0.25500000920E-02 0.  1.
    10030    2    1    2    0    0  0.00000000000E+00  0.00000000000E+00 -0.23447703460E+03  0.38078077585E+04  0.38005815931E+04 0.  0.
        5    1    3    3  502    0  0.63889013581E+03 -0.62444120640E+03 -0.17976201891E+04  0.20073783550E+04  0.46999998093E+01 0.  1.
       -5    1    3    3    0  502 -0.63889013581E+03  0.62444120640E+03  0.15631431545E+04  0.18004294036E+04  0.46999998093E+01 0. -1.
</event>
<event>
 5   0  0.4071750E-09  0.3800895E+04  0.7818609E-02  0.8045963E-01
       -1   -1    0    0    0  501  0.00000000000E+00  0.00000000000E+00  0.16858395905E+04  0.16858395905E+04  0.50400001928E-02 0.  1.
        1   -1    0    0  501    0  0.00000000000E+00  0.00000000000E+00 -0.21423751532E+04  0.21423751532E+04  0.50400001928E-02 0. -1.
    10030    2    1    2    0    0  0.00000000000E+00  0.00000000000E+00 -0.45653556270E+03  0.38282147438E+04  0.38008950794E+04 0.  0.
        4    1    3    3  502    0  0.14048922630E+04  0.12577299645E+04 -0.46680823987E+03  0.19425546273E+04  0.12699999809E+01 0.  1.
       -4    1    3    3    0  502 -0.14048922630E+04 -0.12577299645E+04  0.10272677162E+02  0.18856601165E+04  0.12699999809E+01 0. -1.
</event>
<event>
 5   0  0.1293993E-08  0.3800283E+04  0.7818609E-02  0.8046094E-01
       -2   -1    0    0    0  501  0.00000000000E+00  0.00000000000E+00  0.16299811801E+04  0.16299811801E+04  0.25500000920E-02 0. -1.
        2   -1    0    0  501    0  0.00000000000E+00  0.00000000000E+00 -0.22150792217E+04  0.22150792217E+04  0.25500000920E-02 0.  1.
    10030    2    1    2    0    0  0.00000000000E+00  0.00000000000E+00 -0.58509804165E+03  0.38450604018E+04  0.38002828547E+04 0.  0.
        5    1    3    3  502    0  0.48137883911E+03 -0.18139941548E+04 -0.59305865386E+03  0.19682583767E+04  0.46999998093E+01 0.  1.
       -5    1    3    3    0  502 -0.48137883911E+03  0.18139941548E+04  0.79606122062E+01  0.18768020252E+04  0.46999998093E+01 0. -1.
</event>
<event>
 5   0  0.1305088E-08  0.3798698E+04  0.7818609E-02  0.8046434E-01
        2   -1    0    0  501    0  0.00000000000E+00  0.00000000000E+00  0.22590334138E+04  0.22590334138E+04  0.25500000920E-02 0. -1.
       -2   -1    0    0    0  501  0.00000000000E+00  0.00000000000E+00 -0.15969340631E+04  0.15969340631E+04  0.25500000920E-02 0.  1.
    10030    2    1    2    0    0  0.00000000000E+00  0.00000000000E+00  0.66209935074E+03  0.38559674769E+04  0.37986984129E+04 0.  0.
        3    1    3    3  502    0  0.11325532853E+04 -0.13513270782E+04 -0.38583085419E+03  0.18048898233E+04  0.10100000352E+00 0.  1.
       -3    1    3    3    0  502 -0.11325532853E+04  0.13513270782E+04  0.10479302049E+04  0.20510776535E+04  0.10100000352E+00 0. -1.
</event>
<event>
 5   0  0.4071750E-09  0.3799802E+04  0.7818609E-02  0.8046197E-01
       -4   -1    0    0    0  501  0.00000000000E+00  0.00000000000E+00  0.19850382816E+04  0.19850386879E+04  0.12699999809E+01 0. -1.
        4   -1    0    0  501    0  0.00000000000E+00  0.00000000000E+00 -0.18184146153E+04  0.18184150588E+04  0.12699999809E+01 0.  1.
    10030    2    1    2    0    0  0.00000000000E+00  0.00000000000E+00  0.16662366636E+03  0.38034537467E+04  0.37998022260E+04 0.  0.
        4    1    3    3  502    0 -0.16261863450E+04 -0.31407382827E+03 -0.84844156616E+03  0.18609081391E+04  0.12699999809E+01 0.  1.
       -4    1    3    3    0  502  0.16261863450E+04  0.31407382827E+03  0.10150652325E+04  0.19425456075E+04  0.12699999809E+01 0. -1.
</event>
<event>
 5   0  0.4071750E-09  0.3799702E+04  0.7818609E-02  0.8046219E-01
        1   -1    0    0  501    0  0.00000000000E+00  0.00000000000E+00  0.34760840099E+04  0.34760840099E+04  0.50400001928E-02 0.  1.
       -1   -1    0    0    0  501  0.00000000000E+00  0.00000000000E+00 -0.10383618231E+04  0.10383618231E+04  0.50400001928E-02 0. -1.
    10030    2    1    2    0    0  0.00000000000E+00  0.00000000000E+00  0.24377221868E+04  0.45144458330E+04  0.37997015303E+04 0.  0.
        1    1    3    3  502    0 -0.34775783368E+03  0.48998712097E+03  0.33602245392E+04  0.34135219120E+04  0.50400001928E-02 0.  1.
       -1    1    3    3    0  502  0.34775783368E+03 -0.48998712097E+03 -0.92250235244E+03  0.11009239210E+04  0.50400001928E-02 0. -1.
</event>
<event>
 5   0  0.4071750E-09  0.3799939E+04  0.7818609E-02  0.8046168E-01
       -1   -1    0    0    0  501  0.00000000000E+00  0.00000000000E+00  0.20857109651E+04  0.20857109651E+04  0.50400001928E-02 0.  1.
        1   -1    0    0  501    0  0.00000000000E+00  0.00000000000E+00 -0.17307692631E+04  0.17307692631E+04  0.50400001928E-02 0. -1.
    10030    2    1    2    0    0  0.00000000000E+00  0.00000000000E+00  0.35494170204E+03  0.38164802282E+04  0.37999391732E+04 0.  0.
        5    1    3    3  502    0 -0.57403903725E+03 -0.60941419312E+01  0.19965158568E+04  0.20774156087E+04  0.46999998093E+01 0.  1.
       -5    1    3    3    0  502  0.57403903725E+03  0.60941419312E+01 -0.16415741548E+04  0.17390646194E+04  0.46999998093E+01 0. -1.
</event>
<event>
 5   0  0.4071750E-09  0.3798755E+04  0.7818609E-02  0.8046422E-01
       -1   -1    0    0    0  501  0.00000000000E+00  0.00000000000E+00  0.17524378046E+04  0.17524378046E+04  0.50400001928E-02 0. -1.
        1   -1    0    0  501    0  0.00000000000E+00  0.00000000000E+00 -0.20586377136E+04  0.20586377137E+04  0.50400001928E-02 0.  1.
    10030    2    1    2    0    0  0.00000000000E+00  0.00000000000E+00 -0.30619990907E+03  0.38110755182E+04  0.37987548251E+04 0.  0.
        5    1    3    3  502    0  0.12950718029E+04  0.71091879102E+03 -0.13507035934E+04  0.20017589239E+04  0.46999998093E+01 0.  1.
       -5    1    3    3    0  502 -0.12950718029E+04 -0.71091879102E+03  0.10445036843E+04  0.18093165944E+04  0.46999998093E+01 0. -1.
</event>
<event>
 5   0  0.1327249E-08  0.3800379E+04  0.7818609E-02  0.8046074E-01
        2   -1    0    0  501    0  0.00000000000E+00  0.00000000000E+00  0.30777452833E+04  0.30777452833E+04  0.25500000920E-02 0.  1.
       -2   -1    0    0    0  501  0.00000000000E+00  0.00000000000E+00 -0.11731705001E+04  0.11731705001E+04  0.25500000920E-02 0. -1.
    10030    2    1    2    0    0  0.00000000000E+00  0.00000000000E+00  0.19045747833E+04  0.42509157834E+04  0.38003789144E+04 0.  0.
        1    1    3    3  502    0  0.17255321708E+04  0.67785028667E+03  0.14185736436E+04  0.23343721781E+04  0.50400001928E-02 0. -1.
       -1    1    3    3    0  502 -0.17255321708E+04 -0.67785028667E+03  0.48600113968E+03  0.19165436054E+04  0.50400001928E-02 0.  1.
</event>
<event>
 5   0  0.1327249E-08  0.3800013E+04  0.7818609E-02  0.8046152E-01
       -2   -1    0    0    0  501  0.00000000000E+00  0.00000000000E+00  0.17110046017E+04  0.17110046017E+04  0.25500000920E-02 0. -1.
        2   -1    0    0  501    0  0.00000000000E+00  0.00000000000E+00 -0.21098858824E+04  0.21098858824E+04  0.25500000920E-02 0.  1.
    10030    2    1    2    0    0  0.00000000000E+00  0.00000000000E+00 -0.39888128070E+03  0.38208904842E+04  0.38000128705E+04 0.  0.
        1    1    3    3  502    0  0.10812569312E+04 -0.11718880168E+03  0.13670580623E+04  0.17469108484E+04  0.50400001928E-02 0. -1.
       -1    1    3    3    0  502 -0.10812569312E+04  0.11718880168E+03 -0.17659393430E+04  0.20739796358E+04  0.50400001928E-02 0.  1.
</event>
<event>
 5   0  0.4071750E-09  0.3800284E+04  0.7818609E-02  0.8046094E-01
        1   -1    0    0  501    0  0.00000000000E+00  0.00000000000E+00  0.20412687733E+04  0.20412687733E+04  0.50400001928E-02 0.  1.
       -1   -1    0    0    0  501  0.00000000000E+00  0.00000000000E+00 -0.17687719342E+04  0.17687719342E+04  0.50400001928E-02 0. -1.
    10030    2    1    2    0    0  0.00000000000E+00  0.00000000000E+00  0.27249683901E+03  0.38100407075E+04  0.38002836296E+04 0.  0.
        4    1    3    3  502    0 -0.96278825948E+03 -0.11881320655E+04 -0.99444068440E+03  0.18241526596E+04  0.12699999809E+01 0. -1.
       -4    1    3    3    0  502  0.96278825948E+03  0.11881320655E+04  0.12669375234E+04  0.19858880479E+04  0.12699999809E+01 0.  1.
</event>
<event>
 5   0  0.1261152E-08  0.3798652E+04  0.7818609E-02  0.8046444E-01
        2   -1    0    0  501    0  0.00000000000E+00  0.00000000000E+00  0.14540821654E+04  0.14540821654E+04  0.25500000920E-02 0. -1.
       -2   -1    0    0    0  501  0.00000000000E+00  0.00000000000E+00 -0.24809052717E+04  0.24809052717E+04  0.25500000920E-02 0.  1.
    10030    2    1    2    0    0  0.00000000000E+00  0.00000000000E+00 -0.10268231063E+04  0.39349874371E+04  0.37986524504E+04 0.  0.
        2    1    3    3  502    0 -0.69855357316E+03 -0.62089818755E+03 -0.22262206104E+04  0.24144460773E+04  0.25500000920E-02 0.  1.
       -2    1    3    3    0  502  0.69855357316E+03  0.62089818755E+03  0.11993975042E+04  0.15205413598E+04  0.25500000920E-02 0. -1.
</event>
<event>
 5   0  0.1293993E-08  0.3812387E+04  0.7818609E-02  0.8043502E-01
       -2   -1    0    0    0  501  0.00000000000E+00  0.00000000000E+00  0.15665220505E+04  0.15665220505E+04  0.25500000920E-02 0. -1.
        2   -1    0    0  501    0  0.00000000000E+00  0.00000000000E+00 -0.23195159771E+04  0.23195159771E+04  0.25500000920E-02 0.  1.
    10030    2    1    2    0    0  0.00000000000E+00  0.00000000000E+00 -0.75299392667E+03  0.38860380276E+04  0.38123866145E+04 0.  0.
        5    1    3    3  502    0 -0.13169462423E+04 -0.91117988066E+03  0.67737961188E+03  0.17388103429E+04  0.46999998093E+01 0. -1.
       -5    1    3    3    0  502  0.13169462423E+04  0.91117988066E+03 -0.14303735386E+04  0.21472276847E+04  0.46999998093E+01 0.  1.
</event>
<event>
 5   0  0.1293993E-08  0.3799169E+04  0.7818609E-02  0.8046333E-01
        2   -1    0    0  501    0  0.00000000000E+00  0.00000000000E+00  0.24449229676E+04  0.24449229676E+04  0.25500000920E-02 0.  1.
       -2   -1    0    0    0  501  0.00000000000E+00  0.00000000000E+00 -0.14758831974E+04  0.14758831974E+04  0.25500000920E-02 0. -1.
    10030    2    1    2    0    0  0.00000000000E+00  0.00000000000E+00  0.96903977018E+03  0.39208061650E+04  0.37991687126E+04 0.  0.
        5    1    3    3  502    0  0.53747572980E+03 -0.12934606807E+04  0.18087539361E+04  0.22876917590E+04  0.46999998093E+01 0.  1.
       -5    1    3    3    0  502 -0.53747572980E+03  0.12934606807E+04 -0.83971416593E+03  0.16331144060E+04  0.46999998093E+01 0. -1.
</event>
<event>
 5   0  0.4071750E-09  0.3798165E+04  0.7818609E-02  0.8046549E-01
        1   -1    0    0  501    0  0.00000000000E+00  0.00000000000E+00  0.13990327474E+04  0.13990327474E+04  0.50400001928E-02 0. -1.
       -1   -1    0    0    0  501  0.00000000000E+00  0.00000000000E+00 -0.25778621362E+04  0.25778621362E+04  0.50400001928E-02 0.  1.
    10030    2    1    2    0    0  0.00000000000E+00  0.00000000000E+00 -0.11788293888E+04  0.39768948835E+04  0.37981645813E+04 0.  0.
        1    1    3    3  502    0 -0.20589590883E+03  0.62404690132E+03  0.12761946700E+04  0.14354443549E+04  0.50400001928E-02 0. -1.
       -1    1    3    3    0  502  0.20589590883E+03 -0.62404690132E+03 -0.24550240588E+04  0.25414505286E+04  0.50400001928E-02 0.  1.
</event>
<event>
 5   0  0.4071750E-09  0.3801434E+04  0.7818609E-02  0.8045847E-01
        1   -1    0    0  501    0  0.00000000000E+00  0.00000000000E+00  0.10809559074E+04  0.10809559074E+04  0.50400001928E-02 0. -1.
       -1   -1    0    0    0  501  0.00000000000E+00  0.00000000000E+00 -0.33421582872E+04  0.33421582872E+04  0.50400001928E-02 0.  1.
    10030    2    1    2    0    0  0.00000000000E+00  0.00000000000E+00 -0.22612023798E+04  0.44231141947E+04  0.38014343315E+04 0.  0.
        4    1    3    3  502    0 -0.12113591413E+04  0.35309722916E+03 -0.27845680328E+04  0.30571047356E+04  0.12699999809E+01 0.  1.
       -4    1    3    3    0  502  0.12113591413E+04 -0.35309722916E+03  0.52336565300E+03  0.13660094590E+04  0.12699999809E+01 0. -1.
</event>
<event>
 5   0  0.1305088E-08  0.3800501E+04  0.7818609E-02  0.8046047E-01
       -2   -1    0    0    0  501  0.00000000000E+00  0.00000000000E+00  0.21658947248E+04  0.21658947248E+04  0.25500000920E-02 0.  1.
        2   -1    0    0  501    0  0.00000000000E+00  0.00000000000E+00 -0.16671869526E+04  0.16671869526E+04  0.25500000920E-02 0. -1.
    10030    2    1    2    0    0  0.00000000000E+00  0.00000000000E+00  0.49870777215E+03  0.38330816774E+04  0.38005007175E+04 0.  0.
        3    1    3    3  502    0 -0.21883136540E+03 -0.53933019500E+03  0.20737801884E+04  0.21539100506E+04  0.10100000352E+00 0.  1.
       -3    1    3    3    0  502  0.21883136540E+03  0.53933019500E+03 -0.15750724163E+04  0.16791716269E+04  0.10100000352E+00 0. -1.
</event>
<event>
 5   0  0.1327249E-08  0.3801185E+04  0.7818609E-02  0.8045901E-01
       -2   -1    0    0    0  501  0.00000000000E+00  0.00000000000E+00  0.18095517666E+04  0.18095517666E+04  0.25500000920E-02 0.  1.
        2   -1    0    0  501    0  0.00000000000E+00  0.00000000000E+00 -0.19962132234E+04  0.19962132234E+04  0.25500000920E-02 0. -1.
    10030    2    1    2    0    0  0.00000000000E+00  0.00000000000E+00 -0.18666145677E+03  0.38057649901E+04  0.38011846391E+04 0.  0.
        1    1    3    3  502    0  0.15086391205E+04  0.87001213229E+03  0.66872903391E+03  0.18655057296E+04  0.50400001928E-02 0.  1.
       -1    1    3    3    0  502 -0.15086391205E+04 -0.87001213229E+03 -0.85539049068E+03  0.19402592605E+04  0.50400001928E-02 0. -1.
</event>
<event>
 5   0  0.1293993E-08  0.3802797E+04  0.7818609E-02  0.8045555E-01
       -2   -1    0    0    0  501  0.00000000000E+00  0.00000000000E+00  0.17227048972E+04  0.17227048972E+04  0.25500000920E-02 0.  1.
        2   -1    0    0  501    0  0.00000000000E+00  0.00000000000E+00 -0.20986276691E+04  0.20986276691E+04  0.25500000920E-02 0. -1.
    10030    2    1    2    0    0  0.00000000000E+00  0.00000000000E+00 -0.37592277191E+03  0.38213325662E+04  0.38027969511E+04 0.  0.
        5    1    3    3  502    0  0.93534682392E+03 -0.15740320090E+04  0.32722030903E+03  0.18599853943E+04  0.46999998093E+01 0. -1.
       -5    1    3    3    0  502 -0.93534682392E+03  0.15740320090E+04 -0.70314308094E+03  0.19613471719E+04  0.46999998093E+01 0.  1.
</event>
<event>
 5   0  0.4071750E-09  0.3801461E+04  0.7818609E-02  0.8045841E-01
       -1   -1    0    0    0  501  0.00000000000E+00  0.00000000000E+00  0.13272103925E+04  0.13272103925E+04  0.50400001928E-02 0.  1.
        1   -1    0    0  501    0  0.00000000000E+00  0.00000000000E+00 -0.27220833999E+04  0.27220833999E+04  0.50400001928E-02 0. -1.
    10030    2    1    2    0    0  0.00000000000E+00  0.00000000000E+00 -0.13948730075E+04  0.40492937924E+04  0.38014614966E+04 0.  0.
        2    1    3    3  502    0 -0.79960819802E+03 -0.14563278519E+04  0.28607461029E+03  0.16858537200E+04  0.25500000920E-02 0. -1.
       -2    1    3    3    0  502  0.79960819802E+03  0.14563278519E+04 -0.16809476178E+04  0.23634400725E+04  0.25500000920E-02 0.  1.
</event>
<event>
 5   0  0.1305088E-08  0.3800742E+04  0.7818609E-02  0.8045996E-01
       -2   -1    0    0    0  501  0.00000000000E+00  0.00000000000E+00  0.19000816533E+04  0.19000816533E+04  0.25500000920E-02 0.  1.
        2   -1    0    0  501    0  0.00000000000E+00  0.00000000000E+00 -0.19006601831E+04  0.19006601831E+04  0.25500000920E-02 0. -1.
    10030    2    1    2    0    0  0.00000000000E+00  0.00000000000E+00 -0.57852977801E+00  0.38007418364E+04  0.38007417924E+04 0.  0.
        3    1    3    3  502    0 -0.14263525629E+04 -0.12161559820E+04 -0.31316708269E+03  0.19004185429E+04  0.10100000352E+00 0.  1.
       -3    1    3    3    0  502  0.14263525629E+04  0.12161559820E+04  0.31258855291E+03  0.19003232935E+04  0.10100000352E+00 0. -1.
</event>
<event>
 5   0  0.1264013E-08  0.3800827E+04  0.7818609E-02  0.8045978E-01
       -2   -1    0    0    0  501  0.00000000000E+00  0.00000000000E+00  0.17001674133E+04  0.17001674133E+04  0.25500000920E-02 0. -1.
        2   -1    0    0  501    0  0.00000000000E+00  0.00000000000E+00 -0.21242440846E+04  0.21242440846E+04  0.25500000920E-02 0.  1.
    10030    2    1    2    0    0  0.00000000000E+00  0.00000000000E+00 -0.42407667126E+03  0.38244114979E+04  0.38008265262E+04 0.  0.
        4    1    3    3  502    0 -0.15474067471E+03  0.18174021454E+04 -0.74889735956E+03  0.19717363167E+04  0.12699999809E+01 0.  1.
       -4    1    3    3    0  502  0.15474067471E+03 -0.18174021454E+04  0.32482068829E+03  0.18526751812E+04  0.12699999809E+01 0. -1.
</event>
<event>
 5   0  0.1305088E-08  0.3800084E+04  0.7818609E-02  0.8046137E-01
       -2   -1    0    0    0  501  0.00000000000E+00  0.00000000000E+00  0.19948891423E+04  0.19948891423E+04  0.25500000920E-02 0. -1.
        2   -1    0    0  501    0  0.00000000000E+00  0.00000000000E+00 -0.18097047355E+04  0.18097047355E+04  0.25500000920E-02 0.  1.
    10030    2    1    2    0    0  0.00000000000E+00  0.00000000000E+00  0.18518440675E+03  0.38045938778E+04  0.38000843820E+04 0.  0.
        3    1    3    3  502    0  0.35745381815E+03  0.39183391571E+03 -0.17340874465E+04  0.18133853236E+04  0.10100000352E+00 0.  1.
       -3    1    3    3    0  502 -0.35745381815E+03 -0.39183391571E+03  0.19192718532E+04  0.19912085542E+04  0.10100000352E+00 0. -1.
</event>
<event>
 5   0  0.1264013E-08  0.3797961E+04  0.7818609E-02  0.8046593E-01
        2   -1    0    0  501    0  0.00000000000E+00  0.00000000000E+00  0.22969197081E+04  0.22969197081E+04  0.25500000920E-02 0.  1.
       -2   -1    0    0    0  501  0.00000000000E+00  0.00000000000E+00 -0.15699836823E+04  0.15699836823E+04  0.25500000920E-02 0. -1.
    10030    2    1    2    0    0  0.00000000000E+00  0.00000000000E+00  0.72693602577E+03  0.38669033904E+04  0.37979607482E+04 0.  0.
        4    1    3    3  502    0  0.17157970346E+04  0.63711417436E+03  0.87886937360E+03  0.20303415781E+04  0.12699999809E+01 0.  1.
       -4    1    3    3    0  502 -0.17157970346E+04 -0.63711417436E+03 -0.15193334784E+03  0.18365618123E+04  0.12699999809E+01 0. -1.
</event>
<event>
 5   0  0.1327249E-08  0.3801355E+04  0.7818609E-02  0.8045864E-01
        2   -1    0    0  501    0  0.00000000000E+00  0.00000000000E+00  0.18055785320E+04  0.18055785320E+04  0.25500000920E-02 0. -1.
       -2   -1    0    0    0  501  0.00000000000E+00  0.00000000000E+00 -0.20007857765E+04  0.20007857765E+04  0.25500000920E-02 0.  1.
    10030    2    1    2    0    0  0.00000000000E+00  0.00000000000E+00 -0.19520724446E+03  0.38063643086E+04  0.38013554663E+04 0.  0.
        1    1    3    3  502    0  0.75032041727E+03  0.13136207669E+04  0.10545626037E+04  0.18440939599E+04  0.50400001928E-02 0. -1.
       -1    1    3    3    0  502 -0.75032041727E+03 -0.13136207669E+04 -0.12497698482E+04  0.19622703487E+04  0.50400001928E-02 0.  1.
</event>
<event>
 5   0  0.4071750E-09  0.3799948E+04  0.7818609E-02  0.8046166E-01
        1   -1    0    0  501    0  0.00000000000E+00  0.00000000000E+00  0.11525560637E+04  0.11525560637E+04  0.50400001928E-02 0. -1.
       -1   -1    0    0    0  501  0.00000000000E+00  0.00000000000E+00 -0.31320831350E+04  0.31320831350E+04  0.50400001928E-02 0.  1.
    10030    2    1    2    0    0  0.00000000000E+00  0.00000000000E+00 -0.19795270713E+04  0.42846391988E+04  0.37999481099E+04 0.  0.
        4    1    3    3  502    0  0.12888111611E+04 -0.26346359654E+03  0.55603278778E+03  0.14281531254E+04  0.12699999809E+01 0. -1.
       -4    1    3    3    0  502 -0.12888111611E+04  0.26346359654E+03 -0.25355598591E+04  0.28564860734E+04  0.12699999809E+01 0.  1.
</event>
<event>
 5   0  0.1305088E-08  0.3798647E+04  0.7818609E-02  0.8046445E-01
       -2   -1    0    0    0  501  0.00000000000E+00  0.00000000000E+00  0.19097980918E+04  0.19097980918E+04  0.25500000920E-02 0. -1.
        2   -1    0    0  501    0  0.00000000000E+00  0.00000000000E+00 -0.18889062418E+04  0.18889062418E+04  0.25500000920E-02 0.  1.
    10030    2    1    2    0    0  0.00000000000E+00  0.00000000000E+00  0.20891849953E+02  0.37987043336E+04  0.37986468834E+04 0.  0.
        3    1    3    3  502    0 -0.96862310319E+03 -0.12162597914E+04 -0.10804009580E+04  0.18933528030E+04  0.10100000352E+00 0.  1.
       -3    1    3    3    0  502  0.96862310319E+03  0.12162597914E+04  0.11012928079E+04  0.19053515306E+04  0.10100000352E+00 0. -1.
</event>
<event>
 5   0  0.1293993E-08  0.3810227E+04  0.7818609E-02  0.8043964E-01
        2   -1    0    0  501    0  0.00000000000E+00  0.00000000000E+00  0.27874775861E+04  0.27874775862E+04  0.25500000920E-02 0.  1.
       -2   -1    0    0    0  501  0.00000000000E+00  0.00000000000E+00 -0.13020582617E+04  0.13020582617E+04  0.25500000920E-02 0. -1.
    10030    2    1    2    0    0  0.00000000000E+00  0.00000000000E+00  0.14854193245E+04  0.40895358478E+04  0.38102274054E+04 0.  0.
        5    1    3    3  502    0 -0.56064365362E+03  0.40874567706E+03  0.26470447432E+04  0.27364689469E+04  0.46999998093E+01 0.  1.
       -5    1    3    3    0  502  0.56064365362E+03 -0.40874567706E+03 -0.11616254187E+04  0.13530669009E+04  0.46999998093E+01 0. -1.
</event>
<event>
 5   0  0.4071750E-09  0.3799517E+04  0.7818609E-02  0.8046259E-01
        1   -1    0    0  501    0  0.00000000000E+00  0.00000000000E+00  0.20309208723E+04  0.20309208723E+04  0.50400001928E-02 0. -1.
       -1   -1    0    0    0  501  0.00000000000E+00  0.00000000000E+00 -0.17770667348E+04  0.17770667348E+04  0.50400001928E-02 0.  1.
    10030    2    1    2    0    0  0.00000000000E+00  0.00000000000E+00  0.25385413751E+03  0.38079876071E+04  0.37995167709E+04 0.  0.
        3    1    3    3  502    0 -0.10359895933E+04  0.15913158894E+04  0.18639919503E+03  0.19079584292E+04  0.10100000352E+00 0.  1.
       -3    1    3    3    0  502  0.10359895933E+04 -0.15913158894E+04  0.67454942481E+02  0.19000291779E+04  0.10100000352E+00 0. -1.
</event>
<event>
 5   0  0.4071750E-09  0.3800354E+04  0.7818609E-02  0.8046079E-01
        1   -1    0    0  501    0  0.00000000000E+00  0.00000000000E+00  0.12381313255E+04  0.12381313255E+04  0.50400001928E-02 0.  1.
       -1   -1    0    0    0  501  0.00000000000E+00  0.00000000000E+00 -0.29162282335E+04  0.29162282335E+04  0.50400001928E-02 0. -1.
    10030    2    1    2    0    0  0.00000000000E+00  0.00000000000E+00 -0.16780969081E+04  0.41543595590E+04  0.38003544720E+04 0.  0.
        4    1    3    3  502    0  0.75867223214E+03 -0.10183757151E+04  0.70612641849E+03  0.14530274549E+04  0.12699999809E+01 0.  1.
       -4    1    3    3    0  502 -0.75867223214E+03  0.10183757151E+04 -0.23842233266E+04  0.27013321041E+04  0.12699999809E+01 0. -1.
</event>
<event>
 5   0  0.1264013E-08  0.3802631E+04  0.7818609E-02  0.8045590E-01
        2   -1    0    0  501    0  0.00000000000E+00  0.00000000000E+00  0.10791146399E+04  0.10791146399E+04  0.25500000920E-02 0.  1.
       -2   -1    0    0    0  501  0.00000000000E+00  0.00000000000E+00 -0.33499692107E+04  0.33499692107E+04  0.25500000920E-02 0. -1.
    10030    2    1    2    0    0  0.00000000000E+00  0.00000000000E+00 -0.22708545708E+04  0.44290838506E+04  0.38026310989E+04 0.  0.
        4    1    3    3  502    0 -0.58310824543E+03 -0.10645765058E+04  0.56910430643E+03  0.13406042247E+04  0.12699999809E+01 0.  1.
       -4    1    3    3    0  502  0.58310824543E+03  0.10645765058E+04 -0.28399588772E+04  0.30884796259E+04  0.12699999809E+01 0. -1.
</event>
<event>
 5   0  0.4071750E-09  0.3802923E+04  0.7818609E-02  0.8045528E-01
       -1   -1    0    0    0  501  0.00000000000E+00  0.00000000000E+00  0.22122283703E+04  0.22122283703E+04  0.50400001928E-02 0. -1.
        1   -1    0    0  501    0  0.00000000000E+00  0.00000000000E+00 -0.16343501091E+04  0.16343501092E+04  0.50400001928E-02 0.  1.
    10030    2    1    2    0    0  0.00000000000E+00  0.00000000000E+00  0.57787826116E+03  0.38465784795E+04  0.38029229172E+04 0.  0.
        3    1    3    3  502    0 -0.36213909754E+03 -0.18374825345E+04 -0.43572924713E+02  0.18733353679E+04  0.10100000352E+00 0.  1.
       -3    1    3    3    0  502  0.36213909754E+03  0.18374825345E+04  0.62145118587E+03  0.19732431116E+04  0.10100000352E+00 0. -1.
</event>
<event>
 5   0  0.1293993E-08  0.3793831E+04  0.7818609E-02  0.8047480E-01
       -2   -1    0    0    0  501  0.00000000000E+00  0.00000000000E+00  0.20619126900E+04  0.20619126900E+04  0.25500000920E-02 0. -1.
        2   -1    0    0  501    0  0.00000000000E+00  0.00000000000E+00 -0.17451217276E+04  0.17451217276E+04  0.25500000920E-02 0.  1.
    10030    2    1    2    0    0  0.00000000000E+00  0.00000000000E+00  0.31679096242E+03  0.38070344176E+04  0.37938311168E+04 0.  0.
        5    1    3    3  502    0 -0.11237086727E+04 -0.51847848693E+03  0.16010096713E+04  0.20235600263E+04  0.46999998093E+01 0. -1.
       -5    1    3    3    0  502  0.11237086727E+04  0.51847848693E+03 -0.12842187089E+04  0.17834743913E+04  0.46999998093E+01 0.  1.
</event>
<event>
 5   0  0.1261152E-08  0.3799251E+04  0.7818609E-02  0.8046316E-01
        2   -1    0    0  501    0  0.00000000000E+00  0.00000000000E+00  0.19991578108E+04  0.19991578108E+04  0.25500000920E-02 0. -1.
       -2   -1    0    0    0  501  0.00000000000E+00  0.00000000000E+00 -0.18050490242E+04  0.18050490242E+04  0.25500000920E-02 0.  1.
    10030    2    1    2    0    0  0.00000000000E+00  0.00000000000E+00  0.19410878665E+03  0.38042068350E+04  0.37992514292E+04 0.  0.
        2    1    3    3  502    0 -0.94883782080E+03  0.10422248656E+04  0.13723136043E+04  0.19671732281E+04  0.25500000920E-02 0. -1.
       -2    1    3    3    0  502  0.94883782080E+03 -0.10422248656E+04 -0.11782048176E+04  0.18370336069E+04  0.25500000920E-02 0.  1.
</event>
<event>
 5   0  0.1293993E-08  0.3800619E+04  0.7818609E-02  0.8046022E-01
        2   -1    0    0  501    0  0.00000000000E+00  0.00000000000E+00  0.26876819272E+04  0.26876819272E+04  0.25500000920E-02 0.  1.
       -2   -1    0    0    0  501  0.00000000000E+00  0.00000000000E+00 -0.13436024673E+04  0.13436024673E+04  0.25500000920E-02 0. -1.
    10030    2    1    2    0    0  0.00000000000E+00  0.00000000000E+00  0.13440794600E+04  0.40312843945E+04  0.38006189331E+04 0.  0.
        5    1    3    3  502    0 -0.61239132496E+03 -0.80096945308E+03 -0.10364900015E+04  0.14459975148E+04  0.46999998093E+01 0. -1.
       -5    1    3    3    0  502  0.61239132496E+03  0.80096945308E+03  0.23805694614E+04  0.25852868797E+04  0.46999998093E+01 0.  1.
</event>
<event>
 5   0  0.4071750E-09  0.3800412E+04  0.7818609E-02  0.8046067E-01
        1   -1    0    0  501    0  0.00000000000E+00  0.00000000000E+00  0.14661345453E+04  0.14661345453E+04  0.50400001928E-02 0.  1.
       -1   -1    0    0    0  501  0.00000000000E+00  0.00000000000E+00 -0.24627906527E+04  0.24627906527E+04  0.50400001928E-02 0. -1.
    10030    2    1    2    0    0  0.00000000000E+00  0.00000000000E+00 -0.99665610737E+03  0.39289251980E+04  0.38004117955E+04 0.  0.
        5    1    3    3  502    0  0.10769100173E+04 -0.99939295364E+03  0.74751156117E+03  0.16484286716E+04  0.46999998093E+01 0.  1.
       -5    1    3    3    0  502 -0.10769100173E+04  0.99939295364E+03 -0.17441676685E+04  0.22804965264E+04  0.46999998093E+01 0. -1.
</event>
<event>
 5   0  0.4071750E-09  0.3802063E+04  0.7818609E-02  0.8045712E-01
        1   -1    0    0  501    0  0.00000000000E+00  0.00000000000E+00  0.24218289503E+04  0.24218289503E+04  0.50400001928E-02 0.  1.
       -1   -1    0    0    0  501  0.00000000000E+00  0.00000000000E+00 -0.14922278307E+04  0.14922278307E+04  0.50400001928E-02 0. -1.
    10030    2    1    2    0    0  0.00000000000E+00  0.00000000000E+00  0.92960111964E+03  0.39140567810E+04  0.38020628931E+04 0.  0.
        4    1    3    3  502    0  0.76927369953E+03  0.16971134006E+04  0.85265150885E+03  0.20491442428E+04  0.12699999809E+01 0.  1.
       -4    1    3    3    0  502 -0.76927369953E+03 -0.16971134006E+04  0.76949610792E+02  0.18649125381E+04  0.12699999809E+01 0. -1.
</event>
<event>
 5   0  0.1305088E-08  0.3800332E+04  0.7818609E-02  0.8046084E-01
       -2   -1    0    0    0  501  0.00000000000E+00  0.00000000000E+00  0.16150191513E+04  0.16150191513E+04  0.25500000920E-02 0. -1.
        2   -1    0    0  501    0  0.00000000000E+00  0.00000000000E+00 -0.22356577159E+04  0.22356577159E+04  0.25500000920E-02 0.  1.
    10030    2    1    2    0    0  0.00000000000E+00  0.00000000000E+00 -0.62063856466E+03  0.38506768672E+04  0.38003315787E+04 0.  0.
        3    1    3    3  502    0 -0.14156867887E+04  0.46028132212E+03  0.88625794477E+03  0.17324783214E+04  0.10100000352E+00 0. -1.
       -3    1    3    3    0  502  0.14156867887E+04 -0.46028132212E+03 -0.15068965094E+04  0.21181985458E+04  0.10100000352E+00 0.  1.
</event>
<event>
 5   0  0.4071750E-09  0.3801042E+04  0.7818609E-02  0.8045931E-01
        1   -1    0    0  501    0  0.00000000000E+00  0.00000000000E+00  0.23267316955E+04  0.23267316955E+04  0.50400001928E-02 0. -1.
       -1   -1    0    0    0  501  0.00000000000E+00  0.00000000000E+00 -0.15523833511E+04  0.15523833511E+04  0.50400001928E-02 0.  1.
    10030    2    1    2    0    0  0.00000000000E+00  0.00000000000E+00  0.77434834442E+03  0.38791150466E+04  0.38010417238E+04 0.  0.
        2    1    3    3  502    0 -0.12317046308E+04 -0.14469129905E+04  0.42433705864E+03  0.19469759729E+04  0.25500000920E-02 0.  1.
       -2    1    3    3    0  502  0.12317046308E+04  0.14469129905E+04  0.35001128579E+03  0.19321390737E+04  0.25500000920E-02 0. -1.
</event>
<event>
 5   0  0.1264013E-08  0.3799402E+04  0.7818609E-02  0.8046283E-01
       -2   -1    0    0    0  501  0.00000000000E+00  0.00000000000E+00  0.13049618432E+04  0.13049618432E+04  0.25500000920E-02 0.  1.
        2   -1    0    0  501    0  0.00000000000E+00  0.00000000000E+00 -0.27654938420E+04  0.27654938420E+04  0.25500000920E-02 0. -1.
    10030    2    1    2    0    0  0.00000000000E+00  0.00000000000E+00 -0.14605319988E+04  0.40704556852E+04  0.37994020274E+04 0.  0.
        4    1    3    3  502    0 -0.13338318485E+04  0.13523765140E+04 -0.69935093236E+03  0.20241351178E+04  0.12699999809E+01 0.  1.
       -4    1    3    3    0  502  0.13338318485E+04 -0.13523765140E+04 -0.76118106647E+03  0.20463205674E+04  0.12699999809E+01 0. -1.
</event>
<event>
 5   0  0.4071750E-09  0.3799842E+04  0.7818609E-02  0.8046189E-01
        1   -1    0    0  501    0  0.00000000000E+00  0.00000000000E+00  0.26131925917E+04  0.26131925917E+04  0.50400001928E-02 0. -1.
       -1   -1    0    0    0  501  0.00000000000E+00  0.00000000000E+00 -0.13813368059E+04  0.13813368059E+04  0.50400001928E-02 0.  1.
    10030    2    1    2    0    0  0.00000000000E+00  0.00000000000E+00  0.12318557858E+04  0.39945293976E+04  0.37998416323E+04 0.  0.
        4    1    3    3  502    0  0.20644346553E+03  0.16340594045E+03 -0.13620657240E+04  0.13872797321E+04  0.12699999809E+01 0.  1.
       -4    1    3    3    0  502 -0.20644346553E+03 -0.16340594045E+03  0.25939215098E+04  0.26072496654E+04  0.12699999809E+01 0. -1.
</event>
<event>
 5   0  0.4071750E-09  0.3798986E+04  0.7818609E-02  0.8046373E-01
        1   -1    0    0  501    0  0.00000000000E+00  0.00000000000E+00  0.22332992779E+04  0.22332992779E+04  0.50400001928E-02 0. -1.
       -1   -1    0    0    0  501  0.00000000000E+00  0.00000000000E+00 -0.16155799287E+04  0.16155799287E+04  0.50400001928E-02 0.  1.
    10030    2    1    2    0    0  0.00000000000E+00  0.00000000000E+00  0.61771934919E+03  0.38488792066E+04  0.37989859111E+04 0.  0.
        1    1    3    3  502    0 -0.13584545187E+04  0.74795693771E+03  0.14201866797E+04  0.21028001487E+04  0.50400001928E-02 0. -1.
       -1    1    3    3    0  502  0.13584545187E+04 -0.74795693771E+03 -0.80246733047E+03  0.17460790579E+04  0.50400001928E-02 0.  1.
</event>
<event>
 5   0  0.4071750E-09  0.3810640E+04  0.7818609E-02  0.8043875E-01
        1   -1    0    0  501    0  0.00000000000E+00  0.00000000000E+00  0.21316246639E+04  0.21316246639E+04  0.50400001928E-02 0. -1.
       -1   -1    0    0    0  501  0.00000000000E+00  0.00000000000E+00 -0.17030409342E+04  0.17030409342E+04  0.50400001928E-02 0.  1.
    10030    2    1    2    0    0  0.00000000000E+00  0.00000000000E+00  0.42858372972E+03  0.38346655981E+04  0.38106398723E+04 0.  0.
        5    1    3    3  502    0 -0.10277856313E+04 -0.55092602893E+03 -0.13019792945E+04  0.17478658320E+04  0.46999998093E+01 0.  1.
       -5    1    3    3    0  502  0.10277856313E+04  0.55092602893E+03  0.17305630242E+04  0.20867997662E+04  0.46999998093E+01 0. -1.
</event>
<event>
 5   0  0.4071750E-09  0.3800952E+04  0.7818609E-02  0.8045951E-01
       -1   -1    0    0    0  501  0.00000000000E+00  0.00000000000E+00  0.15623299319E+04  0.15623299319E+04  0.50400001928E-02 0.  1.
        1   -1    0    0  501    0  0.00000000000E+00  0.00000000000E+00 -0.23118093206E+04  0.23118093206E+04  0.50400001928E-02 0. -1.
    10030    2    1    2    0    0  0.00000000000E+00  0.00000000000E+00 -0.74947938868E+03  0.38741392525E+04  0.38009519326E+04 0.  0.
        3    1    3    3  502    0 -0.10321050024E+04  0.15922679744E+04 -0.26662729283E+03  0.19161545245E+04  0.10100000352E+00 0. -1.
       -3    1    3    3    0  502  0.10321050024E+04 -0.15922679744E+04 -0.48285209585E+03  0.19579847280E+04  0.10100000352E+00 0.  1.
</event>
<event>
 5   0  0.1261152E-08  0.3798729E+04  0.7818609E-02  0.8046428E-01
        2   -1    0    0  501    0  0.00000000000E+00  0.00000000000E+00  0.12904599938E+04  0.12904599938E+04  0.25500000920E-02 0.  1.
       -2   -1    0    0    0  501  0.00000000000E+00  0.00000000000E+00 -0.27955810376E+04  0.27955810376E+04  0.25500000920E-02 0. -1.
    10030    2    1    2    0    0  0.00000000000E+00  0.00000000000E+00 -0.15051210438E+04  0.40860410315E+04  0.37987289919E+04 0.  0.
        2    1    3    3  502    0 -0.14140447157E+03 -0.14731160777E+04  0.52808489688E+03  0.15712860533E+04  0.25500000920E-02 0.  1.
       -2    1    3    3    0  502  0.14140447157E+03  0.14731160777E+04 -0.20332059407E+04  0.25147549782E+04  0.25500000920E-02 0. -1.
</event>
<event>
 5   0  0.4071750E-09  0.3800249E+04  0.7818609E-02  0.8046102E-01
        1   -1    0    0  501    0  0.00000000000E+00  0.00000000000E+00  0.18023779751E+04  0.18023779752E+04  0.50400001928E-02 0. -1.
       -1   -1    0    0    0  501  0.00000000000E+00  0.00000000000E+00 -0.20031716323E+04  0.20031716323E+04  0.50400001928E-02 0.  1.
    10030    2    1    2    0    0  0.00000000000E+00  0.00000000000E+00 -0.20079365713E+03  0.38055496074E+04  0.38002486395E+04 0.  0.
        4    1    3    3  502    0  0.70560728423E+03 -0.13537664210E+04 -0.12333040743E+04  0.19625508184E+04  0.12699999809E+01 0. -1.
       -4    1    3    3    0  502 -0.70560728423E+03  0.13537664210E+04  0.10325104172E+04  0.18429987891E+04  0.12699999809E+01 0.  1.
</event>
<event>
 5   0  0.1305088E-08  0.3789467E+04  0.7818609E-02  0.8048419E-01
       -2   -1    0    0    0  501  0.00000000000E+00  0.00000000000E+00  0.23910610490E+04  0.23910610490E+04  0.25500000920E-02 0. -1.
        2   -1    0    0  501    0  0.00000000000E+00  0.00000000000E+00 -0.15014320637E+04  0.15014320637E+04  0.25500000920E-02 0.  1.
    10030    2    1    2    0    0  0.00000000000E+00  0.00000000000E+00  0.88962898527E+03  0.38924931127E+04  0.37894673637E+04 0.  0.
        3    1    3    3  502    0 -0.10910681554E+04  0.77469322187E+03 -0.93308624699E+03  0.16313274540E+04  0.10100000352E+00 0.  1.
       -3    1    3    3    0  502  0.10910681554E+04 -0.77469322187E+03  0.18227152323E+04  0.22611656586E+04  0.10100000352E+00 0. -1.
</event>
<event>
 5   0  0.1264013E-08  0.3800167E+04  0.7818609E-02  0.8046119E-01
        2   -1    0    0  501    0  0.00000000000E+00  0.00000000000E+00  0.19382064135E+04  0.19382064135E+04  0.25500000920E-02 0.  1.
       -2   -1    0    0    0  501  0.00000000000E+00  0.00000000000E+00 -0.18627101595E+04  0.18627101595E+04  0.25500000920E-02 0. -1.
    10030    2    1    2    0    0  0.00000000000E+00  0.00000000000E+00  0.75496253965E+02  0.38009165730E+04  0.38001667214E+04 0.  0.
        4    1    3    3  502    0 -0.13744321937E+02 -0.98244424421E+03 -0.15888967227E+04  0.18681488184E+04  0.12699999809E+01 0. -1.
       -4    1    3    3    0  502  0.13744321937E+02  0.98244424421E+03  0.16643929767E+04  0.19327677546E+04  0.12699999809E+01 0.  1.
</event>
<event>
 5   0  0.4071750E-09  0.3800231E+04  0.7818609E-02  0.8046105E-01
        1   -1    0    0  501    0  0.00000000000E+00  0.00000000000E+00  0.14231473590E+04  0.14231473590E+04  0.50400001928E-02 0. -1.
       -1   -1    0    0    0  501  0.00000000000E+00  0.00000000000E+00 -0.25369396471E+04  0.25369396471E+04  0.50400001928E-02 0.  1.
    10030    2    1    2    0    0  0.00000000000E+00  0.00000000000E+00 -0.11137922881E+04  0.39600870061E+04  0.38002310239E+04 0.  0.
        1    1    3    3  502    0 -0.54738948848E+03  0.21902449059E+03  0.13254179056E+04  0.14506342075E+04  0.50400001928E-02 0. -1.
       -1    1    3    3    0  502  0.54738948848E+03 -0.21902449059E+03 -0.24392101936E+04  0.25094527986E+04  0.50400001928E-02 0.  1.
</event>
<event>
 5   0  0.1293993E-08  0.3800320E+04  0.7818609E-02  0.8046086E-01
        2   -1    0    0  501    0  0.00000000000E+00  0.00000000000E+00  0.21844861528E+04  0.21844861528E+04  0.25500000920E-02 0.  1.
       -2   -1    0    0    0  501  0.00000000000E+00  0.00000000000E+00 -0.16528412244E+04  0.16528412244E+04  0.25500000920E-02 0. -1.
    10030    2    1    2    0    0  0.00000000000E+00  0.00000000000E+00  0.53164492847E+03  0.38373273772E+04  0.38003203904E+04 0.  0.
        5    1    3    3  502    0 -0.17816616329E+04  0.15724435568E+03  0.91358540791E+03  0.20084084120E+04  0.46999998093E+01 0.  1.
       -5    1    3    3    0  502  0.17816616329E+04 -0.15724435568E+03 -0.38194047944E+03  0.18289189653E+04  0.46999998093E+01 0. -1.
</event>
<event>
 5   0  0.1327249E-08  0.3799405E+04  0.7818609E-02  0.8046283E-01
        2   -1    0    0  501    0  0.00000000000E+00  0.00000000000E+00  0.19656194569E+04  0.19656194569E+04  0.25500000920E-02 0. -1.
       -2   -1    0    0    0  501  0.00000000000E+00  0.00000000000E+00 -0.18359962250E+04  0.18359962250E+04  0.25500000920E-02 0.  1.
    10030    2    1    2    0    0  0.00000000000E+00  0.00000000000E+00  0.12962323190E+03  0.38016156819E+04  0.37994051653E+04 0.  0.
        1    1    3    3  502    0 -0.58656438281E+03  0.11386762704E+04  0.14685635167E+04  0.19486714004E+04  0.50400001928E-02 0. -1.
       -1    1    3    3    0  502  0.58656438281E+03 -0.11386762704E+04 -0.13389402848E+04  0.18529442815E+04  0.50400001928E-02 0.  1.
</event>
<event>
 5   0  0.1305088E-08  0.3801403E+04  0.7818609E-02  0.8045854E-01
        2   -1    0    0  501    0  0.00000000000E+00  0.00000000000E+00  0.17073966707E+04  0.17073966707E+04  0.25500000920E-02 0.  1.
       -2   -1    0    0    0  501  0.00000000000E+00  0.00000000000E+00 -0.21158913044E+04  0.21158913044E+04  0.25500000920E-02 0. -1.
    10030    2    1    2    0    0  0.00000000000E+00  0.00000000000E+00 -0.40849463368E+03  0.38232879751E+04  0.38014027772E+04 0.  0.
        3    1    3    3  502    0 -0.11756550122E+04  0.12849648078E+04 -0.96979070643E+03  0.19934375559E+04  0.10100000352E+00 0. -1.
       -3    1    3    3    0  502  0.11756550122E+04 -0.12849648078E+04  0.56129607275E+03  0.18298504191E+04  0.10100000352E+00 0.  1.
</event>
<event>
 5   0  0.4071750E-09  0.3803305E+04  0.7818609E-02  0.8045446E-01
        1   -1    0    0  501    0  0.00000000000E+00  0.00000000000E+00  0.13570476606E+04  0.13570476606E+04  0.50400001928E-02 0. -1.
       -1   -1    0    0    0  501  0.00000000000E+00  0.00000000000E+00 -0.26648160352E+04  0.26648160352E+04  0.50400001928E-02 0.  1.
    10030    2    1    2    0    0  0.00000000000E+00  0.00000000000E+00 -0.13077683746E+04  0.40218636958E+04  0.38033050714E+04 0.  0.
        1    1    3    3  502    0 -0.62150047353E+03 -0.17008352533E+04 -0.39844524272E+02  0.18112677835E+04  0.50400001928E-02 0.  1.
       -1    1    3    3    0  502  0.62150047353E+03  0.17008352533E+04 -0.12679238503E+04  0.22105959123E+04  0.50400001928E-02 0. -1.
</event>
<event>
 5   0  0.4071750E-09  0.3799660E+04  0.7818609E-02  0.8046228E-01
       -1   -1    0    0    0  501  0.00000000000E+00  0.00000000000E+00  0.25282951652E+04  0.25282951652E+04  0.50400001928E-02 0. -1.
        1   -1    0    0  501    0  0.00000000000E+00  0.00000000000E+00 -0.14275844538E+04  0.14275844538E+04  0.50400001928E-02 0.  1.
    10030    2    1    2    0    0  0.00000000000E+00  0.00000000000E+00  0.11007107114E+04  0.39558796190E+04  0.37996604441E+04 0.  0.
        2    1    3    3  502    0 -0.12510312079E+04  0.45342086968E+03  0.19620864549E+04  0.23707494226E+04  0.25500000920E-02 0. -1.
       -2    1    3    3    0  502  0.12510312079E+04 -0.45342086968E+03 -0.86137574348E+03  0.15851301965E+04  0.25500000920E-02 0.  1.
</event>
<event>
 5   0  0.1327249E-08  0.3799914E+04  0.7818609E-02  0.8046173E-01
       -2   -1    0    0    0  501  0.00000000000E+00  0.00000000000E+00  0.19981547423E+04  0.19981547423E+04  0.25500000920E-02 0.  1.
        2   -1    0    0  501    0  0.00000000000E+00  0.00000000000E+00 -0.18065854040E+04  0.18065854040E+04  0.25500000920E-02 0. -1.
    10030    2    1    2    0    0  0.00000000000E+00  0.00000000000E+00  0.19156933826E+03  0.38047401463E+04  0.37999143108E+04 0.  0.
        1    1    3    3  502    0 -0.36826011605E+01 -0.84663606381E+03  0.17988360149E+04  0.19881190092E+04  0.50400001928E-02 0.  1.
       -1    1    3    3    0  502  0.36826011605E+01  0.84663606381E+03 -0.16072666767E+04  0.18166211372E+04  0.50400001928E-02 0. -1.
</event>
<event>
 5   0  0.1305088E-08  0.3798085E+04  0.7818609E-02  0.8046566E-01
       -2   -1    0    0    0  501  0.00000000000E+00  0.00000000000E+00  0.28736709361E+04  0.28736709361E+04  0.25500000920E-02 0.  1.
        2   -1    0    0  501    0  0.00000000000E+00  0.00000000000E+00 -0.12549669864E+04  0.12549669864E+04  0.25500000920E-02 0. -1.
    10030    2    1    2    0    0  0.00000000000E+00  0.00000000000E+00  0.16187039497E+04  0.41286379225E+04  0.37980848620E+04 0.  0.
        3    1    3    3  502    0 -0.18317881594E+04  0.47983935881E+03  0.96562943078E+03  0.21255902425E+04  0.10100000352E+00 0.  1.
       -3    1    3    3    0  502  0.18317881594E+04 -0.47983935881E+03  0.65307451891E+03  0.20030476801E+04  0.10100000352E+00 0. -1.
</event>
<event>
 5   0  0.4071750E-09  0.3798798E+04  0.7818609E-02  0.8046413E-01
        1   -1    0    0  501    0  0.00000000000E+00  0.00000000000E+00  0.22773452793E+04  0.22773452793E+04  0.50400001928E-02 0. -1.
       -1   -1    0    0    0  501  0.00000000000E+00  0.00000000000E+00 -0.15841762772E+04  0.15841762772E+04  0.50400001928E-02 0.  1.
    10030    2    1    2    0    0  0.00000000000E+00  0.00000000000E+00  0.69316900210E+03  0.38615215565E+04  0.37987978975E+04 0.  0.
        5    1    3    3  502    0 -0.26371189234E+03  0.47853254893E+03  0.21957294483E+04  0.22626946906E+04  0.46999998093E+01 0. -1.
       -5    1    3    3    0  502  0.26371189234E+03 -0.47853254893E+03 -0.15025604462E+04  0.15988268659E+04  0.46999998093E+01 0.  1.
</event>
<event>
 5   0  0.1305088E-08  0.3799077E+04  0.7818609E-02  0.8046353E-01
        2   -1    0    0  501    0  0.00000000000E+00  0.00000000000E+00  0.22158460591E+04  0.22158460591E+04  0.25500000920E-02 0. -1.
       -2   -1    0    0    0  501  0.00000000000E+00  0.00000000000E+00 -0.16283834375E+04  0.16283834376E+04  0.25500000920E-02 0.  1.
    10030    2    1    2    0    0  0.00000000000E+00  0.00000000000E+00  0.58746262159E+03  0.38442294967E+04  0.37990772684E+04 0.  0.
        3    1    3    3  502    0  0.17464731523E+02 -0.11265518431E+04 -0.12537658204E+04  0.16856312808E+04  0.10100000352E+00 0.  1.
       -3    1    3    3    0  502 -0.17464731523E+02  0.11265518431E+04  0.18412284420E+04  0.21585982159E+04  0.10100000352E+00 0. -1.
</event>
<event>
 5   0  0.4071750E-09  0.3790799E+04  0.7818609E-02  0.8048132E-01
       -1   -1    0    0    0  501  0.00000000000E+00  0.00000000000E+00  0.22150208487E+04  0.22150208487E+04  0.50400001928E-02 0. -1.
        1   -1    0    0  501    0  0.00000000000E+00  0.00000000000E+00 -0.16218988645E+04  0.16218988645E+04  0.50400001928E-02 0.  1.
    10030    2    1    2    0    0  0.00000000000E+00  0.00000000000E+00  0.59312198421E+03  0.38369197132E+04  0.37907992822E+04 0.  0.
        4    1    3    3  502    0  0.16386292859E+03 -0.37973948723E+03 -0.15756692036E+04  0.16290451772E+04  0.12699999809E+01 0.  1.
       -4    1    3    3    0  502 -0.16386292859E+03  0.37973948723E+03  0.21687911878E+04  0.22078745360E+04  0.12699999809E+01 0. -1.
</event>
<event>
 5   0  0.4071750E-09  0.3800241E+04  0.7818609E-02  0.8046103E-01
       -1   -1    0    0    0  501  0.00000000000E+00  0.00000000000E+00  0.24284435527E+04  0.24284435527E+04  0.50400001928E-02 0.  1.
        1   -1    0    0  501    0  0.00000000000E+00  0.00000000000E+00 -0.14867371920E+04  0.14867371920E+04  0.50400001928E-02 0. -1.
    10030    2    1    2    0    0  0.00000000000E+00  0.00000000000E+00  0.94170636067E+03  0.39151807447E+04  0.38002407021E+04 0.  0.
        4    1    3    3  502    0 -0.66027321511E+02 -0.80894281860E+03 -0.12991635894E+04  0.15318536927E+04  0.12699999809E+01 0. -1.
       -4    1    3    3    0  502  0.66027321511E+02  0.80894281860E+03  0.22408699501E+04  0.23833270520E+04  0.12699999809E+01 0.  1.
</event>
<event>
 5   0  0.1305088E-08  0.3799308E+04  0.7818609E-02  0.8046303E-01
       -2   -1    0    0    0  501  0.00000000000E+00  0.00000000000E+00  0.16179627583E+04  0.16179627583E+04  0.25500000920E-02 0.  1.
        2   -1    0    0  501    0  0.00000000000E+00  0.00000000000E+00 -0.22303882601E+04  0.22303882601E+04  0.25500000920E-02 0. -1.
    10030    2    1    2    0    0  0.00000000000E+00  0.00000000000E+00 -0.61242550189E+03  0.38483510184E+04  0.37993079061E+04 0.  0.
        3    1    3    3  502    0  0.16254539061E+04 -0.48639867533E+03 -0.11716427234E+04  0.20618997923E+04  0.10100000352E+00 0. -1.
       -3    1    3    3    0  502 -0.16254539061E+04  0.48639867533E+03  0.55921722150E+03  0.17864512261E+04  0.10100000352E+00 0.  1.
</event>
<event>
 5   0  0.4071750E-09  0.3797895E+04  0.7818609E-02  0.8046607E-01
       -1   -1    0    0    0  501  0.00000000000E+00  0.00000000000E+00  0.12197735802E+04  0.12197735802E+04  0.50400001928E-02 0.  1.
        1   -1    0    0  501    0  0.00000000000E+00  0.00000000000E+00 -0.29562879509E+04  0.29562879509E+04  0.50400001928E-02 0. -1.
    10030    2    1    2    0    0  0.00000000000E+00  0.00000000000E+00 -0.17365143707E+04  0.41760615311E+04  0.37978951739E+04 0.  0.
        5    1    3    3  502    0  0.40062239757E+03  0.18590449420E+03 -0.28990225597E+04  0.29324755204E+04  0.46999998093E+01 0. -1.
       -5    1    3    3    0  502 -0.40062239757E+03 -0.18590449420E+03  0.11625081890E+04  0.12435860107E+04  0.46999998093E+01 0.  1.
</event>
<event>
 5   0  0.4071750E-09  0.3791465E+04  0.7818609E-02  0.8047989E-01
        1   -1    0    0  501    0  0.00000000000E+00  0.00000000000E+00  0.21459964090E+04  0.21459964090E+04  0.50400001928E-02 0. -1.
       -1   -1    0    0    0  501  0.00000000000E+00  0.00000000000E+00 -0.16746541510E+04  0.16746541510E+04  0.50400001928E-02 0.  1.
    10030    2    1    2    0    0  0.00000000000E+00  0.00000000000E+00  0.47134225801E+03  0.38206505600E+04  0.37914650437E+04 0.  0.
        1    1    3    3  502    0 -0.77162872681E+03 -0.41518764571E+03 -0.14583433530E+04  0.17013397686E+04  0.50400001928E-02 0.  1.
       -1    1    3    3    0  502  0.77162872681E+03  0.41518764571E+03  0.19296856110E+04  0.21193107914E+04  0.50400001928E-02 0. -1.
</event>
<event>
 5   0  0.4071750E-09  0.3800228E+04  0.7818609E-02  0.8046106E-01
        1   -1    0    0  501    0  0.00000000000E+00  0.00000000000E+00  0.23177697531E+04  0.23177697531E+04  0.50400001928E-02 0. -1.
       -1   -1    0    0    0  501  0.00000000000E+00  0.00000000000E+00 -0.15577186253E+04  0.15577186253E+04  0.50400001928E-02 0.  1.
    10030    2    1    2    0    0  0.00000000000E+00  0.00000000000E+00  0.76005112782E+03  0.38754883784E+04  0.38002279476E+04 0.  0.
        4    1    3    3  502    0 -0.16857759802E+04 -0.67550109687E+03  0.94992104548E+03  0.20495106715E+04  0.12699999809E+01 0. -1.
       -4    1    3    3    0  502  0.16857759802E+04  0.67550109687E+03 -0.18986991765E+03  0.18259777068E+04  0.12699999809E+01 0.  1.
</event>
<event>
 5   0  0.1261152E-08  0.3793694E+04  0.7818609E-02  0.8047509E-01
       -2   -1    0    0    0  501  0.00000000000E+00  0.00000000000E+00  0.20127719660E+04  0.20127719660E+04  0.25500000920E-02 0.  1.
        2   -1    0    0  501    0  0.00000000000E+00  0.00000000000E+00 -0.17875988536E+04  0.17875988536E+04  0.25500000920E-02 0. -1.
    10030    2    1    2    0    0  0.00000000000E+00  0.00000000000E+00  0.22517311235E+03  0.38003708196E+04  0.37936941674E+04 0.  0.
        2    1    3    3  502    0 -0.13603127819E+04 -0.98444866712E+03 -0.77125801697E+03  0.18478173534E+04  0.25500000920E-02 0.  1.
       -2    1    3    3    0  502  0.13603127819E+04  0.98444866712E+03  0.99643112932E+03  0.19525534662E+04  0.25500000920E-02 0. -1.
</event>
<event>
 5   0  0.1261152E-08  0.3799437E+04  0.7818609E-02  0.8046276E-01
        2   -1    0    0  501    0  0.00000000000E+00  0.00000000000E+00  0.21701285839E+04  0.21701285839E+04  0.25500000920E-02 0.  1.
       -2   -1    0    0    0  501  0.00000000000E+00  0.00000000000E+00 -0.16630034498E+04  0.16630034498E+04  0.25500000920E-02 0. -1.
    10030    2    1    2    0    0  0.00000000000E+00  0.00000000000E+00  0.50712513417E+03  0.38331320337E+04  0.37994374960E+04 0.  0.
        2    1    3    3  502    0  0.37987294811E+03  0.28495918056E+03  0.21092841725E+04  0.21620788403E+04  0.25500000920E-02 0.  1.
       -2    1    3    3    0  502 -0.37987294811E+03 -0.28495918056E+03 -0.16021590383E+04  0.16710531934E+04  0.25500000920E-02 0. -1.
</event>
<event>
 5   0  0.1261152E-08  0.3808284E+04  0.7818609E-02  0.8044379E-01
       -2   -1    0    0    0  501  0.00000000000E+00  0.00000000000E+00  0.30624375835E+04  0.30624375835E+04  0.25500000920E-02 0.  1.
        2   -1    0    0  501    0  0.00000000000E+00  0.00000000000E+00 -0.11839448785E+04  0.11839448786E+04  0.25500000920E-02 0. -1.
    10030    2    1    2    0    0  0.00000000000E+00  0.00000000000E+00  0.18784927049E+04  0.42463824620E+04  0.38082842818E+04 0.  0.
        2    1    3    3  502    0 -0.21472723123E+03  0.17749729959E+04  0.20881515501E+03  0.18000668568E+04  0.25500000920E-02 0. -1.
       -2    1    3    3    0  502  0.21472723123E+03 -0.17749729959E+04  0.16696775499E+04  0.24463156053E+04  0.25500000920E-02 0.  1.
</event>
<event>
 5   0  0.4071750E-09  0.3800719E+04  0.7818609E-02  0.8046001E-01
       -1   -1    0    0    0  501  0.00000000000E+00  0.00000000000E+00  0.17583628815E+04  0.17583628815E+04  0.50400001928E-02 0.  1.
        1   -1    0    0  501    0  0.00000000000E+00  0.00000000000E+00 -0.20538226134E+04  0.20538226134E+04  0.50400001928E-02 0. -1.
    10030    2    1    2    0    0  0.00000000000E+00  0.00000000000E+00 -0.29545973190E+03  0.38121854948E+04  0.38007185891E+04 0.  0.
        2    1    3    3  502    0 -0.18855802226E+04 -0.62659519238E+02 -0.37651112036E+03  0.19238242162E+04  0.25500000920E-02 0. -1.
       -2    1    3    3    0  502  0.18855802226E+04  0.62659519238E+02  0.81051388466E+02  0.18883612786E+04  0.25500000920E-02 0.  1.
</event>
<event>
 5   0  0.4071750E-09  0.3799628E+04  0.7818609E-02  0.8046235E-01
        1   -1    0    0  501    0  0.00000000000E+00  0.00000000000E+00  0.23811015979E+04  0.23811015979E+04  0.50400001928E-02 0. -1.
       -1   -1    0    0    0  501  0.00000000000E+00  0.00000000000E+00 -0.15158078756E+04  0.15158078756E+04  0.50400001928E-02 0.  1.
    10030    2    1    2    0    0  0.00000000000E+00  0.00000000000E+00  0.86529372237E+03  0.38969094735E+04  0.37996276421E+04 0.  0.
        4    1    3    3  502    0 -0.11618154234E+04 -0.12652924876E+04  0.12649101237E+04  0.21332555850E+04  0.12699999809E+01 0.  1.
       -4    1    3    3    0  502  0.11618154234E+04  0.12652924876E+04 -0.39961640135E+03  0.17636538885E+04  0.12699999809E+01 0. -1.
</event>
<event>
 5   0  0.4071750E-09  0.3799194E+04  0.7818609E-02  0.8046328E-01
        1   -1    0    0  501    0  0.00000000000E+00  0.00000000000E+00  0.18551836073E+04  0.18551836073E+04  0.50400001928E-02 0. -1.
       -1   -1    0    0    0  501  0.00000000000E+00  0.00000000000E+00 -0.19450735534E+04  0.19450735535E+04  0.50400001928E-02 0.  1.
    10030    2    1    2    0    0  0.00000000000E+00  0.00000000000E+00 -0.89889946160E+02  0.38002571607E+04  0.37991938994E+04 0.  0.
        3    1    3    3  502    0 -0.16831292148E+04  0.54534088486E+02 -0.92415093981E+03  0.19209250091E+04  0.10100000352E+00 0.  1.
       -3    1    3    3    0  502  0.16831292148E+04 -0.54534088486E+02  0.83426099365E+03  0.18793321517E+04  0.10100000352E+00 0. -1.
</event>
<event>
 5   0  0.1293993E-08  0.3798586E+04  0.7818609E-02  0.8046458E-01
        2   -1    0    0  501    0  0.00000000000E+00  0.00000000000E+00  0.12075938723E+04  0.12075938723E+04  0.25500000920E-02 0. -1.
       -2   -1    0    0    0  501  0.00000000000E+00  0.00000000000E+00 -0.29871910890E+04  0.29871910890E+04  0.25500000920E-02 0.  1.
    10030    2    1    2    0    0  0.00000000000E+00  0.00000000000E+00 -0.17795972167E+04  0.41947849613E+04  0.37985858709E+04 0.  0.
        5    1    3    3  502    0 -0.23190634171E+03 -0.14262727913E+04  0.47134318173E+03  0.15199411540E+04  0.46999998093E+01 0. -1.
       -5    1    3    3    0  502  0.23190634171E+03  0.14262727913E+04 -0.22509403984E+04  0.26748438074E+04  0.46999998093E+01 0.  1.
</event>
<event>
 5   0  0.4071750E-09  0.3802791E+04  0.7818609E-02  0.8045556E-01
       -1   -1    0    0    0  501  0.00000000000E+00  0.00000000000E+00  0.17931252086E+04  0.17931252086E+04  0.50400001928E-02 0.  1.
        1   -1    0    0  501    0  0.00000000000E+00  0.00000000000E+00 -0.20162036660E+04  0.20162036660E+04  0.50400001928E-02 0. -1.
    10030    2    1    2    0    0  0.00000000000E+00  0.00000000000E+00 -0.22307845732E+03  0.38093288746E+04  0.38027914059E+04 0.  0.
        4    1    3    3  502    0  0.35597425535E+03 -0.90760700212E+03  0.15236996242E+04  0.18089030650E+04  0.12699999809E+01 0.  1.
       -4    1    3    3    0  502 -0.35597425535E+03  0.90760700212E+03 -0.17467780815E+04  0.20004258096E+04  0.12699999809E+01 0. -1.
</event>
<event>
 5   0  0.1293993E-08  0.3801158E+04  0.7818609E-02  0.8045906E-01
       -2   -1    0    0    0  501  0.00000000000E+00  0.00000000000E+00  0.14926758699E+04  0.14926758699E+04  0.25500000920E-02 0. -1.
        2   -1    0    0  501    0  0.00000000000E+00  0.00000000000E+00 -0.24199496224E+04  0.24199496224E+04  0.25500000920E-02 0.  1.
    10030    2    1    2    0    0  0.00000000000E+00  0.00000000000E+00 -0.92727375247E+03  0.39126254923E+04  0.38011579329E+04 0.  0.
        5    1    3    3  502    0  0.14160195163E+03  0.53511894235E+03  0.14078595679E+04  0.15127769327E+04  0.46999998093E+01 0. -1.
       -5    1    3    3    0  502 -0.14160195163E+03 -0.53511894235E+03 -0.23351333204E+04  0.23998485596E+04  0.46999998093E+01 0.  1.
</event>
<event>
 5   0  0.4071750E-09  0.3799946E+04  0.7818609E-02  0.8046166E-01
        1   -1    0    0  501    0  0.00000000000E+00  0.00000000000E+00  0.18970452417E+04  0.18970452417E+04  0.50400001928E-02 0. -1.
       -1   -1    0    0    0  501  0.00000000000E+00  0.00000000000E+00 -0.19029056093E+04  0.19029056093E+04  0.50400001928E-02 0.  1.
    10030    2    1    2    0    0  0.00000000000E+00  0.00000000000E+00 -0.58603675724E+01  0.37999508510E+04  0.37999463320E+04 0.  0.
        4    1    3    3  502    0  0.10341504448E+04 -0.15936674484E+04  0.22630362862E+02  0.18999360054E+04  0.12699999809E+01 0. -1.
       -4    1    3    3    0  502 -0.10341504448E+04  0.15936674484E+04 -0.28490730435E+02  0.19000148455E+04  0.12699999809E+01 0.  1.
</event>
<event>
 5   0  0.4071750E-09  0.3799579E+04  0.7818609E-02  0.8046245E-01
       -3   -1    0    0    0  501  0.00000000000E+00  0.00000000000E+00  0.23265505958E+04  0.23265505980E+04  0.10100000352E+00 0.  1.
        3   -1    0    0  501    0  0.00000000000E+00  0.00000000000E+00 -0.15513098002E+04  0.15513098035E+04  0.10100000352E+00 0. -1.
    10030    2    1    2    0    0  0.00000000000E+00  0.00000000000E+00  0.77524079555E+03  0.38778604015E+04  0.37995793191E+04 0.  0.
        3    1    3    3  502    0  0.23973286908E+03 -0.78931058019E+03  0.21342282637E+04  0.22881025616E+04  0.10100000352E+00 0.  1.
       -3    1    3    3    0  502 -0.23973286908E+03  0.78931058019E+03 -0.13589874682E+04  0.15897578399E+04  0.10100000352E+00 0. -1.
</event>
<event>
 5   0  0.4071750E-09  0.3799259E+04  0.7818609E-02  0.8046314E-01
       -1   -1    0    0    0  501  0.00000000000E+00  0.00000000000E+00  0.17796180156E+04  0.17796180157E+04  0.50400001928E-02 0.  1.
        1   -1    0    0  501    0  0.00000000000E+00  0.00000000000E+00 -0.20277343917E+04  0.20277343917E+04  0.50400001928E-02 0. -1.
    10030    2    1    2    0    0  0.00000000000E+00  0.00000000000E+00 -0.24811637601E+03  0.38073524073E+04  0.37992592196E+04 0.  0.
        3    1    3    3  502    0 -0.99409518836E+03  0.12831685336E+04 -0.11129966645E+04  0.19681230435E+04  0.10100000352E+00 0. -1.
       -3    1    3    3    0  502  0.99409518836E+03 -0.12831685336E+04  0.86488028849E+03  0.18392293638E+04  0.10100000352E+00 0.  1.
</event>
<event>
 5   0  0.4071750E-09  0.3800104E+04  0.7818609E-02  0.8046133E-01
       -1   -1    0    0    0  501  0.00000000000E+00  0.00000000000E+00  0.14729019396E+04  0.14729019396E+04  0.50400001928E-02 0. -1.
        1   -1    0    0  501    0  0.00000000000E+00  0.00000000000E+00 -0.24510780506E+04  0.24510780506E+04  0.50400001928E-02 0.  1.
    10030    2    1    2    0    0  0.00000000000E+00  0.00000000000E+00 -0.97817611103E+03  0.39239799902E+04  0.38001040063E+04 0.  0.
        3    1    3    3  502    0  0.22315780431E+03 -0.18852626336E+04 -0.40789274068E+03  0.19417494950E+04  0.10100000352E+00 0.  1.
       -3    1    3    3    0  502 -0.22315780431E+03  0.18852626336E+04 -0.57028337034E+03  0.19822304952E+04  0.10100000352E+00 0. -1.
</event>
<event>
 5   0  0.1264013E-08  0.3793649E+04  0.7818609E-02  0.8047519E-01
        2   -1    0    0  501    0  0.00000000000E+00  0.00000000000E+00  0.19594404300E+04  0.19594404300E+04  0.25500000920E-02 0. -1.
       -2   -1    0    0    0  501  0.00000000000E+00  0.00000000000E+00 -0.18362098649E+04  0.18362098649E+04  0.25500000920E-02 0.  1.
    10030    2    1    2    0    0  0.00000000000E+00  0.00000000000E+00  0.12323056507E+03  0.37956502950E+04  0.37936493498E+04 0.  0.
        4    1    3    3  502    0 -0.84912510088E+03  0.37489337911E+03  0.17166896320E+04  0.19515592198E+04  0.12699999809E+01 0. -1.
       -4    1    3    3    0  502  0.84912510088E+03 -0.37489337911E+03 -0.15934590670E+04  0.18440910752E+04  0.12699999809E+01 0.  1.
</event>
<event>
 5   0  0.1261152E-08  0.3800498E+04  0.7818609E-02  0.8046048E-01
        2   -1    0    0  501    0  0.00000000000E+00  0.00000000000E+00  0.19790560006E+04  0.19790560006E+04  0.25500000920E-02 0.  1.
       -2   -1    0    0    0  501  0.00000000000E+00  0.00000000000E+00 -0.18245799209E+04  0.18245799209E+04  0.25500000920E-02 0. -1.
    10030    2    1    2    0    0  0.00000000000E+00  0.00000000000E+00  0.15447607976E+03  0.38036359215E+04  0.38004977784E+04 0.  0.
        2    1    3    3  502    0 -0.17202002873E+04  0.50079367275E+03  0.71105592620E+03  0.19275590423E+04  0.25500000920E-02 0.  1.
       -2    1    3    3    0  502  0.17202002873E+04 -0.50079367275E+03 -0.55657984644E+03  0.18760768792E+04  0.25500000920E-02 0. -1.
</event>
<event>
 5   0  0.4071750E-09  0.3800094E+04  0.7818609E-02  0.8046135E-01
       -1   -1    0    0    0  501  0.00000000000E+00  0.00000000000E+00  0.15166718613E+04  0.15166718613E+04  0.50400001928E-02 0. -1.
        1   -1    0    0  501    0  0.00000000000E+00  0.00000000000E+00 -0.23803297653E+04  0.23803297653E+04  0.50400001928E-02 0.  1.
    10030    2    1    2    0    0  0.00000000000E+00  0.00000000000E+00 -0.86365790402E+03  0.38970016267E+04  0.38000943019E+04 0.  0.
        3    1    3    3  502    0 -0.97810503291E+03 -0.39314960171E+03 -0.20529396020E+04  0.23077731874E+04  0.10100000352E+00 0.  1.
       -3    1    3    3    0  502  0.97810503291E+03  0.39314960171E+03  0.11892816980E+04  0.15892284393E+04  0.10100000352E+00 0. -1.
</event>
<event>
 5   0  0.1305088E-08  0.3800831E+04  0.7818609E-02  0.8045977E-01
        2   -1    0    0  501    0  0.00000000000E+00  0.00000000000E+00  0.19693118576E+04  0.19693118576E+04  0.25500000920E-02 0. -1.
       -2   -1    0    0    0  501  0.00000000000E+00  0.00000000000E+00 -0.18339297606E+04  0.18339297606E+04  0.25500000920E-02 0.  1.
    10030    2    1    2    0    0  0.00000000000E+00  0.00000000000E+00  0.13538209702E+03  0.38032416183E+04  0.38008312900E+04 0.  0.
        3    1    3    3  502    0  0.14177282703E+02 -0.10393829929E+04  0.16596310025E+04  0.19582883025E+04  0.10100000352E+00 0. -1.
       -3    1    3    3    0  502 -0.14177282703E+02  0.10393829929E+04 -0.15242489055E+04  0.18449533157E+04  0.10100000352E+00 0.  1.
</event>
<event>
 5   0  0.4071750E-09  0.3801712E+04  0.7818609E-02  0.8045788E-01
       -1   -1    0    0    0  501  0.00000000000E+00  0.00000000000E+00  0.26569342357E+04  0.26569342357E+04  0.50400001928E-02 0. -1.
        1   -1    0    0  501    0  0.00000000000E+00  0.00000000000E+00 -0.13599331410E+04  0.13599331410E+04  0.50400001928E-02 0.  1.
    10030    2    1    2    0    0  0.00000000000E+00  0.00000000000E+00  0.12970010947E+04  0.40168673767E+04  0.38017116779E+04 0.  0.
        1    1    3    3  502    0 -0.11520241540E+04  0.44269568000E+03  0.21760429795E+04  0.25016598820E+04  0.50400001928E-02 0. -1.
       -1    1    3    3    0  502  0.11520241540E+04 -0.44269568000E+03 -0.87904188486E+03  0.15152074947E+04  0.50400001928E-02 0.  1.
</event>
<event>
 5   0  0.4071750E-09  0.3798253E+04  0.7818609E-02  0.8046530E-01
        1   -1    0    0  501    0  0.00000000000E+00  0.00000000000E+00  0.23297875080E+04  0.23297875080E+04  0.50400001928E-02 0. -1.
       -1   -1    0    0    0  501  0.00000000000E+00  0.00000000000E+00 -0.15480728191E+04  0.15480728191E+04  0.50400001928E-02 0.  1.
    10030    2    1    2    0    0  0.00000000000E+00  0.00000000000E+00  0.78171468888E+03  0.38778603271E+04  0.37982526064E+04 0.  0.
        4    1    3    3  502    0  0.11064944218E+04  0.36890787268E+03 -0.11393065861E+04  0.16304735612E+04  0.12699999809E+01 0.  1.
       -4    1    3    3    0  502 -0.11064944218E+04 -0.36890787268E+03  0.19210212749E+04  0.22473867659E+04  0.12699999809E+01 0. -1.
</event>
<event>
 5   0  0.4071750E-09  0.3799661E+04  0.7818609E-02  0.8046228E-01
       -1   -1    0    0    0  501  0.00000000000E+00  0.00000000000E+00  0.16695834693E+04  0.16695834693E+04  0.50400001928E-02 0. -1.
        1   -1    0    0  501    0  0.00000000000E+00  0.00000000000E+00 -0.21618297269E+04  0.21618297269E+04  0.50400001928E-02 0.  1.
    10030    2    1    2    0    0  0.00000000000E+00  0.00000000000E+00 -0.49224625757E+03  0.38314131962E+04  0.37996606035E+04 0.  0.
        5    1    3    3  502    0  0.23931753458E+03 -0.69795015699E+03  0.15191998158E+04  0.16889042230E+04  0.46999998093E+01 0. -1.
       -5    1    3    3    0  502 -0.23931753458E+03  0.69795015699E+03 -0.20114460734E+04  0.21425089732E+04  0.46999998093E+01 0.  1.
</event>
<event>
 5   0  0.1305088E-08  0.3801066E+04  0.7818609E-02  0.8045926E-01
       -2   -1    0    0    0  501  0.00000000000E+00  0.00000000000E+00  0.12694164820E+04  0.12694164820E+04  0.25500000920E-02 0. -1.
        2   -1    0    0  501    0  0.00000000000E+00  0.00000000000E+00 -0.28454221098E+04  0.28454221098E+04  0.25500000920E-02 0.  1.
    10030    2    1    2    0    0  0.00000000000E+00  0.00000000000E+00 -0.15760056278E+04  0.41148385918E+04  0.38010660213E+04 0.  0.
        3    1    3    3  502    0  0.43012068557E+03 -0.10811329303E+04 -0.24147724002E+04  0.26804809218E+04  0.10100000352E+00 0.  1.
       -3    1    3    3    0  502 -0.43012068557E+03  0.10811329303E+04  0.83876677236E+03  0.14343576701E+04  0.10100000352E+00 0. -1.
</event>
<event>
 5   0  0.4071750E-09  0.3812688E+04  0.7818609E-02  0.8043437E-01
        1   -1    0    0  501    0  0.00000000000E+00  0.00000000000E+00  0.17438137676E+04  0.17438137676E+04  0.50400001928E-02 0.  1.
       -1   -1    0    0    0  501  0.00000000000E+00  0.00000000000E+00 -0.20840229875E+04  0.20840229875E+04  0.50400001928E-02 0. -1.
    10030    2    1    2    0    0  0.00000000000E+00  0.00000000000E+00 -0.34020921995E+03  0.38278367551E+04  0.38126882787E+04 0.  0.
        1    1    3    3  502    0 -0.71849922380E+03  0.11662736764E+04 -0.15011597178E+04  0.20322194570E+04  0.50400001928E-02 0. -1.
       -1    1    3    3    0  502  0.71849922380E+03 -0.11662736764E+04  0.11609504979E+04  0.17956172981E+04  0.50400001928E-02 0.  1.
</event>
<event>
 5   0  0.1327249E-08  0.3798299E+04  0.7818609E-02  0.8046520E-01
        2   -1    0    0  501    0  0.00000000000E+00  0.00000000000E+00  0.17203656813E+04  0.17203656813E+04  0.25500000920E-02 0. -1.
       -2   -1    0    0    0  501  0.00000000000E+00  0.00000000000E+00 -0.20965131673E+04  0.20965131673E+04  0.25500000920E-02 0.  1.
    10030    2    1    2    0    0  0.00000000000E+00  0.00000000000E+00 -0.37614748601E+03  0.38168788486E+04  0.37982992528E+04 0.  0.
        1    1    3    3  502    0  0.15589790386E+04  0.78984748153E+03  0.55886196624E+03  0.18348300696E+04  0.50400001928E-02 0. -1.
       -1    1    3    3    0  502 -0.15589790386E+04 -0.78984748153E+03 -0.93500945225E+03  0.19820487791E+04  0.50400001928E-02 0.  1.
</event>
<event>
 5   0  0.4071750E-09  0.3801118E+04  0.7818609E-02  0.8045915E-01
       -1   -1    0    0    0  501  0.00000000000E+00  0.00000000000E+00  0.29509284359E+04  0.29509284359E+04  0.50400001928E-02 0.  1.
        1   -1    0    0  501    0  0.00000000000E+00  0.00000000000E+00 -0.12240639391E+04  0.12240639392E+04  0.50400001928E-02 0. -1.
    10030    2    1    2    0    0  0.00000000000E+00  0.00000000000E+00  0.17268644968E+04  0.41749923751E+04  0.38011183015E+04 0.  0.
        4    1    3    3  502    0 -0.34673227082E+03  0.15492676760E+04 -0.28416622791E+03  0.16128253649E+04  0.12699999809E+01 0. -1.
       -4    1    3    3    0  502  0.34673227082E+03 -0.15492676760E+04  0.20110307247E+04  0.25621670102E+04  0.12699999809E+01 0.  1.
</event>
<event>
 5   0  0.4071750E-09  0.3800850E+04  0.7818609E-02  0.8045973E-01
        1   -1    0    0  501    0  0.00000000000E+00  0.00000000000E+00  0.23237495430E+04  0.23237495430E+04  0.50400001928E-02 0. -1.
       -1   -1    0    0    0  501  0.00000000000E+00  0.00000000000E+00 -0.15542187186E+04  0.15542187186E+04  0.50400001928E-02 0.  1.
    10030    2    1    2    0    0  0.00000000000E+00  0.00000000000E+00  0.76953082440E+03  0.38779682617E+04  0.38008499245E+04 0.  0.
        5    1    3    3  502    0 -0.18803547648E+03 -0.16107143055E+04  0.13957459392E+04  0.21395996661E+04  0.46999998093E+01 0. -1.
       -5    1    3    3    0  502  0.18803547648E+03  0.16107143055E+04 -0.62621511479E+03  0.17383685956E+04  0.46999998093E+01 0.  1.
</event>
<event>
 5   0  0.4071750E-09  0.3800568E+04  0.7818609E-02  0.8046033E-01
       -1   -1    0    0    0  501  0.00000000000E+00  0.00000000000E+00  0.21769318340E+04  0.21769318340E+04  0.50400001928E-02 0. -1.
        1   -1    0    0  501    0  0.00000000000E+00  0.00000000000E+00 -0.16587932646E+04  0.16587932647E+04  0.50400001928E-02 0.  1.
    10030    2    1    2    0    0  0.00000000000E+00  0.00000000000E+00  0.51813856939E+03  0.38357250987E+04  0.38005683069E+04 0.  0.
        2    1    3    3  502    0  0.45252321946E+03  0.16468456984E+04  0.10999643691E+04  0.20314525916E+04  0.25500000920E-02 0. -1.
       -2    1    3    3    0  502 -0.45252321946E+03 -0.16468456984E+04 -0.58182579976E+03  0.18042725071E+04  0.25500000920E-02 0.  1.
</event>
<event>
 5   0  0.4071750E-09  0.3799178E+04  0.7818609E-02  0.8046331E-01
        1   -1    0    0  501    0  0.00000000000E+00  0.00000000000E+00  0.17380495340E+04  0.17380495340E+04  0.50400001928E-02 0. -1.
       -1   -1    0    0    0  501  0.00000000000E+00  0.00000000000E+00 -0.20761419124E+04  0.20761419124E+04  0.50400001928E-02 0.  1.
    10030    2    1    2    0    0  0.00000000000E+00  0.00000000000E+00 -0.33809237840E+03  0.38141914465E+04  0.37991775339E+04 0.  0.
        4    1    3    3  502    0 -0.63595269142E+03 -0.26674549184E+03  0.16079335843E+04  0.17495830954E+04  0.12699999809E+01 0. -1.
       -4    1    3    3    0  502  0.63595269142E+03  0.26674549184E+03 -0.19460259627E+04  0.20646083511E+04  0.12699999809E+01 0.  1.
</event>
<event>
 5   0  0.4071750E-09  0.3796199E+04  0.7818609E-02  0.8046971E-01
       -1   -1    0    0    0  501  0.00000000000E+00  0.00000000000E+00  0.13355508563E+04  0.13355508563E+04  0.50400001928E-02 0.  1.
        1   -1    0    0  501    0  0.00000000000E+00  0.00000000000E+00 -0.26976002612E+04  0.26976002612E+04  0.50400001928E-02 0. -1.
    10030    2    1    2    0    0  0.00000000000E+00  0.00000000000E+00 -0.13620494049E+04  0.40331511175E+04  0.37961993303E+04 0.  0.
        5    1    3    3  502    0  0.15020356360E+04  0.23654736188E+03  0.52597516799E+03  0.16089554604E+04  0.46999998093E+01 0.  1.
       -5    1    3    3    0  502 -0.15020356360E+04 -0.23654736188E+03 -0.18880245729E+04  0.24241956571E+04  0.46999998093E+01 0. -1.
</event>
<event>
 5   0  0.1261152E-08  0.3798873E+04  0.7818609E-02  0.8046397E-01
        2   -1    0    0  501    0  0.00000000000E+00  0.00000000000E+00  0.26863643498E+04  0.26863643498E+04  0.25500000920E-02 0.  1.
       -2   -1    0    0    0  501  0.00000000000E+00  0.00000000000E+00 -0.13430270361E+04  0.13430270361E+04  0.25500000920E-02 0. -1.
    10030    2    1    2    0    0  0.00000000000E+00  0.00000000000E+00  0.13433373137E+04  0.40293913860E+04  0.37988734913E+04 0.  0.
        2    1    3    3  502    0  0.11153242201E+04  0.16645977227E+03 -0.94954371497E+03  0.14742083429E+04  0.25500000920E-02 0. -1.
       -2    1    3    3    0  502 -0.11153242201E+04 -0.16645977227E+03  0.22928810287E+04  0.25551830430E+04  0.25500000920E-02 0.  1.
</event>
<event>
 5   0  0.4071750E-09  0.3801395E+04  0.7818609E-02  0.8045855E-01
       -1   -1    0    0    0  501  0.00000000000E+00  0.00000000000E+00  0.20460026360E+04  0.20460026360E+04  0.50400001928E-02 0. -1.
        1   -1    0    0  501    0  0.00000000000E+00  0.00000000000E+00 -0.17657122134E+04  0.17657122134E+04  0.50400001928E-02 0.  1.
    10030    2    1    2    0    0  0.00000000000E+00  0.00000000000E+00  0.28029042263E+03  0.38117148495E+04  0.38013954507E+04 0.  0.
        1    1    3    3  502    0 -0.66498241790E+03 -0.82706675932E+03 -0.14409710140E+04  0.17895917143E+04  0.50400001928E-02 0.  1.
       -1    1    3    3    0  502  0.66498241790E+03  0.82706675932E+03  0.17212614367E+04  0.20221231352E+04  0.50400001928E-02 0. -1.
</event>
<event>
 5   0  0.4071750E-09  0.3802944E+04  0.7818609E-02  0.8045523E-01
       -1   -1    0    0    0  501  0.00000000000E+00  0.00000000000E+00  0.16211712641E+04  0.16211712641E+04  0.50400001928E-02 0.  1.
        1   -1    0    0  501    0  0.00000000000E+00  0.00000000000E+00 -0.22302363724E+04  0.22302363724E+04  0.50400001928E-02 0. -1.
    10030    2    1    2    0    0  0.00000000000E+00  0.00000000000E+00 -0.60906510838E+03  0.38514076365E+04  0.38029436594E+04 0.  0.
        1    1    3    3  502    0  0.52392636620E+03  0.16203377914E+04 -0.11612454116E+04  0.20611851691E+04  0.50400001928E-02 0. -1.
       -1    1    3    3    0  502 -0.52392636620E+03 -0.16203377914E+04  0.55218030319E+03  0.17902224674E+04  0.50400001928E-02 0.  1.
</event>
<event>
 5   0  0.4071750E-09  0.3797930E+04  0.7818609E-02  0.8046599E-01
       -1   -1    0    0    0  501  0.00000000000E+00  0.00000000000E+00  0.13526921906E+04  0.13526921906E+04  0.50400001928E-02 0. -1.
        1   -1    0    0  501    0  0.00000000000E+00  0.00000000000E+00 -0.26658453251E+04  0.26658453252E+04  0.50400001928E-02 0.  1.
    10030    2    1    2    0    0  0.00000000000E+00  0.00000000000E+00 -0.13131531345E+04  0.40185375158E+04  0.37979300429E+04 0.  0.
        1    1    3    3  502    0  0.18980462511E+04  0.57048390679E+02 -0.64038879512E+03  0.20039790166E+04  0.50400001928E-02 0. -1.
       -1    1    3    3    0  502 -0.18980462511E+04 -0.57048390679E+02 -0.67276433942E+03  0.20145584992E+04  0.50400001928E-02 0.  1.
</event>
<event>
 5   0  0.1264013E-08  0.3799335E+04  0.7818609E-02  0.8046298E-01
        2   -1    0    0  501    0  0.00000000000E+00  0.00000000000E+00  0.17901503140E+04  0.17901503140E+04  0.25500000920E-02 0. -1.
       -2   -1    0    0    0  501  0.00000000000E+00  0.00000000000E+00 -0.20158844525E+04  0.20158844525E+04  0.25500000920E-02 0.  1.
    10030    2    1    2    0    0  0.00000000000E+00  0.00000000000E+00 -0.22573413850E+03  0.38060347666E+04  0.37993347764E+04 0.  0.
        4    1    3    3  502    0  0.18143832015E+04 -0.53268646987E+03  0.69093814784E+02  0.18922253685E+04  0.12699999809E+01 0.  1.
       -4    1    3    3    0  502 -0.18143832015E+04  0.53268646987E+03 -0.29482795329E+03  0.19138093980E+04  0.12699999809E+01 0. -1.
</event>
<event>
 5   0  0.4071750E-09  0.3800089E+04  0.7818609E-02  0.8046136E-01
       -1   -1    0    0    0  501  0.00000000000E+00  0.00000000000E+00  0.14211751254E+04  0.14211751254E+04  0.50400001928E-02 0.  1.
        1   -1    0    0  501    0  0.00000000000E+00  0.00000000000E+00 -0.25402701670E+04  0.25402701670E+04  0.50400001928E-02 0. -1.
    10030    2    1    2    0    0  0.00000000000E+00  0.00000000000E+00 -0.11190950416E+04  0.39614452924E+04  0.38000888270E+04 0.  0.
        3    1    3    3  502    0  0.17072842779E+04 -0.83284414469E+03 -0.51631631241E+03  0.19685099745E+04  0.10100000352E+00 0.  1.
       -3    1    3    3    0  502 -0.17072842779E+04  0.83284414469E+03 -0.60277872916E+03  0.19929353179E+04  0.10100000352E+00 0. -1.
</event>
<event>
 5   0  0.1264013E-08  0.3800627E+04  0.7818609E-02  0.8046020E-01
        2   -1    0    0  501    0  0.00000000000E+00  0.00000000000E+00  0.18560683278E+04  0.18560683278E+04  0.25500000920E-02 0. -1.
       -2   -1    0    0    0  501  0.00000000000E+00  0.00000000000E+00 -0.19456133184E+04  0.19456133184E+04  0.25500000920E-02 0.  1.
    10030    2    1    2    0    0  0.00000000000E+00  0.00000000000E+00 -0.89544990601E+02  0.38016816461E+04  0.38006269263E+04 0.  0.
        4    1    3    3  502    0 -0.55894980179E+03 -0.16047733290E+04 -0.89557736396E+03  0.19208807215E+04  0.12699999809E+01 0.  1.
       -4    1    3    3    0  502  0.55894980179E+03  0.16047733290E+04  0.80603237336E+03  0.18808009246E+04  0.12699999809E+01 0. -1.
</event>
<event>
 5   0  0.1305088E-08  0.3799312E+04  0.7818609E-02  0.8046303E-01
        2   -1    0    0  501    0  0.00000000000E+00  0.00000000000E+00  0.20971489071E+04  0.20971489071E+04  0.25500000920E-02 0.  1.
       -2   -1    0    0    0  501  0.00000000000E+00  0.00000000000E+00 -0.17207610925E+04  0.17207610925E+04  0.25500000920E-02 0. -1.
    10030    2    1    2    0    0  0.00000000000E+00  0.00000000000E+00  0.37638781457E+03  0.38179099997E+04  0.37993116454E+04 0.  0.
        3    1    3    3  502    0  0.57023472726E+02 -0.12845077618E+04 -0.12170363674E+04  0.17704206834E+04  0.10100000352E+00 0. -1.
       -3    1    3    3    0  502 -0.57023472726E+02  0.12845077618E+04  0.15934241819E+04  0.20474893163E+04  0.10100000352E+00 0.  1.
</event>
<event>
 5   0  0.1327249E-08  0.3803786E+04  0.7818609E-02  0.8045343E-01
       -2   -1    0    0    0  501  0.00000000000E+00  0.00000000000E+00  0.13544965222E+04  0.13544965222E+04  0.25500000920E-02 0. -1.
        2   -1    0    0  501    0  0.00000000000E+00  0.00000000000E+00 -0.26705105495E+04  0.26705105495E+04  0.25500000920E-02 0.  1.
    10030    2    1    2    0    0  0.00000000000E+00  0.00000000000E+00 -0.13160140273E+04  0.40250070717E+04  0.38037861411E+04 0.  0.
        1    1    3    3  502    0  0.16320428502E+04 -0.54264357206E+03  0.20110484619E+03  0.17316088099E+04  0.50400001928E-02 0. -1.
       -1    1    3    3    0  502 -0.16320428502E+04  0.54264357206E+03 -0.15171188735E+04  0.22933982618E+04  0.50400001928E-02 0.  1.
</event>
<event>
 5   0  0.1264013E-08  0.3812048E+04  0.7818609E-02  0.8043574E-01
       -2   -1    0    0    0  501  0.00000000000E+00  0.00000000000E+00  0.25249467356E+04  0.25249467356E+04  0.25500000920E-02 0.  1.
        2   -1    0    0  501    0  0.00000000000E+00  0.00000000000E+00 -0.14388134417E+04  0.14388134417E+04  0.25500000920E-02 0. -1.
    10030    2    1    2    0    0  0.00000000000E+00  0.00000000000E+00  0.10861332940E+04  0.39637601773E+04  0.38120479025E+04 0.  0.
        4    1    3    3  502    0 -0.16981727718E+04 -0.14821382907E+03 -0.34361205555E+03  0.17389160301E+04  0.12699999809E+01 0. -1.
       -4    1    3    3    0  502  0.16981727718E+04  0.14821382907E+03  0.14297453495E+04  0.22248441472E+04  0.12699999809E+01 0.  1.
</event>
<event>
 5   0  0.4071750E-09  0.3800687E+04  0.7818609E-02  0.8046007E-01
        1   -1    0    0  501    0  0.00000000000E+00  0.00000000000E+00  0.20779509413E+04  0.20779509413E+04  0.50400001928E-02 0. -1.
       -1   -1    0    0    0  501  0.00000000000E+00  0.00000000000E+00 -0.17379164762E+04  0.17379164763E+04  0.50400001928E-02 0.  1.
    10030    2    1    2    0    0  0.00000000000E+00  0.00000000000E+00  0.34003446504E+03  0.38158674175E+04  0.38006868736E+04 0.  0.
        3    1    3    3  502    0 -0.92356414252E+03 -0.13582387374E+04 -0.78958375246E+03  0.18224230314E+04  0.10100000352E+00 0.  1.
       -3    1    3    3    0  502  0.92356414252E+03  0.13582387374E+04  0.11296182175E+04  0.19934443861E+04  0.10100000352E+00 0. -1.
</event>
<event>
 5   0  0.1305088E-08  0.3799259E+04  0.7818609E-02  0.8046314E-01
       -2   -1    0    0    0  501  0.00000000000E+00  0.00000000000E+00  0.14781048912E+04  0.14781048912E+04  0.25500000920E-02 0.  1.
        2   -1    0    0  501    0  0.00000000000E+00  0.00000000000E+00 -0.24413644093E+04  0.24413644093E+04  0.25500000920E-02 0. -1.
    10030    2    1    2    0    0  0.00000000000E+00  0.00000000000E+00 -0.96325951818E+03  0.39194693005E+04  0.37992592302E+04 0.  0.
        3    1    3    3  502    0 -0.13339727170E+04 -0.73509951544E+03  0.68951528129E+03  0.16719108351E+04  0.10100000352E+00 0.  1.
       -3    1    3    3    0  502  0.13339727170E+04  0.73509951544E+03 -0.16527747995E+04  0.22475584654E+04  0.10100000352E+00 0. -1.
</event>
<event>
 5   0  0.4071750E-09  0.3800023E+04  0.7818609E-02  0.8046150E-01
        1   -1    0    0  501    0  0.00000000000E+00  0.00000000000E+00  0.13282642640E+04  0.13282642640E+04  0.50400001928E-02 0.  1.
       -1   -1    0    0    0  501  0.00000000000E+00  0.00000000000E+00 -0.27178661442E+04  0.27178661442E+04  0.50400001928E-02 0. -1.
    10030    2    1    2    0    0  0.00000000000E+00  0.00000000000E+00 -0.13896018802E+04  0.40461304082E+04  0.38000234071E+04 0.  0.
        3    1    3    3  502    0 -0.10332488028E+04  0.95457360279E+03  0.66511256207E+03  0.15560168965E+04  0.10100000352E+00 0.  1.
       -3    1    3    3    0  502  0.10332488028E+04 -0.95457360279E+03 -0.20547144423E+04  0.24901135117E+04  0.10100000352E+00 0. -1.
</event>
<event>
 5   0  0.1264013E-08  0.3802963E+04  0.7818609E-02  0.8045519E-01
        2   -1    0    0  501    0  0.00000000000E+00  0.00000000000E+00  0.26060702992E+04  0.26060702992E+04  0.25500000920E-02 0. -1.
       -2   -1    0    0    0  501  0.00000000000E+00  0.00000000000E+00 -0.13873885973E+04  0.13873885973E+04  0.25500000920E-02 0.  1.
    10030    2    1    2    0    0  0.00000000000E+00  0.00000000000E+00  0.12186817019E+04  0.39934588965E+04  0.38029631693E+04 0.  0.
        4    1    3    3  502    0 -0.15557074381E+04 -0.10917371062E+04  0.67159862569E+03  0.20157286198E+04  0.12699999809E+01 0.  1.
       -4    1    3    3    0  502  0.15557074381E+04  0.10917371062E+04  0.54708307621E+03  0.19777302766E+04  0.12699999809E+01 0. -1.
</event>
<event>
 5   0  0.1261152E-08  0.3797024E+04  0.7818609E-02  0.8046794E-01
        2   -1    0    0  501    0  0.00000000000E+00  0.00000000000E+00  0.18277035857E+04  0.18277035857E+04  0.25500000920E-02 0.  1.
       -2   -1    0    0    0  501  0.00000000000E+00  0.00000000000E+00 -0.19720641323E+04  0.19720641323E+04  0.25500000920E-02 0. -1.
    10030    2    1    2    0    0  0.00000000000E+00  0.00000000000E+00 -0.14436054657E+03  0.37997677180E+04  0.37970244592E+04 0.  0.
        2    1    3    3  502    0 -0.53529318136E+03  0.14210222162E+04  0.10681629702E+04  0.18565600071E+04  0.25500000920E-02 0.  1.
       -2    1    3    3    0  502  0.53529318136E+03 -0.14210222162E+04 -0.12125235168E+04  0.19432077109E+04  0.25500000920E-02 0. -1.
</event>
<event>
 5   0  0.1327249E-08  0.3801179E+04  0.7818609E-02  0.8045902E-01
       -2   -1    0    0    0  501  0.00000000000E+00  0.00000000000E+00  0.26064748236E+04  0.26064748236E+04  0.25500000920E-02 0. -1.
        2   -1    0    0  501    0  0.00000000000E+00  0.00000000000E+00 -0.13858720479E+04  0.13858720479E+04  0.25500000920E-02 0.  1.
    10030    2    1    2    0    0  0.00000000000E+00  0.00000000000E+00  0.12206027758E+04  0.39923468715E+04  0.38011790811E+04 0.  0.
        1    1    3    3  502    0 -0.15763149273E+03  0.24220528445E+03  0.25832652109E+04  0.25993788175E+04  0.50400001928E-02 0. -1.
       -1    1    3    3    0  502  0.15763149273E+03 -0.24220528445E+03 -0.13626624351E+04  0.13929680540E+04  0.50400001928E-02 0.  1.
</event>
<event>
 5   0  0.1305088E-08  0.3801631E+04  0.7818609E-02  0.8045805E-01
        2   -1    0    0  501    0  0.00000000000E+00  0.00000000000E+00  0.21716952123E+04  0.21716952123E+04  0.25500000920E-02 0.  1.
       -2   -1    0    0    0  501  0.00000000000E+00  0.00000000000E+00 -0.16637228069E+04  0.16637228069E+04  0.25500000920E-02 0. -1.
    10030    2    1    2    0    0  0.00000000000E+00  0.00000000000E+00  0.50797240534E+03  0.38354180192E+04  0.38016306261E+04 0.  0.
        3    1    3    3  502    0 -0.56185458400E+02 -0.12930434615E+03  0.21664130739E+04  0.21709956326E+04  0.10100000352E+00 0.  1.
       -3    1    3    3    0  502  0.56185458400E+02  0.12930434615E+03 -0.16584406686E+04  0.16644223866E+04  0.10100000352E+00 0. -1.
</event>
<event>
 5   0  0.1261152E-08  0.3799219E+04  0.7818609E-02  0.8046323E-01
        2   -1    0    0  501    0  0.00000000000E+00  0.00000000000E+00  0.21978057851E+04  0.21978057851E+04  0.25500000920E-02 0. -1.
       -2   -1    0    0    0  501  0.00000000000E+00  0.00000000000E+00 -0.16418721129E+04  0.16418721129E+04  0.25500000920E-02 0.  1.
    10030    2    1    2    0    0  0.00000000000E+00  0.00000000000E+00  0.55593367219E+03  0.38396778980E+04  0.37992188819E+04 0.  0.
        2    1    3    3  502    0  0.88132361423E+03 -0.16183526266E+03  0.19707950778E+04  0.21649376906E+04  0.25500000920E-02 0. -1.
       -2    1    3    3    0  502 -0.88132361423E+03  0.16183526266E+03 -0.14148614056E+04  0.16747402074E+04  0.25500000920E-02 0.  1.
</event>
<event>
 5   0  0.4071750E-09  0.3799695E+04  0.7818609E-02  0.8046220E-01
        1   -1    0    0  501    0  0.00000000000E+00  0.00000000000E+00  0.17687033312E+04  0.17687033312E+04  0.50400001928E-02 0.  1.
       -1   -1    0    0    0  501  0.00000000000E+00  0.00000000000E+00 -0.20407160220E+04  0.20407160220E+04  0.50400001928E-02 0. -1.
    10030    2    1    2    0    0  0.00000000000E+00  0.00000000000E+00 -0.27201269077E+03  0.38094193532E+04  0.37996953700E+04 0.  0.
        2    1    3    3  502    0  0.47717651512E+03  0.10759353408E+04 -0.16311601983E+04  0.20114715699E+04  0.25500000920E-02 0. -1.
       -2    1    3    3    0  502 -0.47717651512E+03 -0.10759353408E+04  0.13591475075E+04  0.17979477833E+04  0.25500000920E-02 0.  1.
</event>
<event>
 5   0  0.4071750E-09  0.3798940E+04  0.7818609E-02  0.8046382E-01
       -1   -1    0    0    0  501  0.00000000000E+00  0.00000000000E+00  0.11077908732E+04  0.11077908732E+04  0.50400001928E-02 0.  1.
        1   -1    0    0  501    0  0.00000000000E+00  0.00000000000E+00 -0.32569198621E+04  0.32569198621E+04  0.50400001928E-02 0. -1.
    10030    2    1    2    0    0  0.00000000000E+00  0.00000000000E+00 -0.21491289889E+04  0.43647107353E+04  0.37989399037E+04 0.  0.
        2    1    3    3  502    0 -0.11821522411E+03  0.31878849302E+03  0.10725445935E+04  0.11251457006E+04  0.25500000920E-02 0.  1.
       -2    1    3    3    0  502  0.11821522411E+03 -0.31878849302E+03 -0.32216735825E+04  0.32395650348E+04  0.25500000920E-02 0. -1.
</event>
<event>
 5   0  0.4071750E-09  0.3800442E+04  0.7818609E-02  0.8046060E-01
        1   -1    0    0  501    0  0.00000000000E+00  0.00000000000E+00  0.13029797616E+04  0.13029797617E+04  0.50400001928E-02 0.  1.
       -1   -1    0    0    0  501  0.00000000000E+00  0.00000000000E+00 -0.27712169385E+04  0.27712169385E+04  0.50400001928E-02 0. -1.
    10030    2    1    2    0    0  0.00000000000E+00  0.00000000000E+00 -0.14682371769E+04  0.40741967002E+04  0.38004418617E+04 0.  0.
        4    1    3    3  502    0 -0.11211886554E+04  0.15318049521E+04 -0.82601096760E+03  0.20702140333E+04  0.12699999809E+01 0.  1.
       -4    1    3    3    0  502  0.11211886554E+04 -0.15318049521E+04 -0.64222620928E+03  0.20039826669E+04  0.12699999809E+01 0. -1.
</event>
<event>
 5   0  0.4071750E-09  0.3821813E+04  0.7818609E-02  0.8041490E-01
        1   -1    0    0  501    0  0.00000000000E+00  0.00000000000E+00  0.26020415288E+04  0.26020415288E+04  0.50400001928E-02 0.  1.
       -1   -1    0    0    0  501  0.00000000000E+00  0.00000000000E+00 -0.14033457823E+04  0.14033457823E+04  0.50400001928E-02 0. -1.
    10030    2    1    2    0    0  0.00000000000E+00  0.00000000000E+00  0.11986957465E+04  0.40053873111E+04  0.38218131848E+04 0.  0.
        5    1    3    3  502    0  0.41723109343E+03  0.49564640376E+03 -0.12847217622E+04  0.14388464961E+04  0.46999998093E+01 0. -1.
       -5    1    3    3    0  502 -0.41723109343E+03 -0.49564640376E+03  0.24834175087E+04  0.25665408150E+04  0.46999998093E+01 0.  1.
</event>
<event>
 5   0  0.4071750E-09  0.3798512E+04  0.7818609E-02  0.8046474E-01
        1   -1    0    0  501    0  0.00000000000E+00  0.00000000000E+00  0.14883460980E+04  0.14883460980E+04  0.50400001928E-02 0. -1.
       -1   -1    0    0    0  501  0.00000000000E+00  0.00000000000E+00 -0.24236119585E+04  0.24236119585E+04  0.50400001928E-02 0.  1.
    10030    2    1    2    0    0  0.00000000000E+00  0.00000000000E+00 -0.93526586050E+03  0.39119580565E+04  0.37985120253E+04 0.  0.
        5    1    3    3  502    0 -0.16460809886E+04  0.72345491796E+03  0.16234007467E+03  0.18053658990E+04  0.46999998093E+01 0. -1.
       -5    1    3    3    0  502  0.16460809886E+04 -0.72345491796E+03 -0.10976059352E+04  0.21065921576E+04  0.46999998093E+01 0.  1.
</event>
<event>
 5   0  0.1305088E-08  0.3800967E+04  0.7818609E-02  0.8045947E-01
       -2   -1    0    0    0  501  0.00000000000E+00  0.00000000000E+00  0.19142920788E+04  0.19142920788E+04  0.25500000920E-02 0.  1.
        2   -1    0    0  501    0  0.00000000000E+00  0.00000000000E+00 -0.18867742778E+04  0.18867742778E+04  0.25500000920E-02 0. -1.
    10030    2    1    2    0    0  0.00000000000E+00  0.00000000000E+00  0.27517800984E+02  0.38010663566E+04  0.38009667478E+04 0.  0.
        3    1    3    3  502    0  0.61510048191E+03  0.11414259157E+04  0.14032683502E+04  0.19105925250E+04  0.10100000352E+00 0.  1.
       -3    1    3    3    0  502 -0.61510048191E+03 -0.11414259157E+04 -0.13757505492E+04  0.18904738315E+04  0.10100000352E+00 0. -1.
</event>
<event>
 5   0  0.1305088E-08  0.3799968E+04  0.7818609E-02  0.8046162E-01
       -2   -1    0    0    0  501  0.00000000000E+00  0.00000000000E+00  0.17394421473E+04  0.17394421473E+04  0.25500000920E-02 0.  1.
        2   -1    0    0  501    0  0.00000000000E+00  0.00000000000E+00 -0.20753428040E+04  0.20753428040E+04  0.25500000920E-02 0. -1.
    10030    2    1    2    0    0  0.00000000000E+00  0.00000000000E+00 -0.33590065669E+03  0.38147849513E+04  0.37999677595E+04 0.  0.
        3    1    3    3  502    0 -0.63407421360E+03 -0.91880525084E+03  0.13754727778E+04  0.17714904939E+04  0.10100000352E+00 0.  1.
       -3    1    3    3    0  502  0.63407421360E+03  0.91880525084E+03 -0.17113734345E+04  0.20432944574E+04  0.10100000352E+00 0. -1.
</event>
<event>
 5   0  0.4071750E-09  0.3819506E+04  0.7818609E-02  0.8041982E-01
        3   -1    0    0  501    0  0.00000000000E+00  0.00000000000E+00  0.35223881810E+04  0.35223881825E+04  0.10100000352E+00 0. -1.
       -3   -1    0    0    0  501  0.00000000000E+00  0.00000000000E+00 -0.10354214572E+04  0.10354214621E+04  0.10100000352E+00 0.  1.
    10030    2    1    2    0    0  0.00000000000E+00  0.00000000000E+00  0.24869667238E+04  0.45578096446E+04  0.38195058936E+04 0.  0.
        1    1    3    3  502    0  0.25102408833E+03  0.12068514303E+03  0.34980208250E+04  0.35090921459E+04  0.50400001928E-02 0. -1.
       -1    1    3    3    0  502 -0.25102408833E+03 -0.12068514303E+03 -0.10110541011E+04  0.10487174987E+04  0.50400001928E-02 0.  1.
</event>
<event>
 5   0  0.1327249E-08  0.3800008E+04  0.7818609E-02  0.8046153E-01
       -2   -1    0    0    0  501  0.00000000000E+00  0.00000000000E+00  0.15087365376E+04  0.15087365376E+04  0.25500000920E-02 0. -1.
        2   -1    0    0  501    0  0.00000000000E+00  0.00000000000E+00 -0.23927401690E+04  0.23927401690E+04  0.25500000920E-02 0.  1.
    10030    2    1    2    0    0  0.00000000000E+00  0.00000000000E+00 -0.88400363131E+03  0.39014767066E+04  0.38000076410E+04 0.  0.
        1    1    3    3  502    0  0.17979397312E+04  0.46785721569E+03 -0.33202948393E+02  0.18581119684E+04  0.50400001928E-02 0. -1.
       -1    1    3    3    0  502 -0.17979397312E+04 -0.46785721569E+03 -0.85080068292E+03  0.20433647382E+04  0.50400001928E-02 0.  1.
</event>
<event>
 5   0  0.4071750E-09  0.3802376E+04  0.7818609E-02  0.8045645E-01
       -1   -1    0    0    0  501  0.00000000000E+00  0.00000000000E+00  0.23098176928E+04  0.23098176928E+04  0.50400001928E-02 0. -1.
        1   -1    0    0  501    0  0.00000000000E+00  0.00000000000E+00 -0.15648490202E+04  0.15648490202E+04  0.50400001928E-02 0.  1.
    10030    2    1    2    0    0  0.00000000000E+00  0.00000000000E+00  0.74496867264E+03  0.38746667130E+04  0.38023760747E+04 0.  0.
        2    1    3    3  502    0  0.13405915701E+04 -0.10248589626E+04  0.12649167836E+04  0.21089182346E+04  0.25500000920E-02 0. -1.
       -2    1    3    3    0  502 -0.13405915701E+04  0.10248589626E+04 -0.51994811094E+03  0.17657484784E+04  0.25500000920E-02 0.  1.
</event>
<event>
 5   0  0.1305088E-08  0.3802787E+04  0.7818609E-02  0.8045557E-01
       -2   -1    0    0    0  501  0.00000000000E+00  0.00000000000E+00  0.16255791661E+04  0.16255791661E+04  0.25500000920E-02 0.  1.
        2   -1    0    0  501    0  0.00000000000E+00  0.00000000000E+00 -0.22240052196E+04  0.22240052196E+04  0.25500000920E-02 0. -1.
    10030    2    1    2    0    0  0.00000000000E+00  0.00000000000E+00 -0.59842605349E+03  0.38495843858E+04  0.38027866364E+04 0.  0.
        3    1    3    3  502    0 -0.10846998106E+04  0.15580034539E+04 -0.19137462595E+03  0.19080284849E+04  0.10100000352E+00 0.  1.
       -3    1    3    3    0  502  0.10846998106E+04 -0.15580034539E+04 -0.40705142754E+03  0.19415559009E+04  0.10100000352E+00 0. -1.
</event>
<event>
 5   0  0.1264013E-08  0.3799024E+04  0.7818609E-02  0.8046364E-01
        2   -1    0    0  501    0  0.00000000000E+00  0.00000000000E+00  0.11643672625E+04  0.11643672625E+04  0.25500000920E-02 0.  1.
       -2   -1    0    0    0  501  0.00000000000E+00  0.00000000000E+00 -0.30988032898E+04  0.30988032898E+04  0.25500000920E-02 0. -1.
    10030    2    1    2    0    0  0.00000000000E+00  0.00000000000E+00 -0.19344360273E+04  0.42631705523E+04  0.37990236133E+04 0.  0.
        4    1    3    3  502    0  0.77999454955E+03 -0.14841192538E+04  0.34691659415E+02  0.16769635002E+04  0.12699999809E+01 0.  1.
       -4    1    3    3    0  502 -0.77999454955E+03  0.14841192538E+04 -0.19691276867E+04  0.25862070521E+04  0.12699999809E+01 0. -1.
</event>
<event>
 5   0  0.1293993E-08  0.3799563E+04  0.7818609E-02  0.8046249E-01
        2   -1    0    0  501    0  0.00000000000E+00  0.00000000000E+00  0.16916155710E+04  0.16916155710E+04  0.25500000920E-02 0. -1.
       -2   -1    0    0    0  501  0.00000000000E+00  0.00000000000E+00 -0.21335637326E+04  0.21335637326E+04  0.25500000920E-02 0.  1.
    10030    2    1    2    0    0  0.00000000000E+00  0.00000000000E+00 -0.44194816165E+03  0.38251793036E+04  0.37995629389E+04 0.  0.
        5    1    3    3  502    0  0.43519534279E+03 -0.11730082792E+04 -0.16602292266E+04  0.20788762793E+04  0.46999998093E+01 0.  1.
       -5    1    3    3    0  502 -0.43519534279E+03  0.11730082792E+04  0.12182810650E+04  0.17463030243E+04  0.46999998093E+01 0. -1.
</event>
<event>
 5   0  0.4071750E-09  0.3800450E+04  0.7818609E-02  0.8046058E-01
        1   -1    0    0  501    0  0.00000000000E+00  0.00000000000E+00  0.11230553411E+04  0.11230553411E+04  0.50400001928E-02 0.  1.
       -1   -1    0    0    0  501  0.00000000000E+00  0.00000000000E+00 -0.32152058976E+04  0.32152058976E+04  0.50400001928E-02 0. -1.
    10030    2    1    2    0    0  0.00000000000E+00  0.00000000000E+00 -0.20921505566E+04  0.43382612388E+04  0.38004495293E+04 0.  0.
        1    1    3    3  502    0 -0.89421424491E+03  0.98851999601E+03  0.49984782095E+03  0.14236006260E+04  0.50400001928E-02 0.  1.
       -1    1    3    3    0  502  0.89421424491E+03 -0.98851999601E+03 -0.25919983775E+04  0.29146606127E+04  0.50400001928E-02 0. -1.
</event>
<event>
 5   0  0.4071750E-09  0.3801712E+04  0.7818609E-02  0.8045788E-01
       -1   -1    0    0    0  501  0.00000000000E+00  0.00000000000E+00  0.14345663260E+04  0.14345663261E+04  0.50400001928E-02 0. -1.
        1   -1    0    0  501    0  0.00000000000E+00  0.00000000000E+00 -0.25187076651E+04  0.25187076651E+04  0.50400001928E-02 0.  1.
    10030    2    1    2    0    0  0.00000000000E+00  0.00000000000E+00 -0.10841413390E+04  0.39532739911E+04  0.38017118258E+04 0.  0.
        3    1    3    3  502    0 -0.20041922516E+03  0.17760200505E+04 -0.12150485885E+04  0.21611936906E+04  0.10100000352E+00 0.  1.
       -3    1    3    3    0  502  0.20041922516E+03 -0.17760200505E+04  0.13090724942E+03  0.17920803006E+04  0.10100000352E+00 0. -1.
</event>
<event>
 5   0  0.4071750E-09  0.3800263E+04  0.7818609E-02  0.8046099E-01
        1   -1    0    0  501    0  0.00000000000E+00  0.00000000000E+00  0.21220314228E+04  0.21220314228E+04  0.50400001928E-02 0. -1.
       -1   -1    0    0    0  501  0.00000000000E+00  0.00000000000E+00 -0.17014352415E+04  0.17014352415E+04  0.50400001928E-02 0.  1.
    10030    2    1    2    0    0  0.00000000000E+00  0.00000000000E+00  0.42059618122E+03  0.38234666643E+04  0.38002626469E+04 0.  0.
        4    1    3    3  502    0 -0.76692513749E+03 -0.15844235171E+04 -0.50956022857E+03  0.18325461215E+04  0.12699999809E+01 0.  1.
       -4    1    3    3    0  502  0.76692513749E+03  0.15844235171E+04  0.93015640980E+03  0.19909205428E+04  0.12699999809E+01 0. -1.
</event>
<event>
 5   0  0.4071750E-09  0.3799635E+04  0.7818609E-02  0.8046233E-01
        1   -1    0    0  501    0  0.00000000000E+00  0.00000000000E+00  0.19369278496E+04  0.19369278497E+04  0.50400001928E-02 0. -1.
       -1   -1    0    0    0  501  0.00000000000E+00  0.00000000000E+00 -0.18634180458E+04  0.18634180458E+04  0.50400001928E-02 0.  1.
    10030    2    1    2    0    0  0.00000000000E+00  0.00000000000E+00  0.73509803810E+02  0.38003458955E+04  0.37996348817E+04 0.  0.
        5    1    3    3  502    0 -0.11057369046E+03  0.18958807544E+04 -0.15157051064E+02  0.18991688188E+04  0.46999998093E+01 0. -1.
       -5    1    3    3    0  502  0.11057369046E+03 -0.18958807544E+04  0.88666854874E+02  0.19011770767E+04  0.46999998093E+01 0.  1.
</event>
<event>
 5   0  0.1305088E-08  0.3798753E+04  0.7818609E-02  0.8046423E-01
       -2   -1    0    0    0  501  0.00000000000E+00  0.00000000000E+00  0.25156885617E+04  0.25156885617E+04  0.25500000920E-02 0.  1.
        2   -1    0    0  501    0  0.00000000000E+00  0.00000000000E+00 -0.14340530653E+04  0.14340530653E+04  0.25500000920E-02 0. -1.
    10030    2    1    2    0    0  0.00000000000E+00  0.00000000000E+00  0.10816354964E+04  0.39497416270E+04  0.37987528971E+04 0.  0.
        3    1    3    3  502    0  0.54744010226E+03 -0.16749638962E+04 -0.19618327081E+03  0.17730433174E+04  0.10100000352E+00 0.  1.
       -3    1    3    3    0  502 -0.54744010226E+03  0.16749638962E+04  0.12778187672E+04  0.21766983096E+04  0.10100000352E+00 0. -1.
</event>
<event>
 5   0  0.4071750E-09  0.3796093E+04  0.7818609E-02  0.8046994E-01
        1   -1    0    0  501    0  0.00000000000E+00  0.00000000000E+00  0.19708382521E+04  0.19708382521E+04  0.50400001928E-02 0.  1.
       -1   -1    0    0    0  501  0.00000000000E+00  0.00000000000E+00 -0.18279434558E+04  0.18279434559E+04  0.50400001928E-02 0. -1.
    10030    2    1    2    0    0  0.00000000000E+00  0.00000000000E+00  0.14289479623E+03  0.37987817079E+04  0.37960931946E+04 0.  0.
        2    1    3    3  502    0 -0.32909883688E+03  0.64888016544E+03 -0.16828570310E+04  0.18334010201E+04  0.25500000920E-02 0. -1.
       -2    1    3    3    0  502  0.32909883688E+03 -0.64888016544E+03  0.18257518273E+04  0.19653806879E+04  0.25500000920E-02 0.  1.
</event>
<event>
 5   0  0.4071750E-09  0.3797392E+04  0.7818609E-02  0.8046715E-01
       -1   -1    0    0    0  501  0.00000000000E+00  0.00000000000E+00  0.32169979247E+04  0.32169979247E+04  0.50400001928E-02 0.  1.
        1   -1    0    0  501    0  0.00000000000E+00  0.00000000000E+00 -0.11206244900E+04  0.11206244900E+04  0.50400001928E-02 0. -1.
    10030    2    1    2    0    0  0.00000000000E+00  0.00000000000E+00  0.20963734347E+04  0.43376224146E+04  0.37973920833E+04 0.  0.
        4    1    3    3  502    0  0.35426625893E+02  0.15908965455E+04 -0.13494586460E+03  0.15970030882E+04  0.12699999809E+01 0. -1.
       -4    1    3    3    0  502 -0.35426625893E+02 -0.15908965455E+04  0.22313192993E+04  0.27406193265E+04  0.12699999809E+01 0.  1.
</event>
<event>
 5   0  0.4071750E-09  0.3800352E+04  0.7818609E-02  0.8046079E-01
       -1   -1    0    0    0  501  0.00000000000E+00  0.00000000000E+00  0.14595912766E+04  0.14595912766E+04  0.50400001928E-02 0. -1.
        1   -1    0    0  501    0  0.00000000000E+00  0.00000000000E+00 -0.24737534935E+04  0.24737534935E+04  0.50400001928E-02 0.  1.
    10030    2    1    2    0    0  0.00000000000E+00  0.00000000000E+00 -0.10141622169E+04  0.39333447701E+04  0.38003520993E+04 0.  0.
        3    1    3    3  502    0  0.21646963458E+03  0.12717621534E+04 -0.19510494735E+04  0.23389810038E+04  0.10100000352E+00 0.  1.
       -3    1    3    3    0  502 -0.21646963458E+03 -0.12717621534E+04  0.93688725661E+03  0.15943637663E+04  0.10100000352E+00 0. -1.
</event>
<event>
 5   0  0.4071750E-09  0.3798187E+04  0.7818609E-02  0.8046544E-01
       -1   -1    0    0    0  501  0.00000000000E+00  0.00000000000E+00  0.24122901987E+04  0.24122901987E+04  0.50400001928E-02 0. -1.
        1   -1    0    0  501    0  0.00000000000E+00  0.00000000000E+00 -0.14950755926E+04  0.14950755927E+04  0.50400001928E-02 0.  1.
    10030    2    1    2    0    0  0.00000000000E+00  0.00000000000E+00  0.91721460607E+03  0.39073657914E+04  0.37981870404E+04 0.  0.
        4    1    3    3  502    0 -0.14891936176E+04  0.11553123853E+04  0.69790993866E+03  0.20098567694E+04  0.12699999809E+01 0. -1.
       -4    1    3    3    0  502  0.14891936176E+04 -0.11553123853E+04  0.21930466741E+03  0.18975090219E+04  0.12699999809E+01 0.  1.
</event>
<event>
 5   0  0.1261152E-08  0.3803243E+04  0.7818609E-02  0.8045459E-01
        2   -1    0    0  501    0  0.00000000000E+00  0.00000000000E+00  0.14914976777E+04  0.14914976777E+04  0.25500000920E-02 0.  1.
       -2   -1    0    0    0  501  0.00000000000E+00  0.00000000000E+00 -0.24245183337E+04  0.24245183337E+04  0.25500000920E-02 0. -1.
    10030    2    1    2    0    0  0.00000000000E+00  0.00000000000E+00 -0.93302065598E+03  0.39160160113E+04  0.38032425451E+04 0.  0.
        2    1    3    3  502    0 -0.36114692583E+03 -0.10079218764E+04 -0.20846796152E+04  0.23435491693E+04  0.25500000920E-02 0. -1.
       -2    1    3    3    0  502  0.36114692583E+03  0.10079218764E+04  0.11516589592E+04  0.15724668420E+04  0.25500000920E-02 0.  1.
</event>
<event>
 5   0  0.1293993E-08  0.3801448E+04  0.7818609E-02  0.8045844E-01
        2   -1    0    0  501    0  0.00000000000E+00  0.00000000000E+00  0.28029238808E+04  0.28029238808E+04  0.25500000920E-02 0. -1.
       -2   -1    0    0    0  501  0.00000000000E+00  0.00000000000E+00 -0.12889221921E+04  0.12889221921E+04  0.25500000920E-02 0.  1.
    10030    2    1    2    0    0  0.00000000000E+00  0.00000000000E+00  0.15140016887E+04  0.40918460729E+04  0.38014475100E+04 0.  0.
        5    1    3    3  502    0  0.10824054173E+04 -0.15594220440E+04  0.65302953049E+03  0.20074531767E+04  0.46999998093E+01 0. -1.
       -5    1    3    3    0  502 -0.10824054173E+04  0.15594220440E+04  0.86097215818E+03  0.20843928962E+04  0.46999998093E+01 0.  1.
</event>
<event>
 5   0  0.1305088E-08  0.3800480E+04  0.7818609E-02  0.8046052E-01
       -2   -1    0    0    0  501  0.00000000000E+00  0.00000000000E+00  0.22691151083E+04  0.22691151083E+04  0.25500000920E-02 0. -1.
        2   -1    0    0  501    0  0.00000000000E+00  0.00000000000E+00 -0.15913304567E+04  0.15913304567E+04  0.25500000920E-02 0.  1.
    10030    2    1    2    0    0  0.00000000000E+00  0.00000000000E+00  0.67778465157E+03  0.38604455649E+04  0.38004799600E+04 0.  0.
        3    1    3    3  502    0  0.91107180983E+03  0.96663522181E+03 -0.10413993720E+04  0.16878827438E+04  0.10100000352E+00 0.  1.
       -3    1    3    3    0  502 -0.91107180983E+03 -0.96663522181E+03  0.17191840236E+04  0.21725628211E+04  0.10100000352E+00 0. -1.
</event>
<event>
 5   0  0.1293993E-08  0.3799650E+04  0.7818609E-02  0.8046230E-01
        2   -1    0    0  501    0  0.00000000000E+00  0.00000000000E+00  0.27670902022E+04  0.27670902022E+04  0.25500000920E-02 0. -1.
       -2   -1    0    0    0  501  0.00000000000E+00  0.00000000000E+00 -0.13043793089E+04  0.13043793089E+04  0.25500000920E-02 0.  1.
    10030    2    1    2    0    0  0.00000000000E+00  0.00000000000E+00  0.14627108933E+04  0.40714695111E+04  0.37996500921E+04 0.  0.
        5    1    3    3  502    0  0.13222938674E+04  0.53538715505E+03 -0.61307791195E+03  0.15527353585E+04  0.46999998093E+01 0.  1.
       -5    1    3    3    0  502 -0.13222938674E+04 -0.53538715505E+03  0.20757888052E+04  0.25187341526E+04  0.46999998093E+01 0. -1.
</event>
<event>
 5   0  0.4071750E-09  0.3801245E+04  0.7818609E-02  0.8045888E-01
        1   -1    0    0  501    0  0.00000000000E+00  0.00000000000E+00  0.13036120706E+04  0.13036120706E+04  0.50400001928E-02 0.  1.
       -1   -1    0    0    0  501  0.00000000000E+00  0.00000000000E+00 -0.27710440252E+04  0.27710440252E+04  0.50400001928E-02 0. -1.
    10030    2    1    2    0    0  0.00000000000E+00  0.00000000000E+00 -0.14674319546E+04  0.40746560958E+04  0.38012452903E+04 0.  0.
        4    1    3    3  502    0  0.16512592991E+04 -0.30393815131E+03 -0.16884706046E+04  0.23811699368E+04  0.12699999809E+01 0. -1.
       -4    1    3    3    0  502 -0.16512592991E+04  0.30393815131E+03  0.22103864999E+03  0.16934861589E+04  0.12699999809E+01 0.  1.
</event>
<event>
 5   0  0.4071750E-09  0.3795893E+04  0.7818609E-02  0.8047037E-01
        1   -1    0    0  501    0  0.00000000000E+00  0.00000000000E+00  0.18386184073E+04  0.18386184073E+04  0.50400001928E-02 0.  1.
       -1   -1    0    0    0  501  0.00000000000E+00  0.00000000000E+00 -0.19591886788E+04  0.19591886789E+04  0.50400001928E-02 0. -1.
    10030    2    1    2    0    0  0.00000000000E+00  0.00000000000E+00 -0.12057027158E+03  0.37978070861E+04  0.37958927109E+04 0.  0.
        5    1    3    3  502    0 -0.93192916594E+03 -0.10411887690E+04  0.12247349288E+04  0.18581075746E+04  0.46999998093E+01 0.  1.
       -5    1    3    3    0  502  0.93192916594E+03  0.10411887690E+04 -0.13453052004E+04  0.19396995115E+04  0.46999998093E+01 0. -1.
</event>
<event>
 5   0  0.4071750E-09  0.3773927E+04  0.7818609E-02  0.8051773E-01
        1   -1    0    0  501    0  0.00000000000E+00  0.00000000000E+00  0.18754247417E+04  0.18754247417E+04  0.50400001928E-02 0. -1.
       -1   -1    0    0    0  501  0.00000000000E+00  0.00000000000E+00 -0.18985729395E+04  0.18985729395E+04  0.50400001928E-02 0.  1.
    10030    2    1    2    0    0  0.00000000000E+00  0.00000000000E+00 -0.23148197753E+02  0.37739976812E+04  0.37739266896E+04 0.  0.
        3    1    3    3  502    0  0.95808686560E+03 -0.15670876371E+04  0.42079563069E+03  0.18843468570E+04  0.10100000352E+00 0. -1.
       -3    1    3    3    0  502 -0.95808686560E+03  0.15670876371E+04 -0.44394382844E+03  0.18896508242E+04  0.10100000352E+00 0.  1.
</event>
<event>
 5   0  0.4071750E-09  0.3806263E+04  0.7818609E-02  0.8044812E-01
       -1   -1    0    0    0  501  0.00000000000E+00  0.00000000000E+00  0.12247059508E+04  0.12247059508E+04  0.50400001928E-02 0.  1.
        1   -1    0    0  501    0  0.00000000000E+00  0.00000000000E+00 -0.29573710227E+04  0.29573710227E+04  0.50400001928E-02 0. -1.
    10030    2    1    2    0    0  0.00000000000E+00  0.00000000000E+00 -0.17326650719E+04  0.41820769736E+04  0.38062632018E+04 0.  0.
        5    1    3    3  502    0  0.28878354437E+03  0.92010202862E+03  0.93636555751E+03  0.13441674843E+04  0.46999998093E+01 0.  1.
       -5    1    3    3    0  502 -0.28878354437E+03 -0.92010202862E+03 -0.26690306294E+04  0.28379094893E+04  0.46999998093E+01 0. -1.
</event>
<event>
 5   0  0.1261152E-08  0.3800665E+04  0.7818609E-02  0.8046012E-01
       -2   -1    0    0    0  501  0.00000000000E+00  0.00000000000E+00  0.15790028455E+04  0.15790028455E+04  0.25500000920E-02 0.  1.
        2   -1    0    0  501    0  0.00000000000E+00  0.00000000000E+00 -0.22870529979E+04  0.22870529979E+04  0.25500000920E-02 0. -1.
    10030    2    1    2    0    0  0.00000000000E+00  0.00000000000E+00 -0.70805015238E+03  0.38660558434E+04  0.38006647795E+04 0.  0.
        2    1    3    3  502    0  0.12379617908E+04 -0.12069841958E+04  0.44815129264E+03  0.17861130495E+04  0.25500000920E-02 0.  1.
       -2    1    3    3    0  502 -0.12379617908E+04  0.12069841958E+04 -0.11562014450E+04  0.20799427939E+04  0.25500000920E-02 0. -1.
</event>
<event>
 5   0  0.1305088E-08  0.3800222E+04  0.7818609E-02  0.8046107E-01
       -2   -1    0    0    0  501  0.00000000000E+00  0.00000000000E+00  0.14157726506E+04  0.14157726506E+04  0.25500000920E-02 0.  1.
        2   -1    0    0  501    0  0.00000000000E+00  0.00000000000E+00 -0.25501427220E+04  0.25501427220E+04  0.25500000920E-02 0. -1.
    10030    2    1    2    0    0  0.00000000000E+00  0.00000000000E+00 -0.11343700714E+04  0.39659153726E+04  0.38002222677E+04 0.  0.
        3    1    3    3  502    0 -0.95113474515E+02  0.37946193863E+03  0.13732909690E+04  0.14279236785E+04  0.10100000352E+00 0.  1.
       -3    1    3    3    0  502  0.95113474515E+02 -0.37946193863E+03 -0.25076610403E+04  0.25379916941E+04  0.10100000352E+00 0. -1.
</event>
<event>
 5   0  0.1305088E-08  0.3801086E+04  0.7818609E-02  0.8045922E-01
       -2   -1    0    0    0  501  0.00000000000E+00  0.00000000000E+00  0.13889920274E+04  0.13889920274E+04  0.25500000920E-02 0.  1.
        2   -1    0    0  501    0  0.00000000000E+00  0.00000000000E+00 -0.26004926572E+04  0.26004926572E+04  0.25500000920E-02 0. -1.
    10030    2    1    2    0    0  0.00000000000E+00  0.00000000000E+00 -0.12115006299E+04  0.39894846846E+04  0.38010859333E+04 0.  0.
        3    1    3    3  502    0  0.15296853638E+04 -0.52727061910E+02 -0.17882448467E+04  0.23538345518E+04  0.10100000352E+00 0. -1.
       -3    1    3    3    0  502 -0.15296853638E+04  0.52727061910E+02  0.57674421682E+03  0.16356501328E+04  0.10100000352E+00 0.  1.
</event>
<event>
 5   0  0.4071750E-09  0.3799769E+04  0.7818609E-02  0.8046204E-01
        1   -1    0    0  501    0  0.00000000000E+00  0.00000000000E+00  0.32952863830E+04  0.32952863830E+04  0.50400001928E-02 0. -1.
       -1   -1    0    0    0  501  0.00000000000E+00  0.00000000000E+00 -0.10953709281E+04  0.10953709281E+04  0.50400001928E-02 0.  1.
    10030    2    1    2    0    0  0.00000000000E+00  0.00000000000E+00  0.21999154549E+04  0.43906573111E+04  0.37997688896E+04 0.  0.
        2    1    3    3  502    0 -0.16971722499E+04 -0.71766991054E+03  0.16346428420E+04  0.24632297837E+04  0.25500000920E-02 0.  1.
       -2    1    3    3    0  502  0.16971722499E+04  0.71766991054E+03  0.56527261289E+03  0.19274275274E+04  0.25500000920E-02 0. -1.
</event>
<event>
 5   0  0.1264013E-08  0.3796434E+04  0.7818609E-02  0.8046921E-01
        2   -1    0    0  501    0  0.00000000000E+00  0.00000000000E+00  0.29795304544E+04  0.29795304544E+04  0.25500000920E-02 0.  1.
       -2   -1    0    0    0  501  0.00000000000E+00  0.00000000000E+00 -0.12093272584E+04  0.12093272584E+04  0.25500000920E-02 0. -1.
    10030    2    1    2    0    0  0.00000000000E+00  0.00000000000E+00  0.17702031960E+04  0.41888577128E+04  0.37964337981E+04 0.  0.
        4    1    3    3  502    0  0.15082373637E+04  0.11453467589E+04  0.74282875363E+03  0.20343046266E+04  0.12699999809E+01 0. -1.
       -4    1    3    3    0  502 -0.15082373637E+04 -0.11453467589E+04  0.10273744423E+04  0.21545530862E+04  0.12699999809E+01 0.  1.
</event>
<event>
 5   0  0.1305088E-08  0.3799299E+04  0.7818609E-02  0.8046305E-01
        2   -1    0    0  501    0  0.00000000000E+00  0.00000000000E+00  0.23807221084E+04  0.23807221084E+04  0.25500000920E-02 0.  1.
       -2   -1    0    0    0  501  0.00000000000E+00  0.00000000000E+00 -0.15157872648E+04  0.15157872648E+04  0.25500000920E-02 0. -1.
    10030    2    1    2    0    0  0.00000000000E+00  0.00000000000E+00  0.86493484358E+03  0.38965093732E+04  0.37992990158E+04 0.  0.
        3    1    3    3  502    0  0.49062596626E+03 -0.34196217958E+03  0.22816586376E+04  0.23587323120E+04  0.10100000352E+00 0.  1.
       -3    1    3    3    0  502 -0.49062596626E+03  0.34196217958E+03 -0.14167237940E+04  0.15377770611E+04  0.10100000352E+00 0. -1.
</event>
<event>
 5   0  0.1305088E-08  0.3799846E+04  0.7818609E-02  0.8046188E-01
        2   -1    0    0  501    0  0.00000000000E+00  0.00000000000E+00  0.27308615331E+04  0.27308615331E+04  0.25500000920E-02 0. -1.
       -2   -1    0    0    0  501  0.00000000000E+00  0.00000000000E+00 -0.13218202485E+04  0.13218202485E+04  0.25500000920E-02 0.  1.
    10030    2    1    2    0    0  0.00000000000E+00  0.00000000000E+00  0.14090412846E+04  0.40526817816E+04  0.37998463497E+04 0.  0.
        3    1    3    3  502    0 -0.94860430451E+03  0.35370621455E+03  0.24192110857E+04  0.26225065300E+04  0.10100000352E+00 0. -1.
       -3    1    3    3    0  502  0.94860430451E+03 -0.35370621455E+03 -0.10101698011E+04  0.14301752515E+04  0.10100000352E+00 0.  1.
</event>
<event>
 5   0  0.1305088E-08  0.3800237E+04  0.7818609E-02  0.8046104E-01
       -2   -1    0    0    0  501  0.00000000000E+00  0.00000000000E+00  0.18501418991E+04  0.18501418991E+04  0.25500000920E-02 0.  1.
        2   -1    0    0  501    0  0.00000000000E+00  0.00000000000E+00 -0.19514453571E+04  0.19514453571E+04  0.25500000920E-02 0. -1.
    10030    2    1    2    0    0  0.00000000000E+00  0.00000000000E+00 -0.10130345795E+03  0.38015872562E+04  0.38002372658E+04 0.  0.
        3    1    3    3  502    0 -0.96543180407E+03  0.96329279399E+03  0.12728674871E+04  0.18655249195E+04  0.10100000352E+00 0.  1.
       -3    1    3    3    0  502  0.96543180407E+03 -0.96329279399E+03 -0.13741709451E+04  0.19360623367E+04  0.10100000352E+00 0. -1.
</event>
<event>
 5   0  0.1293993E-08  0.3802372E+04  0.7818609E-02  0.8045646E-01
       -2   -1    0    0    0  501  0.00000000000E+00  0.00000000000E+00  0.14905896469E+04  0.14905896469E+04  0.25500000920E-02 0. -1.
        2   -1    0    0  501    0  0.00000000000E+00  0.00000000000E+00 -0.24248843835E+04  0.24248843835E+04  0.25500000920E-02 0.  1.
    10030    2    1    2    0    0  0.00000000000E+00  0.00000000000E+00 -0.93429473654E+03  0.39154740304E+04  0.38023716583E+04 0.  0.
        5    1    3    3  502    0 -0.16142970502E+04  0.94199949218E+03 -0.82559257821E+03  0.20432677761E+04  0.46999998093E+01 0.  1.
       -5    1    3    3    0  502  0.16142970502E+04 -0.94199949218E+03 -0.10870215832E+03  0.18722062543E+04  0.46999998093E+01 0. -1.
</event>
<event>
 5   0  0.4071750E-09  0.3799920E+04  0.7818609E-02  0.8046172E-01
        1   -1    0    0  501    0  0.00000000000E+00  0.00000000000E+00  0.29281715487E+04  0.29281715487E+04  0.50400001928E-02 0.  1.
       -1   -1    0    0    0  501  0.00000000000E+00  0.00000000000E+00 -0.12327994417E+04  0.12327994417E+04  0.50400001928E-02 0. -1.
    10030    2    1    2    0    0  0.00000000000E+00  0.00000000000E+00  0.16953721070E+04  0.41609709904E+04  0.37999201310E+04 0.  0.
        3    1    3    3  502    0 -0.91971051688E+03  0.14630145884E+04 -0.17008093755E+02  0.17281690908E+04  0.10100000352E+00 0. -1.
       -3    1    3    3    0  502  0.91971051688E+03 -0.14630145884E+04  0.17123802007E+04  0.24328018996E+04  0.10100000352E+00 0.  1.
</event>
<event>
 5   0  0.4071750E-09  0.3803115E+04  0.7818609E-02  0.8045487E-01
        1   -1    0    0  501    0  0.00000000000E+00  0.00000000000E+00  0.21627506366E+04  0.21627506367E+04  0.50400001928E-02 0. -1.
       -1   -1    0    0    0  501  0.00000000000E+00  0.00000000000E+00 -0.16719084102E+04  0.16719084102E+04  0.50400001928E-02 0.  1.
    10030    2    1    2    0    0  0.00000000000E+00  0.00000000000E+00  0.49084222645E+03  0.38346590469E+04  0.38031150278E+04 0.  0.
        2    1    3    3  502    0  0.26491085476E+03  0.35373707326E+03  0.21102512724E+04  0.21560306377E+04  0.25500000920E-02 0. -1.
       -2    1    3    3    0  502 -0.26491085476E+03 -0.35373707326E+03 -0.16194090460E+04  0.16786284092E+04  0.25500000920E-02 0.  1.
</event>
<event>
 5   0  0.4071750E-09  0.3800344E+04  0.7818609E-02  0.8046081E-01
        1   -1    0    0  501    0  0.00000000000E+00  0.00000000000E+00  0.10217677755E+04  0.10217677755E+04  0.50400001928E-02 0.  1.
       -1   -1    0    0    0  501  0.00000000000E+00  0.00000000000E+00 -0.35337325652E+04  0.35337325652E+04  0.50400001928E-02 0. -1.
    10030    2    1    2    0    0  0.00000000000E+00  0.00000000000E+00 -0.25119647897E+04  0.45555003407E+04  0.38003442278E+04 0.  0.
        4    1    3    3  502    0 -0.13312221103E+04  0.55835133681E+03 -0.27371228634E+04  0.30944711510E+04  0.12699999809E+01 0.  1.
       -4    1    3    3    0  502  0.13312221103E+04 -0.55835133681E+03  0.22515807366E+03  0.14610291897E+04  0.12699999809E+01 0. -1.
</event>
<event>
 5   0  0.1305088E-08  0.3800195E+04  0.7818609E-02  0.8046113E-01
        2   -1    0    0  501    0  0.00000000000E+00  0.00000000000E+00  0.15957974931E+04  0.15957974931E+04  0.25500000920E-02 0.  1.
       -2   -1    0    0    0  501  0.00000000000E+00  0.00000000000E+00 -0.22624238541E+04  0.22624238541E+04  0.25500000920E-02 0. -1.
    10030    2    1    2    0    0  0.00000000000E+00  0.00000000000E+00 -0.66662636099E+03  0.38582213471E+04  0.38001948974E+04 0.  0.
        3    1    3    3  502    0 -0.13396526174E+04  0.94301092753E+03 -0.13105232641E+04  0.20979537604E+04  0.10100000352E+00 0. -1.
       -3    1    3    3    0  502  0.13396526174E+04 -0.94301092753E+03  0.64389690314E+03  0.17602675867E+04  0.10100000352E+00 0.  1.
</event>
<event>
 5   0  0.1305088E-08  0.3800020E+04  0.7818609E-02  0.8046151E-01
       -2   -1    0    0    0  501  0.00000000000E+00  0.00000000000E+00  0.22177818072E+04  0.22177818072E+04  0.25500000920E-02 0.  1.
        2   -1    0    0  501    0  0.00000000000E+00  0.00000000000E+00 -0.16277693059E+04  0.16277693059E+04  0.25500000920E-02 0. -1.
    10030    2    1    2    0    0  0.00000000000E+00  0.00000000000E+00  0.59001250135E+03  0.38455511131E+04  0.38000195541E+04 0.  0.
        3    1    3    3  502    0  0.11243235833E+04 -0.10406103439E+04 -0.84232085489E+03  0.17482785363E+04  0.10100000352E+00 0.  1.
       -3    1    3    3    0  502 -0.11243235833E+04  0.10406103439E+04  0.14323333562E+04  0.20972725768E+04  0.10100000352E+00 0. -1.
</event>
<event>
 5   0  0.1327249E-08  0.3787169E+04  0.7818609E-02  0.8048914E-01
        2   -1    0    0  501    0  0.00000000000E+00  0.00000000000E+00  0.13370719957E+04  0.13370719957E+04  0.25500000920E-02 0.  1.
       -2   -1    0    0    0  501  0.00000000000E+00  0.00000000000E+00 -0.26817265633E+04  0.26817265633E+04  0.25500000920E-02 0. -1.
    10030    2    1    2    0    0  0.00000000000E+00  0.00000000000E+00 -0.13446545676E+04  0.40187985590E+04  0.37871685930E+04 0.  0.
        1    1    3    3  502    0 -0.51827648148E+03  0.94376058600E+03 -0.23252777459E+04  0.25624619315E+04  0.50400001928E-02 0. -1.
       -1    1    3    3    0  502  0.51827648148E+03 -0.94376058600E+03  0.98062317825E+03  0.14563366275E+04  0.50400001928E-02 0.  1.
</event>
<event>
 5   0  0.4071750E-09  0.3798795E+04  0.7818609E-02  0.8046413E-01
       -1   -1    0    0    0  501  0.00000000000E+00  0.00000000000E+00  0.14610442891E+04  0.14610442891E+04  0.50400001928E-02 0. -1.
        1   -1    0    0  501    0  0.00000000000E+00  0.00000000000E+00 -0.24692688553E+04  0.24692688553E+04  0.50400001928E-02 0.  1.
    10030    2    1    2    0    0  0.00000000000E+00  0.00000000000E+00 -0.10082245662E+04  0.39303131444E+04  0.37987951560E+04 0.  0.
        1    1    3    3  502    0  0.14600046910E+04 -0.95315045992E+03 -0.12835889288E+04  0.21651120144E+04  0.50400001928E-02 0.  1.
       -1    1    3    3    0  502 -0.14600046910E+04  0.95315045992E+03  0.27536436261E+03  0.17652011299E+04  0.50400001928E-02 0. -1.
</event>
<event>
 5   0  0.1261152E-08  0.3801216E+04  0.7818609E-02  0.8045894E-01
        2   -1    0    0  501    0  0.00000000000E+00  0.00000000000E+00  0.16756085037E+04  0.16756085037E+04  0.25500000920E-02 0. -1.
       -2   -1    0    0    0  501  0.00000000000E+00  0.00000000000E+00 -0.21558207469E+04  0.21558207469E+04  0.25500000920E-02 0.  1.
    10030    2    1    2    0    0  0.00000000000E+00  0.00000000000E+00 -0.48021224312E+03  0.38314292506E+04  0.38012164242E+04 0.  0.
        2    1    3    3  502    0  0.71137077325E+03 -0.91502399820E+03 -0.17583967595E+04  0.21060096054E+04  0.25500000920E-02 0.  1.
       -2    1    3    3    0  502 -0.71137077325E+03  0.91502399820E+03  0.12781845163E+04  0.17254196452E+04  0.25500000920E-02 0. -1.
</event>
<event>
 5   0  0.1305088E-08  0.3799593E+04  0.7818609E-02  0.8046242E-01
        2   -1    0    0  501    0  0.00000000000E+00  0.00000000000E+00  0.22972995588E+04  0.22972995588E+04  0.25500000920E-02 0.  1.
       -2   -1    0    0    0  501  0.00000000000E+00  0.00000000000E+00 -0.15710739552E+04  0.15710739552E+04  0.25500000920E-02 0. -1.
    10030    2    1    2    0    0  0.00000000000E+00  0.00000000000E+00  0.72622560355E+03  0.38683735140E+04  0.37995934015E+04 0.  0.
        3    1    3    3  502    0  0.53518152713E+03 -0.13103082747E+04 -0.92706803359E+03  0.16919758246E+04  0.10100000352E+00 0. -1.
       -3    1    3    3    0  502 -0.53518152713E+03  0.13103082747E+04  0.16532936371E+04  0.21763976894E+04  0.10100000352E+00 0.  1.
</event>
<event>
 5   0  0.4071750E-09  0.3799212E+04  0.7818609E-02  0.8046324E-01
       -1   -1    0    0    0  501  0.00000000000E+00  0.00000000000E+00  0.18290908919E+04  0.18290908919E+04  0.50400001928E-02 0. -1.
        1   -1    0    0  501    0  0.00000000000E+00  0.00000000000E+00 -0.19728391805E+04  0.19728391805E+04  0.50400001928E-02 0.  1.
    10030    2    1    2    0    0  0.00000000000E+00  0.00000000000E+00 -0.14374828863E+03  0.38019300725E+04  0.37992115900E+04 0.  0.
        1    1    3    3  502    0  0.35243266493E+02  0.16755418455E+04  0.82309212640E+03  0.18671269941E+04  0.50400001928E-02 0. -1.
       -1    1    3    3    0  502 -0.35243266493E+02 -0.16755418455E+04 -0.96684041503E+03  0.19348030783E+04  0.50400001928E-02 0.  1.
</event>
<event>
 5   0  0.1264013E-08  0.3800045E+04  0.7818609E-02  0.8046145E-01
        2   -1    0    0  501    0  0.00000000000E+00  0.00000000000E+00  0.21031574451E+04  0.21031574451E+04  0.25500000920E-02 0.  1.
       -2   -1    0    0    0  501  0.00000000000E+00  0.00000000000E+00 -0.17165073536E+04  0.17165073536E+04  0.25500000920E-02 0. -1.
    10030    2    1    2    0    0  0.00000000000E+00  0.00000000000E+00  0.38665009150E+03  0.38196647986E+04  0.38000448525E+04 0.  0.
        4    1    3    3  502    0 -0.14397926538E+04  0.52528774825E+02 -0.10517476459E+04  0.17837984420E+04  0.12699999809E+01 0. -1.
       -4    1    3    3    0  502  0.14397926538E+04 -0.52528774825E+02  0.14383977374E+04  0.20358663566E+04  0.12699999809E+01 0.  1.
</event>
<event>
 5   0  0.4071750E-09  0.3800439E+04  0.7818609E-02  0.8046061E-01
        3   -1    0    0  501    0  0.00000000000E+00  0.00000000000E+00  0.22712877413E+04  0.22712877435E+04  0.10100000352E+00 0. -1.
       -3   -1    0    0    0  501  0.00000000000E+00  0.00000000000E+00 -0.15897740995E+04  0.15897741027E+04  0.10100000352E+00 0.  1.
    10030    2    1    2    0    0  0.00000000000E+00  0.00000000000E+00  0.68151364174E+03  0.38610618462E+04  0.38004391505E+04 0.  0.
        5    1    3    3  502    0 -0.88797586897E+03 -0.62438539267E+03  0.19252679729E+04  0.22102120079E+04  0.46999998093E+01 0. -1.
       -5    1    3    3    0  502  0.88797586897E+03  0.62438539267E+03 -0.12437543311E+04  0.16508498383E+04  0.46999998093E+01 0.  1.
</event>
<event>
 5   0  0.1293993E-08  0.3801020E+04  0.7818609E-02  0.8045936E-01
        2   -1    0    0  501    0  0.00000000000E+00  0.00000000000E+00  0.17139678980E+04  0.17139678980E+04  0.25500000920E-02 0.  1.
       -2   -1    0    0    0  501  0.00000000000E+00  0.00000000000E+00 -0.21073545272E+04  0.21073545272E+04  0.25500000920E-02 0. -1.
    10030    2    1    2    0    0  0.00000000000E+00  0.00000000000E+00 -0.39338662923E+03  0.38213224253E+04  0.38010198681E+04 0.  0.
        5    1    3    3  502    0  0.38862515205E+02  0.18324161272E+04 -0.70202787997E+03  0.19626829578E+04  0.46999998093E+01 0. -1.
       -5    1    3    3    0  502 -0.38862515205E+02 -0.18324161272E+04  0.30864125074E+03  0.18586394675E+04  0.46999998093E+01 0.  1.
</event>
<event>
 5   0  0.1264013E-08  0.3799921E+04  0.7818609E-02  0.8046172E-01
       -2   -1    0    0    0  501  0.00000000000E+00  0.00000000000E+00  0.21090518591E+04  0.21090518591E+04  0.25500000920E-02 0.  1.
        2   -1    0    0  501    0  0.00000000000E+00  0.00000000000E+00 -0.17115982292E+04  0.17115982292E+04  0.25500000920E-02 0. -1.
    10030    2    1    2    0    0  0.00000000000E+00  0.00000000000E+00  0.39745362982E+03  0.38206500883E+04  0.37999207504E+04 0.  0.
        4    1    3    3  502    0  0.14102628901E+04  0.22744615577E+03 -0.10608138809E+04  0.17792978603E+04  0.12699999809E+01 0. -1.
       -4    1    3    3    0  502 -0.14102628901E+04 -0.22744615577E+03  0.14582675107E+04  0.20413522280E+04  0.12699999809E+01 0.  1.
</event>
<event>
 5   0  0.1305088E-08  0.3806802E+04  0.7818609E-02  0.8044697E-01
        2   -1    0    0  501    0  0.00000000000E+00  0.00000000000E+00  0.25560125257E+04  0.25560125257E+04  0.25500000920E-02 0.  1.
       -2   -1    0    0    0  501  0.00000000000E+00  0.00000000000E+00 -0.14174166972E+04  0.14174166972E+04  0.25500000920E-02 0. -1.
    10030    2    1    2    0    0  0.00000000000E+00  0.00000000000E+00  0.11385958285E+04  0.39734292229E+04  0.38068017191E+04 0.  0.
        3    1    3    3  502    0 -0.91464041530E+03  0.57823069414E+03 -0.10651344857E+04  0.15183640235E+04  0.10100000352E+00 0. -1.
       -3    1    3    3    0  502  0.91464041530E+03 -0.57823069414E+03  0.22037303143E+04  0.24550651994E+04  0.10100000352E+00 0.  1.
</event>
<event>
 5   0  0.1305088E-08  0.3800454E+04  0.7818609E-02  0.8046058E-01
        2   -1    0    0  501    0  0.00000000000E+00  0.00000000000E+00  0.26207972448E+04  0.26207972448E+04  0.25500000920E-02 0. -1.
       -2   -1    0    0    0  501  0.00000000000E+00  0.00000000000E+00 -0.13777724150E+04  0.13777724150E+04  0.25500000920E-02 0.  1.
    10030    2    1    2    0    0  0.00000000000E+00  0.00000000000E+00  0.12430248298E+04  0.39985696599E+04  0.38004537357E+04 0.  0.
        3    1    3    3  502    0  0.11038406432E+04 -0.11515820365E+04 -0.46491351015E+03  0.16615504610E+04  0.10100000352E+00 0.  1.
       -3    1    3    3    0  502 -0.11038406432E+04  0.11515820365E+04  0.17079383400E+04  0.23370191988E+04  0.10100000352E+00 0. -1.
</event>
<event>
 5   0  0.1261152E-08  0.3801470E+04  0.7818609E-02  0.8045840E-01
        2   -1    0    0  501    0  0.00000000000E+00  0.00000000000E+00  0.28636585587E+04  0.28636585587E+04  0.25500000920E-02 0. -1.
       -2   -1    0    0    0  501  0.00000000000E+00  0.00000000000E+00 -0.12616005182E+04  0.12616005182E+04  0.25500000920E-02 0.  1.
    10030    2    1    2    0    0  0.00000000000E+00  0.00000000000E+00  0.16020580405E+04  0.41252590769E+04  0.38014697798E+04 0.  0.
        2    1    3    3  502    0  0.10346665529E+04  0.14976459867E+03 -0.92157400188E+03  0.13936509432E+04  0.25500000920E-02 0.  1.
       -2    1    3    3    0  502 -0.10346665529E+04 -0.14976459867E+03  0.25236320424E+04  0.27316081337E+04  0.25500000920E-02 0. -1.
</event>
<event>
 5   0  0.1305088E-08  0.3799428E+04  0.7818609E-02  0.8046278E-01
       -2   -1    0    0    0  501  0.00000000000E+00  0.00000000000E+00  0.26819935335E+04  0.26819935335E+04  0.25500000920E-02 0. -1.
        2   -1    0    0  501    0  0.00000000000E+00  0.00000000000E+00 -0.13456083278E+04  0.13456083278E+04  0.25500000920E-02 0.  1.
    10030    2    1    2    0    0  0.00000000000E+00  0.00000000000E+00  0.13363852057E+04  0.40276018612E+04  0.37994277641E+04 0.  0.
        3    1    3    3  502    0 -0.14528507309E+04  0.66860886936E+03 -0.41860909635E+03  0.16531928660E+04  0.10100000352E+00 0.  1.
       -3    1    3    3    0  502  0.14528507309E+04 -0.66860886936E+03  0.17549943020E+04  0.23744089953E+04  0.10100000352E+00 0. -1.
</event>
<event>
 5   0  0.4071750E-09  0.3801889E+04  0.7818609E-02  0.8045750E-01
       -1   -1    0    0    0  501  0.00000000000E+00  0.00000000000E+00  0.12224426078E+04  0.12224426078E+04  0.50400001928E-02 0. -1.
        1   -1    0    0  501    0  0.00000000000E+00  0.00000000000E+00 -0.29560410793E+04  0.29560410793E+04  0.50400001928E-02 0.  1.
    10030    2    1    2    0    0  0.00000000000E+00  0.00000000000E+00 -0.17335984715E+04  0.41784836870E+04  0.38018893017E+04 0.  0.
        5    1    3    3  502    0  0.90691607597E+03  0.22389570816E+02  0.96917142259E+03  0.13275215245E+04  0.46999998093E+01 0. -1.
       -5    1    3    3    0  502 -0.90691607597E+03 -0.22389570816E+02 -0.27027698941E+04  0.28509621625E+04  0.46999998093E+01 0.  1.
</event>
<event>
 5   0  0.1327249E-08  0.3804089E+04  0.7818609E-02  0.8045278E-01
       -2   -1    0    0    0  501  0.00000000000E+00  0.00000000000E+00  0.16067168943E+04  0.16067168943E+04  0.25500000920E-02 0. -1.
        2   -1    0    0  501    0  0.00000000000E+00  0.00000000000E+00 -0.22516557364E+04  0.22516557364E+04  0.25500000920E-02 0.  1.
    10030    2    1    2    0    0  0.00000000000E+00  0.00000000000E+00 -0.64493884214E+03  0.38583726307E+04  0.38040890167E+04 0.  0.
        1    1    3    3  502    0  0.48984292635E+03  0.16657668418E+04 -0.11101124893E+04  0.20608432747E+04  0.50400001928E-02 0.  1.
       -1    1    3    3    0  502 -0.48984292635E+03 -0.16657668418E+04  0.46517364716E+03  0.17975293560E+04  0.50400001928E-02 0. -1.
</event>
<event>
 5   0  0.4071750E-09  0.3799989E+04  0.7818609E-02  0.8046157E-01
        1   -1    0    0  501    0  0.00000000000E+00  0.00000000000E+00  0.27357152743E+04  0.27357152743E+04  0.50400001928E-02 0. -1.
       -1   -1    0    0    0  501  0.00000000000E+00  0.00000000000E+00 -0.13195742114E+04  0.13195742114E+04  0.50400001928E-02 0.  1.
    10030    2    1    2    0    0  0.00000000000E+00  0.00000000000E+00  0.14161410629E+04  0.40552894858E+04  0.37999891188E+04 0.  0.
        3    1    3    3  502    0 -0.81440207070E+03 -0.17131131312E+04  0.59130287981E+03  0.19868685007E+04  0.10100000352E+00 0. -1.
       -3    1    3    3    0  502  0.81440207070E+03  0.17131131312E+04  0.82483818310E+03  0.20684209851E+04  0.10100000352E+00 0.  1.
</event>
<event>
 5   0  0.1264013E-08  0.3799081E+04  0.7818609E-02  0.8046352E-01
        2   -1    0    0  501    0  0.00000000000E+00  0.00000000000E+00  0.24371417770E+04  0.24371417770E+04  0.25500000920E-02 0.  1.
       -2   -1    0    0    0  501  0.00000000000E+00  0.00000000000E+00 -0.14805272226E+04  0.14805272226E+04  0.25500000920E-02 0. -1.
    10030    2    1    2    0    0  0.00000000000E+00  0.00000000000E+00  0.95661455442E+03  0.39176689996E+04  0.37990813343E+04 0.  0.
        4    1    3    3  502    0 -0.40687603149E+03 -0.10282484432E+04 -0.11143806264E+04  0.15699327244E+04  0.12699999809E+01 0. -1.
       -4    1    3    3    0  502  0.40687603149E+03  0.10282484432E+04  0.20709951808E+04  0.23477362752E+04  0.12699999809E+01 0.  1.
</event>
<event>
 5   0  0.1264013E-08  0.3774498E+04  0.7818609E-02  0.8051650E-01
        2   -1    0    0  501    0  0.00000000000E+00  0.00000000000E+00  0.19769195410E+04  0.19769195410E+04  0.25500000920E-02 0.  1.
       -2   -1    0    0    0  501  0.00000000000E+00  0.00000000000E+00 -0.18016461620E+04  0.18016461620E+04  0.25500000920E-02 0. -1.
    10030    2    1    2    0    0  0.00000000000E+00  0.00000000000E+00  0.17527337903E+03  0.37785657031E+04  0.37744983792E+04 0.  0.
        4    1    3    3  502    0 -0.77023253964E+03  0.11512337612E+04  0.13708567123E+04  0.19488065775E+04  0.12699999809E+01 0.  1.
       -4    1    3    3    0  502  0.77023253964E+03 -0.11512337612E+04 -0.11955833332E+04  0.18297591256E+04  0.12699999809E+01 0. -1.
</event>
<event>
 5   0  0.1264013E-08  0.3797869E+04  0.7818609E-02  0.8046612E-01
        2   -1    0    0  501    0  0.00000000000E+00  0.00000000000E+00  0.26777567635E+04  0.26777567635E+04  0.25500000920E-02 0. -1.
       -2   -1    0    0    0  501  0.00000000000E+00  0.00000000000E+00 -0.13466318407E+04  0.13466318407E+04  0.25500000920E-02 0.  1.
    10030    2    1    2    0    0  0.00000000000E+00  0.00000000000E+00  0.13311249229E+04  0.40243886042E+04  0.37978691496E+04 0.  0.
        4    1    3    3  502    0  0.16460242484E+03 -0.13480794552E+04  0.20719532430E+04  0.24773784592E+04  0.12699999809E+01 0. -1.
       -4    1    3    3    0  502 -0.16460242484E+03  0.13480794552E+04 -0.74082832014E+03  0.15470101450E+04  0.12699999809E+01 0.  1.
</event>
<event>
 5   0  0.1327249E-08  0.3800442E+04  0.7818609E-02  0.8046060E-01
        2   -1    0    0  501    0  0.00000000000E+00  0.00000000000E+00  0.22559823252E+04  0.22559823252E+04  0.25500000920E-02 0.  1.
       -2   -1    0    0    0  501  0.00000000000E+00  0.00000000000E+00 -0.16005618700E+04  0.16005618700E+04  0.25500000920E-02 0. -1.
    10030    2    1    2    0    0  0.00000000000E+00  0.00000000000E+00  0.65542045520E+03  0.38565441951E+04  0.38004417054E+04 0.  0.
        1    1    3    3  502    0 -0.11494444935E+03  0.14450013434E+04 -0.91908439099E+03  0.17163791034E+04  0.50400001928E-02 0. -1.
       -1    1    3    3    0  502  0.11494444935E+03 -0.14450013434E+04  0.15745048462E+04  0.21401650917E+04  0.50400001928E-02 0.  1.
</event>
<event>
 5   0  0.4071750E-09  0.3798965E+04  0.7818609E-02  0.8046377E-01
        1   -1    0    0  501    0  0.00000000000E+00  0.00000000000E+00  0.13789482720E+04  0.13789482720E+04  0.50400001928E-02 0. -1.
       -1   -1    0    0    0  501  0.00000000000E+00  0.00000000000E+00 -0.26165116790E+04  0.26165116790E+04  0.50400001928E-02 0.  1.
    10030    2    1    2    0    0  0.00000000000E+00  0.00000000000E+00 -0.12375634070E+04  0.39954599510E+04  0.37989652582E+04 0.  0.
        4    1    3    3  502    0  0.23271867865E+03  0.17581867946E+04  0.96586369566E+02  0.17761501422E+04  0.12699999809E+01 0. -1.
       -4    1    3    3    0  502 -0.23271867865E+03 -0.17581867946E+04 -0.13341497766E+04  0.22193098087E+04  0.12699999809E+01 0.  1.
</event>
<event>
 5   0  0.4071750E-09  0.3799534E+04  0.7818609E-02  0.8046255E-01
       -1   -1    0    0    0  501  0.00000000000E+00  0.00000000000E+00  0.18460231165E+04  0.18460231165E+04  0.50400001928E-02 0. -1.
        1   -1    0    0  501    0  0.00000000000E+00  0.00000000000E+00 -0.19550756499E+04  0.19550756499E+04  0.50400001928E-02 0.  1.
    10030    2    1    2    0    0  0.00000000000E+00  0.00000000000E+00 -0.10905253344E+03  0.38010987664E+04  0.37995341000E+04 0.  0.
        5    1    3    3  502    0 -0.36138895800E+03 -0.18621238802E+04  0.50328296937E+02  0.18975411331E+04  0.46999998093E+01 0. -1.
       -5    1    3    3    0  502  0.36138895800E+03  0.18621238802E+04 -0.15938083038E+03  0.19035576333E+04  0.46999998093E+01 0.  1.
</event>
<event>
 5   0  0.1264013E-08  0.3800080E+04  0.7818609E-02  0.8046138E-01
        2   -1    0    0  501    0  0.00000000000E+00  0.00000000000E+00  0.22041838886E+04  0.22041838886E+04  0.25500000920E-02 0. -1.
       -2   -1    0    0    0  501  0.00000000000E+00  0.00000000000E+00 -0.16378633262E+04  0.16378633262E+04  0.25500000920E-02 0.  1.
    10030    2    1    2    0    0  0.00000000000E+00  0.00000000000E+00  0.56632056239E+03  0.38420472147E+04  0.38000799756E+04 0.  0.
        4    1    3    3  502    0 -0.15647350151E+04 -0.87220697645E+03  0.92340702846E+03  0.20153964450E+04  0.12699999809E+01 0. -1.
       -4    1    3    3    0  502  0.15647350151E+04  0.87220697645E+03 -0.35708646607E+03  0.18266507697E+04  0.12699999809E+01 0.  1.
</event>
<event>
 5   0  0.1327249E-08  0.3799681E+04  0.7818609E-02  0.8046223E-01
        2   -1    0    0  501    0  0.00000000000E+00  0.00000000000E+00  0.14040497901E+04  0.14040497901E+04  0.25500000920E-02 0. -1.
       -2   -1    0    0    0  501  0.00000000000E+00  0.00000000000E+00 -0.25707023348E+04  0.25707023348E+04  0.25500000920E-02 0.  1.
    10030    2    1    2    0    0  0.00000000000E+00  0.00000000000E+00 -0.11666525447E+04  0.39747521249E+04  0.37996810779E+04 0.  0.
        1    1    3    3  502    0  0.91925498422E+03 -0.81664357142E+03  0.93166280532E+03  0.15427028332E+04  0.50400001928E-02 0. -1.
       -1    1    3    3    0  502 -0.91925498422E+03  0.81664357142E+03 -0.20983153501E+04  0.24320492917E+04  0.50400001928E-02 0.  1.
</event>
<event>
 5   0  0.1261152E-08  0.3802028E+04  0.7818609E-02  0.8045720E-01
       -2   -1    0    0    0  501  0.00000000000E+00  0.00000000000E+00  0.17631261106E+04  0.17631261106E+04  0.25500000920E-02 0.  1.
        2   -1    0    0  501    0  0.00000000000E+00  0.00000000000E+00 -0.20496856389E+04  0.20496856389E+04  0.25500000920E-02 0. -1.
    10030    2    1    2    0    0  0.00000000000E+00  0.00000000000E+00 -0.28655952824E+03  0.38128117495E+04  0.38020280212E+04 0.  0.
        2    1    3    3  502    0  0.11941503628E+04 -0.26035221128E+03 -0.16034576108E+04  0.20161484748E+04  0.25500000920E-02 0. -1.
       -2    1    3    3    0  502 -0.11941503628E+04  0.26035221128E+03  0.13168980825E+04  0.17966632747E+04  0.25500000920E-02 0.  1.
</event>
<event>
 5   0  0.1293993E-08  0.3800176E+04  0.7818609E-02  0.8046117E-01
        2   -1    0    0  501    0  0.00000000000E+00  0.00000000000E+00  0.14662726645E+04  0.14662726645E+04  0.25500000920E-02 0. -1.
       -2   -1    0    0    0  501  0.00000000000E+00  0.00000000000E+00 -0.24622533234E+04  0.24622533234E+04  0.25500000920E-02 0.  1.
    10030    2    1    2    0    0  0.00000000000E+00  0.00000000000E+00 -0.99598065896E+03  0.39285259879E+04  0.38001761755E+04 0.  0.
        5    1    3    3  502    0 -0.18541684136E+03  0.18426135094E+04 -0.58534295704E+02  0.18528497791E+04  0.46999998093E+01 0. -1.
       -5    1    3    3    0  502  0.18541684136E+03 -0.18426135094E+04 -0.93744636326E+03  0.20756762089E+04  0.46999998093E+01 0.  1.
</event>
<event>
 5   0  0.1261152E-08  0.3801507E+04  0.7818609E-02  0.8045832E-01
       -2   -1    0    0    0  501  0.00000000000E+00  0.00000000000E+00  0.15621001045E+04  0.15621001045E+04  0.25500000920E-02 0. -1.
        2   -1    0    0  501    0  0.00000000000E+00  0.00000000000E+00 -0.23128247296E+04  0.23128247296E+04  0.25500000920E-02 0.  1.
    10030    2    1    2    0    0  0.00000000000E+00  0.00000000000E+00 -0.75072462511E+03  0.38749248341E+04  0.38015069390E+04 0.  0.
        2    1    3    3  502    0  0.10549129556E+04 -0.41458277230E+03  0.11799312366E+04  0.16361411743E+04  0.25500000920E-02 0. -1.
       -2    1    3    3    0  502 -0.10549129556E+04  0.41458277230E+03 -0.19306558617E+04  0.22387836598E+04  0.25500000920E-02 0.  1.
</event>
<event>
 5   0  0.4071750E-09  0.3799518E+04  0.7818609E-02  0.8046258E-01
       -1   -1    0    0    0  501  0.00000000000E+00  0.00000000000E+00  0.16227257925E+04  0.16227257925E+04  0.50400001928E-02 0. -1.
        1   -1    0    0  501    0  0.00000000000E+00  0.00000000000E+00 -0.22240876362E+04  0.22240876362E+04  0.50400001928E-02 0.  1.
    10030    2    1    2    0    0  0.00000000000E+00  0.00000000000E+00 -0.60136184365E+03  0.38468134287E+04  0.37995180600E+04 0.  0.
        3    1    3    3  502    0 -0.30342832873E+03 -0.10963704311E+04 -0.18411285379E+04  0.21642206856E+04  0.10100000352E+00 0.  1.
       -3    1    3    3    0  502  0.30342832873E+03  0.10963704311E+04  0.12397666943E+04  0.16825927431E+04  0.10100000352E+00 0. -1.
</event>
<event>
 5   0  0.1327249E-08  0.3801280E+04  0.7818609E-02  0.8045880E-01
        2   -1    0    0  501    0  0.00000000000E+00  0.00000000000E+00  0.23629339149E+04  0.23629339149E+04  0.25500000920E-02 0.  1.
       -2   -1    0    0    0  501  0.00000000000E+00  0.00000000000E+00 -0.15287908886E+04  0.15287908886E+04  0.25500000920E-02 0. -1.
    10030    2    1    2    0    0  0.00000000000E+00  0.00000000000E+00  0.83414302626E+03  0.38917248035E+04  0.38012797000E+04 0.  0.
        1    1    3    3  502    0  0.72482413761E+03 -0.84958710688E+03 -0.11574625703E+04  0.16083805160E+04  0.50400001928E-02 0. -1.
       -1    1    3    3    0  502 -0.72482413761E+03  0.84958710688E+03  0.19916055966E+04  0.22833442874E+04  0.50400001928E-02 0.  1.
</event>
<event>
 5   0  0.4071750E-09  0.3800947E+04  0.7818609E-02  0.8045952E-01
        1   -1    0    0  501    0  0.00000000000E+00  0.00000000000E+00  0.14613691048E+04  0.14613691048E+04  0.50400001928E-02 0.  1.
       -1   -1    0    0    0  501  0.00000000000E+00  0.00000000000E+00 -0.24715172567E+04  0.24715172567E+04  0.50400001928E-02 0. -1.
    10030    2    1    2    0    0  0.00000000000E+00  0.00000000000E+00 -0.10101481519E+04  0.39328863615E+04  0.38009467036E+04 0.  0.
        4    1    3    3  502    0  0.62074707691E+03 -0.17694508296E+04 -0.82485572288E+03  0.20485779820E+04  0.12699999809E+01 0.  1.
       -4    1    3    3    0  502 -0.62074707691E+03  0.17694508296E+04 -0.18529242902E+03  0.18843083795E+04  0.12699999809E+01 0. -1.
</event>
<event>
 5   0  0.4071750E-09  0.3802695E+04  0.7818609E-02  0.8045577E-01
       -1   -1    0    0    0  501  0.00000000000E+00  0.00000000000E+00  0.14909242154E+04  0.14909242154E+04  0.50400001928E-02 0. -1.
        1   -1    0    0  501    0  0.00000000000E+00  0.00000000000E+00 -0.24247530911E+04  0.24247530911E+04  0.50400001928E-02 0.  1.
    10030    2    1    2    0    0  0.00000000000E+00  0.00000000000E+00 -0.93382887572E+03  0.39156773066E+04  0.38026954125E+04 0.  0.
        4    1    3    3  502    0 -0.13221407816E+04  0.61806538849E+03 -0.17217517231E+04  0.22570980660E+04  0.12699999809E+01 0.  1.
       -4    1    3    3    0  502  0.13221407816E+04 -0.61806538849E+03  0.78792284741E+03  0.16585792405E+04  0.12699999809E+01 0. -1.
</event>
<event>
 5   0  0.1305088E-08  0.3797675E+04  0.7818609E-02  0.8046654E-01
        2   -1    0    0  501    0  0.00000000000E+00  0.00000000000E+00  0.23720064014E+04  0.23720064014E+04  0.25500000920E-02 0.  1.
       -2   -1    0    0    0  501  0.00000000000E+00  0.00000000000E+00 -0.15200565083E+04  0.15200565083E+04  0.25500000920E-02 0. -1.
    10030    2    1    2    0    0  0.00000000000E+00  0.00000000000E+00  0.85194989305E+03  0.38920629097E+04  0.37976749562E+04 0.  0.
        3    1    3    3  502    0  0.93978717206E+03  0.11665955621E+04  0.16217819550E+04  0.22077866414E+04  0.10100000352E+00 0.  1.
       -3    1    3    3    0  502 -0.93978717206E+03 -0.11665955621E+04 -0.76983206198E+03  0.16842762683E+04  0.10100000352E+00 0. -1.
</event>
<event>
 5   0  0.1293993E-08  0.3799153E+04  0.7818609E-02  0.8046337E-01
       -2   -1    0    0    0  501  0.00000000000E+00  0.00000000000E+00  0.14915719554E+04  0.14915719554E+04  0.25500000920E-02 0. -1.
        2   -1    0    0  501    0  0.00000000000E+00  0.00000000000E+00 -0.24191868028E+04  0.24191868028E+04  0.25500000920E-02 0.  1.
    10030    2    1    2    0    0  0.00000000000E+00  0.00000000000E+00 -0.92761484744E+03  0.39107587582E+04  0.37991531635E+04 0.  0.
        5    1    3    3  502    0 -0.16601043781E+03 -0.14221497076E+03  0.14785756045E+04  0.14946546329E+04  0.46999998093E+01 0. -1.
       -5    1    3    3    0  502  0.16601043781E+03  0.14221497076E+03 -0.24061904519E+04  0.24161041253E+04  0.46999998093E+01 0.  1.
</event>
<event>
 5   0  0.1293993E-08  0.3800222E+04  0.7818609E-02  0.8046107E-01
       -2   -1    0    0    0  501  0.00000000000E+00  0.00000000000E+00  0.21742421023E+04  0.21742421023E+04  0.25500000920E-02 0. -1.
        2   -1    0    0  501    0  0.00000000000E+00  0.00000000000E+00 -0.16605429266E+04  0.16605429266E+04  0.25500000920E-02 0.  1.
    10030    2    1    2    0    0  0.00000000000E+00  0.00000000000E+00  0.51369917570E+03  0.38347850288E+04  0.38002222796E+04 0.  0.
        5    1    3    3  502    0 -0.11372124004E+03  0.16290703099E+04  0.12370738566E+04  0.20487011523E+04  0.46999998093E+01 0. -1.
       -5    1    3    3    0  502  0.11372124004E+03 -0.16290703099E+04 -0.72337468087E+03  0.17860838765E+04  0.46999998093E+01 0.  1.
</event>
<event>
 5   0  0.1327249E-08  0.3793033E+04  0.7818609E-02  0.8047652E-01
        2   -1    0    0  501    0  0.00000000000E+00  0.00000000000E+00  0.21633767678E+04  0.21633767678E+04  0.25500000920E-02 0.  1.
       -2   -1    0    0    0  501  0.00000000000E+00  0.00000000000E+00 -0.16625743265E+04  0.16625743265E+04  0.25500000920E-02 0. -1.
    10030    2    1    2    0    0  0.00000000000E+00  0.00000000000E+00  0.50080244126E+03  0.38259510944E+04  0.37930329146E+04 0.  0.
        1    1    3    3  502    0  0.60225028184E+03  0.36311734295E+01  0.20643565027E+04  0.21504153919E+04  0.50400001928E-02 0.  1.
       -1    1    3    3    0  502 -0.60225028184E+03 -0.36311734295E+01 -0.15635540614E+04  0.16755357025E+04  0.50400001928E-02 0. -1.
</event>
<event>
 5   0  0.4071750E-09  0.3799998E+04  0.7818609E-02  0.8046155E-01
        1   -1    0    0  501    0  0.00000000000E+00  0.00000000000E+00  0.17406085397E+04  0.17406085397E+04  0.50400001928E-02 0. -1.
       -1   -1    0    0    0  501  0.00000000000E+00  0.00000000000E+00 -0.20739851602E+04  0.20739851602E+04  0.50400001928E-02 0.  1.
    10030    2    1    2    0    0  0.00000000000E+00  0.00000000000E+00 -0.33337662048E+03  0.38145936999E+04  0.37999980427E+04 0.  0.
        4    1    3    3  502    0 -0.36259531439E+03 -0.15990336188E+04  0.79700465811E+03  0.18230748515E+04  0.12699999809E+01 0. -1.
       -4    1    3    3    0  502  0.36259531439E+03  0.15990336188E+04 -0.11303812786E+04  0.19915188485E+04  0.12699999809E+01 0.  1.
</event>
<event>
 5   0  0.4071750E-09  0.3801796E+04  0.7818609E-02  0.8045770E-01
        3   -1    0    0  501    0  0.00000000000E+00  0.00000000000E+00  0.23914646157E+04  0.23914646178E+04  0.10100000352E+00 0.  1.
       -3   -1    0    0    0  501  0.00000000000E+00  0.00000000000E+00 -0.15109626954E+04  0.15109626987E+04  0.10100000352E+00 0. -1.
    10030    2    1    2    0    0  0.00000000000E+00  0.00000000000E+00  0.88050192035E+03  0.39024273166E+04  0.38017963293E+04 0.  0.
        5    1    3    3  502    0  0.16471078659E+04  0.93317852370E+03  0.26363479942E+03  0.19113638786E+04  0.46999998093E+01 0. -1.
       -5    1    3    3    0  502 -0.16471078659E+04 -0.93317852370E+03  0.61686712093E+03  0.19910634380E+04  0.46999998093E+01 0.  1.
</event>
<event>
 5   0  0.1293993E-08  0.3798640E+04  0.7818609E-02  0.8046447E-01
       -2   -1    0    0    0  501  0.00000000000E+00  0.00000000000E+00  0.17828285554E+04  0.17828285554E+04  0.25500000920E-02 0. -1.
        2   -1    0    0  501    0  0.00000000000E+00  0.00000000000E+00 -0.20234235306E+04  0.20234235306E+04  0.25500000920E-02 0.  1.
    10030    2    1    2    0    0  0.00000000000E+00  0.00000000000E+00 -0.24059497519E+03  0.38062520859E+04  0.37986404146E+04 0.  0.
        5    1    3    3  502    0 -0.56689655477E+03 -0.18092855442E+04 -0.23236647410E+03  0.19102099760E+04  0.46999998093E+01 0. -1.
       -5    1    3    3    0  502  0.56689655477E+03  0.18092855442E+04 -0.82285010847E+01  0.18960421099E+04  0.46999998093E+01 0.  1.
</event>
<event>
 5   0  0.1261152E-08  0.3795791E+04  0.7818609E-02  0.8047059E-01
        2   -1    0    0  501    0  0.00000000000E+00  0.00000000000E+00  0.29351209071E+04  0.29351209071E+04  0.25500000920E-02 0. -1.
       -2   -1    0    0    0  501  0.00000000000E+00  0.00000000000E+00 -0.12272089788E+04  0.12272089788E+04  0.25500000920E-02 0.  1.
    10030    2    1    2    0    0  0.00000000000E+00  0.00000000000E+00  0.17079119283E+04  0.41623298859E+04  0.37957906851E+04 0.  0.
        2    1    3    3  502    0 -0.11295529101E+04  0.91048094409E+03 -0.48777564829E+03  0.15306176562E+04  0.25500000920E-02 0.  1.
       -2    1    3    3    0  502  0.11295529101E+04 -0.91048094409E+03  0.21956875766E+04  0.26317122297E+04  0.25500000920E-02 0. -1.
</event>
<event>
 5   0  0.1305088E-08  0.3801495E+04  0.7818609E-02  0.8045834E-01
        2   -1    0    0  501    0  0.00000000000E+00  0.00000000000E+00  0.28946187073E+04  0.28946187073E+04  0.25500000920E-02 0.  1.
       -2   -1    0    0    0  501  0.00000000000E+00  0.00000000000E+00 -0.12481235480E+04  0.12481235481E+04  0.25500000920E-02 0. -1.
    10030    2    1    2    0    0  0.00000000000E+00  0.00000000000E+00  0.16464951592E+04  0.41427422553E+04  0.38014953748E+04 0.  0.
        3    1    3    3  502    0  0.27518194609E+02 -0.22248182884E+03 -0.12336664823E+04  0.12538693771E+04  0.10100000352E+00 0. -1.
       -3    1    3    3    0  502 -0.27518194609E+02  0.22248182884E+03  0.28801616415E+04  0.28888728782E+04  0.10100000352E+00 0.  1.
</event>
<event>
 5   0  0.4071750E-09  0.3799998E+04  0.7818609E-02  0.8046155E-01
       -1   -1    0    0    0  501  0.00000000000E+00  0.00000000000E+00  0.11255845384E+04  0.11255845384E+04  0.50400001928E-02 0.  1.
        1   -1    0    0  501    0  0.00000000000E+00  0.00000000000E+00 -0.32072198197E+04  0.32072198197E+04  0.50400001928E-02 0. -1.
    10030    2    1    2    0    0  0.00000000000E+00  0.00000000000E+00 -0.20816352813E+04  0.43328043581E+04  0.37999984423E+04 0.  0.
        1    1    3    3  502    0 -0.82376148943E+03 -0.16732582803E+04 -0.62715349057E+03  0.19676630212E+04  0.50400001928E-02 0.  1.
       -1    1    3    3    0  502  0.82376148943E+03  0.16732582803E+04 -0.14544817907E+04  0.23651413370E+04  0.50400001928E-02 0. -1.
</event>
<event>
 5   0  0.1305088E-08  0.3799572E+04  0.7818609E-02  0.8046247E-01
        2   -1    0    0  501    0  0.00000000000E+00  0.00000000000E+00  0.13471923355E+04  0.13471923355E+04  0.25500000920E-02 0.  1.
       -2   -1    0    0    0  501  0.00000000000E+00  0.00000000000E+00 -0.26790433229E+04  0.26790433229E+04  0.25500000920E-02 0. -1.
    10030    2    1    2    0    0  0.00000000000E+00  0.00000000000E+00 -0.13318509874E+04  0.40262356584E+04  0.37995718870E+04 0.  0.
        3    1    3    3  502    0 -0.14475589757E+04  0.12264902354E+04 -0.56274460259E+03  0.19789863021E+04  0.10100000352E+00 0. -1.
       -3    1    3    3    0  502  0.14475589757E+04 -0.12264902354E+04 -0.76910638481E+03  0.20472493564E+04  0.10100000352E+00 0.  1.
</event>
<event>
 5   0  0.1293993E-08  0.3799596E+04  0.7818609E-02  0.8046242E-01
       -2   -1    0    0    0  501  0.00000000000E+00  0.00000000000E+00  0.12577378227E+04  0.12577378227E+04  0.25500000920E-02 0. -1.
        2   -1    0    0  501    0  0.00000000000E+00  0.00000000000E+00 -0.28696219387E+04  0.28696219387E+04  0.25500000920E-02 0.  1.
    10030    2    1    2    0    0  0.00000000000E+00  0.00000000000E+00 -0.16118841159E+04  0.41273597614E+04  0.37995957938E+04 0.  0.
        5    1    3    3  502    0  0.14943177228E+04 -0.11369927193E+04 -0.49210408484E+03  0.19411147366E+04  0.46999998093E+01 0.  1.
       -5    1    3    3    0  502 -0.14943177228E+04  0.11369927193E+04 -0.11197800311E+04  0.21862450248E+04  0.46999998093E+01 0. -1.
</event>
<event>
 5   0  0.4071750E-09  0.3800552E+04  0.7818609E-02  0.8046036E-01
       -1   -1    0    0    0  501  0.00000000000E+00  0.00000000000E+00  0.31522567083E+04  0.31522567083E+04  0.50400001928E-02 0.  1.
        1   -1    0    0  501    0  0.00000000000E+00  0.00000000000E+00 -0.11455443185E+04  0.11455443185E+04  0.50400001928E-02 0. -1.
    10030    2    1    2    0    0  0.00000000000E+00  0.00000000000E+00  0.20067123898E+04  0.42978010268E+04  0.38005524665E+04 0.  0.
        1    1    3    3  502    0 -0.93255700022E+03  0.50246281394E+03 -0.78068507071E+03  0.13159029667E+04  0.50400001928E-02 0. -1.
       -1    1    3    3    0  502  0.93255700022E+03 -0.50246281394E+03  0.27873974605E+04  0.29818980601E+04  0.50400001928E-02 0.  1.
</event>
<event>
 5   0  0.4071750E-09  0.3799337E+04  0.7818609E-02  0.8046297E-01
        1   -1    0    0  501    0  0.00000000000E+00  0.00000000000E+00  0.19019039442E+04  0.19019039442E+04  0.50400001928E-02 0.  1.
       -1   -1    0    0    0  501  0.00000000000E+00  0.00000000000E+00 -0.18974353426E+04  0.18974353426E+04  0.50400001928E-02 0. -1.
    10030    2    1    2    0    0  0.00000000000E+00  0.00000000000E+00  0.44686016521E+01  0.37993392868E+04  0.37993366589E+04 0.  0.
        2    1    3    3  502    0 -0.22854396788E+03 -0.49434095781E+03  0.18221626005E+04  0.19018101563E+04  0.25500000920E-02 0.  1.
       -2    1    3    3    0  502  0.22854396788E+03  0.49434095781E+03 -0.18176939988E+04  0.18975291305E+04  0.25500000920E-02 0. -1.
</event>
<event>
 5   0  0.1264013E-08  0.3799195E+04  0.7818609E-02  0.8046328E-01
        2   -1    0    0  501    0  0.00000000000E+00  0.00000000000E+00  0.21704169531E+04  0.21704169531E+04  0.25500000920E-02 0.  1.
       -2   -1    0    0    0  501  0.00000000000E+00  0.00000000000E+00 -0.16625705053E+04  0.16625705053E+04  0.25500000920E-02 0. -1.
    10030    2    1    2    0    0  0.00000000000E+00  0.00000000000E+00  0.50784644784E+03  0.38329874585E+04  0.37991952887E+04 0.  0.
        4    1    3    3  502    0  0.43466346586E+03  0.24217698128E+02  0.21194101256E+04  0.21636588731E+04  0.12699999809E+01 0.  1.
       -4    1    3    3    0  502 -0.43466346586E+03 -0.24217698128E+02 -0.16115636778E+04  0.16693285854E+04  0.12699999809E+01 0. -1.
</event>
<event>
 5   0  0.1264013E-08  0.3800010E+04  0.7818609E-02  0.8046153E-01
       -2   -1    0    0    0  501  0.00000000000E+00  0.00000000000E+00  0.20869884156E+04  0.20869884156E+04  0.25500000920E-02 0. -1.
        2   -1    0    0  501    0  0.00000000000E+00  0.00000000000E+00 -0.17297740258E+04  0.17297740258E+04  0.25500000920E-02 0.  1.
    10030    2    1    2    0    0  0.00000000000E+00  0.00000000000E+00  0.35721438984E+03  0.38167624414E+04  0.38000096597E+04 0.  0.
        4    1    3    3  502    0 -0.27221347443E+03 -0.10757925226E+04 -0.13704589091E+04  0.17634026658E+04  0.12699999809E+01 0.  1.
       -4    1    3    3    0  502  0.27221347443E+03  0.10757925226E+04  0.17276732989E+04  0.20533597756E+04  0.12699999809E+01 0. -1.
</event>
<event>
 5   0  0.1261152E-08  0.3800716E+04  0.7818609E-02  0.8046001E-01
       -2   -1    0    0    0  501  0.00000000000E+00  0.00000000000E+00  0.13482601370E+04  0.13482601370E+04  0.25500000920E-02 0.  1.
        2   -1    0    0  501    0  0.00000000000E+00  0.00000000000E+00 -0.26785346326E+04  0.26785346326E+04  0.25500000920E-02 0. -1.
    10030    2    1    2    0    0  0.00000000000E+00  0.00000000000E+00 -0.13302744957E+04  0.40267947696E+04  0.38007164959E+04 0.  0.
        2    1    3    3  502    0  0.23099658251E+03  0.18822228531E+04 -0.79592733564E+03  0.20566046323E+04  0.25500000920E-02 0.  1.
       -2    1    3    3    0  502 -0.23099658251E+03 -0.18822228531E+04 -0.53434716001E+03  0.19701901373E+04  0.25500000920E-02 0. -1.
</event>
<event>
 5   0  0.1327249E-08  0.3801542E+04  0.7818609E-02  0.8045824E-01
       -2   -1    0    0    0  501  0.00000000000E+00  0.00000000000E+00  0.15813932140E+04  0.15813932140E+04  0.25500000920E-02 0. -1.
        2   -1    0    0  501    0  0.00000000000E+00  0.00000000000E+00 -0.22846499163E+04  0.22846499163E+04  0.25500000920E-02 0.  1.
    10030    2    1    2    0    0  0.00000000000E+00  0.00000000000E+00 -0.70325670233E+03  0.38660431303E+04  0.38015417262E+04 0.  0.
        1    1    3    3  502    0 -0.14066778367E+04  0.36419966779E+03 -0.15977953472E+04  0.21597069027E+04  0.50400001928E-02 0.  1.
       -1    1    3    3    0  502  0.14066778367E+04 -0.36419966779E+03  0.89453864486E+03  0.17063362275E+04  0.50400001928E-02 0. -1.
</event>
<event>
 5   0  0.1264013E-08  0.3810221E+04  0.7818609E-02  0.8043965E-01
       -2   -1    0    0    0  501  0.00000000000E+00  0.00000000000E+00  0.12830232884E+04  0.12830232884E+04  0.25500000920E-02 0.  1.
        2   -1    0    0  501    0  0.00000000000E+00  0.00000000000E+00 -0.28288234686E+04  0.28288234686E+04  0.25500000920E-02 0. -1.
    10030    2    1    2    0    0  0.00000000000E+00  0.00000000000E+00 -0.15458001802E+04  0.41118467571E+04  0.38102211952E+04 0.  0.
        4    1    3    3  502    0  0.11681296896E+04 -0.13218682202E+04 -0.15492837807E+04  0.23477956490E+04  0.12699999809E+01 0. -1.
       -4    1    3    3    0  502 -0.11681296896E+04  0.13218682202E+04  0.34836005080E+01  0.17640511081E+04  0.12699999809E+01 0.  1.
</event>
<event>
 5   0  0.1305088E-08  0.3801411E+04  0.7818609E-02  0.8045852E-01
        2   -1    0    0  501    0  0.00000000000E+00  0.00000000000E+00  0.23338176662E+04  0.23338176662E+04  0.25500000920E-02 0.  1.
       -2   -1    0    0    0  501  0.00000000000E+00  0.00000000000E+00 -0.15479704742E+04  0.15479704742E+04  0.25500000920E-02 0. -1.
    10030    2    1    2    0    0  0.00000000000E+00  0.00000000000E+00  0.78584719200E+03  0.38817881404E+04  0.38014107063E+04 0.  0.
        3    1    3    3  502    0  0.35941945619E+03 -0.12737190249E+04 -0.10001573815E+04  0.16588722970E+04  0.10100000352E+00 0. -1.
       -3    1    3    3    0  502 -0.35941945619E+03  0.12737190249E+04  0.17860045735E+04  0.22229158434E+04  0.10100000352E+00 0.  1.
</event>
<event>
 5   0  0.4071750E-09  0.3800603E+04  0.7818609E-02  0.8046025E-01
       -1   -1    0    0    0  501  0.00000000000E+00  0.00000000000E+00  0.14442745091E+04  0.14442745091E+04  0.50400001928E-02 0. -1.
        1   -1    0    0  501    0  0.00000000000E+00  0.00000000000E+00 -0.25003182311E+04  0.25003182311E+04  0.50400001928E-02 0.  1.
    10030    2    1    2    0    0  0.00000000000E+00  0.00000000000E+00 -0.10560437220E+04  0.39445927403E+04  0.38006030500E+04 0.  0.
        3    1    3    3  502    0  0.69041142068E+03  0.14287813358E+04  0.55708378972E+03  0.16817926133E+04  0.10100000352E+00 0. -1.
       -3    1    3    3    0  502 -0.69041142068E+03 -0.14287813358E+04 -0.16131275117E+04  0.22628001270E+04  0.10100000352E+00 0.  1.
</event>
<event>
 5   0  0.4071750E-09  0.3799995E+04  0.7818609E-02  0.8046156E-01
        1   -1    0    0  501    0  0.00000000000E+00  0.00000000000E+00  0.23830651857E+04  0.23830651857E+04  0.50400001928E-02 0.  1.
       -1   -1    0    0    0  501  0.00000000000E+00  0.00000000000E+00 -0.15148521362E+04  0.15148521362E+04  0.50400001928E-02 0. -1.
    10030    2    1    2    0    0  0.00000000000E+00  0.00000000000E+00  0.86821304952E+03  0.38979173219E+04  0.37999954670E+04 0.  0.
        3    1    3    3  502    0 -0.36712129965E+03 -0.12630545846E+04 -0.97232198997E+03  0.16356940407E+04  0.10100000352E+00 0. -1.
       -3    1    3    3    0  502  0.36712129965E+03  0.12630545846E+04  0.18405350395E+04  0.22622232812E+04  0.10100000352E+00 0.  1.
</event>
<event>
 5   0  0.4071750E-09  0.3801091E+04  0.7818609E-02  0.8045921E-01
        1   -1    0    0  501    0  0.00000000000E+00  0.00000000000E+00  0.17511122961E+04  0.17511122961E+04  0.50400001928E-02 0.  1.
       -1   -1    0    0    0  501  0.00000000000E+00  0.00000000000E+00 -0.20627304906E+04  0.20627304906E+04  0.50400001928E-02 0. -1.
    10030    2    1    2    0    0  0.00000000000E+00  0.00000000000E+00 -0.31161819455E+03  0.38138427867E+04  0.38010907517E+04 0.  0.
        4    1    3    3  502    0  0.13760999440E+04 -0.10933310375E+04 -0.88145547233E+03  0.19662118848E+04  0.12699999809E+01 0. -1.
       -4    1    3    3    0  502 -0.13760999440E+04  0.10933310375E+04  0.56983727778E+03  0.18476309018E+04  0.12699999809E+01 0.  1.
</event>
<event>
 5   0  0.4071750E-09  0.3797604E+04  0.7818609E-02  0.8046669E-01
        1   -1    0    0  501    0  0.00000000000E+00  0.00000000000E+00  0.11822045475E+04  0.11822045475E+04  0.50400001928E-02 0. -1.
       -1   -1    0    0    0  501  0.00000000000E+00  0.00000000000E+00 -0.30497672455E+04  0.30497672455E+04  0.50400001928E-02 0.  1.
    10030    2    1    2    0    0  0.00000000000E+00  0.00000000000E+00 -0.18675626980E+04  0.42319717929E+04  0.37976038268E+04 0.  0.
        1    1    3    3  502    0 -0.12973857443E+04  0.41939352736E+03  0.53886513337E+03  0.14661092498E+04  0.50400001928E-02 0. -1.
       -1    1    3    3    0  502  0.12973857443E+04 -0.41939352736E+03 -0.24064278314E+04  0.27658625432E+04  0.50400001928E-02 0.  1.
</event>
<event>
 5   0  0.1327249E-08  0.3799506E+04  0.7818609E-02  0.8046261E-01
       -2   -1    0    0    0  501  0.00000000000E+00  0.00000000000E+00  0.24173538199E+04  0.24173538199E+04  0.25500000920E-02 0. -1.
        2   -1    0    0  501    0  0.00000000000E+00  0.00000000000E+00 -0.14929798472E+04  0.14929798472E+04  0.25500000920E-02 0.  1.
    10030    2    1    2    0    0  0.00000000000E+00  0.00000000000E+00  0.92437397270E+03  0.39103336671E+04  0.37995055134E+04 0.  0.
        1    1    3    3  502    0  0.81109939136E+03  0.10828809263E+04 -0.91033540200E+03  0.16307126870E+04  0.50400001928E-02 0.  1.
       -1    1    3    3    0  502 -0.81109939136E+03 -0.10828809263E+04  0.18347093747E+04  0.22796209801E+04  0.50400001928E-02 0. -1.
</event>
<event>
 5   0  0.1264013E-08  0.3792738E+04  0.7818609E-02  0.8047715E-01
       -2   -1    0    0    0  501  0.00000000000E+00  0.00000000000E+00  0.12774492191E+04  0.12774492191E+04  0.25500000920E-02 0. -1.
        2   -1    0    0  501    0  0.00000000000E+00  0.00000000000E+00 -0.28151527781E+04  0.28151527781E+04  0.25500000920E-02 0.  1.
    10030    2    1    2    0    0  0.00000000000E+00  0.00000000000E+00 -0.15377035590E+04  0.40926019972E+04  0.37927376487E+04 0.  0.
        4    1    3    3  502    0 -0.75877951558E+03 -0.17031560934E+04 -0.11422232055E+04  0.21865869514E+04  0.12699999809E+01 0. -1.
       -4    1    3    3    0  502  0.75877951558E+03  0.17031560934E+04 -0.39548035353E+03  0.19060150458E+04  0.12699999809E+01 0.  1.
</event>
<event>
 5   0  0.1261152E-08  0.3804827E+04  0.7818609E-02  0.8045120E-01
        2   -1    0    0  501    0  0.00000000000E+00  0.00000000000E+00  0.25953338595E+04  0.25953338595E+04  0.25500000920E-02 0. -1.
       -2   -1    0    0    0  501  0.00000000000E+00  0.00000000000E+00 -0.13944939868E+04  0.13944939868E+04  0.25500000920E-02 0.  1.
    10030    2    1    2    0    0  0.00000000000E+00  0.00000000000E+00  0.12008398727E+04  0.39898278463E+04  0.38048271766E+04 0.  0.
        2    1    3    3  502    0  0.90374993768E+03 -0.11150257119E+04 -0.70894452615E+03  0.16008274826E+04  0.25500000920E-02 0.  1.
       -2    1    3    3    0  502 -0.90374993768E+03  0.11150257119E+04  0.19097843988E+04  0.23890003637E+04  0.25500000920E-02 0. -1.
</event>
<event>
 5   0  0.4071750E-09  0.3799726E+04  0.7818609E-02  0.8046214E-01
        3   -1    0    0  501    0  0.00000000000E+00  0.00000000000E+00  0.17506367232E+04  0.17506367261E+04  0.10100000352E+00 0. -1.
       -3   -1    0    0    0  501  0.00000000000E+00  0.00000000000E+00 -0.20618098599E+04  0.20618098624E+04  0.10100000352E+00 0.  1.
    10030    2    1    2    0    0  0.00000000000E+00  0.00000000000E+00 -0.31117313676E+03  0.38124465885E+04  0.37997263413E+04 0.  0.
        4    1    3    3  502    0  0.16253728184E+04  0.13244571541E+03 -0.11335802726E+04  0.19860474601E+04  0.12699999809E+01 0.  1.
       -4    1    3    3    0  502 -0.16253728184E+04 -0.13244571541E+03  0.82240713583E+03  0.18263991284E+04  0.12699999809E+01 0. -1.
</event>
<event>
 5   0  0.4071750E-09  0.3802059E+04  0.7818609E-02  0.8045713E-01
       -1   -1    0    0    0  501  0.00000000000E+00  0.00000000000E+00  0.22747189782E+04  0.22747189782E+04  0.50400001928E-02 0.  1.
        1   -1    0    0  501    0  0.00000000000E+00  0.00000000000E+00 -0.15887293287E+04  0.15887293287E+04  0.50400001928E-02 0. -1.
    10030    2    1    2    0    0  0.00000000000E+00  0.00000000000E+00  0.68598964946E+03  0.38634483069E+04  0.38020587871E+04 0.  0.
        3    1    3    3  502    0 -0.11523866307E+02 -0.15310939297E+04  0.14879223295E+04  0.21350162271E+04  0.10100000352E+00 0.  1.
       -3    1    3    3    0  502  0.11523866307E+02  0.15310939297E+04 -0.80193268002E+03  0.17284320798E+04  0.10100000352E+00 0. -1.
</event>
<event>
 5   0  0.1327249E-08  0.3800548E+04  0.7818609E-02  0.8046037E-01
        2   -1    0    0  501    0  0.00000000000E+00  0.00000000000E+00  0.21882569319E+04  0.21882569319E+04  0.25500000920E-02 0.  1.
       -2   -1    0    0    0  501  0.00000000000E+00  0.00000000000E+00 -0.16501905231E+04  0.16501905231E+04  0.25500000920E-02 0. -1.
    10030    2    1    2    0    0  0.00000000000E+00  0.00000000000E+00  0.53806640877E+03  0.38384474550E+04  0.38005477769E+04 0.  0.
        1    1    3    3  502    0  0.13756946997E+04  0.12562670764E+04 -0.10926572114E+03  0.18661944893E+04  0.50400001928E-02 0. -1.
       -1    1    3    3    0  502 -0.13756946997E+04 -0.12562670764E+04  0.64733212992E+03  0.19722529657E+04  0.50400001928E-02 0.  1.
</event>
<event>
 5   0  0.4071750E-09  0.3794339E+04  0.7818609E-02  0.8047371E-01
       -1   -1    0    0    0  501  0.00000000000E+00  0.00000000000E+00  0.22045794286E+04  0.22045794286E+04  0.50400001928E-02 0. -1.
        1   -1    0    0  501    0  0.00000000000E+00  0.00000000000E+00 -0.16326254766E+04  0.16326254767E+04  0.50400001928E-02 0.  1.
    10030    2    1    2    0    0  0.00000000000E+00  0.00000000000E+00  0.57195395197E+03  0.38372049053E+04  0.37943392260E+04 0.  0.
        4    1    3    3  502    0  0.11245369012E+04 -0.15244126940E+04  0.39123754390E+03  0.19342920494E+04  0.12699999809E+01 0. -1.
       -4    1    3    3    0  502 -0.11245369012E+04  0.15244126940E+04  0.18071640808E+03  0.19029128558E+04  0.12699999809E+01 0.  1.
</event>
<event>
 5   0  0.4071750E-09  0.3802461E+04  0.7818609E-02  0.8045627E-01
        1   -1    0    0  501    0  0.00000000000E+00  0.00000000000E+00  0.20077518568E+04  0.20077518568E+04  0.50400001928E-02 0.  1.
       -1   -1    0    0    0  501  0.00000000000E+00  0.00000000000E+00 -0.18003610248E+04  0.18003610248E+04  0.50400001928E-02 0. -1.
    10030    2    1    2    0    0  0.00000000000E+00  0.00000000000E+00  0.20739083199E+03  0.38081128817E+04  0.38024614084E+04 0.  0.
        3    1    3    3  502    0 -0.17767372927E+04 -0.64268165879E+03 -0.10838111526E+03  0.18925066970E+04  0.10100000352E+00 0. -1.
       -3    1    3    3    0  502  0.17767372927E+04  0.64268165879E+03  0.31577194725E+03  0.19156061847E+04  0.10100000352E+00 0.  1.
</event>
<event>
 5   0  0.4071750E-09  0.3801757E+04  0.7818609E-02  0.8045778E-01
        1   -1    0    0  501    0  0.00000000000E+00  0.00000000000E+00  0.23406672595E+04  0.23406672595E+04  0.50400001928E-02 0. -1.
       -1   -1    0    0    0  501  0.00000000000E+00  0.00000000000E+00 -0.15437218703E+04  0.15437218703E+04  0.50400001928E-02 0.  1.
    10030    2    1    2    0    0  0.00000000000E+00  0.00000000000E+00  0.79694538921E+03  0.38843891298E+04  0.38017570883E+04 0.  0.
        1    1    3    3  502    0 -0.14661330623E+04  0.82093147704E+03  0.13065329946E+04  0.21284978535E+04  0.50400001928E-02 0.  1.
       -1    1    3    3    0  502  0.14661330623E+04 -0.82093147704E+03 -0.50958760543E+03  0.17558912763E+04  0.50400001928E-02 0. -1.
</event>
<event>
 5   0  0.4071750E-09  0.3800935E+04  0.7818609E-02  0.8045954E-01
        3   -1    0    0  501    0  0.00000000000E+00  0.00000000000E+00  0.22009488096E+04  0.22009488119E+04  0.10100000352E+00 0.  1.
       -3   -1    0    0    0  501  0.00000000000E+00  0.00000000000E+00 -0.16410085491E+04  0.16410085522E+04  0.10100000352E+00 0. -1.
    10030    2    1    2    0    0  0.00000000000E+00  0.00000000000E+00  0.55994026052E+03  0.38419573641E+04  0.38009345288E+04 0.  0.
        4    1    3    3  502    0  0.91388613159E+03 -0.49133573501E+03 -0.13294379241E+04  0.16864179413E+04  0.12699999809E+01 0. -1.
       -4    1    3    3    0  502 -0.91388613159E+03  0.49133573501E+03  0.18893781846E+04  0.21555394228E+04  0.12699999809E+01 0.  1.
</event>
<event>
 5   0  0.4071750E-09  0.3799656E+04  0.7818609E-02  0.8046229E-01
        1   -1    0    0  501    0  0.00000000000E+00  0.00000000000E+00  0.10492462173E+04  0.10492462173E+04  0.50400001928E-02 0. -1.
       -1   -1    0    0    0  501  0.00000000000E+00  0.00000000000E+00 -0.34399426628E+04  0.34399426628E+04  0.50400001928E-02 0.  1.
    10030    2    1    2    0    0  0.00000000000E+00  0.00000000000E+00 -0.23906964455E+04  0.44891888801E+04  0.37996562090E+04 0.  0.
        3    1    3    3  502    0 -0.15035240289E+04 -0.61729193321E+03 -0.33105439921E+02  0.16256475069E+04  0.10100000352E+00 0. -1.
       -3    1    3    3    0  502  0.15035240289E+04  0.61729193321E+03 -0.23575910056E+04  0.28635413732E+04  0.10100000352E+00 0.  1.
</event>
<event>
 5   0  0.1264013E-08  0.3799587E+04  0.7818609E-02  0.8046244E-01
       -2   -1    0    0    0  501  0.00000000000E+00  0.00000000000E+00  0.13875446304E+04  0.13875446304E+04  0.25500000920E-02 0.  1.
        2   -1    0    0  501    0  0.00000000000E+00  0.00000000000E+00 -0.26011520918E+04  0.26011520918E+04  0.25500000920E-02 0. -1.
    10030    2    1    2    0    0  0.00000000000E+00  0.00000000000E+00 -0.12136074614E+04  0.39886967222E+04  0.37995866185E+04 0.  0.
        4    1    3    3  502    0  0.67384115310E+03 -0.17762735104E+04 -0.60877371854E+03  0.19949477529E+04  0.12699999809E+01 0. -1.
       -4    1    3    3    0  502 -0.67384115310E+03  0.17762735104E+04 -0.60483374290E+03  0.19937489694E+04  0.12699999809E+01 0.  1.
</event>
<event>
 5   0  0.1327249E-08  0.3799239E+04  0.7818609E-02  0.8046318E-01
       -2   -1    0    0    0  501  0.00000000000E+00  0.00000000000E+00  0.25564703049E+04  0.25564703049E+04  0.25500000920E-02 0.  1.
        2   -1    0    0  501    0  0.00000000000E+00  0.00000000000E+00 -0.14115380395E+04  0.14115380395E+04  0.25500000920E-02 0. -1.
    10030    2    1    2    0    0  0.00000000000E+00  0.00000000000E+00  0.11449322655E+04  0.39680083444E+04  0.37992394408E+04 0.  0.
        1    1    3    3  502    0  0.13951100497E+04  0.10993765027E+04 -0.13094578717E+03  0.17810411406E+04  0.50400001928E-02 0. -1.
       -1    1    3    3    0  502 -0.13951100497E+04 -0.10993765027E+04  0.12758780526E+04  0.21869672038E+04  0.50400001928E-02 0.  1.
</event>
<event>
 5   0  0.4071750E-09  0.3796384E+04  0.7818609E-02  0.8046931E-01
       -1   -1    0    0    0  501  0.00000000000E+00  0.00000000000E+00  0.11947526450E+04  0.11947526450E+04  0.50400001928E-02 0. -1.
        1   -1    0    0  501    0  0.00000000000E+00  0.00000000000E+00 -0.30157985570E+04  0.30157985570E+04  0.50400001928E-02 0.  1.
    10030    2    1    2    0    0  0.00000000000E+00  0.00000000000E+00 -0.18210459120E+04  0.42105512020E+04  0.37963842285E+04 0.  0.
        4    1    3    3  502    0 -0.10157606348E+04  0.14291837734E+04 -0.10400734809E+03  0.17564609493E+04  0.12699999809E+01 0. -1.
       -4    1    3    3    0  502  0.10157606348E+04 -0.14291837734E+04 -0.17170385639E+04  0.24540902526E+04  0.12699999809E+01 0.  1.
</event>
<event>
 5   0  0.1293993E-08  0.3799408E+04  0.7818609E-02  0.8046282E-01
       -2   -1    0    0    0  501  0.00000000000E+00  0.00000000000E+00  0.17930343863E+04  0.17930343863E+04  0.25500000920E-02 0.  1.
        2   -1    0    0  501    0  0.00000000000E+00  0.00000000000E+00 -0.20127197019E+04  0.20127197019E+04  0.25500000920E-02 0. -1.
    10030    2    1    2    0    0  0.00000000000E+00  0.00000000000E+00 -0.21968531560E+03  0.38057540882E+04  0.37994081831E+04 0.  0.
        5    1    3    3  502    0 -0.17304519868E+04 -0.73365150095E+03 -0.38624727817E+03  0.19188323672E+04  0.46999998093E+01 0. -1.
       -5    1    3    3    0  502  0.17304519868E+04  0.73365150095E+03  0.16656196257E+03  0.18869217210E+04  0.46999998093E+01 0.  1.
</event>
<event>
 5   0  0.4071750E-09  0.3800358E+04  0.7818609E-02  0.8046078E-01
       -1   -1    0    0    0  501  0.00000000000E+00  0.00000000000E+00  0.13592377919E+04  0.13592377920E+04  0.50400001928E-02 0.  1.
        1   -1    0    0  501    0  0.00000000000E+00  0.00000000000E+00 -0.26564000117E+04  0.26564000117E+04  0.50400001928E-02 0. -1.
    10030    2    1    2    0    0  0.00000000000E+00  0.00000000000E+00 -0.12971622198E+04  0.40156378037E+04  0.38003575024E+04 0.  0.
        4    1    3    3  502    0 -0.20341914892E+03 -0.10938349433E+04 -0.22762377457E+04  0.25335970716E+04  0.12699999809E+01 0. -1.
       -4    1    3    3    0  502  0.20341914892E+03  0.10938349433E+04  0.97907552589E+03  0.14820407321E+04  0.12699999809E+01 0.  1.
</event>
<event>
 5   0  0.4071750E-09  0.3799156E+04  0.7818609E-02  0.8046336E-01
        1   -1    0    0  501    0  0.00000000000E+00  0.00000000000E+00  0.23587092950E+04  0.23587092950E+04  0.50400001928E-02 0.  1.
       -1   -1    0    0    0  501  0.00000000000E+00  0.00000000000E+00 -0.15298185615E+04  0.15298185615E+04  0.50400001928E-02 0. -1.
    10030    2    1    2    0    0  0.00000000000E+00  0.00000000000E+00  0.82889073345E+03  0.38885278565E+04  0.37991563594E+04 0.  0.
        1    1    3    3  502    0 -0.81042571140E+03 -0.14173043940E+04  0.14082949452E+04  0.21561160061E+04  0.50400001928E-02 0.  1.
       -1    1    3    3    0  502  0.81042571140E+03  0.14173043940E+04 -0.57940421178E+03  0.17324118504E+04  0.50400001928E-02 0. -1.
</event>
<event>
 5   0  0.4071750E-09  0.3798850E+04  0.7818609E-02  0.8046402E-01
        1   -1    0    0  501    0  0.00000000000E+00  0.00000000000E+00  0.18607569383E+04  0.18607569384E+04  0.50400001928E-02 0.  1.
       -1   -1    0    0    0  501  0.00000000000E+00  0.00000000000E+00 -0.19388968814E+04  0.19388968814E+04  0.50400001928E-02 0. -1.
    10030    2    1    2    0    0  0.00000000000E+00  0.00000000000E+00 -0.78139943060E+02  0.37996538198E+04  0.37988502602E+04 0.  0.
        3    1    3    3  502    0 -0.14715832215E+04 -0.73964490292E+03 -0.98541177325E+03  0.19192884445E+04  0.10100000352E+00 0. -1.
       -3    1    3    3    0  502  0.14715832215E+04  0.73964490292E+03  0.90727183019E+03  0.18803653752E+04  0.10100000352E+00 0.  1.
</event>
<event>
 5   0  0.4071750E-09  0.3799947E+04  0.7818609E-02  0.8046166E-01
        1   -1    0    0  501    0  0.00000000000E+00  0.00000000000E+00  0.24269136991E+04  0.24269136992E+04  0.50400001928E-02 0.  1.
       -1   -1    0    0    0  501  0.00000000000E+00  0.00000000000E+00 -0.14874445452E+04  0.14874445452E+04  0.50400001928E-02 0. -1.
    10030    2    1    2    0    0  0.00000000000E+00  0.00000000000E+00  0.93946915392E+03  0.39143582444E+04  0.37999471278E+04 0.  0.
        3    1    3    3  502    0 -0.16510475497E+04 -0.89753514186E+03  0.75811382872E+03  0.20263918500E+04  0.10100000352E+00 0. -1.
       -3    1    3    3    0  502  0.16510475497E+04  0.89753514186E+03  0.18135532519E+03  0.18879663944E+04  0.10100000352E+00 0.  1.
</event>
<event>
 5   0  0.1293993E-08  0.3800635E+04  0.7818609E-02  0.8046019E-01
        2   -1    0    0  501    0  0.00000000000E+00  0.00000000000E+00  0.23830364388E+04  0.23830364388E+04  0.25500000920E-02 0. -1.
       -2   -1    0    0    0  501  0.00000000000E+00  0.00000000000E+00 -0.15153800896E+04  0.15153800896E+04  0.25500000920E-02 0.  1.
    10030    2    1    2    0    0  0.00000000000E+00  0.00000000000E+00  0.86765634925E+03  0.38984165284E+04  0.38006346691E+04 0.  0.
        5    1    3    3  502    0  0.12385386874E+03 -0.98466939409E+03  0.20960991585E+04  0.23191738548E+04  0.46999998093E+01 0. -1.
       -5    1    3    3    0  502 -0.12385386874E+03  0.98466939409E+03 -0.12284428092E+04  0.15792426736E+04  0.46999998093E+01 0.  1.
</event>
<event>
 5   0  0.1327249E-08  0.3802891E+04  0.7818609E-02  0.8045535E-01
       -2   -1    0    0    0  501  0.00000000000E+00  0.00000000000E+00  0.14914760801E+04  0.14914760801E+04  0.25500000920E-02 0.  1.
        2   -1    0    0  501    0  0.00000000000E+00  0.00000000000E+00 -0.24241047428E+04  0.24241047428E+04  0.25500000920E-02 0. -1.
    10030    2    1    2    0    0  0.00000000000E+00  0.00000000000E+00 -0.93262866270E+03  0.39155808228E+04  0.38028906055E+04 0.  0.
        1    1    3    3  502    0 -0.18132614962E+03  0.15608911353E+04  0.63603435860E+03  0.16952286023E+04  0.50400001928E-02 0.  1.
       -1    1    3    3    0  502  0.18132614962E+03 -0.15608911353E+04 -0.15686630213E+04  0.22203522205E+04  0.50400001928E-02 0. -1.
</event>
<event>
 5   0  0.4071750E-09  0.3800012E+04  0.7818609E-02  0.8046152E-01
       -1   -1    0    0    0  501  0.00000000000E+00  0.00000000000E+00  0.13417605598E+04  0.13417605598E+04  0.50400001928E-02 0.  1.
        1   -1    0    0  501    0  0.00000000000E+00  0.00000000000E+00 -0.26905122948E+04  0.26905122948E+04  0.50400001928E-02 0. -1.
    10030    2    1    2    0    0  0.00000000000E+00  0.00000000000E+00 -0.13487517350E+04  0.40322728545E+04  0.38000122540E+04 0.  0.
        4    1    3    3  502    0 -0.59325067803E+03 -0.17090504670E+04 -0.12905773499E+04  0.22222491703E+04  0.12699999809E+01 0. -1.
       -4    1    3    3    0  502  0.59325067803E+03  0.17090504670E+04 -0.58174385097E+02  0.18100236843E+04  0.12699999809E+01 0.  1.
</event>
<event>
 5   0  0.4071750E-09  0.3798538E+04  0.7818609E-02  0.8046469E-01
       -1   -1    0    0    0  501  0.00000000000E+00  0.00000000000E+00  0.27365489925E+04  0.27365489925E+04  0.50400001928E-02 0. -1.
        1   -1    0    0  501    0  0.00000000000E+00  0.00000000000E+00 -0.13181645252E+04  0.13181645252E+04  0.50400001928E-02 0.  1.
    10030    2    1    2    0    0  0.00000000000E+00  0.00000000000E+00  0.14183844673E+04  0.40547135177E+04  0.37985375098E+04 0.  0.
        3    1    3    3  502    0  0.24614715798E+03 -0.12886968857E+04  0.21750855382E+04  0.25401427510E+04  0.10100000352E+00 0. -1.
       -3    1    3    3    0  502 -0.24614715798E+03  0.12886968857E+04 -0.75670107089E+03  0.15145707667E+04  0.10100000352E+00 0.  1.
</event>
<event>
 5   0  0.1293993E-08  0.3800598E+04  0.7818609E-02  0.8046026E-01
        2   -1    0    0  501    0  0.00000000000E+00  0.00000000000E+00  0.18599658637E+04  0.18599658637E+04  0.25500000920E-02 0. -1.
       -2   -1    0    0    0  501  0.00000000000E+00  0.00000000000E+00 -0.19415072376E+04  0.19415072376E+04  0.25500000920E-02 0.  1.
    10030    2    1    2    0    0  0.00000000000E+00  0.00000000000E+00 -0.81541373927E+02  0.38014731012E+04  0.38005984718E+04 0.  0.
        5    1    3    3  502    0 -0.14863891109E+04 -0.94769217346E+03 -0.75061143230E+03  0.19159625928E+04  0.46999998093E+01 0.  1.
       -5    1    3    3    0  502  0.14863891109E+04  0.94769217346E+03  0.66907005837E+03  0.18855105085E+04  0.46999998093E+01 0. -1.
</event>
<event>
 5   0  0.4071750E-09  0.3800598E+04  0.7818609E-02  0.8046027E-01
       -1   -1    0    0    0  501  0.00000000000E+00  0.00000000000E+00  0.24630152326E+04  0.24630152327E+04  0.50400001928E-02 0. -1.
        1   -1    0    0  501    0  0.00000000000E+00  0.00000000000E+00 -0.14661442059E+04  0.14661442059E+04  0.50400001928E-02 0.  1.
    10030    2    1    2    0    0  0.00000000000E+00  0.00000000000E+00  0.99687102674E+03  0.39291594386E+04  0.38005975911E+04 0.  0.
        5    1    3    3  502    0 -0.17838189960E+04 -0.55155055562E+03  0.13307582253E+03  0.18718839415E+04  0.46999998093E+01 0. -1.
       -5    1    3    3    0  502  0.17838189960E+04  0.55155055562E+03  0.86379520421E+03  0.20572754971E+04  0.46999998093E+01 0.  1.
</event>
<event>
 5   0  0.4071750E-09  0.3799686E+04  0.7818609E-02  0.8046222E-01
        1   -1    0    0  501    0  0.00000000000E+00  0.00000000000E+00  0.27119609191E+04  0.27119609191E+04  0.50400001928E-02 0.  1.
       -1   -1    0    0    0  501  0.00000000000E+00  0.00000000000E+00 -0.13309201205E+04  0.13309201205E+04  0.50400001928E-02 0. -1.
    10030    2    1    2    0    0  0.00000000000E+00  0.00000000000E+00  0.13810407986E+04  0.40428810397E+04  0.37996859625E+04 0.  0.
        3    1    3    3  502    0 -0.14535893856E+04 -0.60276240363E+03  0.18231518891E+04  0.24083453735E+04  0.10100000352E+00 0.  1.
       -3    1    3    3    0  502  0.14535893856E+04  0.60276240363E+03 -0.44211109050E+03  0.16345356661E+04  0.10100000352E+00 0. -1.
</event>
<event>
 5   0  0.1264013E-08  0.3801134E+04  0.7818609E-02  0.8045912E-01
        2   -1    0    0  501    0  0.00000000000E+00  0.00000000000E+00  0.18059351087E+04  0.18059351087E+04  0.25500000920E-02 0.  1.
       -2   -1    0    0    0  501  0.00000000000E+00  0.00000000000E+00 -0.20001575410E+04  0.20001575410E+04  0.25500000920E-02 0. -1.
    10030    2    1    2    0    0  0.00000000000E+00  0.00000000000E+00 -0.19422243238E+03  0.38060926497E+04  0.38011338973E+04 0.  0.
        4    1    3    3  502    0 -0.18481120132E+04 -0.31856527830E+02 -0.53997799714E+03  0.19256455286E+04  0.12699999809E+01 0. -1.
       -4    1    3    3    0  502  0.18481120132E+04  0.31856527830E+02  0.34575556476E+03  0.18804471211E+04  0.12699999809E+01 0.  1.
</event>
<event>
 5   0  0.1261152E-08  0.3800415E+04  0.7818609E-02  0.8046066E-01
       -2   -1    0    0    0  501  0.00000000000E+00  0.00000000000E+00  0.26926976973E+04  0.26926976973E+04  0.25500000920E-02 0. -1.
        2   -1    0    0  501    0  0.00000000000E+00  0.00000000000E+00 -0.13409559517E+04  0.13409559517E+04  0.25500000920E-02 0.  1.
    10030    2    1    2    0    0  0.00000000000E+00  0.00000000000E+00  0.13517417456E+04  0.40336536490E+04  0.38004152422E+04 0.  0.
        2    1    3    3  502    0 -0.80130288086E+03  0.19756109420E+03  0.24925451904E+04  0.26256233962E+04  0.25500000920E-02 0. -1.
       -2    1    3    3    0  502  0.80130288086E+03 -0.19756109420E+03 -0.11408034448E+04  0.14080302527E+04  0.25500000920E-02 0.  1.
</event>
<event>
 5   0  0.4071750E-09  0.3800391E+04  0.7818609E-02  0.8046071E-01
       -1   -1    0    0    0  501  0.00000000000E+00  0.00000000000E+00  0.32130038669E+04  0.32130038669E+04  0.50400001928E-02 0.  1.
        1   -1    0    0  501    0  0.00000000000E+00  0.00000000000E+00 -0.11237905083E+04  0.11237905083E+04  0.50400001928E-02 0. -1.
    10030    2    1    2    0    0  0.00000000000E+00  0.00000000000E+00  0.20892133586E+04  0.43367943752E+04  0.38003911634E+04 0.  0.
        2    1    3    3  502    0 -0.40461612858E+03 -0.12579385111E+04  0.26028514213E+04  0.29190681785E+04  0.25500000920E-02 0.  1.
       -2    1    3    3    0  502  0.40461612858E+03  0.12579385111E+04 -0.51363806273E+03  0.14177261967E+04  0.25500000920E-02 0. -1.
</event>
<event>
 5   0  0.1261152E-08  0.3799998E+04  0.7818609E-02  0.8046155E-01
        2   -1    0    0  501    0  0.00000000000E+00  0.00000000000E+00  0.24158757474E+04  0.24158757474E+04  0.25500000920E-02 0.  1.
       -2   -1    0    0    0  501  0.00000000000E+00  0.00000000000E+00 -0.14942809069E+04  0.14942809069E+04  0.25500000920E-02 0. -1.
    10030    2    1    2    0    0  0.00000000000E+00  0.00000000000E+00  0.92159484054E+03  0.39101566543E+04  0.37999984225E+04 0.  0.
        2    1    3    3  502    0 -0.13679568261E+04  0.10039511621E+04 -0.41883665232E+03  0.17477551188E+04  0.25500000920E-02 0. -1.
       -2    1    3    3    0  502  0.13679568261E+04 -0.10039511621E+04  0.13404314929E+04  0.21624015355E+04  0.25500000920E-02 0.  1.
</event>
<event>
 5   0  0.4071750E-09  0.3801973E+04  0.7818609E-02  0.8045732E-01
       -1   -1    0    0    0  501  0.00000000000E+00  0.00000000000E+00  0.17719572457E+04  0.17719572457E+04  0.50400001928E-02 0.  1.
        1   -1    0    0  501    0  0.00000000000E+00  0.00000000000E+00 -0.20394117851E+04  0.20394117851E+04  0.50400001928E-02 0. -1.
    10030    2    1    2    0    0  0.00000000000E+00  0.00000000000E+00 -0.26745453933E+03  0.38113690308E+04  0.38019734295E+04 0.  0.
        2    1    3    3  502    0 -0.10667990942E+04 -0.11732761867E+04 -0.11847040707E+04  0.19794345286E+04  0.25500000920E-02 0. -1.
       -2    1    3    3    0  502  0.10667990942E+04  0.11732761867E+04  0.91724953140E+03  0.18319345022E+04  0.25500000920E-02 0.  1.
</event>
<event>
 5   0  0.4071750E-09  0.3799137E+04  0.7818609E-02  0.8046340E-01
       -1   -1    0    0    0  501  0.00000000000E+00  0.00000000000E+00  0.11299235593E+04  0.11299235593E+04  0.50400001928E-02 0. -1.
        1   -1    0    0  501    0  0.00000000000E+00  0.00000000000E+00 -0.31934555590E+04  0.31934555590E+04  0.50400001928E-02 0.  1.
    10030    2    1    2    0    0  0.00000000000E+00  0.00000000000E+00 -0.20635319997E+04  0.43233791184E+04  0.37991370977E+04 0.  0.
        1    1    3    3  502    0 -0.16135272449E+04 -0.25296579519E+03  0.72083369407E+02  0.16348265583E+04  0.50400001928E-02 0. -1.
       -1    1    3    3    0  502  0.16135272449E+04  0.25296579519E+03 -0.21356153691E+04  0.26885525601E+04  0.50400001928E-02 0.  1.
</event>
<event>
 5   0  0.1261152E-08  0.3795749E+04  0.7818609E-02  0.8047068E-01
        2   -1    0    0  501    0  0.00000000000E+00  0.00000000000E+00  0.15966371720E+04  0.15966371720E+04  0.25500000920E-02 0. -1.
       -2   -1    0    0    0  501  0.00000000000E+00  0.00000000000E+00 -0.22559466824E+04  0.22559466824E+04  0.25500000920E-02 0.  1.
    10030    2    1    2    0    0  0.00000000000E+00  0.00000000000E+00 -0.65930951042E+03  0.38525838544E+04  0.37957493759E+04 0.  0.
        2    1    3    3  502    0  0.18710941217E+04 -0.30833550235E+03 -0.25192916547E+03  0.19129904074E+04  0.25500000920E-02 0.  1.
       -2    1    3    3    0  502 -0.18710941217E+04  0.30833550235E+03 -0.40738034494E+03  0.19395934470E+04  0.25500000920E-02 0. -1.
</event>
<event>
 5   0  0.1264013E-08  0.3800350E+04  0.7818609E-02  0.8046080E-01
       -2   -1    0    0    0  501  0.00000000000E+00  0.00000000000E+00  0.15028213892E+04  0.15028213892E+04  0.25500000920E-02 0.  1.
        2   -1    0    0  501    0  0.00000000000E+00  0.00000000000E+00 -0.24025908360E+04  0.24025908360E+04  0.25500000920E-02 0. -1.
    10030    2    1    2    0    0  0.00000000000E+00  0.00000000000E+00 -0.89976944686E+03  0.39054122252E+04  0.38003499301E+04 0.  0.
        4    1    3    3  502    0 -0.11427009762E+04 -0.71626378764E+03  0.92572681486E+03  0.16357784334E+04  0.12699999809E+01 0.  1.
       -4    1    3    3    0  502  0.11427009762E+04  0.71626378764E+03 -0.18254962617E+04  0.22696337918E+04  0.12699999809E+01 0. -1.
</event>
<event>
 5   0  0.1327249E-08  0.3802091E+04  0.7818609E-02  0.8045706E-01
        2   -1    0    0  501    0  0.00000000000E+00  0.00000000000E+00  0.20015796197E+04  0.20015796197E+04  0.25500000920E-02 0. -1.
       -2   -1    0    0    0  501  0.00000000000E+00  0.00000000000E+00 -0.18055607179E+04  0.18055607179E+04  0.25500000920E-02 0.  1.
    10030    2    1    2    0    0  0.00000000000E+00  0.00000000000E+00  0.19601890183E+03  0.38071403376E+04  0.38020907591E+04 0.  0.
        1    1    3    3  502    0  0.13136815056E+04 -0.63022704018E+03 -0.11246889711E+04  0.18406168809E+04  0.50400001928E-02 0.  1.
       -1    1    3    3    0  502 -0.13136815056E+04  0.63022704018E+03  0.13207078729E+04  0.19665234568E+04  0.50400001928E-02 0. -1.
</event>
<event>
 5   0  0.1327249E-08  0.3801947E+04  0.7818609E-02  0.8045737E-01
       -2   -1    0    0    0  501  0.00000000000E+00  0.00000000000E+00  0.18089773092E+04  0.18089773092E+04  0.25500000920E-02 0. -1.
        2   -1    0    0  501    0  0.00000000000E+00  0.00000000000E+00 -0.19976485435E+04  0.19976485435E+04  0.25500000920E-02 0.  1.
    10030    2    1    2    0    0  0.00000000000E+00  0.00000000000E+00 -0.18867123433E+03  0.38066258526E+04  0.38019473362E+04 0.  0.
        1    1    3    3  502    0  0.12336434804E+04 -0.82279533822E+03 -0.12852666355E+04  0.19623401157E+04  0.50400001928E-02 0.  1.
       -1    1    3    3    0  502 -0.12336434804E+04  0.82279533822E+03  0.10965954012E+04  0.18442857369E+04  0.50400001928E-02 0. -1.
</event>
<event>
 5   0  0.4071750E-09  0.3798541E+04  0.7818609E-02  0.8046468E-01
       -1   -1    0    0    0  501  0.00000000000E+00  0.00000000000E+00  0.22265547487E+04  0.22265547487E+04  0.50400001928E-02 0. -1.
        1   -1    0    0  501    0  0.00000000000E+00  0.00000000000E+00 -0.16200940980E+04  0.16200940980E+04  0.50400001928E-02 0.  1.
    10030    2    1    2    0    0  0.00000000000E+00  0.00000000000E+00  0.60646065069E+03  0.38466488467E+04  0.37985408816E+04 0.  0.
        2    1    3    3  502    0  0.49989032603E+03  0.16953601909E+04 -0.40062033428E+03  0.18123556955E+04  0.25500000920E-02 0. -1.
       -2    1    3    3    0  502 -0.49989032603E+03 -0.16953601909E+04  0.10070809850E+04  0.20342931512E+04  0.25500000920E-02 0.  1.
</event>
<event>
 5   0  0.4071750E-09  0.3800855E+04  0.7818609E-02  0.8045971E-01
        1   -1    0    0  501    0  0.00000000000E+00  0.00000000000E+00  0.33839890230E+04  0.33839890230E+04  0.50400001928E-02 0. -1.
       -1   -1    0    0    0  501  0.00000000000E+00  0.00000000000E+00 -0.10672683753E+04  0.10672683753E+04  0.50400001928E-02 0.  1.
    10030    2    1    2    0    0  0.00000000000E+00  0.00000000000E+00  0.23167206477E+04  0.44512573983E+04  0.38008548863E+04 0.  0.
        2    1    3    3  502    0  0.12193039365E+04 -0.12307753170E+04  0.24360048036E+03  0.17495288407E+04  0.25500000920E-02 0.  1.
       -2    1    3    3    0  502 -0.12193039365E+04  0.12307753170E+04  0.20731201673E+04  0.27017285576E+04  0.25500000920E-02 0. -1.
</event>
<event>
 5   0  0.1327249E-08  0.3798508E+04  0.7818609E-02  0.8046475E-01
        2   -1    0    0  501    0  0.00000000000E+00  0.00000000000E+00  0.21961418742E+04  0.21961418742E+04  0.25500000920E-02 0. -1.
       -2   -1    0    0    0  501  0.00000000000E+00  0.00000000000E+00 -0.16425016522E+04  0.16425016522E+04  0.25500000920E-02 0.  1.
    10030    2    1    2    0    0  0.00000000000E+00  0.00000000000E+00  0.55364022192E+03  0.38386435264E+04  0.37985084740E+04 0.  0.
        1    1    3    3  502    0  0.14505797919E+04  0.95450790785E+03  0.10542991676E+04  0.20314560821E+04  0.50400001928E-02 0. -1.
       -1    1    3    3    0  502 -0.14505797919E+04 -0.95450790785E+03 -0.50065894565E+03  0.18071874443E+04  0.50400001928E-02 0.  1.
</event>
<event>
 5   0  0.1293993E-08  0.3803835E+04  0.7818609E-02  0.8045332E-01
       -2   -1    0    0    0  501  0.00000000000E+00  0.00000000000E+00  0.18243858822E+04  0.18243858822E+04  0.25500000920E-02 0.  1.
        2   -1    0    0  501    0  0.00000000000E+00  0.00000000000E+00 -0.19827437517E+04  0.19827437517E+04  0.25500000920E-02 0. -1.
    10030    2    1    2    0    0  0.00000000000E+00  0.00000000000E+00 -0.15835786945E+03  0.38071296339E+04  0.38038347538E+04 0.  0.
        5    1    3    3  502    0 -0.82039201830E+02 -0.80789706627E+03  0.16421478489E+04  0.18319660881E+04  0.46999998093E+01 0.  1.
       -5    1    3    3    0  502  0.82039201830E+02  0.80789706627E+03 -0.18005057184E+04  0.19751635457E+04  0.46999998093E+01 0. -1.
</event>
<event>
 5   0  0.1264013E-08  0.3795421E+04  0.7818609E-02  0.8047138E-01
       -2   -1    0    0    0  501  0.00000000000E+00  0.00000000000E+00  0.16753083882E+04  0.16753083882E+04  0.25500000920E-02 0. -1.
        2   -1    0    0  501    0  0.00000000000E+00  0.00000000000E+00 -0.21496375008E+04  0.21496375008E+04  0.25500000920E-02 0.  1.
    10030    2    1    2    0    0  0.00000000000E+00  0.00000000000E+00 -0.47432911268E+03  0.38249458890E+04  0.37954213135E+04 0.  0.
        4    1    3    3  502    0  0.55582251554E+03  0.15556915920E+04  0.70401099558E+03  0.17957583615E+04  0.12699999809E+01 0. -1.
       -4    1    3    3    0  502 -0.55582251554E+03 -0.15556915920E+04 -0.11783401083E+04  0.20291875275E+04  0.12699999809E+01 0.  1.
</event>
<event>
 5   0  0.4071750E-09  0.3798551E+04  0.7818609E-02  0.8046466E-01
       -1   -1    0    0    0  501  0.00000000000E+00  0.00000000000E+00  0.12586777601E+04  0.12586777601E+04  0.50400001928E-02 0. -1.
        1   -1    0    0  501    0  0.00000000000E+00  0.00000000000E+00 -0.28659021201E+04  0.28659021201E+04  0.50400001928E-02 0.  1.
    10030    2    1    2    0    0  0.00000000000E+00  0.00000000000E+00 -0.16072243600E+04  0.41245798803E+04  0.37985509139E+04 0.  0.
        1    1    3    3  502    0 -0.14436951948E+04 -0.78558945664E+03  0.22983353862E+03  0.16595873178E+04  0.50400001928E-02 0. -1.
       -1    1    3    3    0  502  0.14436951948E+04  0.78558945664E+03 -0.18370578986E+04  0.24649925625E+04  0.50400001928E-02 0.  1.
</event>
<event>
 5   0  0.1305088E-08  0.3800067E+04  0.7818609E-02  0.8046141E-01
        2   -1    0    0  501    0  0.00000000000E+00  0.00000000000E+00  0.15227664154E+04  0.15227664154E+04  0.25500000920E-02 0.  1.
       -2   -1    0    0    0  501  0.00000000000E+00  0.00000000000E+00 -0.23707689335E+04  0.23707689335E+04  0.25500000920E-02 0. -1.
    10030    2    1    2    0    0  0.00000000000E+00  0.00000000000E+00 -0.84800251804E+03  0.38935353489E+04  0.38000670050E+04 0.  0.
        3    1    3    3  502    0  0.45121026800E+03 -0.17060825704E+04 -0.11454647977E+04  0.21039006764E+04  0.10100000352E+00 0. -1.
       -3    1    3    3    0  502 -0.45121026800E+03  0.17060825704E+04  0.29746227969E+03  0.17896346725E+04  0.10100000352E+00 0.  1.
</event>
<event>
 5   0  0.1327249E-08  0.3800044E+04  0.7818609E-02  0.8046146E-01
        2   -1    0    0  501    0  0.00000000000E+00  0.00000000000E+00  0.24699565126E+04  0.24699565126E+04  0.25500000920E-02 0.  1.
       -2   -1    0    0    0  501  0.00000000000E+00  0.00000000000E+00 -0.14615977283E+04  0.14615977283E+04  0.25500000920E-02 0. -1.
    10030    2    1    2    0    0  0.00000000000E+00  0.00000000000E+00  0.10083587843E+04  0.39315542408E+04  0.38000435933E+04 0.  0.
        1    1    3    3  502    0  0.12478395668E+04 -0.14211112735E+04  0.31503570361E+03  0.19172658477E+04  0.50400001928E-02 0. -1.
       -1    1    3    3    0  502 -0.12478395668E+04  0.14211112735E+04  0.69332308067E+03  0.20142883931E+04  0.50400001928E-02 0.  1.
</event>
<event>
 5   0  0.4071750E-09  0.3801285E+04  0.7818609E-02  0.8045879E-01
       -1   -1    0    0    0  501  0.00000000000E+00  0.00000000000E+00  0.15264930022E+04  0.15264930022E+04  0.50400001928E-02 0. -1.
        1   -1    0    0  501    0  0.00000000000E+00  0.00000000000E+00 -0.23664974209E+04  0.23664974209E+04  0.50400001928E-02 0.  1.
    10030    2    1    2    0    0  0.00000000000E+00  0.00000000000E+00 -0.84000441870E+03  0.38929904231E+04  0.38012849157E+04 0.  0.
        4    1    3    3  502    0  0.15948478253E+03 -0.13988531923E+04 -0.17276033405E+04  0.22286409681E+04  0.12699999809E+01 0.  1.
       -4    1    3    3    0  502 -0.15948478253E+03  0.13988531923E+04  0.88759892177E+03  0.16643494550E+04  0.12699999809E+01 0. -1.
</event>
<event>
 5   0  0.1305088E-08  0.3804673E+04  0.7818609E-02  0.8045153E-01
        2   -1    0    0  501    0  0.00000000000E+00  0.00000000000E+00  0.16936612510E+04  0.16936612510E+04  0.25500000920E-02 0. -1.
       -2   -1    0    0    0  501  0.00000000000E+00  0.00000000000E+00 -0.21367221590E+04  0.21367221590E+04  0.25500000920E-02 0.  1.
    10030    2    1    2    0    0  0.00000000000E+00  0.00000000000E+00 -0.44306090799E+03  0.38303834099E+04  0.38046726665E+04 0.  0.
        3    1    3    3  502    0 -0.13856920744E+04 -0.10736458235E+04  0.52239850637E+03  0.18291413530E+04  0.10100000352E+00 0. -1.
       -3    1    3    3    0  502  0.13856920744E+04  0.10736458235E+04 -0.96545941436E+03  0.20012420570E+04  0.10100000352E+00 0.  1.
</event>
<event>
 5   0  0.1327249E-08  0.3800911E+04  0.7818609E-02  0.8045959E-01
        2   -1    0    0  501    0  0.00000000000E+00  0.00000000000E+00  0.34387862474E+04  0.34387862474E+04  0.25500000920E-02 0.  1.
       -2   -1    0    0    0  501  0.00000000000E+00  0.00000000000E+00 -0.10502922354E+04  0.10502922355E+04  0.25500000920E-02 0. -1.
    10030    2    1    2    0    0  0.00000000000E+00  0.00000000000E+00  0.23884940120E+04  0.44890784829E+04  0.38009106777E+04 0.  0.
        1    1    3    3  502    0 -0.14985119089E+03  0.82143634313E+03  0.32105363946E+04  0.33173418555E+04  0.50400001928E-02 0.  1.
       -1    1    3    3    0  502  0.14985119089E+03 -0.82143634313E+03 -0.82204238258E+03  0.11717366274E+04  0.50400001928E-02 0. -1.
</event>
<event>
 5   0  0.4071750E-09  0.3799113E+04  0.7818609E-02  0.8046345E-01
        1   -1    0    0  501    0  0.00000000000E+00  0.00000000000E+00  0.31279940158E+04  0.31279940158E+04  0.50400001928E-02 0. -1.
       -1   -1    0    0    0  501  0.00000000000E+00  0.00000000000E+00 -0.11535553137E+04  0.11535553137E+04  0.50400001928E-02 0.  1.
    10030    2    1    2    0    0  0.00000000000E+00  0.00000000000E+00  0.19744387021E+04  0.42815493295E+04  0.37991125902E+04 0.  0.
        2    1    3    3  502    0  0.60176310066E+03  0.14349005684E+04  0.22151982657E+04  0.27070577805E+04  0.25500000920E-02 0. -1.
       -2    1    3    3    0  502 -0.60176310066E+03 -0.14349005684E+04 -0.24075956359E+03  0.15744915490E+04  0.25500000920E-02 0.  1.
</event>
<event>
 5   0  0.1293993E-08  0.3800522E+04  0.7818609E-02  0.8046043E-01
       -2   -1    0    0    0  501  0.00000000000E+00  0.00000000000E+00  0.18116975102E+04  0.18116975102E+04  0.25500000920E-02 0.  1.
        2   -1    0    0  501    0  0.00000000000E+00  0.00000000000E+00 -0.19931539512E+04  0.19931539512E+04  0.25500000920E-02 0. -1.
    10030    2    1    2    0    0  0.00000000000E+00  0.00000000000E+00 -0.18145644100E+03  0.38048514613E+04  0.38005220961E+04 0.  0.
        5    1    3    3  502    0  0.37162529713E+03  0.99299714196E+03 -0.16694904660E+04  0.19777181780E+04  0.46999998093E+01 0. -1.
       -5    1    3    3    0  502 -0.37162529713E+03 -0.99299714196E+03  0.14880340250E+04  0.18271332833E+04  0.46999998093E+01 0.  1.
</event>
<event>
 5   0  0.4071750E-09  0.3798033E+04  0.7818609E-02  0.8046577E-01
        1   -1    0    0  501    0  0.00000000000E+00  0.00000000000E+00  0.26019042541E+04  0.26019042541E+04  0.50400001928E-02 0. -1.
       -1   -1    0    0    0  501  0.00000000000E+00  0.00000000000E+00 -0.13860096967E+04  0.13860096967E+04  0.50400001928E-02 0.  1.
    10030    2    1    2    0    0  0.00000000000E+00  0.00000000000E+00  0.12158945574E+04  0.39879139508E+04  0.37980334522E+04 0.  0.
        1    1    3    3  502    0 -0.68036471157E+03  0.99550712369E+03 -0.93248220158E+03  0.15242879093E+04  0.50400001928E-02 0.  1.
       -1    1    3    3    0  502  0.68036471157E+03 -0.99550712369E+03  0.21483767590E+04  0.24636260415E+04  0.50400001928E-02 0. -1.
</event>
<event>
 5   0  0.1327249E-08  0.3800904E+04  0.7818609E-02  0.8045961E-01
       -2   -1    0    0    0  501  0.00000000000E+00  0.00000000000E+00  0.17162719111E+04  0.17162719111E+04  0.25500000920E-02 0.  1.
        2   -1    0    0  501    0  0.00000000000E+00  0.00000000000E+00 -0.21043969071E+04  0.21043969071E+04  0.25500000920E-02 0. -1.
    10030    2    1    2    0    0  0.00000000000E+00  0.00000000000E+00 -0.38812499601E+03  0.38206688182E+04  0.38009037354E+04 0.  0.
        1    1    3    3  502    0 -0.26149656232E+03  0.52557297719E+03 -0.20109765970E+04  0.20949067473E+04  0.50400001928E-02 0. -1.
       -1    1    3    3    0  502  0.26149656232E+03 -0.52557297719E+03  0.16228516010E+04  0.17257620709E+04  0.50400001928E-02 0.  1.
</event>
<event>
 5   0  0.1261152E-08  0.3803183E+04  0.7818609E-02  0.8045472E-01
        2   -1    0    0  501    0  0.00000000000E+00  0.00000000000E+00  0.27789832704E+04  0.27789832704E+04  0.25500000920E-02 0. -1.
       -2   -1    0    0    0  501  0.00000000000E+00  0.00000000000E+00 -0.13012136517E+04  0.13012136517E+04  0.25500000920E-02 0.  1.
    10030    2    1    2    0    0  0.00000000000E+00  0.00000000000E+00  0.14777696187E+04  0.40801969222E+04  0.38031833873E+04 0.  0.
        2    1    3    3  502    0 -0.96946862086E+03 -0.14950939404E+04  0.14512323411E+04  0.22980971706E+04  0.25500000920E-02 0. -1.
       -2    1    3    3    0  502  0.96946862086E+03  0.14950939404E+04  0.26537277665E+02  0.17820997516E+04  0.25500000920E-02 0.  1.
</event>
<event>
 5   0  0.4071750E-09  0.3799680E+04  0.7818609E-02  0.8046224E-01
       -3   -1    0    0    0  501  0.00000000000E+00  0.00000000000E+00  0.15691080638E+04  0.15691080671E+04  0.10100000352E+00 0.  1.
        3   -1    0    0  501    0  0.00000000000E+00  0.00000000000E+00 -0.23002827482E+04  0.23002827504E+04  0.10100000352E+00 0. -1.
    10030    2    1    2    0    0  0.00000000000E+00  0.00000000000E+00 -0.73117468431E+03  0.38693908175E+04  0.37996801022E+04 0.  0.
        1    1    3    3  502    0  0.16778624652E+04 -0.71985496061E+03 -0.90056207222E+03  0.20357862517E+04  0.50400001928E-02 0. -1.
       -1    1    3    3    0  502 -0.16778624652E+04  0.71985496061E+03  0.16938738791E+03  0.18336045658E+04  0.50400001928E-02 0.  1.
</event>
<event>
 5   0  0.4071750E-09  0.3809051E+04  0.7818609E-02  0.8044215E-01
        1   -1    0    0  501    0  0.00000000000E+00  0.00000000000E+00  0.18719165409E+04  0.18719165409E+04  0.50400001928E-02 0. -1.
       -1   -1    0    0    0  501  0.00000000000E+00  0.00000000000E+00 -0.19377025029E+04  0.19377025029E+04  0.50400001928E-02 0.  1.
    10030    2    1    2    0    0  0.00000000000E+00  0.00000000000E+00 -0.65785961962E+02  0.38096190438E+04  0.38090509928E+04 0.  0.
        3    1    3    3  502    0 -0.14615555831E+04  0.55417492560E+02  0.11871256194E+04  0.18837417730E+04  0.10100000352E+00 0. -1.
       -3    1    3    3    0  502  0.14615555831E+04 -0.55417492560E+02 -0.12529115814E+04  0.19258772707E+04  0.10100000352E+00 0.  1.
</event>
<event>
 5   0  0.1305088E-08  0.3801662E+04  0.7818609E-02  0.8045798E-01
       -2   -1    0    0    0  501  0.00000000000E+00  0.00000000000E+00  0.17619323524E+04  0.17619323524E+04  0.25500000920E-02 0. -1.
        2   -1    0    0  501    0  0.00000000000E+00  0.00000000000E+00 -0.20506795172E+04  0.20506795172E+04  0.25500000920E-02 0.  1.
    10030    2    1    2    0    0  0.00000000000E+00  0.00000000000E+00 -0.28874716482E+03  0.38126118696E+04  0.38016620501E+04 0.  0.
        3    1    3    3  502    0  0.62064053409E+03 -0.17905089385E+04  0.45183209972E+01  0.18950296454E+04  0.10100000352E+00 0. -1.
       -3    1    3    3    0  502 -0.62064053409E+03  0.17905089385E+04 -0.29326548582E+03  0.19175822243E+04  0.10100000352E+00 0.  1.
</event>
<event>
 5   0  0.1293993E-08  0.3800010E+04  0.7818609E-02  0.8046153E-01
        2   -1    0    0  501    0  0.00000000000E+00  0.00000000000E+00  0.24820711349E+04  0.24820711349E+04  0.25500000920E-02 0.  1.
       -2   -1    0    0    0  501  0.00000000000E+00  0.00000000000E+00 -0.14544384633E+04  0.14544384633E+04  0.25500000920E-02 0. -1.
    10030    2    1    2    0    0  0.00000000000E+00  0.00000000000E+00  0.10276326716E+04  0.39365095982E+04  0.38000103828E+04 0.  0.
        5    1    3    3  502    0  0.44745838712E+02  0.71744557430E+03 -0.13081286383E+04  0.14926328974E+04  0.46999998093E+01 0. -1.
       -5    1    3    3    0  502 -0.44745838712E+02 -0.71744557430E+03  0.23357613099E+04  0.24438767008E+04  0.46999998093E+01 0.  1.
</event>
<event>
 5   0  0.4071750E-09  0.3800333E+04  0.7818609E-02  0.8046083E-01
       -3   -1    0    0    0  501  0.00000000000E+00  0.00000000000E+00  0.19303003850E+04  0.19303003877E+04  0.10100000352E+00 0.  1.
        3   -1    0    0  501    0  0.00000000000E+00  0.00000000000E+00 -0.18705027105E+04  0.18705027132E+04  0.10100000352E+00 0. -1.
    10030    2    1    2    0    0  0.00000000000E+00  0.00000000000E+00  0.59797674527E+02  0.38008031009E+04  0.38003326762E+04 0.  0.
        4    1    3    3  502    0 -0.25047415202E+03  0.14158859364E+04 -0.12124949321E+04  0.18808550872E+04  0.12699999809E+01 0. -1.
       -4    1    3    3    0  502  0.25047415202E+03 -0.14158859364E+04  0.12722926066E+04  0.19199480137E+04  0.12699999809E+01 0.  1.
</event>
<event>
 5   0  0.1327249E-08  0.3798983E+04  0.7818609E-02  0.8046373E-01
        2   -1    0    0  501    0  0.00000000000E+00  0.00000000000E+00  0.28537474188E+04  0.28537474188E+04  0.25500000920E-02 0. -1.
       -2   -1    0    0    0  501  0.00000000000E+00  0.00000000000E+00 -0.12643261385E+04  0.12643261385E+04  0.25500000920E-02 0.  1.
    10030    2    1    2    0    0  0.00000000000E+00  0.00000000000E+00  0.15894212803E+04  0.41180735573E+04  0.37989827345E+04 0.  0.
        1    1    3    3  502    0  0.39226929924E+03 -0.10007320312E+04 -0.90295220443E+03  0.14038028654E+04  0.50400001928E-02 0.  1.
       -1    1    3    3    0  502 -0.39226929924E+03  0.10007320312E+04  0.24923734847E+04  0.27142706919E+04  0.50400001928E-02 0. -1.
</event>
<event>
 5   0  0.4071750E-09  0.3801597E+04  0.7818609E-02  0.8045812E-01
       -1   -1    0    0    0  501  0.00000000000E+00  0.00000000000E+00  0.16825026108E+04  0.16825026108E+04  0.50400001928E-02 0. -1.
        1   -1    0    0  501    0  0.00000000000E+00  0.00000000000E+00 -0.21474168937E+04  0.21474168937E+04  0.50400001928E-02 0.  1.
    10030    2    1    2    0    0  0.00000000000E+00  0.00000000000E+00 -0.46491428284E+03  0.38299195045E+04  0.38015967856E+04 0.  0.
        1    1    3    3  502    0 -0.13415314844E+04 -0.11758427147E+04  0.42872631587E+03  0.18346986312E+04  0.50400001928E-02 0.  1.
       -1    1    3    3    0  502  0.13415314844E+04  0.11758427147E+04 -0.89364059872E+03  0.19952208733E+04  0.50400001928E-02 0. -1.
</event>
<event>
 5   0  0.1305088E-08  0.3800274E+04  0.7818609E-02  0.8046096E-01
       -2   -1    0    0    0  501  0.00000000000E+00  0.00000000000E+00  0.18537640809E+04  0.18537640809E+04  0.25500000920E-02 0.  1.
        2   -1    0    0  501    0  0.00000000000E+00  0.00000000000E+00 -0.19476700251E+04  0.19476700251E+04  0.25500000920E-02 0. -1.
    10030    2    1    2    0    0  0.00000000000E+00  0.00000000000E+00 -0.93905944241E+02  0.38014341060E+04  0.38002740607E+04 0.  0.
        3    1    3    3  502    0 -0.26670713848E+03  0.11603239075E+04 -0.15282954452E+04  0.19373103122E+04  0.10100000352E+00 0. -1.
       -3    1    3    3    0  502  0.26670713848E+03 -0.11603239075E+04  0.14343895009E+04  0.18641237938E+04  0.10100000352E+00 0.  1.
</event>
<event>
 5   0  0.1264013E-08  0.3779198E+04  0.7818609E-02  0.8050634E-01
        2   -1    0    0  501    0  0.00000000000E+00  0.00000000000E+00  0.23372128632E+04  0.23372128632E+04  0.25500000920E-02 0.  1.
       -2   -1    0    0    0  501  0.00000000000E+00  0.00000000000E+00 -0.15277104786E+04  0.15277104786E+04  0.25500000920E-02 0. -1.
    10030    2    1    2    0    0  0.00000000000E+00  0.00000000000E+00  0.80950238457E+03  0.38649233419E+04  0.37791981065E+04 0.  0.
        4    1    3    3  502    0  0.26297245152E+03  0.16362275662E+04 -0.52368982688E+03  0.17380010950E+04  0.12699999809E+01 0. -1.
       -4    1    3    3    0  502 -0.26297245152E+03 -0.16362275662E+04  0.13331922114E+04  0.21269222468E+04  0.12699999809E+01 0.  1.
</event>
<event>
 5   0  0.1261152E-08  0.3800082E+04  0.7818609E-02  0.8046137E-01
       -2   -1    0    0    0  501  0.00000000000E+00  0.00000000000E+00  0.15317581067E+04  0.15317581067E+04  0.25500000920E-02 0. -1.
        2   -1    0    0  501    0  0.00000000000E+00  0.00000000000E+00 -0.23568709495E+04  0.23568709495E+04  0.25500000920E-02 0.  1.
    10030    2    1    2    0    0  0.00000000000E+00  0.00000000000E+00 -0.82511284281E+03  0.38886290562E+04  0.38000822009E+04 0.  0.
        2    1    3    3  502    0  0.10731442648E+04 -0.15382968505E+04 -0.72320947797E+03  0.20102307734E+04  0.25500000920E-02 0.  1.
       -2    1    3    3    0  502 -0.10731442648E+04  0.15382968505E+04 -0.10190336484E+03  0.18783982829E+04  0.25500000920E-02 0. -1.
</event>
<event>
 5   0  0.1261152E-08  0.3798987E+04  0.7818609E-02  0.8046372E-01
       -2   -1    0    0    0  501  0.00000000000E+00  0.00000000000E+00  0.17300920139E+04  0.17300920139E+04  0.25500000920E-02 0.  1.
        2   -1    0    0  501    0  0.00000000000E+00  0.00000000000E+00 -0.20854819517E+04  0.20854819517E+04  0.25500000920E-02 0. -1.
    10030    2    1    2    0    0  0.00000000000E+00  0.00000000000E+00 -0.35538993781E+03  0.38155739655E+04  0.37989870595E+04 0.  0.
        2    1    3    3  502    0 -0.16460281024E+04  0.66539813488E+03 -0.85585595528E+03  0.19709522085E+04  0.25500000920E-02 0.  1.
       -2    1    3    3    0  502  0.16460281024E+04 -0.66539813488E+03  0.50046601747E+03  0.18446217570E+04  0.25500000920E-02 0. -1.
</event>
<event>
 5   0  0.1327249E-08  0.3803427E+04  0.7818609E-02  0.8045420E-01
        2   -1    0    0  501    0  0.00000000000E+00  0.00000000000E+00  0.22464128267E+04  0.22464128267E+04  0.25500000920E-02 0.  1.
       -2   -1    0    0    0  501  0.00000000000E+00  0.00000000000E+00 -0.16099061309E+04  0.16099061309E+04  0.25500000920E-02 0. -1.
    10030    2    1    2    0    0  0.00000000000E+00  0.00000000000E+00  0.63650669575E+03  0.38563189576E+04  0.38034267614E+04 0.  0.
        1    1    3    3  502    0  0.91943609980E+03  0.12601318412E+04  0.14211388231E+04  0.21101968044E+04  0.50400001928E-02 0.  1.
       -1    1    3    3    0  502 -0.91943609980E+03 -0.12601318412E+04 -0.78463212734E+03  0.17461221532E+04  0.50400001928E-02 0. -1.
</event>
<event>
 5   0  0.4071750E-09  0.3800057E+04  0.7818609E-02  0.8046143E-01
        3   -1    0    0  501    0  0.00000000000E+00  0.00000000000E+00  0.15470449871E+04  0.15470449904E+04  0.10100000352E+00 0. -1.
       -3   -1    0    0    0  501  0.00000000000E+00  0.00000000000E+00 -0.23335505996E+04  0.23335506018E+04  0.10100000352E+00 0.  1.
    10030    2    1    2    0    0  0.00000000000E+00  0.00000000000E+00 -0.78650561252E+03  0.38805955921E+04  0.38000567194E+04 0.  0.
        4    1    3    3  502    0 -0.11858831316E+04 -0.32012506944E+03  0.10870586187E+04  0.16402734270E+04  0.12699999809E+01 0. -1.
       -4    1    3    3    0  502  0.11858831316E+04  0.32012506944E+03 -0.18735642313E+04  0.22403221651E+04  0.12699999809E+01 0.  1.
</event>
<event>
 5   0  0.4071750E-09  0.3813092E+04  0.7818609E-02  0.8043351E-01
       -1   -1    0    0    0  501  0.00000000000E+00  0.00000000000E+00  0.20655652530E+04  0.20655652530E+04  0.50400001928E-02 0.  1.
        1   -1    0    0  501    0  0.00000000000E+00  0.00000000000E+00 -0.17597688833E+04  0.17597688833E+04  0.50400001928E-02 0. -1.
    10030    2    1    2    0    0  0.00000000000E+00  0.00000000000E+00  0.30579636975E+03  0.38253341364E+04  0.38130918996E+04 0.  0.
        1    1    3    3  502    0  0.18998781139E+04 -0.13287474817E+03  0.64724521387E+02  0.19056184849E+04  0.50400001928E-02 0.  1.
       -1    1    3    3    0  502 -0.18998781139E+04  0.13287474817E+03  0.24107184836E+03  0.19197156514E+04  0.50400001928E-02 0. -1.
</event>
<event>
 5   0  0.1327249E-08  0.3799786E+04  0.7818609E-02  0.8046201E-01
        2   -1    0    0  501    0  0.00000000000E+00  0.00000000000E+00  0.25782811334E+04  0.25782811334E+04  0.25500000920E-02 0.  1.
       -2   -1    0    0    0  501  0.00000000000E+00  0.00000000000E+00 -0.13999996259E+04  0.13999996259E+04  0.25500000920E-02 0. -1.
    10030    2    1    2    0    0  0.00000000000E+00  0.00000000000E+00  0.11782815074E+04  0.39782807593E+04  0.37997855846E+04 0.  0.
        1    1    3    3  502    0  0.13209822552E+04  0.73999320929E+03  0.17906597358E+04  0.23450045539E+04  0.50400001928E-02 0.  1.
       -1    1    3    3    0  502 -0.13209822552E+04 -0.73999320929E+03 -0.61237822838E+03  0.16332762054E+04  0.50400001928E-02 0. -1.
</event>
<event>
 5   0  0.4071750E-09  0.3800555E+04  0.7818609E-02  0.8046036E-01
       -1   -1    0    0    0  501  0.00000000000E+00  0.00000000000E+00  0.20615164746E+04  0.20615164746E+04  0.50400001928E-02 0. -1.
        1   -1    0    0  501    0  0.00000000000E+00  0.00000000000E+00 -0.17516499681E+04  0.17516499681E+04  0.50400001928E-02 0.  1.
    10030    2    1    2    0    0  0.00000000000E+00  0.00000000000E+00  0.30986650658E+03  0.38131664427E+04  0.38005553631E+04 0.  0.
        2    1    3    3  502    0  0.11164909029E+04  0.96908949542E+03 -0.10429164661E+04  0.18092432511E+04  0.25500000920E-02 0.  1.
       -2    1    3    3    0  502 -0.11164909029E+04 -0.96908949542E+03  0.13527829727E+04  0.20039231916E+04  0.25500000920E-02 0. -1.
</event>
<event>
 5   0  0.4071750E-09  0.3800415E+04  0.7818609E-02  0.8046066E-01
       -1   -1    0    0    0  501  0.00000000000E+00  0.00000000000E+00  0.12485197925E+04  0.12485197925E+04  0.50400001928E-02 0.  1.
        1   -1    0    0  501    0  0.00000000000E+00  0.00000000000E+00 -0.28920553179E+04  0.28920553179E+04  0.50400001928E-02 0. -1.
    10030    2    1    2    0    0  0.00000000000E+00  0.00000000000E+00 -0.16435355255E+04  0.41405751104E+04  0.38004148749E+04 0.  0.
        3    1    3    3  502    0 -0.11249226542E+04  0.97746661785E+03 -0.21062285835E+04  0.25801338769E+04  0.10100000352E+00 0. -1.
       -3    1    3    3    0  502  0.11249226542E+04 -0.97746661785E+03  0.46269305800E+03  0.15604412335E+04  0.10100000352E+00 0.  1.
</event>
<event>
 5   0  0.4071750E-09  0.3800416E+04  0.7818609E-02  0.8046066E-01
        1   -1    0    0  501    0  0.00000000000E+00  0.00000000000E+00  0.16097690009E+04  0.16097690009E+04  0.50400001928E-02 0. -1.
       -1   -1    0    0    0  501  0.00000000000E+00  0.00000000000E+00 -0.22430485212E+04  0.22430485212E+04  0.50400001928E-02 0.  1.
    10030    2    1    2    0    0  0.00000000000E+00  0.00000000000E+00 -0.63327952029E+03  0.38528175221E+04  0.38004157546E+04 0.  0.
        4    1    3    3  502    0 -0.15885147605E+04 -0.84004791673E+03 -0.94300081531E+03  0.20293624116E+04  0.12699999809E+01 0. -1.
       -4    1    3    3    0  502  0.15885147605E+04  0.84004791673E+03  0.30972129502E+03  0.18234551106E+04  0.12699999809E+01 0.  1.
</event>
<event>
 5   0  0.1327249E-08  0.3799789E+04  0.7818609E-02  0.8046200E-01
       -2   -1    0    0    0  501  0.00000000000E+00  0.00000000000E+00  0.16109688314E+04  0.16109688314E+04  0.25500000920E-02 0. -1.
        2   -1    0    0  501    0  0.00000000000E+00  0.00000000000E+00 -0.22406384098E+04  0.22406384098E+04  0.25500000920E-02 0.  1.
    10030    2    1    2    0    0  0.00000000000E+00  0.00000000000E+00 -0.62966957841E+03  0.38516072412E+04  0.37997887524E+04 0.  0.
        1    1    3    3  502    0  0.49231038698E+03 -0.16848306106E+04  0.42211148070E+03  0.18053259556E+04  0.50400001928E-02 0. -1.
       -1    1    3    3    0  502 -0.49231038698E+03  0.16848306106E+04 -0.10517810591E+04  0.20462812856E+04  0.50400001928E-02 0.  1.
</event>
<event>
 5   0  0.4071750E-09  0.3799367E+04  0.7818609E-02  0.8046291E-01
       -1   -1    0    0    0  501  0.00000000000E+00  0.00000000000E+00  0.27103928183E+04  0.27103928183E+04  0.50400001928E-02 0.  1.
        1   -1    0    0  501    0  0.00000000000E+00  0.00000000000E+00 -0.13314663862E+04  0.13314663862E+04  0.50400001928E-02 0. -1.
    10030    2    1    2    0    0  0.00000000000E+00  0.00000000000E+00  0.13789264322E+04  0.40418592045E+04  0.37993667530E+04 0.  0.
        2    1    3    3  502    0 -0.39183828371E+03 -0.71506821499E+03  0.25147631127E+04  0.26436515098E+04  0.25500000920E-02 0.  1.
       -2    1    3    3    0  502  0.39183828371E+03  0.71506821499E+03 -0.11358366805E+04  0.13982076947E+04  0.25500000920E-02 0. -1.
</event>
<event>
 5   0  0.4071750E-09  0.3803352E+04  0.7818609E-02  0.8045436E-01
       -1   -1    0    0    0  501  0.00000000000E+00  0.00000000000E+00  0.16445254901E+04  0.16445254901E+04  0.50400001928E-02 0. -1.
        1   -1    0    0  501    0  0.00000000000E+00  0.00000000000E+00 -0.21990368249E+04  0.21990368249E+04  0.50400001928E-02 0.  1.
    10030    2    1    2    0    0  0.00000000000E+00  0.00000000000E+00 -0.55451133484E+03  0.38435623150E+04  0.38033522646E+04 0.  0.
        5    1    3    3  502    0 -0.42503986356E+03  0.18519802049E+04 -0.19989269865E+03  0.19106199899E+04  0.46999998093E+01 0.  1.
       -5    1    3    3    0  502  0.42503986356E+03 -0.18519802049E+04 -0.35461863619E+03  0.19329423251E+04  0.46999998093E+01 0. -1.
</event>
<event>
 5   0  0.4071750E-09  0.3805002E+04  0.7818609E-02  0.8045082E-01
       -1   -1    0    0    0  501  0.00000000000E+00  0.00000000000E+00  0.28894978417E+04  0.28894978417E+04  0.50400001928E-02 0.  1.
        1   -1    0    0  501    0  0.00000000000E+00  0.00000000000E+00 -0.12526433443E+04  0.12526433443E+04  0.50400001928E-02 0. -1.
    10030    2    1    2    0    0  0.00000000000E+00  0.00000000000E+00  0.16368544975E+04  0.41421411860E+04  0.38050020971E+04 0.  0.
        5    1    3    3  502    0  0.14523649306E+04 -0.10491624508E+04  0.12190565267E+03  0.17958253863E+04  0.46999998093E+01 0. -1.
       -5    1    3    3    0  502 -0.14523649306E+04  0.10491624508E+04  0.15149488448E+04  0.23463157997E+04  0.46999998093E+01 0.  1.
</event>
<event>
 5   0  0.1327249E-08  0.3828801E+04  0.7818609E-02  0.8040002E-01
       -2   -1    0    0    0  501  0.00000000000E+00  0.00000000000E+00  0.16692676571E+04  0.16692676571E+04  0.25500000920E-02 0.  1.
        2   -1    0    0  501    0  0.00000000000E+00  0.00000000000E+00 -0.21955307576E+04  0.21955307576E+04  0.25500000920E-02 0. -1.
    10030    2    1    2    0    0  0.00000000000E+00  0.00000000000E+00 -0.52626310050E+03  0.38647984147E+04  0.38288005870E+04 0.  0.
        1    1    3    3  502    0 -0.13335119025E+04  0.37627684982E+03 -0.15965702062E+04  0.21139713066E+04  0.50400001928E-02 0. -1.
       -1    1    3    3    0  502  0.13335119025E+04 -0.37627684982E+03  0.10703071057E+04  0.17508271081E+04  0.50400001928E-02 0.  1.
</event>
<event>
 5   0  0.4071750E-09  0.3800823E+04  0.7818609E-02  0.8045978E-01
       -1   -1    0    0    0  501  0.00000000000E+00  0.00000000000E+00  0.19507865884E+04  0.19507865884E+04  0.50400001928E-02 0.  1.
        1   -1    0    0  501    0  0.00000000000E+00  0.00000000000E+00 -0.18513376346E+04  0.18513376346E+04  0.50400001928E-02 0. -1.
    10030    2    1    2    0    0  0.00000000000E+00  0.00000000000E+00  0.99448953820E+02  0.38021242230E+04  0.38008233993E+04 0.  0.
        5    1    3    3  502    0 -0.63238838664E+03  0.70242135823E+02  0.18410616458E+04  0.19479166057E+04  0.46999998093E+01 0.  1.
       -5    1    3    3    0  502  0.63238838664E+03 -0.70242135823E+02 -0.17416126920E+04  0.18542076173E+04  0.46999998093E+01 0. -1.
</event>
<event>
 5   0  0.1261152E-08  0.3798900E+04  0.7818609E-02  0.8046391E-01
        2   -1    0    0  501    0  0.00000000000E+00  0.00000000000E+00  0.23405144104E+04  0.23405144104E+04  0.25500000920E-02 0.  1.
       -2   -1    0    0    0  501  0.00000000000E+00  0.00000000000E+00 -0.15415029700E+04  0.15415029700E+04  0.25500000920E-02 0. -1.
    10030    2    1    2    0    0  0.00000000000E+00  0.00000000000E+00  0.79901144035E+03  0.38820173804E+04  0.37988997960E+04 0.  0.
        2    1    3    3  502    0 -0.42645898040E+03 -0.13284631826E+04  0.17165921887E+04  0.22120963885E+04  0.25500000920E-02 0.  1.
       -2    1    3    3    0  502  0.42645898040E+03  0.13284631826E+04 -0.91758074835E+03  0.16699209919E+04  0.25500000920E-02 0. -1.
</event>
<event>
 5   0  0.4071750E-09  0.3793051E+04  0.7818609E-02  0.8047648E-01
        1   -1    0    0  501    0  0.00000000000E+00  0.00000000000E+00  0.19712751863E+04  0.19712751863E+04  0.50400001928E-02 0. -1.
       -1   -1    0    0    0  501  0.00000000000E+00  0.00000000000E+00 -0.18246103766E+04  0.18246103766E+04  0.50400001928E-02 0.  1.
    10030    2    1    2    0    0  0.00000000000E+00  0.00000000000E+00  0.14666480966E+03  0.37958855629E+04  0.37930510991E+04 0.  0.
        2    1    3    3  502    0  0.16041735442E+04 -0.34205354640E+03 -0.87944826082E+03  0.18611293969E+04  0.25500000920E-02 0.  1.
       -2    1    3    3    0  502 -0.16041735442E+04  0.34205354640E+03  0.10261130705E+04  0.19347561660E+04  0.25500000920E-02 0. -1.
</event>
<event>
 5   0  0.1293993E-08  0.3800290E+04  0.7818609E-02  0.8046093E-01
        2   -1    0    0  501    0  0.00000000000E+00  0.00000000000E+00  0.24262396669E+04  0.24262396669E+04  0.25500000920E-02 0.  1.
       -2   -1    0    0    0  501  0.00000000000E+00  0.00000000000E+00 -0.14881262707E+04  0.14881262707E+04  0.25500000920E-02 0. -1.
    10030    2    1    2    0    0  0.00000000000E+00  0.00000000000E+00  0.93811339614E+03  0.39143659376E+04  0.38002899823E+04 0.  0.
        5    1    3    3  502    0 -0.16216451099E+04  0.70834977096E+03  0.11819574152E+04  0.21280361091E+04  0.46999998093E+01 0.  1.
       -5    1    3    3    0  502  0.16216451099E+04 -0.70834977096E+03 -0.24384401905E+03  0.17863298285E+04  0.46999998093E+01 0. -1.
</event>
<event>
 5   0  0.1264013E-08  0.3803269E+04  0.7818609E-02  0.8045454E-01
        2   -1    0    0  501    0  0.00000000000E+00  0.00000000000E+00  0.24417472950E+04  0.24417472950E+04  0.25500000920E-02 0.  1.
       -2   -1    0    0    0  501  0.00000000000E+00  0.00000000000E+00 -0.14809944716E+04  0.14809944716E+04  0.25500000920E-02 0. -1.
    10030    2    1    2    0    0  0.00000000000E+00  0.00000000000E+00  0.96075282336E+03  0.39227417666E+04  0.38032692489E+04 0.  0.
        4    1    3    3  502    0 -0.12950672298E+04  0.79485732644E+03 -0.69887448237E+03  0.16725502845E+04  0.12699999809E+01 0. -1.
       -4    1    3    3    0  502  0.12950672298E+04 -0.79485732644E+03  0.16596273057E+04  0.22501914821E+04  0.12699999809E+01 0.  1.
</event>
<event>
 5   0  0.1264013E-08  0.3799411E+04  0.7818609E-02  0.8046281E-01
        2   -1    0    0  501    0  0.00000000000E+00  0.00000000000E+00  0.13473855237E+04  0.13473855237E+04  0.25500000920E-02 0.  1.
       -2   -1    0    0    0  501  0.00000000000E+00  0.00000000000E+00 -0.26784317992E+04  0.26784317992E+04  0.25500000920E-02 0. -1.
    10030    2    1    2    0    0  0.00000000000E+00  0.00000000000E+00 -0.13310462754E+04  0.40258173229E+04  0.37994106030E+04 0.  0.
        4    1    3    3  502    0  0.17555590612E+04 -0.31288356277E+03  0.28483920722E+02  0.17834507809E+04  0.12699999809E+01 0. -1.
       -4    1    3    3    0  502 -0.17555590612E+04  0.31288356277E+03 -0.13595301962E+04  0.22423665420E+04  0.12699999809E+01 0.  1.
</event>
<event>
 5   0  0.4071750E-09  0.3814693E+04  0.7818609E-02  0.8043009E-01
       -3   -1    0    0    0  501  0.00000000000E+00  0.00000000000E+00  0.18003471214E+04  0.18003471242E+04  0.10100000352E+00 0. -1.
        3   -1    0    0  501    0  0.00000000000E+00  0.00000000000E+00 -0.20207055073E+04  0.20207055098E+04  0.10100000352E+00 0.  1.
    10030    2    1    2    0    0  0.00000000000E+00  0.00000000000E+00 -0.22035838593E+03  0.38210526340E+04  0.38146933577E+04 0.  0.
        1    1    3    3  502    0 -0.14804708074E+04  0.21290443565E+03  0.10753686557E+04  0.18421563061E+04  0.50400001928E-02 0. -1.
       -1    1    3    3    0  502  0.14804708074E+04 -0.21290443565E+03 -0.12957270416E+04  0.19788963279E+04  0.50400001928E-02 0.  1.
</event>
<event>
 5   0  0.4071750E-09  0.3795218E+04  0.7818609E-02  0.8047182E-01
        1   -1    0    0  501    0  0.00000000000E+00  0.00000000000E+00  0.13870681358E+04  0.13870681358E+04  0.50400001928E-02 0.  1.
       -1   -1    0    0    0  501  0.00000000000E+00  0.00000000000E+00 -0.25960654157E+04  0.25960654157E+04  0.50400001928E-02 0. -1.
    10030    2    1    2    0    0  0.00000000000E+00  0.00000000000E+00 -0.12089972800E+04  0.39831335515E+04  0.37952178417E+04 0.  0.
        5    1    3    3  502    0  0.83036371554E+03  0.75502900618E+03  0.10014031948E+04  0.15041287009E+04  0.46999998093E+01 0.  1.
       -5    1    3    3    0  502 -0.83036371554E+03 -0.75502900618E+03 -0.22104004748E+04  0.24790048506E+04  0.46999998093E+01 0. -1.
</event>
<event>
 5   0  0.1264013E-08  0.3798792E+04  0.7818609E-02  0.8046414E-01
        2   -1    0    0  501    0  0.00000000000E+00  0.00000000000E+00  0.25998804820E+04  0.25998804820E+04  0.25500000920E-02 0. -1.
       -2   -1    0    0    0  501  0.00000000000E+00  0.00000000000E+00 -0.13876429374E+04  0.13876429374E+04  0.25500000920E-02 0.  1.
    10030    2    1    2    0    0  0.00000000000E+00  0.00000000000E+00  0.12122375446E+04  0.39875234194E+04  0.37987923286E+04 0.  0.
        4    1    3    3  502    0 -0.48545883306E+03 -0.94012630859E+03  0.22618888312E+04  0.24971284413E+04  0.12699999809E+01 0. -1.
       -4    1    3    3    0  502  0.48545883306E+03  0.94012630859E+03 -0.10496512865E+04  0.14903949782E+04  0.12699999809E+01 0.  1.
</event>
<event>
 5   0  0.1293993E-08  0.3797231E+04  0.7818609E-02  0.8046749E-01
       -2   -1    0    0    0  501  0.00000000000E+00  0.00000000000E+00  0.28641652008E+04  0.28641652008E+04  0.25500000920E-02 0.  1.
        2   -1    0    0  501    0  0.00000000000E+00  0.00000000000E+00 -0.12585658487E+04  0.12585658487E+04  0.25500000920E-02 0. -1.
    10030    2    1    2    0    0  0.00000000000E+00  0.00000000000E+00  0.16055993521E+04  0.41227310495E+04  0.37972308367E+04 0.  0.
        5    1    3    3  502    0 -0.83175798893E+03 -0.16973842859E+04  0.60923776806E+03  0.19859827578E+04  0.46999998093E+01 0. -1.
       -5    1    3    3    0  502  0.83175798893E+03  0.16973842859E+04  0.99636158400E+03  0.21367482917E+04  0.46999998093E+01 0.  1.
</event>
<event>
 5   0  0.4071750E-09  0.3800811E+04  0.7818609E-02  0.8045981E-01
        1   -1    0    0  501    0  0.00000000000E+00  0.00000000000E+00  0.17538337553E+04  0.17538337553E+04  0.50400001928E-02 0.  1.
       -1   -1    0    0    0  501  0.00000000000E+00  0.00000000000E+00 -0.20592265399E+04  0.20592265399E+04  0.50400001928E-02 0. -1.
    10030    2    1    2    0    0  0.00000000000E+00  0.00000000000E+00 -0.30539278459E+03  0.38130602952E+04  0.38008109743E+04 0.  0.
        5    1    3    3  502    0  0.18344159895E+03  0.12073640826E+04  0.13080663359E+04  0.17895358274E+04  0.46999998093E+01 0.  1.
       -5    1    3    3    0  502 -0.18344159895E+03 -0.12073640826E+04 -0.16134591205E+04  0.20235244678E+04  0.46999998093E+01 0. -1.
</event>
<event>
 5   0  0.1264013E-08  0.3799713E+04  0.7818609E-02  0.8046216E-01
       -2   -1    0    0    0  501  0.00000000000E+00  0.00000000000E+00  0.15341642553E+04  0.15341642553E+04  0.25500000920E-02 0. -1.
        2   -1    0    0  501    0  0.00000000000E+00  0.00000000000E+00 -0.23527178329E+04  0.23527178329E+04  0.25500000920E-02 0.  1.
    10030    2    1    2    0    0  0.00000000000E+00  0.00000000000E+00 -0.81855357759E+03  0.38868820882E+04  0.37997134640E+04 0.  0.
        4    1    3    3  502    0 -0.39855567532E+03 -0.18558964108E+04 -0.32836821249E+03  0.19264021932E+04  0.12699999809E+01 0.  1.
       -4    1    3    3    0  502  0.39855567532E+03  0.18558964108E+04 -0.49018536510E+03  0.19604798951E+04  0.12699999809E+01 0. -1.
</event>
<event>
 5   0  0.1327249E-08  0.3800865E+04  0.7818609E-02  0.8045969E-01
       -2   -1    0    0    0  501  0.00000000000E+00  0.00000000000E+00  0.11842723718E+04  0.11842723718E+04  0.25500000920E-02 0.  1.
        2   -1    0    0  501    0  0.00000000000E+00  0.00000000000E+00 -0.30496728053E+04  0.30496728053E+04  0.25500000920E-02 0. -1.
    10030    2    1    2    0    0  0.00000000000E+00  0.00000000000E+00 -0.18654004335E+04  0.42339451772E+04  0.38008647682E+04 0.  0.
        1    1    3    3  502    0 -0.17895538341E+04 -0.18383141457E+03 -0.25023754717E+03  0.18162917563E+04  0.50400001928E-02 0.  1.
       -1    1    3    3    0  502  0.17895538341E+04  0.18383141457E+03 -0.16151628863E+04  0.24176534209E+04  0.50400001928E-02 0. -1.
</event>
<event>
 5   0  0.4071750E-09  0.3800474E+04  0.7818609E-02  0.8046053E-01
        1   -1    0    0  501    0  0.00000000000E+00  0.00000000000E+00  0.26000699182E+04  0.26000699182E+04  0.50400001928E-02 0.  1.
       -1   -1    0    0    0  501  0.00000000000E+00  0.00000000000E+00 -0.13887708063E+04  0.13887708063E+04  0.50400001928E-02 0. -1.
    10030    2    1    2    0    0  0.00000000000E+00  0.00000000000E+00  0.12112991120E+04  0.39888407245E+04  0.38004742845E+04 0.  0.
        3    1    3    3  502    0  0.60050640555E+03  0.16205592723E+04  0.14347923649E+04  0.22462077906E+04  0.10100000352E+00 0.  1.
       -3    1    3    3    0  502 -0.60050640555E+03 -0.16205592723E+04 -0.22349325291E+03  0.17426329339E+04  0.10100000352E+00 0. -1.
</event>
<event>
 5   0  0.1305088E-08  0.3802988E+04  0.7818609E-02  0.8045514E-01
       -2   -1    0    0    0  501  0.00000000000E+00  0.00000000000E+00  0.19875356102E+04  0.19875356102E+04  0.25500000920E-02 0. -1.
        2   -1    0    0  501    0  0.00000000000E+00  0.00000000000E+00 -0.18191770209E+04  0.18191770209E+04  0.25500000920E-02 0.  1.
    10030    2    1    2    0    0  0.00000000000E+00  0.00000000000E+00  0.16835858922E+03  0.38067126311E+04  0.38029878308E+04 0.  0.
        3    1    3    3  502    0 -0.72679945828E+03  0.15867091136E+04  0.83976684417E+03  0.19367735094E+04  0.10100000352E+00 0. -1.
       -3    1    3    3    0  502  0.72679945828E+03 -0.15867091136E+04 -0.67140825496E+03  0.18699391217E+04  0.10100000352E+00 0.  1.
</event>
<event>
 5   0  0.4071750E-09  0.3798529E+04  0.7818609E-02  0.8046471E-01
       -1   -1    0    0    0  501  0.00000000000E+00  0.00000000000E+00  0.22861783014E+04  0.22861783014E+04  0.50400001928E-02 0. -1.
        1   -1    0    0  501    0  0.00000000000E+00  0.00000000000E+00 -0.15778319722E+04  0.15778319722E+04  0.50400001928E-02 0.  1.
    10030    2    1    2    0    0  0.00000000000E+00  0.00000000000E+00  0.70834632919E+03  0.38640102736E+04  0.37985287773E+04 0.  0.
        3    1    3    3  502    0  0.11664459253E+04  0.14960736617E+04  0.44725305802E+03  0.19490684457E+04  0.10100000352E+00 0.  1.
       -3    1    3    3    0  502 -0.11664459253E+04 -0.14960736617E+04  0.26109327118E+03  0.19149418279E+04  0.10100000352E+00 0. -1.
</event>
<event>
 5   0  0.4071750E-09  0.3798951E+04  0.7818609E-02  0.8046380E-01
       -1   -1    0    0    0  501  0.00000000000E+00  0.00000000000E+00  0.15154223515E+04  0.15154223515E+04  0.50400001928E-02 0. -1.
        1   -1    0    0  501    0  0.00000000000E+00  0.00000000000E+00 -0.23808597370E+04  0.23808597370E+04  0.50400001928E-02 0.  1.
    10030    2    1    2    0    0  0.00000000000E+00  0.00000000000E+00 -0.86543738553E+03  0.38962820885E+04  0.37989514665E+04 0.  0.
        5    1    3    3  502    0 -0.25208404100E+03  0.72369157511E+03  0.13498290534E+04  0.15522037312E+04  0.46999998093E+01 0. -1.
       -5    1    3    3    0  502  0.25208404100E+03 -0.72369157511E+03 -0.22152664390E+04  0.23440783573E+04  0.46999998093E+01 0.  1.
</event>
<event>
 5   0  0.4071750E-09  0.3800124E+04  0.7818609E-02  0.8046128E-01
        1   -1    0    0  501    0  0.00000000000E+00  0.00000000000E+00  0.10717938732E+04  0.10717938732E+04  0.50400001928E-02 0.  1.
       -1   -1    0    0    0  501  0.00000000000E+00  0.00000000000E+00 -0.33684040341E+04  0.33684040341E+04  0.50400001928E-02 0. -1.
    10030    2    1    2    0    0  0.00000000000E+00  0.00000000000E+00 -0.22966101609E+04  0.44401979074E+04  0.38001235803E+04 0.  0.
        1    1    3    3  502    0  0.15153544970E+04  0.46295755061E+03 -0.23735506215E+04  0.28538345254E+04  0.50400001928E-02 0. -1.
       -1    1    3    3    0  502 -0.15153544970E+04 -0.46295755061E+03  0.76940460611E+02  0.15863633820E+04  0.50400001928E-02 0.  1.
</event>
<event>
 5   0  0.4071750E-09  0.3796307E+04  0.7818609E-02  0.8046948E-01
        1   -1    0    0  501    0  0.00000000000E+00  0.00000000000E+00  0.23232918193E+04  0.23232918193E+04  0.50400001928E-02 0. -1.
       -1   -1    0    0    0  501  0.00000000000E+00  0.00000000000E+00 -0.15508111738E+04  0.15508111738E+04  0.50400001928E-02 0.  1.
    10030    2    1    2    0    0  0.00000000000E+00  0.00000000000E+00  0.77248064549E+03  0.38741029931E+04  0.37963071074E+04 0.  0.
        1    1    3    3  502    0 -0.79295088640E+03  0.17217603006E+04  0.28543718832E+03  0.19169517546E+04  0.50400001928E-02 0.  1.
       -1    1    3    3    0  502  0.79295088640E+03 -0.17217603006E+04  0.48704345717E+03  0.19571512385E+04  0.50400001928E-02 0. -1.
</event>
<event>
 5   0  0.1305088E-08  0.3799436E+04  0.7818609E-02  0.8046276E-01
       -2   -1    0    0    0  501  0.00000000000E+00  0.00000000000E+00  0.16091211985E+04  0.16091211985E+04  0.25500000920E-02 0.  1.
        2   -1    0    0  501    0  0.00000000000E+00  0.00000000000E+00 -0.22427948471E+04  0.22427948471E+04  0.25500000920E-02 0. -1.
    10030    2    1    2    0    0  0.00000000000E+00  0.00000000000E+00 -0.63367364861E+03  0.38519160457E+04  0.37994361331E+04 0.  0.
        3    1    3    3  502    0  0.55451808147E+03 -0.18169733593E+04 -0.32373008817E+03  0.19270920246E+04  0.10100000352E+00 0.  1.
       -3    1    3    3    0  502 -0.55451808147E+03  0.18169733593E+04 -0.30994356044E+03  0.19248240210E+04  0.10100000352E+00 0. -1.
</event>
<event>
 5   0  0.4071750E-09  0.3798997E+04  0.7818609E-02  0.8046370E-01
       -1   -1    0    0    0  501  0.00000000000E+00  0.00000000000E+00  0.16351064868E+04  0.16351064868E+04  0.50400001928E-02 0. -1.
        1   -1    0    0  501    0  0.00000000000E+00  0.00000000000E+00 -0.22066415093E+04  0.22066415093E+04  0.50400001928E-02 0.  1.
    10030    2    1    2    0    0  0.00000000000E+00  0.00000000000E+00 -0.57153502246E+03  0.38417479961E+04  0.37989966285E+04 0.  0.
        1    1    3    3  502    0 -0.11617980646E+04 -0.14634325860E+04  0.59667167070E+02  0.18694838452E+04  0.50400001928E-02 0. -1.
       -1    1    3    3    0  502  0.11617980646E+04  0.14634325860E+04 -0.63120218953E+03  0.19722641509E+04  0.50400001928E-02 0.  1.
</event>
<event>
 5   0  0.4071750E-09  0.3800038E+04  0.7818609E-02  0.8046147E-01
       -1   -1    0    0    0  501  0.00000000000E+00  0.00000000000E+00  0.25101515582E+04  0.25101515582E+04  0.50400001928E-02 0. -1.
        1   -1    0    0  501    0  0.00000000000E+00  0.00000000000E+00 -0.14381889540E+04  0.14381889540E+04  0.50400001928E-02 0.  1.
    10030    2    1    2    0    0  0.00000000000E+00  0.00000000000E+00  0.10719626042E+04  0.39483405122E+04  0.38000380229E+04 0.  0.
        2    1    3    3  502    0 -0.11160016483E+04  0.30586843885E+03 -0.10298345341E+04  0.15490559540E+04  0.25500000920E-02 0.  1.
       -2    1    3    3    0  502  0.11160016483E+04 -0.30586843885E+03  0.21017971382E+04  0.23992845582E+04  0.25500000920E-02 0. -1.
</event>
<event>
 5   0  0.4071750E-09  0.3802055E+04  0.7818609E-02  0.8045714E-01
       -1   -1    0    0    0  501  0.00000000000E+00  0.00000000000E+00  0.18835955123E+04  0.18835955123E+04  0.50400001928E-02 0.  1.
        1   -1    0    0  501    0  0.00000000000E+00  0.00000000000E+00 -0.19186205762E+04  0.19186205762E+04  0.50400001928E-02 0. -1.
    10030    2    1    2    0    0  0.00000000000E+00  0.00000000000E+00 -0.35025063891E+02  0.38022160885E+04  0.38020547640E+04 0.  0.
        5    1    3    3  502    0  0.15325533765E+04 -0.10301288085E+04  0.43416779229E+03  0.18969472781E+04  0.46999998093E+01 0.  1.
       -5    1    3    3    0  502 -0.15325533765E+04  0.10301288085E+04 -0.46919285618E+03  0.19052688105E+04  0.46999998093E+01 0. -1.
</event>
<event>
 5   0  0.1264013E-08  0.3800223E+04  0.7818609E-02  0.8046107E-01
        2   -1    0    0  501    0  0.00000000000E+00  0.00000000000E+00  0.24321799374E+04  0.24321799374E+04  0.25500000920E-02 0. -1.
       -2   -1    0    0    0  501  0.00000000000E+00  0.00000000000E+00 -0.14844390981E+04  0.14844390981E+04  0.25500000920E-02 0.  1.
    10030    2    1    2    0    0  0.00000000000E+00  0.00000000000E+00  0.94774083928E+03  0.39166190354E+04  0.38002226211E+04 0.  0.
        4    1    3    3  502    0  0.17834718140E+04  0.45988567626E+03 -0.75058877190E+01  0.18418264027E+04  0.12699999809E+01 0.  1.
       -4    1    3    3    0  502 -0.17834718140E+04 -0.45988567626E+03  0.95524672700E+03  0.20747926327E+04  0.12699999809E+01 0. -1.
</event>
<event>
 5   0  0.1305088E-08  0.3800815E+04  0.7818609E-02  0.8045980E-01
       -2   -1    0    0    0  501  0.00000000000E+00  0.00000000000E+00  0.16379459316E+04  0.16379459316E+04  0.25500000920E-02 0. -1.
        2   -1    0    0  501    0  0.00000000000E+00  0.00000000000E+00 -0.22049258919E+04  0.22049258919E+04  0.25500000920E-02 0.  1.
    10030    2    1    2    0    0  0.00000000000E+00  0.00000000000E+00 -0.56697996031E+03  0.38428718234E+04  0.38008153830E+04 0.  0.
        3    1    3    3  502    0 -0.91811229528E+03  0.95870388320E+03 -0.16585036109E+04  0.21243063715E+04  0.10100000352E+00 0.  1.
       -3    1    3    3    0  502  0.91811229528E+03 -0.95870388320E+03  0.10915236506E+04  0.17185654519E+04  0.10100000352E+00 0. -1.
</event>
<event>
 5   0  0.4071750E-09  0.3800348E+04  0.7818609E-02  0.8046080E-01
        1   -1    0    0  501    0  0.00000000000E+00  0.00000000000E+00  0.23499520124E+04  0.23499520124E+04  0.50400001928E-02 0. -1.
       -1   -1    0    0    0  501  0.00000000000E+00  0.00000000000E+00 -0.15364831146E+04  0.15364831146E+04  0.50400001928E-02 0.  1.
    10030    2    1    2    0    0  0.00000000000E+00  0.00000000000E+00  0.81346889781E+03  0.38864351270E+04  0.38003481879E+04 0.  0.
        1    1    3    3  502    0 -0.11622536897E+04  0.24544742482E+03 -0.11099605748E+04  0.16257584554E+04  0.50400001928E-02 0.  1.
       -1    1    3    3    0  502  0.11622536897E+04 -0.24544742482E+03  0.19234294727E+04  0.22606766717E+04  0.50400001928E-02 0. -1.
</event>
<event>
 5   0  0.4071750E-09  0.3799751E+04  0.7818609E-02  0.8046208E-01
        1   -1    0    0  501    0  0.00000000000E+00  0.00000000000E+00  0.11273659700E+04  0.11273659700E+04  0.50400001928E-02 0.  1.
       -1   -1    0    0    0  501  0.00000000000E+00  0.00000000000E+00 -0.32017343850E+04  0.32017343850E+04  0.50400001928E-02 0. -1.
    10030    2    1    2    0    0  0.00000000000E+00  0.00000000000E+00 -0.20743684151E+04  0.43291003550E+04  0.37997507237E+04 0.  0.
        2    1    3    3  502    0 -0.25619347112E+03  0.10984405525E+04 -0.27789975065E+04  0.29991721996E+04  0.25500000920E-02 0. -1.
       -2    1    3    3    0  502  0.25619347112E+03 -0.10984405525E+04  0.70462909140E+03  0.13299281554E+04  0.25500000920E-02 0.  1.
</event>
<event>
 5   0  0.4071750E-09  0.3800949E+04  0.7818609E-02  0.8045951E-01
        1   -1    0    0  501    0  0.00000000000E+00  0.00000000000E+00  0.17744865779E+04  0.17744865779E+04  0.50400001928E-02 0. -1.
       -1   -1    0    0    0  501  0.00000000000E+00  0.00000000000E+00 -0.20354074523E+04  0.20354074523E+04  0.50400001928E-02 0.  1.
    10030    2    1    2    0    0  0.00000000000E+00  0.00000000000E+00 -0.26092087435E+03  0.38098940302E+04  0.38009489366E+04 0.  0.
        4    1    3    3  502    0 -0.35747285660E+03 -0.17528140675E+04  0.51265498812E+03  0.18609032077E+04  0.12699999809E+01 0. -1.
       -4    1    3    3    0  502  0.35747285660E+03  0.17528140675E+04 -0.77357586247E+03  0.19489908226E+04  0.12699999809E+01 0.  1.
</event>
<event>
 5   0  0.4071750E-09  0.3799245E+04  0.7818609E-02  0.8046317E-01
       -1   -1    0    0    0  501  0.00000000000E+00  0.00000000000E+00  0.24120165962E+04  0.24120165962E+04  0.50400001928E-02 0. -1.
        1   -1    0    0  501    0  0.00000000000E+00  0.00000000000E+00 -0.14960781210E+04  0.14960781210E+04  0.50400001928E-02 0.  1.
    10030    2    1    2    0    0  0.00000000000E+00  0.00000000000E+00  0.91593847520E+03  0.39080947172E+04  0.37992447971E+04 0.  0.
        3    1    3    3  502    0  0.13471863890E+04 -0.68640377494E+03 -0.72498049479E+03  0.16767999395E+04  0.10100000352E+00 0.  1.
       -3    1    3    3    0  502 -0.13471863890E+04  0.68640377494E+03  0.16409189700E+04  0.22312947777E+04  0.10100000352E+00 0. -1.
</event>
<event>
 5   0  0.4071750E-09  0.3801493E+04  0.7818609E-02  0.8045835E-01
        1   -1    0    0  501    0  0.00000000000E+00  0.00000000000E+00  0.23042678637E+04  0.23042678637E+04  0.50400001928E-02 0. -1.
       -1   -1    0    0    0  501  0.00000000000E+00  0.00000000000E+00 -0.15678890586E+04  0.15678890586E+04  0.50400001928E-02 0.  1.
    10030    2    1    2    0    0  0.00000000000E+00  0.00000000000E+00  0.73637880515E+03  0.38721569223E+04  0.38014925341E+04 0.  0.
        1    1    3    3  502    0 -0.11906742913E+04 -0.58368039716E+03  0.17552842933E+04  0.21998661378E+04  0.50400001928E-02 0. -1.
       -1    1    3    3    0  502  0.11906742913E+04  0.58368039716E+03 -0.10189054882E+04  0.16722907845E+04  0.50400001928E-02 0.  1.
</event>
<event>
 5   0  0.1264013E-08  0.3801897E+04  0.7818609E-02  0.8045748E-01
       -2   -1    0    0    0  501  0.00000000000E+00  0.00000000000E+00  0.11604322928E+04  0.11604322928E+04  0.25500000920E-02 0.  1.
        2   -1    0    0  501    0  0.00000000000E+00  0.00000000000E+00 -0.31140167787E+04  0.31140167787E+04  0.25500000920E-02 0. -1.
    10030    2    1    2    0    0  0.00000000000E+00  0.00000000000E+00 -0.19535844860E+04  0.42744490715E+04  0.38018972265E+04 0.  0.
        4    1    3    3  502    0 -0.61451980967E+03 -0.11763223397E+04 -0.25069205086E+04  0.28365508796E+04  0.12699999809E+01 0. -1.
       -4    1    3    3    0  502  0.61451980967E+03  0.11763223397E+04  0.55333602264E+03  0.14378981919E+04  0.12699999809E+01 0.  1.
</event>
<event>
 5   0  0.1264013E-08  0.3796703E+04  0.7818609E-02  0.8046863E-01
       -2   -1    0    0    0  501  0.00000000000E+00  0.00000000000E+00  0.14087858223E+04  0.14087858223E+04  0.25500000920E-02 0. -1.
        2   -1    0    0  501    0  0.00000000000E+00  0.00000000000E+00 -0.25580460499E+04  0.25580460499E+04  0.25500000920E-02 0.  1.
    10030    2    1    2    0    0  0.00000000000E+00  0.00000000000E+00 -0.11492602276E+04  0.39668318722E+04  0.37967033110E+04 0.  0.
        4    1    3    3  502    0 -0.10525486211E+04 -0.15533918359E+04 -0.87536942622E+03  0.20705453486E+04  0.12699999809E+01 0. -1.
       -4    1    3    3    0  502  0.10525486211E+04  0.15533918359E+04 -0.27389080138E+03  0.18962865236E+04  0.12699999809E+01 0.  1.
</event>
<event>
 5   0  0.4071750E-09  0.3807196E+04  0.7818609E-02  0.8044613E-01
       -1   -1    0    0    0  501  0.00000000000E+00  0.00000000000E+00  0.12887293878E+04  0.12887293878E+04  0.50400001928E-02 0.  1.
        1   -1    0    0  501    0  0.00000000000E+00  0.00000000000E+00 -0.28118272701E+04  0.28118272701E+04  0.50400001928E-02 0. -1.
    10030    2    1    2    0    0  0.00000000000E+00  0.00000000000E+00 -0.15230978823E+04  0.41005566579E+04  0.38071955224E+04 0.  0.
        1    1    3    3  502    0 -0.29143168053E+03  0.73911907809E+03  0.11016166288E+04  0.13582299632E+04  0.50400001928E-02 0.  1.
       -1    1    3    3    0  502  0.29143168053E+03 -0.73911907809E+03 -0.26247145111E+04  0.27423266948E+04  0.50400001928E-02 0. -1.
</event>
<event>
 5   0  0.4071750E-09  0.3800612E+04  0.7818609E-02  0.8046023E-01
        1   -1    0    0  501    0  0.00000000000E+00  0.00000000000E+00  0.23572691304E+04  0.23572691304E+04  0.50400001928E-02 0.  1.
       -1   -1    0    0    0  501  0.00000000000E+00  0.00000000000E+00 -0.15319268321E+04  0.15319268321E+04  0.50400001928E-02 0. -1.
    10030    2    1    2    0    0  0.00000000000E+00  0.00000000000E+00  0.82534229834E+03  0.38891959625E+04  0.38006124934E+04 0.  0.
        4    1    3    3  502    0 -0.91833562154E+03  0.10607274012E+04  0.17242144239E+04  0.22229259830E+04  0.12699999809E+01 0.  1.
       -4    1    3    3    0  502  0.91833562154E+03 -0.10607274012E+04 -0.89887212555E+03  0.16662699795E+04  0.12699999809E+01 0. -1.
</event>
<event>
 5   0  0.1264013E-08  0.3801116E+04  0.7818609E-02  0.8045915E-01
        2   -1    0    0  501    0  0.00000000000E+00  0.00000000000E+00  0.12009835600E+04  0.12009835600E+04  0.25500000920E-02 0.  1.
       -2   -1    0    0    0  501  0.00000000000E+00  0.00000000000E+00 -0.30076353404E+04  0.30076353404E+04  0.25500000920E-02 0. -1.
    10030    2    1    2    0    0  0.00000000000E+00  0.00000000000E+00 -0.18066517804E+04  0.42086189004E+04  0.38011159405E+04 0.  0.
        4    1    3    3  502    0 -0.26690022521E+03  0.18765520356E+04 -0.74896803977E+03  0.20380475976E+04  0.12699999809E+01 0.  1.
       -4    1    3    3    0  502  0.26690022521E+03 -0.18765520356E+04 -0.10576837406E+04  0.21705713028E+04  0.12699999809E+01 0. -1.
</event>
<event>
 5   0  0.1264013E-08  0.3798408E+04  0.7818609E-02  0.8046497E-01
       -2   -1    0    0    0  501  0.00000000000E+00  0.00000000000E+00  0.14054641454E+04  0.14054641454E+04  0.25500000920E-02 0.  1.
        2   -1    0    0  501    0  0.00000000000E+00  0.00000000000E+00 -0.25663946704E+04  0.25663946704E+04  0.25500000920E-02 0. -1.
    10030    2    1    2    0    0  0.00000000000E+00  0.00000000000E+00 -0.11609305250E+04  0.39718588158E+04  0.37984079255E+04 0.  0.
        4    1    3    3  502    0  0.13474249423E+03 -0.18769585416E+04 -0.84878595694E+03  0.20643565875E+04  0.12699999809E+01 0. -1.
       -4    1    3    3    0  502 -0.13474249423E+03  0.18769585416E+04 -0.31214456804E+03  0.19075022283E+04  0.12699999809E+01 0.  1.
</event>
<event>
 5   0  0.1293993E-08  0.3801017E+04  0.7818609E-02  0.8045937E-01
        2   -1    0    0  501    0  0.00000000000E+00  0.00000000000E+00  0.25336100592E+04  0.25336100592E+04  0.25500000920E-02 0.  1.
       -2   -1    0    0    0  501  0.00000000000E+00  0.00000000000E+00 -0.14256070661E+04  0.14256070661E+04  0.25500000920E-02 0. -1.
    10030    2    1    2    0    0  0.00000000000E+00  0.00000000000E+00  0.11080029932E+04  0.39592171253E+04  0.38010169182E+04 0.  0.
        5    1    3    3  502    0  0.11002622997E+04 -0.11836357837E+04 -0.48779580747E+03  0.16880573558E+04  0.46999998093E+01 0. -1.
       -5    1    3    3    0  502 -0.11002622997E+04  0.11836357837E+04  0.15957988006E+04  0.22711597695E+04  0.46999998093E+01 0.  1.
</event>
<event>
 5   0  0.1327249E-08  0.3800099E+04  0.7818609E-02  0.8046134E-01
       -2   -1    0    0    0  501  0.00000000000E+00  0.00000000000E+00  0.14898656982E+04  0.14898656982E+04  0.25500000920E-02 0.  1.
        2   -1    0    0  501    0  0.00000000000E+00  0.00000000000E+00 -0.24231629203E+04  0.24231629203E+04  0.25500000920E-02 0. -1.
    10030    2    1    2    0    0  0.00000000000E+00  0.00000000000E+00 -0.93329722215E+03  0.39130286185E+04  0.38000985861E+04 0.  0.
        1    1    3    3  502    0  0.84323992501E+00 -0.13043429949E+04 -0.18893279171E+04  0.22958378292E+04  0.50400001928E-02 0. -1.
       -1    1    3    3    0  502 -0.84323992501E+00  0.13043429949E+04  0.95603069495E+03  0.16171907893E+04  0.50400001928E-02 0.  1.
</event>
<event>
 5   0  0.4071750E-09  0.3802064E+04  0.7818609E-02  0.8045712E-01
       -3   -1    0    0    0  501  0.00000000000E+00  0.00000000000E+00  0.22673540156E+04  0.22673540178E+04  0.10100000352E+00 0. -1.
        3   -1    0    0  501    0  0.00000000000E+00  0.00000000000E+00 -0.15938944684E+04  0.15938944716E+04  0.10100000352E+00 0.  1.
    10030    2    1    2    0    0  0.00000000000E+00  0.00000000000E+00  0.67345954722E+03  0.38612484894E+04  0.38020641940E+04 0.  0.
        1    1    3    3  502    0 -0.17665851761E+03  0.50215275572E+03  0.21901195728E+04  0.22538831747E+04  0.50400001928E-02 0. -1.
       -1    1    3    3    0  502  0.17665851761E+03 -0.50215275572E+03 -0.15166600256E+04  0.16073653148E+04  0.50400001928E-02 0.  1.
</event>
<event>
 5   0  0.1293993E-08  0.3796926E+04  0.7818609E-02  0.8046815E-01
        2   -1    0    0  501    0  0.00000000000E+00  0.00000000000E+00  0.21360861535E+04  0.21360861535E+04  0.25500000920E-02 0.  1.
       -2   -1    0    0    0  501  0.00000000000E+00  0.00000000000E+00 -0.16872737470E+04  0.16872737470E+04  0.25500000920E-02 0. -1.
    10030    2    1    2    0    0  0.00000000000E+00  0.00000000000E+00  0.44881240650E+03  0.38233599005E+04  0.37969261716E+04 0.  0.
        5    1    3    3  502    0 -0.11446983829E+04 -0.93979887305E+03  0.14203546443E+04  0.20520686429E+04  0.46999998093E+01 0.  1.
       -5    1    3    3    0  502  0.11446983829E+04  0.93979887305E+03 -0.97154223775E+03  0.17712912576E+04  0.46999998093E+01 0. -1.
</event>
<event>
 5   0  0.4071750E-09  0.3778777E+04  0.7818609E-02  0.8050725E-01
       -1   -1    0    0    0  501  0.00000000000E+00  0.00000000000E+00  0.15122589977E+04  0.15122589978E+04  0.50400001928E-02 0. -1.
        1   -1    0    0  501    0  0.00000000000E+00  0.00000000000E+00 -0.23605674878E+04  0.23605674878E+04  0.50400001928E-02 0.  1.
    10030    2    1    2    0    0  0.00000000000E+00  0.00000000000E+00 -0.84830849000E+03  0.38728264855E+04  0.37787772748E+04 0.  0.
        2    1    3    3  502    0  0.27428830966E+03 -0.13841724505E+04 -0.17118575687E+04  0.22184733005E+04  0.25500000920E-02 0.  1.
       -2    1    3    3    0  502 -0.27428830966E+03  0.13841724505E+04  0.86354907870E+03  0.16543531850E+04  0.25500000920E-02 0. -1.
</event>
<event>
 5   0  0.1293993E-08  0.3799865E+04  0.7818609E-02  0.8046184E-01
       -2   -1    0    0    0  501  0.00000000000E+00  0.00000000000E+00  0.19438703121E+04  0.19438703121E+04  0.25500000920E-02 0. -1.
        2   -1    0    0  501    0  0.00000000000E+00  0.00000000000E+00 -0.18569873455E+04  0.18569873455E+04  0.25500000920E-02 0.  1.
    10030    2    1    2    0    0  0.00000000000E+00  0.00000000000E+00  0.86882966627E+02  0.38008576576E+04  0.37998645086E+04 0.  0.
        5    1    3    3  502    0 -0.30178729775E+02 -0.15510308194E+04 -0.10537103322E+04  0.18753492775E+04  0.46999998093E+01 0.  1.
       -5    1    3    3    0  502  0.30178729775E+02  0.15510308194E+04  0.11405932988E+04  0.19255083801E+04  0.46999998093E+01 0. -1.
</event>
<event>
 5   0  0.4071750E-09  0.3791461E+04  0.7818609E-02  0.8047990E-01
       -1   -1    0    0    0  501  0.00000000000E+00  0.00000000000E+00  0.18226281242E+04  0.18226281242E+04  0.50400001928E-02 0.  1.
        1   -1    0    0  501    0  0.00000000000E+00  0.00000000000E+00 -0.19717652884E+04  0.19717652884E+04  0.50400001928E-02 0. -1.
    10030    2    1    2    0    0  0.00000000000E+00  0.00000000000E+00 -0.14913716425E+03  0.37943934126E+04  0.37914613905E+04 0.  0.
        3    1    3    3  502    0  0.64632884579E+03  0.11043813541E+03  0.17055304476E+04  0.18272306030E+04  0.10100000352E+00 0.  1.
       -3    1    3    3    0  502 -0.64632884579E+03 -0.11043813541E+03 -0.18546676119E+04  0.19671628096E+04  0.10100000352E+00 0. -1.
</event>
<event>
 5   0  0.4071750E-09  0.3799540E+04  0.7818609E-02  0.8046254E-01
       -1   -1    0    0    0  501  0.00000000000E+00  0.00000000000E+00  0.16445710340E+04  0.16445710340E+04  0.50400001928E-02 0. -1.
        1   -1    0    0  501    0  0.00000000000E+00  0.00000000000E+00 -0.21945699448E+04  0.21945699448E+04  0.50400001928E-02 0.  1.
    10030    2    1    2    0    0  0.00000000000E+00  0.00000000000E+00 -0.54999891083E+03  0.38391409788E+04  0.37995400581E+04 0.  0.
        4    1    3    3  502    0 -0.94579465503E+03  0.13553266739E+04 -0.12216131292E+04  0.20551832456E+04  0.12699999809E+01 0.  1.
       -4    1    3    3    0  502  0.94579465503E+03 -0.13553266739E+04  0.67161421840E+03  0.17839577332E+04  0.12699999809E+01 0. -1.
</event>
<event>
 5   0  0.4071750E-09  0.3803592E+04  0.7818609E-02  0.8045385E-01
       -1   -1    0    0    0  501  0.00000000000E+00  0.00000000000E+00  0.23437206227E+04  0.23437206227E+04  0.50400001928E-02 0.  1.
        1   -1    0    0  501    0  0.00000000000E+00  0.00000000000E+00 -0.15431992567E+04  0.15431992567E+04  0.50400001928E-02 0. -1.
    10030    2    1    2    0    0  0.00000000000E+00  0.00000000000E+00  0.80052136593E+03  0.38869198794E+04  0.38035919460E+04 0.  0.
        3    1    3    3  502    0  0.23707801474E+02 -0.63527658208E+03 -0.14314043203E+04  0.15662237177E+04  0.10100000352E+00 0. -1.
       -3    1    3    3    0  502 -0.23707801474E+02  0.63527658208E+03  0.22319256862E+04  0.23206961617E+04  0.10100000352E+00 0.  1.
</event>
<event>
 5   0  0.4071750E-09  0.3802456E+04  0.7818609E-02  0.8045628E-01
       -1   -1    0    0    0  501  0.00000000000E+00  0.00000000000E+00  0.25669523241E+04  0.25669523241E+04  0.50400001928E-02 0. -1.
        1   -1    0    0  501    0  0.00000000000E+00  0.00000000000E+00 -0.14081555368E+04  0.14081555368E+04  0.50400001928E-02 0.  1.
    10030    2    1    2    0    0  0.00000000000E+00  0.00000000000E+00  0.11587967873E+04  0.39751078610E+04  0.38024561158E+04 0.  0.
        3    1    3    3  502    0 -0.12844171068E+04  0.10319234881E+04  0.15711981353E+04  0.22766767404E+04  0.10100000352E+00 0. -1.
       -3    1    3    3    0  502  0.12844171068E+04 -0.10319234881E+04 -0.41240134802E+03  0.16984311206E+04  0.10100000352E+00 0.  1.
</event>
<event>
 5   0  0.1261152E-08  0.3793074E+04  0.7818609E-02  0.8047643E-01
       -2   -1    0    0    0  501  0.00000000000E+00  0.00000000000E+00  0.15001417211E+04  0.15001417211E+04  0.25500000920E-02 0.  1.
        2   -1    0    0  501    0  0.00000000000E+00  0.00000000000E+00 -0.23976752897E+04  0.23976752897E+04  0.25500000920E-02 0. -1.
    10030    2    1    2    0    0  0.00000000000E+00  0.00000000000E+00 -0.89753356857E+03  0.38978170107E+04  0.37930740755E+04 0.  0.
        2    1    3    3  502    0 -0.72666981738E+02  0.14779902029E+04  0.77020950791E+03  0.16682200742E+04  0.25500000920E-02 0.  1.
       -2    1    3    3    0  502  0.72666981738E+02 -0.14779902029E+04 -0.16677430765E+04  0.22295969365E+04  0.25500000920E-02 0. -1.
</event>
<event>
 5   0  0.4071750E-09  0.3796038E+04  0.7818609E-02  0.8047006E-01
       -1   -1    0    0    0  501  0.00000000000E+00  0.00000000000E+00  0.16751682358E+04  0.16751682358E+04  0.50400001928E-02 0.  1.
        1   -1    0    0  501    0  0.00000000000E+00  0.00000000000E+00 -0.21505164059E+04  0.21505164059E+04  0.50400001928E-02 0. -1.
    10030    2    1    2    0    0  0.00000000000E+00  0.00000000000E+00 -0.47534817009E+03  0.38256846417E+04  0.37960383421E+04 0.  0.
        5    1    3    3  502    0 -0.16739907308E+03 -0.93980272059E+03  0.14156264743E+04  0.17074167646E+04  0.46999998093E+01 0.  1.
       -5    1    3    3    0  502  0.16739907308E+03  0.93980272059E+03 -0.18909746444E+04  0.21182678771E+04  0.46999998093E+01 0. -1.
</event>
<event>
 5   0  0.4071750E-09  0.3804995E+04  0.7818609E-02  0.8045084E-01
       -1   -1    0    0    0  501  0.00000000000E+00  0.00000000000E+00  0.19460388969E+04  0.19460388969E+04  0.50400001928E-02 0.  1.
        1   -1    0    0  501    0  0.00000000000E+00  0.00000000000E+00 -0.18599301521E+04  0.18599301521E+04  0.50400001928E-02 0. -1.
    10030    2    1    2    0    0  0.00000000000E+00  0.00000000000E+00  0.86108744773E+02  0.38059690491E+04  0.38049948340E+04 0.  0.
        2    1    3    3  502    0 -0.17273230841E+04  0.77075376814E+03 -0.16142402747E+03  0.18983582708E+04  0.25500000920E-02 0. -1.
       -2    1    3    3    0  502  0.17273230841E+04 -0.77075376814E+03  0.24753277224E+03  0.19076107782E+04  0.25500000920E-02 0.  1.
</event>
<event>
 5   0  0.4071750E-09  0.3802919E+04  0.7818609E-02  0.8045529E-01
        1   -1    0    0  501    0  0.00000000000E+00  0.00000000000E+00  0.25170767133E+04  0.25170767133E+04  0.50400001928E-02 0. -1.
       -1   -1    0    0    0  501  0.00000000000E+00  0.00000000000E+00 -0.14364079349E+04  0.14364079349E+04  0.50400001928E-02 0.  1.
    10030    2    1    2    0    0  0.00000000000E+00  0.00000000000E+00  0.10806687784E+04  0.39534846481E+04  0.38029193857E+04 0.  0.
        3    1    3    3  502    0  0.16800271925E+04 -0.58520532189E+03 -0.15750395430E+03  0.17859910812E+04  0.10100000352E+00 0.  1.
       -3    1    3    3    0  502 -0.16800271925E+04  0.58520532189E+03  0.12381727327E+04  0.21674935669E+04  0.10100000352E+00 0. -1.
</event>
<event>
 5   0  0.1327249E-08  0.3800003E+04  0.7818609E-02  0.8046154E-01
        2   -1    0    0  501    0  0.00000000000E+00  0.00000000000E+00  0.13831079872E+04  0.13831079872E+04  0.25500000920E-02 0.  1.
       -2   -1    0    0    0  501  0.00000000000E+00  0.00000000000E+00 -0.26100684219E+04  0.26100684219E+04  0.25500000920E-02 0. -1.
    10030    2    1    2    0    0  0.00000000000E+00  0.00000000000E+00 -0.12269604346E+04  0.39931764091E+04  0.38000034113E+04 0.  0.
        1    1    3    3  502    0  0.10509664809E+04  0.26002678288E+03 -0.22542175880E+04  0.25007281751E+04  0.50400001928E-02 0. -1.
       -1    1    3    3    0  502 -0.10509664809E+04 -0.26002678288E+03  0.10272571534E+04  0.14924482339E+04  0.50400001928E-02 0.  1.
</event>
<event>
 5   0  0.1261152E-08  0.3798955E+04  0.7818609E-02  0.8046379E-01
       -2   -1    0    0    0  501  0.00000000000E+00  0.00000000000E+00  0.15820604367E+04  0.15820604367E+04  0.25500000920E-02 0.  1.
        2   -1    0    0  501    0  0.00000000000E+00  0.00000000000E+00 -0.22805793474E+04  0.22805793474E+04  0.25500000920E-02 0. -1.
    10030    2    1    2    0    0  0.00000000000E+00  0.00000000000E+00 -0.69851891074E+03  0.38626397841E+04  0.37989547816E+04 0.  0.
        2    1    3    3  502    0 -0.16063092953E+04 -0.59048274234E+03 -0.11871585603E+04  0.20828453779E+04  0.25500000920E-02 0. -1.
       -2    1    3    3    0  502  0.16063092953E+04  0.59048274234E+03  0.48863964952E+03  0.17797944062E+04  0.25500000920E-02 0.  1.
</event>
<event>
 5   0  0.4071750E-09  0.3802175E+04  0.7818609E-02  0.8045688E-01
       -1   -1    0    0    0  501  0.00000000000E+00  0.00000000000E+00  0.28813905338E+04  0.28813905338E+04  0.50400001928E-02 0.  1.
        1   -1    0    0  501    0  0.00000000000E+00  0.00000000000E+00 -0.12543021725E+04  0.12543021725E+04  0.50400001928E-02 0. -1.
    10030    2    1    2    0    0  0.00000000000E+00  0.00000000000E+00  0.16270883612E+04  0.41356927063E+04  0.38021753807E+04 0.  0.
        3    1    3    3  502    0 -0.52813540116E+03 -0.34112105910E+03  0.27650330064E+04  0.28356124762E+04  0.10100000352E+00 0.  1.
       -3    1    3    3    0  502  0.52813540116E+03  0.34112105910E+03 -0.11379446451E+04  0.13000802300E+04  0.10100000352E+00 0. -1.
</event>
<event>
 5   0  0.1327249E-08  0.3800048E+04  0.7818609E-02  0.8046145E-01
        2   -1    0    0  501    0  0.00000000000E+00  0.00000000000E+00  0.29501193737E+04  0.29501193737E+04  0.25500000920E-02 0. -1.
       -2   -1    0    0    0  501  0.00000000000E+00  0.00000000000E+00 -0.12237102864E+04  0.12237102864E+04  0.25500000920E-02 0.  1.
    10030    2    1    2    0    0  0.00000000000E+00  0.00000000000E+00  0.17264090872E+04  0.41738296601E+04  0.38000481175E+04 0.  0.
        1    1    3    3  502    0  0.18984733411E+04 -0.30261947354E+02  0.94067305421E+03  0.21189579060E+04  0.50400001928E-02 0.  1.
       -1    1    3    3    0  502 -0.18984733411E+04  0.30261947354E+02  0.78573603304E+03  0.20548717542E+04  0.50400001928E-02 0. -1.
</event>
<event>
 5   0  0.4071750E-09  0.3800811E+04  0.7818609E-02  0.8045981E-01
        1   -1    0    0  501    0  0.00000000000E+00  0.00000000000E+00  0.15881073070E+04  0.15881073070E+04  0.50400001928E-02 0. -1.
       -1   -1    0    0    0  501  0.00000000000E+00  0.00000000000E+00 -0.22741169435E+04  0.22741169435E+04  0.50400001928E-02 0.  1.
    10030    2    1    2    0    0  0.00000000000E+00  0.00000000000E+00 -0.68600963652E+03  0.38622242505E+04  0.38008113529E+04 0.  0.
        1    1    3    3  502    0 -0.46330793017E+03  0.97379365997E+03 -0.19330932687E+04  0.22135441979E+04  0.50400001928E-02 0.  1.
       -1    1    3    3    0  502  0.46330793017E+03 -0.97379365997E+03  0.12470836322E+04  0.16486800527E+04  0.50400001928E-02 0. -1.
</event>
<event>
 5   0  0.4071750E-09  0.3799826E+04  0.7818609E-02  0.8046192E-01
       -1   -1    0    0    0  501  0.00000000000E+00  0.00000000000E+00  0.22453178116E+04  0.22453178116E+04  0.50400001928E-02 0. -1.
        1   -1    0    0  501    0  0.00000000000E+00  0.00000000000E+00 -0.16076429217E+04  0.16076429217E+04  0.50400001928E-02 0.  1.
    10030    2    1    2    0    0  0.00000000000E+00  0.00000000000E+00  0.63767488994E+03  0.38529607333E+04  0.37998259364E+04 0.  0.
        3    1    3    3  502    0 -0.85234988929E+03  0.16936917115E+04  0.19641251581E+03  0.19062187267E+04  0.10100000352E+00 0.  1.
       -3    1    3    3    0  502  0.85234988929E+03 -0.16936917115E+04  0.44126237413E+03  0.19467420066E+04  0.10100000352E+00 0. -1.
</event>
<event>
 5   0  0.1264013E-08  0.3799395E+04  0.7818609E-02  0.8046285E-01
        2   -1    0    0  501    0  0.00000000000E+00  0.00000000000E+00  0.13791987231E+04  0.13791987231E+04  0.25500000920E-02 0. -1.
       -2   -1    0    0    0  501  0.00000000000E+00  0.00000000000E+00 -0.26166289591E+04  0.26166289591E+04  0.25500000920E-02 0.  1.
    10030    2    1    2    0    0  0.00000000000E+00  0.00000000000E+00 -0.12374302360E+04  0.39958276821E+04  0.37993953830E+04 0.  0.
        4    1    3    3  502    0  0.94173056242E+03  0.16079865183E+04 -0.10070942069E+04  0.21181873028E+04  0.12699999809E+01 0. -1.
       -4    1    3    3    0  502 -0.94173056242E+03 -0.16079865183E+04 -0.23033602912E+03  0.18776403794E+04  0.12699999809E+01 0.  1.
</event>
<event>
 5   0  0.1293993E-08  0.3796075E+04  0.7818609E-02  0.8046998E-01
        2   -1    0    0  501    0  0.00000000000E+00  0.00000000000E+00  0.17620627425E+04  0.17620627425E+04  0.25500000920E-02 0. -1.
       -2   -1    0    0    0  501  0.00000000000E+00  0.00000000000E+00 -0.20445052481E+04  0.20445052481E+04  0.25500000920E-02 0.  1.
    10030    2    1    2    0    0  0.00000000000E+00  0.00000000000E+00 -0.28244250563E+03  0.38065679906E+04  0.37960750912E+04 0.  0.
        5    1    3    3  502    0 -0.14428804392E+03  0.10108291375E+04  0.14631793953E+04  0.17842395069E+04  0.46999998093E+01 0. -1.
       -5    1    3    3    0  502  0.14428804392E+03 -0.10108291375E+04 -0.17456219010E+04  0.20223284837E+04  0.46999998093E+01 0.  1.
</event>
<event>
 5   0  0.1327249E-08  0.3797348E+04  0.7818609E-02  0.8046724E-01
        2   -1    0    0  501    0  0.00000000000E+00  0.00000000000E+00  0.20112609499E+04  0.20112609499E+04  0.25500000920E-02 0. -1.
       -2   -1    0    0    0  501  0.00000000000E+00  0.00000000000E+00 -0.17923890881E+04  0.17923890881E+04  0.25500000920E-02 0.  1.
    10030    2    1    2    0    0  0.00000000000E+00  0.00000000000E+00  0.21887186179E+03  0.38036500380E+04  0.37973475901E+04 0.  0.
        1    1    3    3  502    0  0.98421651538E+03 -0.16203195974E+04  0.51264878632E+01  0.18958227838E+04  0.50400001928E-02 0.  1.
       -1    1    3    3    0  502 -0.98421651538E+03  0.16203195974E+04  0.21374537392E+03  0.19078272542E+04  0.50400001928E-02 0. -1.
</event>
<event>
 5   0  0.1293993E-08  0.3797477E+04  0.7818609E-02  0.8046697E-01
        2   -1    0    0  501    0  0.00000000000E+00  0.00000000000E+00  0.21775565086E+04  0.21775565086E+04  0.25500000920E-02 0.  1.
       -2   -1    0    0    0  501  0.00000000000E+00  0.00000000000E+00 -0.16556208173E+04  0.16556208173E+04  0.25500000920E-02 0. -1.
    10030    2    1    2    0    0  0.00000000000E+00  0.00000000000E+00  0.52193569131E+03  0.38331773260E+04  0.37974769975E+04 0.  0.
        5    1    3    3  502    0 -0.11263046427E+04 -0.13563442851E+04 -0.45060895283E+03  0.18196984603E+04  0.46999998093E+01 0. -1.
       -5    1    3    3    0  502  0.11263046427E+04  0.13563442851E+04  0.97254464413E+03  0.20134788657E+04  0.46999998093E+01 0.  1.
</event>
<event>
 5   0  0.1264013E-08  0.3799101E+04  0.7818609E-02  0.8046348E-01
        2   -1    0    0  501    0  0.00000000000E+00  0.00000000000E+00  0.25009802790E+04  0.25009802790E+04  0.25500000920E-02 0.  1.
       -2   -1    0    0    0  501  0.00000000000E+00  0.00000000000E+00 -0.14427508274E+04  0.14427508274E+04  0.25500000920E-02 0. -1.
    10030    2    1    2    0    0  0.00000000000E+00  0.00000000000E+00  0.10582294516E+04  0.39437311064E+04  0.37991006130E+04 0.  0.
        4    1    3    3  502    0  0.71623100511E+03 -0.96059642388E+03 -0.10009582040E+04  0.15612979476E+04  0.12699999809E+01 0. -1.
       -4    1    3    3    0  502 -0.71623100511E+03  0.96059642388E+03  0.20591876556E+04  0.23824331588E+04  0.12699999809E+01 0.  1.
</event>
<event>
 5   0  0.4071750E-09  0.3798891E+04  0.7818609E-02  0.8046393E-01
        1   -1    0    0  501    0  0.00000000000E+00  0.00000000000E+00  0.19878320341E+04  0.19878320341E+04  0.50400001928E-02 0. -1.
       -1   -1    0    0    0  501  0.00000000000E+00  0.00000000000E+00 -0.18149891784E+04  0.18149891784E+04  0.50400001928E-02 0.  1.
    10030    2    1    2    0    0  0.00000000000E+00  0.00000000000E+00  0.17284285571E+03  0.38028212126E+04  0.37988912227E+04 0.  0.
        3    1    3    3  502    0  0.96613792397E+03 -0.10069191495E+04 -0.12035485401E+04  0.18427799001E+04  0.10100000352E+00 0.  1.
       -3    1    3    3    0  502 -0.96613792397E+03  0.10069191495E+04  0.13763913958E+04  0.19600413124E+04  0.10100000352E+00 0. -1.
</event>
<event>
 5   0  0.4071750E-09  0.3800859E+04  0.7818609E-02  0.8045971E-01
       -1   -1    0    0    0  501  0.00000000000E+00  0.00000000000E+00  0.23386372023E+04  0.23386372023E+04  0.50400001928E-02 0. -1.
        1   -1    0    0  501    0  0.00000000000E+00  0.00000000000E+00 -0.15443321142E+04  0.15443321142E+04  0.50400001928E-02 0.  1.
    10030    2    1    2    0    0  0.00000000000E+00  0.00000000000E+00  0.79430508811E+03  0.38829693165E+04  0.38008591318E+04 0.  0.
        3    1    3    3  502    0  0.11398957082E+04  0.10731898799E+04  0.14977058379E+04  0.21666152245E+04  0.10100000352E+00 0. -1.
       -3    1    3    3    0  502 -0.11398957082E+04 -0.10731898799E+04 -0.70340074978E+03  0.17163540920E+04  0.10100000352E+00 0.  1.
</event>
<event>
 5   0  0.1305088E-08  0.3803666E+04  0.7818609E-02  0.8045369E-01
       -2   -1    0    0    0  501  0.00000000000E+00  0.00000000000E+00  0.13308072175E+04  0.13308072175E+04  0.25500000920E-02 0. -1.
        2   -1    0    0  501    0  0.00000000000E+00  0.00000000000E+00 -0.27178763271E+04  0.27178763271E+04  0.25500000920E-02 0.  1.
    10030    2    1    2    0    0  0.00000000000E+00  0.00000000000E+00 -0.13870691096E+04  0.40486835447E+04  0.38036663537E+04 0.  0.
        3    1    3    3  502    0 -0.83733534075E+03 -0.11662903634E+00 -0.25111130809E+04  0.26470397432E+04  0.10100000352E+00 0.  1.
       -3    1    3    3    0  502  0.83733534075E+03  0.11662903634E+00  0.11240439714E+04  0.14016438015E+04  0.10100000352E+00 0. -1.
</event>
<event>
 5   0  0.1264013E-08  0.3800935E+04  0.7818609E-02  0.8045954E-01
        2   -1    0    0  501    0  0.00000000000E+00  0.00000000000E+00  0.22691098443E+04  0.22691098443E+04  0.25500000920E-02 0. -1.
       -2   -1    0    0    0  501  0.00000000000E+00  0.00000000000E+00 -0.15917152925E+04  0.15917152925E+04  0.25500000920E-02 0.  1.
    10030    2    1    2    0    0  0.00000000000E+00  0.00000000000E+00  0.67739455177E+03  0.38608251368E+04  0.38009350637E+04 0.  0.
        4    1    3    3  502    0  0.83530883181E+03 -0.16836451625E+04  0.52525344498E+02  0.18802027557E+04  0.12699999809E+01 0.  1.
       -4    1    3    3    0  502 -0.83530883181E+03  0.16836451625E+04  0.62486920728E+03  0.19806223812E+04  0.12699999809E+01 0. -1.
</event>
<event>
 5   0  0.4071750E-09  0.3799951E+04  0.7818609E-02  0.8046165E-01
        1   -1    0    0  501    0  0.00000000000E+00  0.00000000000E+00  0.21822132025E+04  0.21822132025E+04  0.50400001928E-02 0.  1.
       -1   -1    0    0    0  501  0.00000000000E+00  0.00000000000E+00 -0.16542407676E+04  0.16542407676E+04  0.50400001928E-02 0. -1.
    10030    2    1    2    0    0  0.00000000000E+00  0.00000000000E+00  0.52797243496E+03  0.38364539701E+04  0.37999505487E+04 0.  0.
        2    1    3    3  502    0 -0.12211198791E+04 -0.30090486956E+03  0.17018259885E+04  0.21161023593E+04  0.25500000920E-02 0.  1.
       -2    1    3    3    0  502  0.12211198791E+04  0.30090486956E+03 -0.11738535535E+04  0.17203516108E+04  0.25500000920E-02 0. -1.
</event>
<event>
 5   0  0.4071750E-09  0.3801377E+04  0.7818609E-02  0.8045859E-01
       -1   -1    0    0    0  501  0.00000000000E+00  0.00000000000E+00  0.26628370314E+04  0.26628370314E+04  0.50400001928E-02 0.  1.
        1   -1    0    0  501    0  0.00000000000E+00  0.00000000000E+00 -0.13566795655E+04  0.13566795655E+04  0.50400001928E-02 0. -1.
    10030    2    1    2    0    0  0.00000000000E+00  0.00000000000E+00  0.13061574659E+04  0.40195165969E+04  0.38013769015E+04 0.  0.
        1    1    3    3  502    0 -0.13391295514E+04 -0.41806906942E+03  0.20090755348E+04  0.24503947043E+04  0.50400001928E-02 0.  1.
       -1    1    3    3    0  502  0.13391295514E+04  0.41806906942E+03 -0.70291806884E+03  0.15691218926E+04  0.50400001928E-02 0. -1.
</event>
<event>
 5   0  0.4071750E-09  0.3798980E+04  0.7818609E-02  0.8046374E-01
        1   -1    0    0  501    0  0.00000000000E+00  0.00000000000E+00  0.16960362951E+04  0.16960362951E+04  0.50400001928E-02 0.  1.
       -1   -1    0    0    0  501  0.00000000000E+00  0.00000000000E+00 -0.21273498818E+04  0.21273498818E+04  0.50400001928E-02 0. -1.
    10030    2    1    2    0    0  0.00000000000E+00  0.00000000000E+00 -0.43131358676E+03  0.38233861769E+04  0.37989801852E+04 0.  0.
        2    1    3    3  502    0 -0.64077437600E+03  0.10361969884E+04  0.12510203763E+04  0.17462382373E+04  0.25500000920E-02 0.  1.
       -2    1    3    3    0  502  0.64077437600E+03 -0.10361969884E+04 -0.16823339630E+04  0.20771479396E+04  0.25500000920E-02 0. -1.
</event>
<event>
 5   0  0.1264013E-08  0.3800000E+04  0.7818609E-02  0.8046155E-01
       -2   -1    0    0    0  501  0.00000000000E+00  0.00000000000E+00  0.26841137995E+04  0.26841137995E+04  0.25500000920E-02 0. -1.
        2   -1    0    0  501    0  0.00000000000E+00  0.00000000000E+00 -0.13449506009E+04  0.13449506009E+04  0.25500000920E-02 0.  1.
    10030    2    1    2    0    0  0.00000000000E+00  0.00000000000E+00  0.13391631986E+04  0.40290644004E+04  0.38000002461E+04 0.  0.
        4    1    3    3  502    0  0.47098246818E+03 -0.17460506233E+04  0.51808919439E+02  0.18091995582E+04  0.12699999809E+01 0.  1.
       -4    1    3    3    0  502 -0.47098246818E+03  0.17460506233E+04  0.12873542791E+04  0.22198648422E+04  0.12699999809E+01 0. -1.
</event>
<event>
 5   0  0.1264013E-08  0.3796147E+04  0.7818609E-02  0.8046982E-01
       -2   -1    0    0    0  501  0.00000000000E+00  0.00000000000E+00  0.13355205100E+04  0.13355205100E+04  0.25500000920E-02 0. -1.
        2   -1    0    0  501    0  0.00000000000E+00  0.00000000000E+00 -0.26975869898E+04  0.26975869898E+04  0.25500000920E-02 0.  1.
    10030    2    1    2    0    0  0.00000000000E+00  0.00000000000E+00 -0.13620664798E+04  0.40331074998E+04  0.37961468635E+04 0.  0.
        4    1    3    3  502    0  0.18249480476E+04 -0.48080042787E+03 -0.46570815516E+03  0.19438338732E+04  0.12699999809E+01 0.  1.
       -4    1    3    3    0  502 -0.18249480476E+04  0.48080042787E+03 -0.89635832467E+03  0.20892736266E+04  0.12699999809E+01 0. -1.
</event>
<event>
 5   0  0.1293993E-08  0.3796251E+04  0.7818609E-02  0.8046960E-01
       -2   -1    0    0    0  501  0.00000000000E+00  0.00000000000E+00  0.16398129072E+04  0.16398129072E+04  0.25500000920E-02 0. -1.
        2   -1    0    0  501    0  0.00000000000E+00  0.00000000000E+00 -0.21971295251E+04  0.21971295251E+04  0.25500000920E-02 0.  1.
    10030    2    1    2    0    0  0.00000000000E+00  0.00000000000E+00 -0.55731661790E+03  0.38369424324E+04  0.37962514955E+04 0.  0.
        5    1    3    3  502    0 -0.12412951268E+04  0.11489381820E+04 -0.11492777792E+04  0.20449288598E+04  0.46999998093E+01 0.  1.
       -5    1    3    3    0  502  0.12412951268E+04 -0.11489381820E+04  0.59196116131E+03  0.17920135726E+04  0.46999998093E+01 0. -1.
</event>
<event>
 5   0  0.4071750E-09  0.3799709E+04  0.7818609E-02  0.8046217E-01
        1   -1    0    0  501    0  0.00000000000E+00  0.00000000000E+00  0.18974448225E+04  0.18974448225E+04  0.50400001928E-02 0.  1.
       -1   -1    0    0    0  501  0.00000000000E+00  0.00000000000E+00 -0.19022673313E+04  0.19022673313E+04  0.50400001928E-02 0. -1.
    10030    2    1    2    0    0  0.00000000000E+00  0.00000000000E+00 -0.48225088193E+01  0.37997121538E+04  0.37997090935E+04 0.  0.
        3    1    3    3  502    0 -0.55709554034E+03  0.13089025332E+03 -0.18140306614E+04  0.19021553433E+04  0.10100000352E+00 0. -1.
       -3    1    3    3    0  502  0.55709554034E+03 -0.13089025332E+03  0.18092081526E+04  0.18975568105E+04  0.10100000352E+00 0.  1.
</event>
<event>
 5   0  0.4071750E-09  0.3800519E+04  0.7818609E-02  0.8046044E-01
        1   -1    0    0  501    0  0.00000000000E+00  0.00000000000E+00  0.29276405485E+04  0.29276405485E+04  0.50400001928E-02 0.  1.
       -1   -1    0    0    0  501  0.00000000000E+00  0.00000000000E+00 -0.12334116357E+04  0.12334116357E+04  0.50400001928E-02 0. -1.
    10030    2    1    2    0    0  0.00000000000E+00  0.00000000000E+00  0.16942289128E+04  0.41610521842E+04  0.38005188687E+04 0.  0.
        2    1    3    3  502    0 -0.12962706134E+04  0.92556978864E+03  0.19817599225E+04  0.25425124046E+04  0.25500000920E-02 0.  1.
       -2    1    3    3    0  502  0.12962706134E+04 -0.92556978864E+03 -0.28753100977E+03  0.16185397797E+04  0.25500000920E-02 0. -1.
</event>
<event>
 5   0  0.1327249E-08  0.3802283E+04  0.7818609E-02  0.8045665E-01
       -2   -1    0    0    0  501  0.00000000000E+00  0.00000000000E+00  0.31477807210E+04  0.31477807210E+04  0.25500000920E-02 0.  1.
        2   -1    0    0  501    0  0.00000000000E+00  0.00000000000E+00 -0.11482182205E+04  0.11482182205E+04  0.25500000920E-02 0. -1.
    10030    2    1    2    0    0  0.00000000000E+00  0.00000000000E+00  0.19995625005E+04  0.42959989416E+04  0.38022830921E+04 0.  0.
        1    1    3    3  502    0 -0.15164616681E+04 -0.40811378170E+03  0.22104199578E+04  0.27114883809E+04  0.50400001928E-02 0.  1.
       -1    1    3    3    0  502  0.15164616681E+04  0.40811378170E+03 -0.21085745733E+03  0.15845105607E+04  0.50400001928E-02 0. -1.
</event>
<event>
 5   0  0.4071750E-09  0.3799575E+04  0.7818609E-02  0.8046246E-01
       -1   -1    0    0    0  501  0.00000000000E+00  0.00000000000E+00  0.26798352445E+04  0.26798352445E+04  0.50400001928E-02 0. -1.
        1   -1    0    0  501    0  0.00000000000E+00  0.00000000000E+00 -0.13467965920E+04  0.13467965920E+04  0.50400001928E-02 0.  1.
    10030    2    1    2    0    0  0.00000000000E+00  0.00000000000E+00  0.13330386525E+04  0.40266318365E+04  0.37995752260E+04 0.  0.
        4    1    3    3  502    0 -0.10801821100E+04  0.17754471108E+03  0.23120057317E+04  0.25580632579E+04  0.12699999809E+01 0. -1.
       -4    1    3    3    0  502  0.10801821100E+04 -0.17754471108E+03 -0.97896707921E+03  0.14685685786E+04  0.12699999809E+01 0.  1.
</event>
<event>
 5   0  0.1264013E-08  0.3800056E+04  0.7818609E-02  0.8046143E-01
       -2   -1    0    0    0  501  0.00000000000E+00  0.00000000000E+00  0.12329997468E+04  0.12329997468E+04  0.25500000920E-02 0. -1.
        2   -1    0    0  501    0  0.00000000000E+00  0.00000000000E+00 -0.29279054500E+04  0.29279054500E+04  0.25500000920E-02 0.  1.
    10030    2    1    2    0    0  0.00000000000E+00  0.00000000000E+00 -0.16949057032E+04  0.41609051967E+04  0.38000561461E+04 0.  0.
        4    1    3    3  502    0 -0.13358281016E+04  0.41231644792E+03  0.56145907054E+03  0.15065455423E+04  0.12699999809E+01 0. -1.
       -4    1    3    3    0  502  0.13358281016E+04 -0.41231644792E+03 -0.22563647737E+04  0.26543596544E+04  0.12699999809E+01 0.  1.
</event>
<event>
 5   0  0.1261152E-08  0.3802293E+04  0.7818609E-02  0.8045663E-01
        2   -1    0    0  501    0  0.00000000000E+00  0.00000000000E+00  0.10743898642E+04  0.10743898642E+04  0.25500000920E-02 0. -1.
       -2   -1    0    0    0  501  0.00000000000E+00  0.00000000000E+00 -0.33641034746E+04  0.33641034746E+04  0.25500000920E-02 0.  1.
    10030    2    1    2    0    0  0.00000000000E+00  0.00000000000E+00 -0.22897136104E+04  0.44384933389E+04  0.38022933477E+04 0.  0.
        2    1    3    3  502    0 -0.11323684139E+04  0.76888195777E+03 -0.26850651886E+04  0.30138037024E+04  0.25500000920E-02 0.  1.
       -2    1    3    3    0  502  0.11323684139E+04 -0.76888195777E+03  0.39535157817E+03  0.14246896365E+04  0.25500000920E-02 0. -1.
</event>
<event>
 5   0  0.4071750E-09  0.3799848E+04  0.7818609E-02  0.8046188E-01
       -1   -1    0    0    0  501  0.00000000000E+00  0.00000000000E+00  0.22553065774E+04  0.22553065774E+04  0.50400001928E-02 0.  1.
        1   -1    0    0  501    0  0.00000000000E+00  0.00000000000E+00 -0.16005409157E+04  0.16005409157E+04  0.50400001928E-02 0. -1.
    10030    2    1    2    0    0  0.00000000000E+00  0.00000000000E+00  0.65476566167E+03  0.38558474931E+04  0.37998476046E+04 0.  0.
        4    1    3    3  502    0 -0.89927359423E+03  0.27465288296E+03 -0.13478812094E+04  0.16434453356E+04  0.12699999809E+01 0. -1.
       -4    1    3    3    0  502  0.89927359423E+03 -0.27465288296E+03  0.20026468711E+04  0.22124021575E+04  0.12699999809E+01 0.  1.
</event>
<event>
 5   0  0.1264013E-08  0.3798612E+04  0.7818609E-02  0.8046453E-01
       -2   -1    0    0    0  501  0.00000000000E+00  0.00000000000E+00  0.27743522109E+04  0.27743522109E+04  0.25500000920E-02 0. -1.
        2   -1    0    0  501    0  0.00000000000E+00  0.00000000000E+00 -0.13002542675E+04  0.13002542675E+04  0.25500000920E-02 0.  1.
    10030    2    1    2    0    0  0.00000000000E+00  0.00000000000E+00  0.14740979435E+04  0.40746064784E+04  0.37986120106E+04 0.  0.
        4    1    3    3  502    0 -0.91047402763E+03 -0.56829338644E+03 -0.94378771189E+03  0.14292155842E+04  0.12699999809E+01 0.  1.
       -4    1    3    3    0  502  0.91047402763E+03  0.56829338644E+03  0.24178856554E+04  0.26453908942E+04  0.12699999809E+01 0. -1.
</event>
<event>
 5   0  0.4071750E-09  0.3798066E+04  0.7818609E-02  0.8046570E-01
       -1   -1    0    0    0  501  0.00000000000E+00  0.00000000000E+00  0.12675537160E+04  0.12675537160E+04  0.50400001928E-02 0.  1.
        1   -1    0    0  501    0  0.00000000000E+00  0.00000000000E+00 -0.28451071829E+04  0.28451071829E+04  0.50400001928E-02 0. -1.
    10030    2    1    2    0    0  0.00000000000E+00  0.00000000000E+00 -0.15775534669E+04  0.41126608989E+04  0.37980659194E+04 0.  0.
        3    1    3    3  502    0 -0.26446066198E+03  0.18555123631E+04 -0.45774114373E+03  0.19293502887E+04  0.10100000352E+00 0.  1.
       -3    1    3    3    0  502  0.26446066198E+03 -0.18555123631E+04 -0.11198123232E+04  0.21833106102E+04  0.10100000352E+00 0. -1.
</event>
<event>
 5   0  0.1293993E-08  0.3799782E+04  0.7818609E-02  0.8046202E-01
        2   -1    0    0  501    0  0.00000000000E+00  0.00000000000E+00  0.22423680123E+04  0.22423680123E+04  0.25500000920E-02 0. -1.
       -2   -1    0    0    0  501  0.00000000000E+00  0.00000000000E+00 -0.16097206861E+04  0.16097206861E+04  0.25500000920E-02 0.  1.
    10030    2    1    2    0    0  0.00000000000E+00  0.00000000000E+00  0.63264732620E+03  0.38520886984E+04  0.37997821912E+04 0.  0.
        5    1    3    3  502    0  0.15822239391E+04 -0.10118938227E+04  0.25667336472E+02  0.18783084422E+04  0.46999998093E+01 0.  1.
       -5    1    3    3    0  502 -0.15822239391E+04  0.10118938227E+04  0.60697998973E+03  0.19737802562E+04  0.46999998093E+01 0. -1.
</event>
<event>
 5   0  0.1293993E-08  0.3799767E+04  0.7818609E-02  0.8046205E-01
       -2   -1    0    0    0  501  0.00000000000E+00  0.00000000000E+00  0.30124015497E+04  0.30124015497E+04  0.25500000920E-02 0.  1.
        2   -1    0    0  501    0  0.00000000000E+00  0.00000000000E+00 -0.11982326056E+04  0.11982326056E+04  0.25500000920E-02 0. -1.
    10030    2    1    2    0    0  0.00000000000E+00  0.00000000000E+00  0.18141689441E+04  0.42106341553E+04  0.37997672339E+04 0.  0.
        5    1    3    3  502    0 -0.71831133388E+03 -0.33976913465E+02  0.28557578616E+04  0.29449109761E+04  0.46999998093E+01 0.  1.
       -5    1    3    3    0  502  0.71831133388E+03  0.33976913465E+02 -0.10415889176E+04  0.12657231792E+04  0.46999998093E+01 0. -1.
</event>
<event>
 5   0  0.1327249E-08  0.3799094E+04  0.7818609E-02  0.8046349E-01
        2   -1    0    0  501    0  0.00000000000E+00  0.00000000000E+00  0.29195360758E+04  0.29195360758E+04  0.25500000920E-02 0.  1.
       -2   -1    0    0    0  501  0.00000000000E+00  0.00000000000E+00 -0.12359084420E+04  0.12359084420E+04  0.25500000920E-02 0. -1.
    10030    2    1    2    0    0  0.00000000000E+00  0.00000000000E+00  0.16836276338E+04  0.41554445177E+04  0.37990942513E+04 0.  0.
        1    1    3    3  502    0 -0.50144791173E+03 -0.79686370865E+03  0.26463621430E+04  0.28088564168E+04  0.50400001928E-02 0.  1.
       -1    1    3    3    0  502  0.50144791173E+03  0.79686370865E+03 -0.96273450918E+03  0.13465881009E+04  0.50400001928E-02 0. -1.
</event>
<event>
 5   0  0.4071750E-09  0.3794946E+04  0.7818609E-02  0.8047240E-01
       -1   -1    0    0    0  501  0.00000000000E+00  0.00000000000E+00  0.13697448070E+04  0.13697448070E+04  0.50400001928E-02 0.  1.
        1   -1    0    0  501    0  0.00000000000E+00  0.00000000000E+00 -0.26285212513E+04  0.26285212513E+04  0.50400001928E-02 0. -1.
    10030    2    1    2    0    0  0.00000000000E+00  0.00000000000E+00 -0.12587764443E+04  0.39982660582E+04  0.37949457619E+04 0.  0.
        4    1    3    3  502    0 -0.16729823915E+04  0.89511019241E+03 -0.64791985631E+03  0.20049673544E+04  0.12699999809E+01 0. -1.
       -4    1    3    3    0  502  0.16729823915E+04 -0.89511019241E+03 -0.61085658797E+03  0.19932987039E+04  0.12699999809E+01 0.  1.
</event>
<event>
 5   0  0.4071750E-09  0.3799705E+04  0.7818609E-02  0.8046218E-01
       -1   -1    0    0    0  501  0.00000000000E+00  0.00000000000E+00  0.16504321532E+04  0.16504321532E+04  0.50400001928E-02 0. -1.
        1   -1    0    0  501    0  0.00000000000E+00  0.00000000000E+00 -0.21869668049E+04  0.21869668050E+04  0.50400001928E-02 0.  1.
    10030    2    1    2    0    0  0.00000000000E+00  0.00000000000E+00 -0.53653465179E+03  0.38373989581E+04  0.37997054269E+04 0.  0.
        3    1    3    3  502    0 -0.78596045134E+03  0.17313654417E+03  0.14697726976E+04  0.16756914653E+04  0.10100000352E+00 0. -1.
       -3    1    3    3    0  502  0.78596045134E+03 -0.17313654417E+03 -0.20063073494E+04  0.21617074928E+04  0.10100000352E+00 0.  1.
</event>
<event>
 5   0  0.4071750E-09  0.3799747E+04  0.7818609E-02  0.8046209E-01
       -1   -1    0    0    0  501  0.00000000000E+00  0.00000000000E+00  0.22347098930E+04  0.22347098930E+04  0.50400001928E-02 0.  1.
        1   -1    0    0  501    0  0.00000000000E+00  0.00000000000E+00 -0.16152071640E+04  0.16152071640E+04  0.50400001928E-02 0. -1.
    10030    2    1    2    0    0  0.00000000000E+00  0.00000000000E+00  0.61950272900E+03  0.38499170571E+04  0.37997470593E+04 0.  0.
        3    1    3    3  502    0  0.16283497052E+04  0.62513487119E+03  0.10728241481E+04  0.20477470626E+04  0.10100000352E+00 0.  1.
       -3    1    3    3    0  502 -0.16283497052E+04 -0.62513487119E+03 -0.45332141911E+03  0.18021699944E+04  0.10100000352E+00 0. -1.
</event>
<event>
 5   0  0.1264013E-08  0.3797948E+04  0.7818609E-02  0.8046595E-01
        2   -1    0    0  501    0  0.00000000000E+00  0.00000000000E+00  0.30429327066E+04  0.30429327066E+04  0.25500000920E-02 0. -1.
       -2   -1    0    0    0  501  0.00000000000E+00  0.00000000000E+00 -0.11850747658E+04  0.11850747658E+04  0.25500000920E-02 0.  1.
    10030    2    1    2    0    0  0.00000000000E+00  0.00000000000E+00  0.18578579408E+04  0.42280074724E+04  0.37979482696E+04 0.  0.
        4    1    3    3  502    0  0.34030856933E+03 -0.70711234160E+03  0.28539827803E+04  0.29599049156E+04  0.12699999809E+01 0. -1.
       -4    1    3    3    0  502 -0.34030856933E+03  0.70711234160E+03 -0.99612483948E+03  0.12681025569E+04  0.12699999809E+01 0.  1.
</event>
<event>
 5   0  0.4071750E-09  0.3795480E+04  0.7818609E-02  0.8047126E-01
       -1   -1    0    0    0  501  0.00000000000E+00  0.00000000000E+00  0.18347301091E+04  0.18347301091E+04  0.50400001928E-02 0.  1.
        1   -1    0    0  501    0  0.00000000000E+00  0.00000000000E+00 -0.19629137150E+04  0.19629137150E+04  0.50400001928E-02 0. -1.
    10030    2    1    2    0    0  0.00000000000E+00  0.00000000000E+00 -0.12818360591E+03  0.37976438242E+04  0.37954798878E+04 0.  0.
        5    1    3    3  502    0  0.43198757536E+03  0.31618224650E+03 -0.18857918835E+04  0.19603105867E+04  0.46999998093E+01 0. -1.
       -5    1    3    3    0  502 -0.43198757536E+03 -0.31618224650E+03  0.17576082776E+04  0.18373332375E+04  0.46999998093E+01 0.  1.
</event>
<event>
 5   0  0.4071750E-09  0.3783307E+04  0.7818609E-02  0.8049747E-01
       -1   -1    0    0    0  501  0.00000000000E+00  0.00000000000E+00  0.18301947441E+04  0.18301947441E+04  0.50400001928E-02 0.  1.
        1   -1    0    0  501    0  0.00000000000E+00  0.00000000000E+00 -0.19551759580E+04  0.19551759580E+04  0.50400001928E-02 0. -1.
    10030    2    1    2    0    0  0.00000000000E+00  0.00000000000E+00 -0.12498121389E+03  0.37853707022E+04  0.37833068933E+04 0.  0.
        4    1    3    3  502    0 -0.64185419954E+02 -0.18470992014E+04 -0.46576868760E+03  0.19060003440E+04  0.12699999809E+01 0. -1.
       -4    1    3    3    0  502  0.64185419954E+02  0.18470992014E+04  0.34078747371E+03  0.18793703582E+04  0.12699999809E+01 0.  1.
</event>
<event>
 5   0  0.4071750E-09  0.3798916E+04  0.7818609E-02  0.8046387E-01
       -1   -1    0    0    0  501  0.00000000000E+00  0.00000000000E+00  0.14053367918E+04  0.14053367918E+04  0.50400001928E-02 0. -1.
        1   -1    0    0  501    0  0.00000000000E+00  0.00000000000E+00 -0.25673143770E+04  0.25673143770E+04  0.50400001928E-02 0.  1.
    10030    2    1    2    0    0  0.00000000000E+00  0.00000000000E+00 -0.11619775852E+04  0.39726511688E+04  0.37989163455E+04 0.  0.
        2    1    3    3  502    0 -0.50089740814E+02 -0.98951728860E+03 -0.22756850431E+04  0.24820144766E+04  0.25500000920E-02 0.  1.
       -2    1    3    3    0  502  0.50089740814E+02  0.98951728860E+03  0.11137074579E+04  0.14906366922E+04  0.25500000920E-02 0. -1.
</event>
<event>
 5   0  0.1305088E-08  0.3800043E+04  0.7818609E-02  0.8046146E-01
        2   -1    0    0  501    0  0.00000000000E+00  0.00000000000E+00  0.21166473615E+04  0.21166473615E+04  0.25500000920E-02 0. -1.
       -2   -1    0    0    0  501  0.00000000000E+00  0.00000000000E+00 -0.17055659355E+04  0.17055659356E+04  0.25500000920E-02 0.  1.
    10030    2    1    2    0    0  0.00000000000E+00  0.00000000000E+00  0.41108142590E+03  0.38222132970E+04  0.38000429667E+04 0.  0.
        3    1    3    3  502    0  0.97052889067E+03 -0.63327768221E+03 -0.13089379395E+04  0.17482235241E+04  0.10100000352E+00 0.  1.
       -3    1    3    3    0  502 -0.97052889067E+03  0.63327768221E+03  0.17200193655E+04  0.20739897729E+04  0.10100000352E+00 0. -1.
</event>
<event>
 5   0  0.1264013E-08  0.3799295E+04  0.7818609E-02  0.8046306E-01
       -2   -1    0    0    0  501  0.00000000000E+00  0.00000000000E+00  0.16775046310E+04  0.16775046310E+04  0.25500000920E-02 0. -1.
        2   -1    0    0  501    0  0.00000000000E+00  0.00000000000E+00 -0.21512074339E+04  0.21512074339E+04  0.25500000920E-02 0.  1.
    10030    2    1    2    0    0  0.00000000000E+00  0.00000000000E+00 -0.47370280296E+03  0.38287120649E+04  0.37992948991E+04 0.  0.
        4    1    3    3  502    0  0.18330824214E+04  0.39636375783E+03 -0.54145560649E+03  0.19520428219E+04  0.12699999809E+01 0.  1.
       -4    1    3    3    0  502 -0.18330824214E+04 -0.39636375783E+03  0.67752803531E+02  0.18766692429E+04  0.12699999809E+01 0. -1.
</event>
<event>
 5   0  0.1327249E-08  0.3798957E+04  0.7818609E-02  0.8046379E-01
        2   -1    0    0  501    0  0.00000000000E+00  0.00000000000E+00  0.22133924067E+04  0.22133924067E+04  0.25500000920E-02 0. -1.
       -2   -1    0    0    0  501  0.00000000000E+00  0.00000000000E+00 -0.16300852365E+04  0.16300852365E+04  0.25500000920E-02 0.  1.
    10030    2    1    2    0    0  0.00000000000E+00  0.00000000000E+00  0.58330717023E+03  0.38434776432E+04  0.37989568488E+04 0.  0.
        1    1    3    3  502    0  0.10227862139E+04  0.44206875117E+03  0.18480256394E+04  0.21579423495E+04  0.50400001928E-02 0. -1.
       -1    1    3    3    0  502 -0.10227862139E+04 -0.44206875117E+03 -0.12647184691E+04  0.16855352937E+04  0.50400001928E-02 0.  1.
</event>
<event>
 5   0  0.1305088E-08  0.3800604E+04  0.7818609E-02  0.8046025E-01
        2   -1    0    0  501    0  0.00000000000E+00  0.00000000000E+00  0.18667462305E+04  0.18667462305E+04  0.25500000920E-02 0.  1.
       -2   -1    0    0    0  501  0.00000000000E+00  0.00000000000E+00 -0.19344609011E+04  0.19344609011E+04  0.25500000920E-02 0. -1.
    10030    2    1    2    0    0  0.00000000000E+00  0.00000000000E+00 -0.67714670596E+02  0.38012071317E+04  0.38006039495E+04 0.  0.
        3    1    3    3  502    0 -0.17153210841E+04 -0.72519507598E+02  0.78086514821E+03  0.18860901066E+04  0.10100000352E+00 0.  1.
       -3    1    3    3    0  502  0.17153210841E+04  0.72519507598E+02 -0.84857981881E+03  0.19151170250E+04  0.10100000352E+00 0. -1.
</event>
<event>
 5   0  0.4071750E-09  0.3798031E+04  0.7818609E-02  0.8046578E-01
       -1   -1    0    0    0  501  0.00000000000E+00  0.00000000000E+00  0.23090447781E+04  0.23090447781E+04  0.50400001928E-02 0.  1.
        1   -1    0    0  501    0  0.00000000000E+00  0.00000000000E+00 -0.15617970125E+04  0.15617970125E+04  0.50400001928E-02 0. -1.
    10030    2    1    2    0    0  0.00000000000E+00  0.00000000000E+00  0.74724776558E+03  0.38708417907E+04  0.37980306667E+04 0.  0.
        5    1    3    3  502    0 -0.16852076297E+04 -0.42465409317E+02  0.12647481653E+04  0.21074482385E+04  0.46999998093E+01 0.  1.
       -5    1    3    3    0  502  0.16852076297E+04  0.42465409317E+02 -0.51750039970E+03  0.17633935522E+04  0.46999998093E+01 0. -1.
</event>
<event>
 5   0  0.4071750E-09  0.3799418E+04  0.7818609E-02  0.8046280E-01
       -1   -1    0    0    0  501  0.00000000000E+00  0.00000000000E+00  0.26420938751E+04  0.26420938751E+04  0.50400001928E-02 0.  1.
        1   -1    0    0  501    0  0.00000000000E+00  0.00000000000E+00 -0.13659217095E+04  0.13659217095E+04  0.50400001928E-02 0. -1.
    10030    2    1    2    0    0  0.00000000000E+00  0.00000000000E+00  0.12761721656E+04  0.40080155846E+04  0.37994175251E+04 0.  0.
        4    1    3    3  502    0  0.27459003387E+03  0.55229706494E+03  0.25335262829E+04  0.26075254119E+04  0.12699999809E+01 0.  1.
       -4    1    3    3    0  502 -0.27459003387E+03 -0.55229706494E+03 -0.12573541173E+04  0.14004901727E+04  0.12699999809E+01 0. -1.
</event>
<event>
 5   0  0.4071750E-09  0.3797756E+04  0.7818609E-02  0.8046637E-01
       -1   -1    0    0    0  501  0.00000000000E+00  0.00000000000E+00  0.17141416146E+04  0.17141416146E+04  0.50400001928E-02 0.  1.
        1   -1    0    0  501    0  0.00000000000E+00  0.00000000000E+00 -0.21035236335E+04  0.21035236335E+04  0.50400001928E-02 0. -1.
    10030    2    1    2    0    0  0.00000000000E+00  0.00000000000E+00 -0.38938201893E+03  0.38176652481E+04  0.37977558623E+04 0.  0.
        5    1    3    3  502    0 -0.16853140940E+04  0.81827151713E+03 -0.50593236465E+03  0.19405776251E+04  0.46999998093E+01 0.  1.
       -5    1    3    3    0  502  0.16853140940E+04 -0.81827151713E+03  0.11655034573E+03  0.18770876230E+04  0.46999998093E+01 0. -1.
</event>
<event>
 5   0  0.4071750E-09  0.3790320E+04  0.7818609E-02  0.8048235E-01
       -1   -1    0    0    0  501  0.00000000000E+00  0.00000000000E+00  0.23591528258E+04  0.23591528258E+04  0.50400001928E-02 0. -1.
        1   -1    0    0  501    0  0.00000000000E+00  0.00000000000E+00 -0.15224240455E+04  0.15224240455E+04  0.50400001928E-02 0.  1.
    10030    2    1    2    0    0  0.00000000000E+00  0.00000000000E+00  0.83672878033E+03  0.38815768713E+04  0.37903197697E+04 0.  0.
        3    1    3    3  502    0 -0.18562746963E+04  0.37469536432E+03  0.34256464907E+03  0.19244487297E+04  0.10100000352E+00 0.  1.
       -3    1    3    3    0  502  0.18562746963E+04 -0.37469536432E+03  0.49416413126E+03  0.19571281417E+04  0.10100000352E+00 0. -1.
</event>
<event>
 5   0  0.1264013E-08  0.3800508E+04  0.7818609E-02  0.8046046E-01
        2   -1    0    0  501    0  0.00000000000E+00  0.00000000000E+00  0.23536557939E+04  0.23536557939E+04  0.25500000920E-02 0. -1.
       -2   -1    0    0    0  501  0.00000000000E+00  0.00000000000E+00 -0.15341944561E+04  0.15341944561E+04  0.25500000920E-02 0.  1.
    10030    2    1    2    0    0  0.00000000000E+00  0.00000000000E+00  0.81946133785E+03  0.38878502500E+04  0.38005082136E+04 0.  0.
        4    1    3    3  502    0  0.86150262137E+03 -0.14755549330E+04  0.12604153927E+04  0.21232281323E+04  0.12699999809E+01 0. -1.
       -4    1    3    3    0  502 -0.86150262137E+03  0.14755549330E+04 -0.44095405481E+03  0.17646221177E+04  0.12699999809E+01 0.  1.
</event>
<event>
 5   0  0.1327249E-08  0.3797293E+04  0.7818609E-02  0.8046736E-01
        2   -1    0    0  501    0  0.00000000000E+00  0.00000000000E+00  0.22128858728E+04  0.22128858728E+04  0.25500000920E-02 0.  1.
       -2   -1    0    0    0  501  0.00000000000E+00  0.00000000000E+00 -0.16290305841E+04  0.16290305841E+04  0.25500000920E-02 0. -1.
    10030    2    1    2    0    0  0.00000000000E+00  0.00000000000E+00  0.58385528869E+03  0.38419164570E+04  0.37972931233E+04 0.  0.
        1    1    3    3  502    0  0.84623963904E+02  0.16105021606E+04 -0.72183526731E+03  0.17668968781E+04  0.50400001928E-02 0. -1.
       -1    1    3    3    0  502 -0.84623963904E+02 -0.16105021606E+04  0.13056905560E+04  0.20750195789E+04  0.50400001928E-02 0.  1.
</event>
<event>
 5   0  0.1261152E-08  0.3799221E+04  0.7818609E-02  0.8046322E-01
        2   -1    0    0  501    0  0.00000000000E+00  0.00000000000E+00  0.13623347724E+04  0.13623347724E+04  0.25500000920E-02 0. -1.
       -2   -1    0    0    0  501  0.00000000000E+00  0.00000000000E+00 -0.26487756259E+04  0.26487756259E+04  0.25500000920E-02 0.  1.
    10030    2    1    2    0    0  0.00000000000E+00  0.00000000000E+00 -0.12864408535E+04  0.40111103983E+04  0.37992205197E+04 0.  0.
        2    1    3    3  502    0 -0.98765458366E+03 -0.12425795463E+04  0.45855922495E+03  0.16521931087E+04  0.25500000920E-02 0. -1.
       -2    1    3    3    0  502  0.98765458366E+03  0.12425795463E+04 -0.17450000784E+04  0.23589172896E+04  0.25500000920E-02 0.  1.
</event>
<event>
 5   0  0.4071750E-09  0.3800412E+04  0.7818609E-02  0.8046066E-01
       -1   -1    0    0    0  501  0.00000000000E+00  0.00000000000E+00  0.32247876748E+04  0.32247876748E+04  0.50400001928E-02 0.  1.
        1   -1    0    0  501    0  0.00000000000E+00  0.00000000000E+00 -0.11196962912E+04  0.11196962912E+04  0.50400001928E-02 0. -1.
    10030    2    1    2    0    0  0.00000000000E+00  0.00000000000E+00  0.21050913835E+04  0.43444839660E+04  0.38004119774E+04 0.  0.
        3    1    3    3  502    0 -0.12996697700E+03  0.17049794411E+04  0.20000164399E+04  0.26313327573E+04  0.10100000352E+00 0.  1.
       -3    1    3    3    0  502  0.12996697700E+03 -0.17049794411E+04  0.10507494364E+03  0.17131512087E+04  0.10100000352E+00 0. -1.
</event>
<event>
 5   0  0.1305088E-08  0.3808445E+04  0.7818609E-02  0.8044345E-01
        2   -1    0    0  501    0  0.00000000000E+00  0.00000000000E+00  0.16198488128E+04  0.16198488128E+04  0.25500000920E-02 0. -1.
       -2   -1    0    0    0  501  0.00000000000E+00  0.00000000000E+00 -0.22385197237E+04  0.22385197237E+04  0.25500000920E-02 0.  1.
    10030    2    1    2    0    0  0.00000000000E+00  0.00000000000E+00 -0.61867091083E+03  0.38583685365E+04  0.38084450984E+04 0.  0.
        3    1    3    3  502    0  0.58977887817E+03 -0.91510542679E+03  0.12734522871E+04  0.16753918363E+04  0.10100000352E+00 0. -1.
       -3    1    3    3    0  502 -0.58977887817E+03  0.91510542679E+03 -0.18921231979E+04  0.21829767002E+04  0.10100000352E+00 0.  1.
</event>
<event>
 5   0  0.1293993E-08  0.3798046E+04  0.7818609E-02  0.8046574E-01
        2   -1    0    0  501    0  0.00000000000E+00  0.00000000000E+00  0.20831174250E+04  0.20831174250E+04  0.25500000920E-02 0. -1.
       -2   -1    0    0    0  501  0.00000000000E+00  0.00000000000E+00 -0.17311980518E+04  0.17311980518E+04  0.25500000920E-02 0.  1.
    10030    2    1    2    0    0  0.00000000000E+00  0.00000000000E+00  0.35191937320E+03  0.38143154769E+04  0.37980462493E+04 0.  0.
        5    1    3    3  502    0 -0.80132136677E+02  0.94412620121E+03  0.18287527435E+04  0.20596490308E+04  0.46999998093E+01 0. -1.
       -5    1    3    3    0  502  0.80132136677E+02 -0.94412620121E+03 -0.14768333703E+04  0.17546664461E+04  0.46999998093E+01 0.  1.
</event>
<event>
 5   0  0.1327249E-08  0.3801980E+04  0.7818609E-02  0.8045730E-01
       -2   -1    0    0    0  501  0.00000000000E+00  0.00000000000E+00  0.14299777712E+04  0.14299777712E+04  0.25500000920E-02 0.  1.
        2   -1    0    0  501    0  0.00000000000E+00  0.00000000000E+00 -0.25271467997E+04  0.25271467997E+04  0.25500000920E-02 0. -1.
    10030    2    1    2    0    0  0.00000000000E+00  0.00000000000E+00 -0.10971690285E+04  0.39571245708E+04  0.38019804039E+04 0.  0.
        1    1    3    3  502    0 -0.10520049371E+04  0.14556292011E+04 -0.11970601921E+04  0.21583613836E+04  0.50400001928E-02 0. -1.
       -1    1    3    3    0  502  0.10520049371E+04 -0.14556292011E+04  0.99891163572E+02  0.17987631872E+04  0.50400001928E-02 0.  1.
</event>
<event>
 5   0  0.4071750E-09  0.3800782E+04  0.7818609E-02  0.8045987E-01
        1   -1    0    0  501    0  0.00000000000E+00  0.00000000000E+00  0.17356157540E+04  0.17356157540E+04  0.50400001928E-02 0.  1.
       -1   -1    0    0    0  501  0.00000000000E+00  0.00000000000E+00 -0.20808096468E+04  0.20808096468E+04  0.50400001928E-02 0. -1.
    10030    2    1    2    0    0  0.00000000000E+00  0.00000000000E+00 -0.34519389276E+03  0.38164254008E+04  0.38007820270E+04 0.  0.
        3    1    3    3  502    0 -0.54660731263E+03 -0.16344567450E+04 -0.97667845114E+03  0.19809414965E+04  0.10100000352E+00 0. -1.
       -3    1    3    3    0  502  0.54660731263E+03  0.16344567450E+04  0.63148455838E+03  0.18354839043E+04  0.10100000352E+00 0.  1.
</event>
<event>
 5   0  0.4071750E-09  0.3800365E+04  0.7818609E-02  0.8046077E-01
       -1   -1    0    0    0  501  0.00000000000E+00  0.00000000000E+00  0.29963642964E+04  0.29963642964E+04  0.50400001928E-02 0.  1.
        1   -1    0    0  501    0  0.00000000000E+00  0.00000000000E+00 -0.12050247163E+04  0.12050247163E+04  0.50400001928E-02 0. -1.
    10030    2    1    2    0    0  0.00000000000E+00  0.00000000000E+00  0.17913395802E+04  0.42013890127E+04  0.38003647384E+04 0.  0.
        4    1    3    3  502    0  0.25899536487E+03  0.17005911710E+04  0.32709765416E+01  0.17202038374E+04  0.12699999809E+01 0.  1.
       -4    1    3    3    0  502 -0.25899536487E+03 -0.17005911710E+04  0.17880686036E+04  0.24811851753E+04  0.12699999809E+01 0. -1.
</event>
<event>
 5   0  0.4071750E-09  0.3795728E+04  0.7818609E-02  0.8047072E-01
       -1   -1    0    0    0  501  0.00000000000E+00  0.00000000000E+00  0.27769654403E+04  0.27769654403E+04  0.50400001928E-02 0. -1.
        1   -1    0    0  501    0  0.00000000000E+00  0.00000000000E+00 -0.12970590897E+04  0.12970590897E+04  0.50400001928E-02 0.  1.
    10030    2    1    2    0    0  0.00000000000E+00  0.00000000000E+00  0.14799063506E+04  0.40740245300E+04  0.37957282654E+04 0.  0.
        5    1    3    3  502    0  0.10196203575E+04  0.39291171332E+03  0.24054515832E+04  0.26420114869E+04  0.46999998093E+01 0. -1.
       -5    1    3    3    0  502 -0.10196203575E+04 -0.39291171332E+03 -0.92554523262E+03  0.14320130431E+04  0.46999998093E+01 0.  1.
</event>
<event>
 5   0  0.1264013E-08  0.3803030E+04  0.7818609E-02  0.8045505E-01
       -2   -1    0    0    0  501  0.00000000000E+00  0.00000000000E+00  0.22699399205E+04  0.22699399205E+04  0.25500000920E-02 0. -1.
        2   -1    0    0  501    0  0.00000000000E+00  0.00000000000E+00 -0.15928874293E+04  0.15928874293E+04  0.25500000920E-02 0.  1.
    10030    2    1    2    0    0  0.00000000000E+00  0.00000000000E+00  0.67705249120E+03  0.38628273499E+04  0.38030297210E+04 0.  0.
        4    1    3    3  502    0 -0.11894769639E+04 -0.13987503621E+04 -0.16361443257E+03  0.18434015620E+04  0.12699999809E+01 0. -1.
       -4    1    3    3    0  502  0.11894769639E+04  0.13987503621E+04  0.84066692377E+03  0.20194257879E+04  0.12699999809E+01 0.  1.
</event>
<event>
 5   0  0.1293993E-08  0.3800823E+04  0.7818609E-02  0.8045978E-01
        2   -1    0    0  501    0  0.00000000000E+00  0.00000000000E+00  0.12579767959E+04  0.12579767959E+04  0.25500000920E-02 0. -1.
       -2   -1    0    0    0  501  0.00000000000E+00  0.00000000000E+00 -0.28709298363E+04  0.28709298363E+04  0.25500000920E-02 0.  1.
    10030    2    1    2    0    0  0.00000000000E+00  0.00000000000E+00 -0.16129530405E+04  0.41289066322E+04  0.38008226040E+04 0.  0.
        5    1    3    3  502    0 -0.33270123225E+03 -0.15646134592E+04 -0.19211245456E+04  0.24998893968E+04  0.46999998093E+01 0.  1.
       -5    1    3    3    0  502  0.33270123225E+03  0.15646134592E+04  0.30817150516E+03  0.16290172354E+04  0.46999998093E+01 0. -1.
</event>
<event>
 5   0  0.1261152E-08  0.3800698E+04  0.7818609E-02  0.8046005E-01
       -2   -1    0    0    0  501  0.00000000000E+00  0.00000000000E+00  0.12724376317E+04  0.12724376317E+04  0.25500000920E-02 0. -1.
        2   -1    0    0  501    0  0.00000000000E+00  0.00000000000E+00 -0.28381161154E+04  0.28381161154E+04  0.25500000920E-02 0.  1.
    10030    2    1    2    0    0  0.00000000000E+00  0.00000000000E+00 -0.15656784838E+04  0.41105537471E+04  0.38006976982E+04 0.  0.
        2    1    3    3  502    0  0.13920017390E+04 -0.12823018876E+04 -0.59752620370E+03  0.19846925546E+04  0.25500000920E-02 0.  1.
       -2    1    3    3    0  502 -0.13920017390E+04  0.12823018876E+04 -0.96815228005E+03  0.21258611925E+04  0.25500000920E-02 0. -1.
</event>
<event>
 5   0  0.1305088E-08  0.3799242E+04  0.7818609E-02  0.8046318E-01
       -2   -1    0    0    0  501  0.00000000000E+00  0.00000000000E+00  0.16294922103E+04  0.16294922103E+04  0.25500000920E-02 0. -1.
        2   -1    0    0  501    0  0.00000000000E+00  0.00000000000E+00 -0.22145299552E+04  0.22145299552E+04  0.25500000920E-02 0.  1.
    10030    2    1    2    0    0  0.00000000000E+00  0.00000000000E+00 -0.58503774483E+03  0.38440221655E+04  0.37992416672E+04 0.  0.
        3    1    3    3  502    0  0.18307351894E+04  0.48188869852E+03 -0.13333922833E+03  0.18977848697E+04  0.10100000352E+00 0. -1.
       -3    1    3    3    0  502 -0.18307351894E+04 -0.48188869852E+03 -0.45169851650E+03  0.19462372958E+04  0.10100000352E+00 0.  1.
</event>
<event>
 5   0  0.1261152E-08  0.3795929E+04  0.7818609E-02  0.8047029E-01
        2   -1    0    0  501    0  0.00000000000E+00  0.00000000000E+00  0.25019657763E+04  0.25019657763E+04  0.25500000920E-02 0. -1.
       -2   -1    0    0    0  501  0.00000000000E+00  0.00000000000E+00 -0.14397753136E+04  0.14397753136E+04  0.25500000920E-02 0.  1.
    10030    2    1    2    0    0  0.00000000000E+00  0.00000000000E+00  0.10621904627E+04  0.39417410899E+04  0.37959286400E+04 0.  0.
        2    1    3    3  502    0 -0.44423119500E+03 -0.13325683420E+04  0.18565220858E+04  0.23280365109E+04  0.25500000920E-02 0. -1.
       -2    1    3    3    0  502  0.44423119500E+03  0.13325683420E+04 -0.79433162309E+03  0.16137045790E+04  0.25500000920E-02 0.  1.
</event>
<event>
 5   0  0.1305088E-08  0.3799792E+04  0.7818609E-02  0.8046200E-01
       -2   -1    0    0    0  501  0.00000000000E+00  0.00000000000E+00  0.18099994771E+04  0.18099994771E+04  0.25500000920E-02 0. -1.
        2   -1    0    0  501    0  0.00000000000E+00  0.00000000000E+00 -0.19942570177E+04  0.19942570177E+04  0.25500000920E-02 0.  1.
    10030    2    1    2    0    0  0.00000000000E+00  0.00000000000E+00 -0.18425754055E+03  0.38042564948E+04  0.37997916571E+04 0.  0.
        3    1    3    3  502    0 -0.64835139094E+03 -0.17857818701E+04 -0.10723740156E+03  0.19028600275E+04  0.10100000352E+00 0.  1.
       -3    1    3    3    0  502  0.64835139094E+03  0.17857818701E+04 -0.77020138986E+02  0.19013964673E+04  0.10100000352E+00 0. -1.
</event>
<event>
 5   0  0.1305088E-08  0.3798917E+04  0.7818609E-02  0.8046387E-01
        2   -1    0    0  501    0  0.00000000000E+00  0.00000000000E+00  0.17429449042E+04  0.17429449042E+04  0.25500000920E-02 0.  1.
       -2   -1    0    0    0  501  0.00000000000E+00  0.00000000000E+00 -0.20700269438E+04  0.20700269438E+04  0.25500000920E-02 0. -1.
    10030    2    1    2    0    0  0.00000000000E+00  0.00000000000E+00 -0.32708203956E+03  0.38129718480E+04  0.37989171685E+04 0.  0.
        3    1    3    3  502    0  0.18201306966E+04  0.37750124801E+03 -0.55557530982E+03  0.19401151718E+04  0.10100000352E+00 0. -1.
       -3    1    3    3    0  502 -0.18201306966E+04 -0.37750124801E+03  0.22849327026E+03  0.18728566762E+04  0.10100000352E+00 0.  1.
</event>
<event>
 5   0  0.1261152E-08  0.3792737E+04  0.7818609E-02  0.8047715E-01
       -2   -1    0    0    0  501  0.00000000000E+00  0.00000000000E+00  0.29156466453E+04  0.29156466453E+04  0.25500000920E-02 0. -1.
        2   -1    0    0  501    0  0.00000000000E+00  0.00000000000E+00 -0.12334185877E+04  0.12334185877E+04  0.25500000920E-02 0.  1.
    10030    2    1    2    0    0  0.00000000000E+00  0.00000000000E+00  0.16822280575E+04  0.41490652330E+04  0.37927366202E+04 0.  0.
        2    1    3    3  502    0  0.84276347777E+03  0.18801626991E+03  0.26881130308E+04  0.28233937139E+04  0.25500000920E-02 0. -1.
       -2    1    3    3    0  502 -0.84276347777E+03 -0.18801626991E+03 -0.10058849733E+04  0.13256715191E+04  0.25500000920E-02 0.  1.
</event>
<event>
 5   0  0.4071750E-09  0.3801584E+04  0.7818609E-02  0.8045815E-01
       -1   -1    0    0    0  501  0.00000000000E+00  0.00000000000E+00  0.22751411206E+04  0.22751411206E+04  0.50400001928E-02 0.  1.
        1   -1    0    0  501    0  0.00000000000E+00  0.00000000000E+00 -0.15880377759E+04  0.15880377760E+04  0.50400001928E-02 0. -1.
    10030    2    1    2    0    0  0.00000000000E+00  0.00000000000E+00  0.68710334462E+03  0.38631788965E+04  0.38015839042E+04 0.  0.
        5    1    3    3  502    0  0.55624829466E+03 -0.15477096663E+04 -0.62486878240E+03  0.17593466008E+04  0.46999998093E+01 0. -1.
       -5    1    3    3    0  502 -0.55624829466E+03  0.15477096663E+04  0.13119721270E+04  0.21038322957E+04  0.46999998093E+01 0.  1.
</event>
<event>
 5   0  0.4071750E-09  0.3800314E+04  0.7818609E-02  0.8046087E-01
       -1   -1    0    0    0  501  0.00000000000E+00  0.00000000000E+00  0.14985966383E+04  0.14985966383E+04  0.50400001928E-02 0. -1.
        1   -1    0    0  501    0  0.00000000000E+00  0.00000000000E+00 -0.24093188184E+04  0.24093188184E+04  0.50400001928E-02 0.  1.
    10030    2    1    2    0    0  0.00000000000E+00  0.00000000000E+00 -0.91072218016E+03  0.39079154567E+04  0.38003142406E+04 0.  0.
        2    1    3    3  502    0  0.17256452678E+04  0.78799602544E+03 -0.56710125928E+03  0.19799982739E+04  0.25500000920E-02 0.  1.
       -2    1    3    3    0  502 -0.17256452678E+04 -0.78799602544E+03 -0.34362092087E+03  0.19279171828E+04  0.25500000920E-02 0. -1.
</event>
<event>
 5   0  0.4071750E-09  0.3804526E+04  0.7818609E-02  0.8045184E-01
        1   -1    0    0  501    0  0.00000000000E+00  0.00000000000E+00  0.15676099265E+04  0.15676099265E+04  0.50400001928E-02 0.  1.
       -1   -1    0    0    0  501  0.00000000000E+00  0.00000000000E+00 -0.23083572063E+04  0.23083572063E+04  0.50400001928E-02 0. -1.
    10030    2    1    2    0    0  0.00000000000E+00  0.00000000000E+00 -0.74074727974E+03  0.38759671328E+04  0.38045255528E+04 0.  0.
        2    1    3    3  502    0  0.14443947682E+03  0.17661127833E+04  0.33441650466E+03  0.18032890851E+04  0.25500000920E-02 0. -1.
       -2    1    3    3    0  502 -0.14443947682E+03 -0.17661127833E+04 -0.10751637844E+04  0.20726780477E+04  0.25500000920E-02 0.  1.
</event>
<event>
 5   0  0.4071750E-09  0.3803329E+04  0.7818609E-02  0.8045441E-01
        1   -1    0    0  501    0  0.00000000000E+00  0.00000000000E+00  0.23017445384E+04  0.23017445384E+04  0.50400001928E-02 0.  1.
       -1   -1    0    0    0  501  0.00000000000E+00  0.00000000000E+00 -0.15711243867E+04  0.15711243867E+04  0.50400001928E-02 0. -1.
    10030    2    1    2    0    0  0.00000000000E+00  0.00000000000E+00  0.73062015163E+03  0.38728689251E+04  0.38033285297E+04 0.  0.
        3    1    3    3  502    0 -0.95376145576E+03  0.16170786998E+04  0.56915329590E+02  0.18782555206E+04  0.10100000352E+00 0. -1.
       -3    1    3    3    0  502  0.95376145576E+03 -0.16170786998E+04  0.67370482204E+03  0.19946134045E+04  0.10100000352E+00 0.  1.
</event>
<event>
 5   0  0.1327249E-08  0.3809313E+04  0.7818609E-02  0.8044159E-01
       -2   -1    0    0    0  501  0.00000000000E+00  0.00000000000E+00  0.17384524372E+04  0.17384524372E+04  0.25500000920E-02 0.  1.
        2   -1    0    0  501    0  0.00000000000E+00  0.00000000000E+00 -0.20867506755E+04  0.20867506755E+04  0.25500000920E-02 0. -1.
    10030    2    1    2    0    0  0.00000000000E+00  0.00000000000E+00 -0.34829823831E+03  0.38252031126E+04  0.38093132176E+04 0.  0.
        1    1    3    3  502    0 -0.78107174649E+03 -0.10377260855E+04 -0.15730748597E+04  0.20399786803E+04  0.50400001928E-02 0. -1.
       -1    1    3    3    0  502  0.78107174649E+03  0.10377260855E+04  0.12247766214E+04  0.17852244324E+04  0.50400001928E-02 0.  1.
</event>
<event>
 5   0  0.4071750E-09  0.3788447E+04  0.7818609E-02  0.8048639E-01
        1   -1    0    0  501    0  0.00000000000E+00  0.00000000000E+00  0.22234167543E+04  0.22234167543E+04  0.50400001928E-02 0. -1.
       -1   -1    0    0    0  501  0.00000000000E+00  0.00000000000E+00 -0.16137699074E+04  0.16137699074E+04  0.50400001928E-02 0.  1.
    10030    2    1    2    0    0  0.00000000000E+00  0.00000000000E+00  0.60964684691E+03  0.38371866618E+04  0.37884472016E+04 0.  0.
        3    1    3    3  502    0  0.34986037951E+02  0.37454066319E+03  0.21852040255E+04  0.22173455694E+04  0.10100000352E+00 0. -1.
       -3    1    3    3    0  502 -0.34986037951E+02 -0.37454066319E+03 -0.15755571786E+04  0.16198410923E+04  0.10100000352E+00 0.  1.
</event>
<event>
 5   0  0.1305088E-08  0.3800811E+04  0.7818609E-02  0.8045981E-01
        2   -1    0    0  501    0  0.00000000000E+00  0.00000000000E+00  0.27813625338E+04  0.27813625338E+04  0.25500000920E-02 0. -1.
       -2   -1    0    0    0  501  0.00000000000E+00  0.00000000000E+00 -0.12984792840E+04  0.12984792840E+04  0.25500000920E-02 0.  1.
    10030    2    1    2    0    0  0.00000000000E+00  0.00000000000E+00  0.14828832498E+04  0.40798418178E+04  0.38008112984E+04 0.  0.
        3    1    3    3  502    0  0.54920621232E+03 -0.10391967999E+04  0.23443839876E+04  0.26225357470E+04  0.10100000352E+00 0. -1.
       -3    1    3    3    0  502 -0.54920621232E+03  0.10391967999E+04 -0.86150073785E+03  0.14573060708E+04  0.10100000352E+00 0.  1.
</event>
<event>
 5   0  0.4071750E-09  0.3803367E+04  0.7818609E-02  0.8045433E-01
        1   -1    0    0  501    0  0.00000000000E+00  0.00000000000E+00  0.23888120997E+04  0.23888120997E+04  0.50400001928E-02 0.  1.
       -1   -1    0    0    0  501  0.00000000000E+00  0.00000000000E+00 -0.15138909257E+04  0.15138909257E+04  0.50400001928E-02 0. -1.
    10030    2    1    2    0    0  0.00000000000E+00  0.00000000000E+00  0.87492117407E+03  0.39027030254E+04  0.38033674348E+04 0.  0.
        1    1    3    3  502    0 -0.12881484763E+04 -0.11834699135E+03 -0.99288595997E+03  0.16306915824E+04  0.50400001928E-02 0. -1.
       -1    1    3    3    0  502  0.12881484763E+04  0.11834699135E+03  0.18678071340E+04  0.22720114430E+04  0.50400001928E-02 0.  1.
</event>
<event>
 5   0  0.1264013E-08  0.3799400E+04  0.7818609E-02  0.8046284E-01
        2   -1    0    0  501    0  0.00000000000E+00  0.00000000000E+00  0.24921808545E+04  0.24921808545E+04  0.25500000920E-02 0.  1.
       -2   -1    0    0    0  501  0.00000000000E+00  0.00000000000E+00 -0.14480734037E+04  0.14480734037E+04  0.25500000920E-02 0. -1.
    10030    2    1    2    0    0  0.00000000000E+00  0.00000000000E+00  0.10441074507E+04  0.39402542582E+04  0.37994003804E+04 0.  0.
        4    1    3    3  502    0 -0.16297391573E+04 -0.13738493332E+03  0.15242839090E+04  0.22357028848E+04  0.12699999809E+01 0.  1.
       -4    1    3    3    0  502  0.16297391573E+04  0.13738493332E+03 -0.48017645830E+03  0.17045513734E+04  0.12699999809E+01 0. -1.
</event>
<event>
 5   0  0.1264013E-08  0.3800192E+04  0.7818609E-02  0.8046114E-01
       -2   -1    0    0    0  501  0.00000000000E+00  0.00000000000E+00  0.21747904892E+04  0.21747904892E+04  0.25500000920E-02 0. -1.
        2   -1    0    0  501    0  0.00000000000E+00  0.00000000000E+00 -0.16600974216E+04  0.16600974216E+04  0.25500000920E-02 0.  1.
    10030    2    1    2    0    0  0.00000000000E+00  0.00000000000E+00  0.51469306757E+03  0.38348879107E+04  0.38001916181E+04 0.  0.
        4    1    3    3  502    0  0.15569520422E+04 -0.50141836304E+03 -0.71835365180E+03  0.17864919867E+04  0.12699999809E+01 0.  1.
       -4    1    3    3    0  502 -0.15569520422E+04  0.50141836304E+03  0.12330467194E+04  0.20483959240E+04  0.12699999809E+01 0. -1.
</event>
<event>
 5   0  0.4071750E-09  0.3802230E+04  0.7818609E-02  0.8045677E-01
       -1   -1    0    0    0  501  0.00000000000E+00  0.00000000000E+00  0.17826862339E+04  0.17826862339E+04  0.50400001928E-02 0.  1.
        1   -1    0    0  501    0  0.00000000000E+00  0.00000000000E+00 -0.20274109511E+04  0.20274109511E+04  0.50400001928E-02 0. -1.
    10030    2    1    2    0    0  0.00000000000E+00  0.00000000000E+00 -0.24472471720E+03  0.38100971850E+04  0.38022296579E+04 0.  0.
        5    1    3    3  502    0 -0.55320651905E+03 -0.16869157805E+04 -0.80383807385E+03  0.19488201667E+04  0.46999998093E+01 0. -1.
       -5    1    3    3    0  502  0.55320651905E+03  0.16869157805E+04  0.55911335665E+03  0.18612770183E+04  0.46999998093E+01 0.  1.
</event>
<event>
 5   0  0.4071750E-09  0.3798190E+04  0.7818609E-02  0.8046543E-01
       -1   -1    0    0    0  501  0.00000000000E+00  0.00000000000E+00  0.19322652612E+04  0.19322652612E+04  0.50400001928E-02 0.  1.
        1   -1    0    0  501    0  0.00000000000E+00  0.00000000000E+00 -0.18664940975E+04  0.18664940975E+04  0.50400001928E-02 0. -1.
    10030    2    1    2    0    0  0.00000000000E+00  0.00000000000E+00  0.65771163769E+02  0.37987593587E+04  0.37981899399E+04 0.  0.
        3    1    3    3  502    0  0.19817970546E+03 -0.42676203843E+03  0.18730420246E+04  0.19312398788E+04  0.10100000352E+00 0.  1.
       -3    1    3    3    0  502 -0.19817970546E+03  0.42676203843E+03 -0.18072708609E+04  0.18675194799E+04  0.10100000352E+00 0. -1.
</event>
<event>
 5   0  0.4071750E-09  0.3798887E+04  0.7818609E-02  0.8046394E-01
        1   -1    0    0  501    0  0.00000000000E+00  0.00000000000E+00  0.14098180562E+04  0.14098180562E+04  0.50400001928E-02 0. -1.
       -1   -1    0    0    0  501  0.00000000000E+00  0.00000000000E+00 -0.25591143787E+04  0.25591143787E+04  0.50400001928E-02 0.  1.
    10030    2    1    2    0    0  0.00000000000E+00  0.00000000000E+00 -0.11492963225E+04  0.39689324348E+04  0.37988870259E+04 0.  0.
        2    1    3    3  502    0 -0.11804634897E+04 -0.14914028516E+03 -0.21215129040E+04  0.24323967351E+04  0.25500000920E-02 0.  1.
       -2    1    3    3    0  502  0.11804634897E+04  0.14914028516E+03  0.97221658151E+03  0.15365356997E+04  0.25500000920E-02 0. -1.
</event>
<event>
 5   0  0.1264013E-08  0.3793948E+04  0.7818609E-02  0.8047455E-01
       -2   -1    0    0    0  501  0.00000000000E+00  0.00000000000E+00  0.28404742703E+04  0.28404742703E+04  0.25500000920E-02 0. -1.
        2   -1    0    0  501    0  0.00000000000E+00  0.00000000000E+00 -0.12668694998E+04  0.12668694998E+04  0.25500000920E-02 0.  1.
    10030    2    1    2    0    0  0.00000000000E+00  0.00000000000E+00  0.15736047705E+04  0.41073437701E+04  0.37939479269E+04 0.  0.
        4    1    3    3  502    0  0.31931862940E+03 -0.46163826826E+03  0.27485080883E+04  0.28052402040E+04  0.12699999809E+01 0. -1.
       -4    1    3    3    0  502 -0.31931862940E+03  0.46163826826E+03 -0.11749033178E+04  0.13021035661E+04  0.12699999809E+01 0.  1.
</event>
<event>
 5   0  0.4071750E-09  0.3802028E+04  0.7818609E-02  0.8045720E-01
        1   -1    0    0  501    0  0.00000000000E+00  0.00000000000E+00  0.12456749903E+04  0.12456749903E+04  0.50400001928E-02 0. -1.
       -1   -1    0    0    0  501  0.00000000000E+00  0.00000000000E+00 -0.29011210314E+04  0.29011210314E+04  0.50400001928E-02 0.  1.
    10030    2    1    2    0    0  0.00000000000E+00  0.00000000000E+00 -0.16554460410E+04  0.41467960217E+04  0.38020278340E+04 0.  0.
        3    1    3    3  502    0  0.16221183902E+04  0.46103845932E+03  0.12936311770E+03  0.16913188224E+04  0.10100000352E+00 0. -1.
       -3    1    3    3    0  502 -0.16221183902E+04 -0.46103845932E+03 -0.17848091587E+04  0.24554771993E+04  0.10100000352E+00 0.  1.
</event>
<event>
 5   0  0.1261152E-08  0.3800360E+04  0.7818609E-02  0.8046078E-01
       -2   -1    0    0    0  501  0.00000000000E+00  0.00000000000E+00  0.12411648223E+04  0.12411648223E+04  0.25500000920E-02 0. -1.
        2   -1    0    0  501    0  0.00000000000E+00  0.00000000000E+00 -0.29091093147E+04  0.29091093147E+04  0.25500000920E-02 0.  1.
    10030    2    1    2    0    0  0.00000000000E+00  0.00000000000E+00 -0.16679444924E+04  0.41502741369E+04  0.38003600595E+04 0.  0.
        2    1    3    3  502    0 -0.14549410258E+03  0.48347169767E+03 -0.28345165775E+04  0.28791314045E+04  0.25500000920E-02 0.  1.
       -2    1    3    3    0  502  0.14549410258E+03 -0.48347169767E+03  0.11665720851E+04  0.12711427324E+04  0.25500000920E-02 0. -1.
</event>
<event>
 5   0  0.1264013E-08  0.3798964E+04  0.7818609E-02  0.8046377E-01
       -2   -1    0    0    0  501  0.00000000000E+00  0.00000000000E+00  0.13102055043E+04  0.13102055043E+04  0.25500000920E-02 0. -1.
        2   -1    0    0  501    0  0.00000000000E+00  0.00000000000E+00 -0.27537914633E+04  0.27537914633E+04  0.25500000920E-02 0.  1.
    10030    2    1    2    0    0  0.00000000000E+00  0.00000000000E+00 -0.14435859591E+04  0.40639969676E+04  0.37989644552E+04 0.  0.
        4    1    3    3  502    0 -0.31591231579E+03  0.28212038376E+03  0.12590452142E+04  0.13283783221E+04  0.12699999809E+01 0. -1.
       -4    1    3    3    0  502  0.31591231579E+03 -0.28212038376E+03 -0.27026311733E+04  0.27356186456E+04  0.12699999809E+01 0.  1.
</event>
<event>
 5   0  0.4071750E-09  0.3800579E+04  0.7818609E-02  0.8046031E-01
       -1   -1    0    0    0  501  0.00000000000E+00  0.00000000000E+00  0.15507610203E+04  0.15507610203E+04  0.50400001928E-02 0.  1.
        1   -1    0    0  501    0  0.00000000000E+00  0.00000000000E+00 -0.23285982287E+04  0.23285982287E+04  0.50400001928E-02 0. -1.
    10030    2    1    2    0    0  0.00000000000E+00  0.00000000000E+00 -0.77783720839E+03  0.38793592490E+04  0.38005785691E+04 0.  0.
        5    1    3    3  502    0  0.67367726727E+03  0.10548676519E+02 -0.22025798320E+04  0.23033307060E+04  0.46999998093E+01 0. -1.
       -5    1    3    3    0  502 -0.67367726727E+03 -0.10548676519E+02  0.14247426236E+04  0.15760285430E+04  0.46999998093E+01 0.  1.
</event>
<event>
 5   0  0.4071750E-09  0.3799347E+04  0.7818609E-02  0.8046295E-01
        1   -1    0    0  501    0  0.00000000000E+00  0.00000000000E+00  0.17435115600E+04  0.17435115600E+04  0.50400001928E-02 0. -1.
       -1   -1    0    0    0  501  0.00000000000E+00  0.00000000000E+00 -0.20698223644E+04  0.20698223644E+04  0.50400001928E-02 0.  1.
    10030    2    1    2    0    0  0.00000000000E+00  0.00000000000E+00 -0.32631080437E+03  0.38133339243E+04  0.37993469014E+04 0.  0.
        2    1    3    3  502    0  0.14696884510E+04  0.37461425630E+03 -0.13112367664E+04  0.20049094347E+04  0.25500000920E-02 0.  1.
       -2    1    3    3    0  502 -0.14696884510E+04 -0.37461425630E+03  0.98492596203E+03  0.18084244896E+04  0.25500000920E-02 0. -1.
</event>
<event>
 5   0  0.1261152E-08  0.3797599E+04  0.7818609E-02  0.8046670E-01
        2   -1    0    0  501    0  0.00000000000E+00  0.00000000000E+00  0.24732271936E+04  0.24732271936E+04  0.25500000920E-02 0. -1.
       -2   -1    0    0    0  501  0.00000000000E+00  0.00000000000E+00 -0.14577871733E+04  0.14577871733E+04  0.25500000920E-02 0.  1.
    10030    2    1    2    0    0  0.00000000000E+00  0.00000000000E+00  0.10154400203E+04  0.39310143669E+04  0.37975986515E+04 0.  0.
        2    1    3    3  502    0  0.58888700400E+03 -0.98769921437E+03  0.20717970880E+04  0.23695317714E+04  0.25500000920E-02 0. -1.
       -2    1    3    3    0  502 -0.58888700400E+03  0.98769921437E+03 -0.10563570677E+04  0.15614825955E+04  0.25500000920E-02 0.  1.
</event>
<event>
 5   0  0.1305088E-08  0.3802349E+04  0.7818609E-02  0.8045651E-01
        2   -1    0    0  501    0  0.00000000000E+00  0.00000000000E+00  0.20745345457E+04  0.20745345457E+04  0.25500000920E-02 0.  1.
       -2   -1    0    0    0  501  0.00000000000E+00  0.00000000000E+00 -0.17423012991E+04  0.17423012991E+04  0.25500000920E-02 0. -1.
    10030    2    1    2    0    0  0.00000000000E+00  0.00000000000E+00  0.33223324661E+03  0.38168358448E+04  0.38023488709E+04 0.  0.
        3    1    3    3  502    0 -0.56997015041E+03 -0.11239647431E+04  0.15950222765E+04  0.20327958060E+04  0.10100000352E+00 0.  1.
       -3    1    3    3    0  502  0.56997015041E+03  0.11239647431E+04 -0.12627890299E+04  0.17840400389E+04  0.10100000352E+00 0. -1.
</event>
<event>
 5   0  0.1293993E-08  0.3799460E+04  0.7818609E-02  0.8046271E-01
        2   -1    0    0  501    0  0.00000000000E+00  0.00000000000E+00  0.17050148862E+04  0.17050148862E+04  0.25500000920E-02 0.  1.
       -2   -1    0    0    0  501  0.00000000000E+00  0.00000000000E+00 -0.21166823732E+04  0.21166823732E+04  0.25500000920E-02 0. -1.
    10030    2    1    2    0    0  0.00000000000E+00  0.00000000000E+00 -0.41166748697E+03  0.38216972594E+04  0.37994604647E+04 0.  0.
        5    1    3    3  502    0  0.15177478637E+04 -0.46599077694E+03  0.84346237698E+03  0.17978200281E+04  0.46999998093E+01 0.  1.
       -5    1    3    3    0  502 -0.15177478637E+04  0.46599077694E+03 -0.12551298639E+04  0.20238772313E+04  0.46999998093E+01 0. -1.
</event>
<event>
 5   0  0.4071750E-09  0.3799537E+04  0.7818609E-02  0.8046254E-01
        1   -1    0    0  501    0  0.00000000000E+00  0.00000000000E+00  0.17968011207E+04  0.17968011207E+04  0.50400001928E-02 0.  1.
       -1   -1    0    0    0  501  0.00000000000E+00  0.00000000000E+00 -0.20086363811E+04  0.20086363811E+04  0.50400001928E-02 0. -1.
    10030    2    1    2    0    0  0.00000000000E+00  0.00000000000E+00 -0.21183526046E+03  0.38054375018E+04  0.37995368668E+04 0.  0.
        2    1    3    3  502    0  0.60819576339E+03  0.14510792109E+03 -0.19026271224E+04  0.20027352203E+04  0.25500000920E-02 0. -1.
       -2    1    3    3    0  502 -0.60819576339E+03 -0.14510792109E+03  0.16907918620E+04  0.18027022816E+04  0.25500000920E-02 0.  1.
</event>
<event>
 5   0  0.1261152E-08  0.3799688E+04  0.7818609E-02  0.8046222E-01
        2   -1    0    0  501    0  0.00000000000E+00  0.00000000000E+00  0.15720158645E+04  0.15720158645E+04  0.25500000920E-02 0. -1.
       -2   -1    0    0    0  501  0.00000000000E+00  0.00000000000E+00 -0.22960370949E+04  0.22960370949E+04  0.25500000920E-02 0.  1.
    10030    2    1    2    0    0  0.00000000000E+00  0.00000000000E+00 -0.72402123042E+03  0.38680529593E+04  0.37996877443E+04 0.  0.
        2    1    3    3  502    0 -0.44693880742E+03  0.11649923830E+04 -0.18204228113E+04  0.22070117267E+04  0.25500000920E-02 0.  1.
       -2    1    3    3    0  502  0.44693880742E+03 -0.11649923830E+04  0.10964015808E+04  0.16610412326E+04  0.25500000920E-02 0. -1.
</event>
<event>
 5   0  0.4071750E-09  0.3807572E+04  0.7818609E-02  0.8044532E-01
       -1   -1    0    0    0  501  0.00000000000E+00  0.00000000000E+00  0.14034848321E+04  0.14034848321E+04  0.50400001928E-02 0.  1.
        1   -1    0    0  501    0  0.00000000000E+00  0.00000000000E+00 -0.25824303991E+04  0.25824303991E+04  0.50400001928E-02 0. -1.
    10030    2    1    2    0    0  0.00000000000E+00  0.00000000000E+00 -0.11789455670E+04  0.39859152312E+04  0.38075723999E+04 0.  0.
        2    1    3    3  502    0 -0.62053128694E+02  0.12304220439E+04  0.92992769098E+03  0.15435525606E+04  0.25500000920E-02 0.  1.
       -2    1    3    3    0  502  0.62053128694E+02 -0.12304220439E+04 -0.21088732580E+04  0.24423626707E+04  0.25500000920E-02 0. -1.
</event>
<event>
 5   0  0.1293993E-08  0.3798358E+04  0.7818609E-02  0.8046507E-01
       -2   -1    0    0    0  501  0.00000000000E+00  0.00000000000E+00  0.31397331399E+04  0.31397331399E+04  0.25500000920E-02 0.  1.
        2   -1    0    0  501    0  0.00000000000E+00  0.00000000000E+00 -0.11487858550E+04  0.11487858550E+04  0.25500000920E-02 0. -1.
    10030    2    1    2    0    0  0.00000000000E+00  0.00000000000E+00  0.19909472849E+04  0.42885189949E+04  0.37983580766E+04 0.  0.
        5    1    3    3  502    0 -0.56767922687E+02 -0.20232563887E+03  0.31265602593E+04  0.31336176229E+04  0.46999998093E+01 0.  1.
       -5    1    3    3    0  502  0.56767922687E+02  0.20232563887E+03 -0.11356129745E+04  0.11549013720E+04  0.46999998093E+01 0. -1.
</event>
<event>
 5   0  0.4071750E-09  0.3800137E+04  0.7818609E-02  0.8046125E-01
       -1   -1    0    0    0  501  0.00000000000E+00  0.00000000000E+00  0.31668714545E+04  0.31668714546E+04  0.50400001928E-02 0.  1.
        1   -1    0    0  501    0  0.00000000000E+00  0.00000000000E+00 -0.11400086595E+04  0.11400086595E+04  0.50400001928E-02 0. -1.
    10030    2    1    2    0    0  0.00000000000E+00  0.00000000000E+00  0.20268627950E+04  0.43068801141E+04  0.38001373037E+04 0.  0.
        1    1    3    3  502    0 -0.71043232615E+03 -0.40343337094E+03  0.29576406487E+04  0.30684052505E+04  0.50400001928E-02 0.  1.
       -1    1    3    3    0  502  0.71043232615E+03  0.40343337094E+03 -0.93077785363E+03  0.12384748636E+04  0.50400001928E-02 0. -1.
</event>
<event>
 5   0  0.4071750E-09  0.3798643E+04  0.7818609E-02  0.8046446E-01
       -1   -1    0    0    0  501  0.00000000000E+00  0.00000000000E+00  0.18011963014E+04  0.18011963014E+04  0.50400001928E-02 0. -1.
        1   -1    0    0  501    0  0.00000000000E+00  0.00000000000E+00 -0.20027921539E+04  0.20027921539E+04  0.50400001928E-02 0.  1.
    10030    2    1    2    0    0  0.00000000000E+00  0.00000000000E+00 -0.20159585246E+03  0.38039884553E+04  0.37986428209E+04 0.  0.
        4    1    3    3  502    0  0.13803390172E+04 -0.30256737663E+03 -0.13716533190E+04  0.19693443732E+04  0.12699999809E+01 0.  1.
       -4    1    3    3    0  502 -0.13803390172E+04  0.30256737663E+03  0.11700574666E+04  0.18346440821E+04  0.12699999809E+01 0. -1.
</event>
<event>
 5   0  0.4071750E-09  0.3795968E+04  0.7818609E-02  0.8047021E-01
        1   -1    0    0  501    0  0.00000000000E+00  0.00000000000E+00  0.28283350228E+04  0.28283350228E+04  0.50400001928E-02 0.  1.
       -1   -1    0    0    0  501  0.00000000000E+00  0.00000000000E+00 -0.12736620262E+04  0.12736620262E+04  0.50400001928E-02 0. -1.
    10030    2    1    2    0    0  0.00000000000E+00  0.00000000000E+00  0.15546729966E+04  0.41019970490E+04  0.37959678165E+04 0.  0.
        1    1    3    3  502    0 -0.14608754363E+04  0.11910888647E+04  0.10177426372E+04  0.21421133956E+04  0.50400001928E-02 0.  1.
       -1    1    3    3    0  502  0.14608754363E+04 -0.11910888647E+04  0.53693035938E+03  0.19598836534E+04  0.50400001928E-02 0. -1.
</event>
<event>
 5   0  0.1293993E-08  0.3801649E+04  0.7818609E-02  0.8045801E-01
       -2   -1    0    0    0  501  0.00000000000E+00  0.00000000000E+00  0.19152845325E+04  0.19152845325E+04  0.25500000920E-02 0.  1.
        2   -1    0    0  501    0  0.00000000000E+00  0.00000000000E+00 -0.18864733101E+04  0.18864733101E+04  0.25500000920E-02 0. -1.
    10030    2    1    2    0    0  0.00000000000E+00  0.00000000000E+00  0.28811222460E+02  0.38017578426E+04  0.38016486696E+04 0.  0.
        5    1    3    3  502    0  0.11922870257E+04 -0.10853777654E+04  0.10211707419E+04  0.19085085851E+04  0.46999998093E+01 0.  1.
       -5    1    3    3    0  502 -0.11922870257E+04  0.10853777654E+04 -0.99235951939E+03  0.18932492575E+04  0.46999998093E+01 0. -1.
</event>
<event>
 5   0  0.4071750E-09  0.3799639E+04  0.7818609E-02  0.8046232E-01
       -1   -1    0    0    0  501  0.00000000000E+00  0.00000000000E+00  0.21706111344E+04  0.21706111344E+04  0.50400001928E-02 0.  1.
        1   -1    0    0  501    0  0.00000000000E+00  0.00000000000E+00 -0.16628099140E+04  0.16628099140E+04  0.50400001928E-02 0. -1.
    10030    2    1    2    0    0  0.00000000000E+00  0.00000000000E+00  0.50780122036E+03  0.38334210484E+04  0.37996387795E+04 0.  0.
        5    1    3    3  502    0 -0.16188929101E+04 -0.77251704454E+03  0.88532027953E+03  0.20003527004E+04  0.46999998093E+01 0.  1.
       -5    1    3    3    0  502  0.16188929101E+04  0.77251704454E+03 -0.37751905917E+03  0.18330683480E+04  0.46999998093E+01 0. -1.
</event>
<event>
 5   0  0.4071750E-09  0.3800211E+04  0.7818609E-02  0.8046110E-01
       -1   -1    0    0    0  501  0.00000000000E+00  0.00000000000E+00  0.23357466654E+04  0.23357466654E+04  0.50400001928E-02 0. -1.
        1   -1    0    0  501    0  0.00000000000E+00  0.00000000000E+00 -0.15457160736E+04  0.15457160736E+04  0.50400001928E-02 0.  1.
    10030    2    1    2    0    0  0.00000000000E+00  0.00000000000E+00  0.79003059178E+03  0.38814627390E+04  0.38002111334E+04 0.  0.
        3    1    3    3  502    0 -0.92154515468E+03 -0.16056449947E+04 -0.41987511125E+02  0.18517840810E+04  0.10100000352E+00 0.  1.
       -3    1    3    3    0  502  0.92154515468E+03  0.16056449947E+04  0.83201810290E+03  0.20296786581E+04  0.10100000352E+00 0. -1.
</event>
<event>
 5   0  0.1327249E-08  0.3799964E+04  0.7818609E-02  0.8046163E-01
       -2   -1    0    0    0  501  0.00000000000E+00  0.00000000000E+00  0.23797749835E+04  0.23797749835E+04  0.25500000920E-02 0. -1.
        2   -1    0    0  501    0  0.00000000000E+00  0.00000000000E+00 -0.15169211234E+04  0.15169211234E+04  0.25500000920E-02 0.  1.
    10030    2    1    2    0    0  0.00000000000E+00  0.00000000000E+00  0.86285386011E+03  0.38966961069E+04  0.37999636532E+04 0.  0.
        1    1    3    3  502    0  0.11759505368E+04  0.71523981250E+03  0.17745409186E+04  0.22457566934E+04  0.50400001928E-02 0. -1.
       -1    1    3    3    0  502 -0.11759505368E+04 -0.71523981250E+03 -0.91168705848E+03  0.16509394135E+04  0.50400001928E-02 0.  1.
</event>
<event>
 5   0  0.4071750E-09  0.3801565E+04  0.7818609E-02  0.8045819E-01
       -1   -1    0    0    0  501  0.00000000000E+00  0.00000000000E+00  0.23591165163E+04  0.23591165163E+04  0.50400001928E-02 0. -1.
        1   -1    0    0  501    0  0.00000000000E+00  0.00000000000E+00 -0.15314948834E+04  0.15314948834E+04  0.50400001928E-02 0.  1.
    10030    2    1    2    0    0  0.00000000000E+00  0.00000000000E+00  0.82762163297E+03  0.38906113997E+04  0.38015654008E+04 0.  0.
        3    1    3    3  502    0  0.69420758374E+03  0.17699865573E+03  0.22156530967E+04  0.23285985804E+04  0.10100000352E+00 0. -1.
       -3    1    3    3    0  502 -0.69420758374E+03 -0.17699865573E+03 -0.13880314637E+04  0.15620128194E+04  0.10100000352E+00 0.  1.
</event>
<event>
 5   0  0.1305088E-08  0.3802071E+04  0.7818609E-02  0.8045711E-01
        2   -1    0    0  501    0  0.00000000000E+00  0.00000000000E+00  0.18720425410E+04  0.18720425410E+04  0.25500000920E-02 0.  1.
       -2   -1    0    0    0  501  0.00000000000E+00  0.00000000000E+00 -0.19304776475E+04  0.19304776475E+04  0.25500000920E-02 0. -1.
    10030    2    1    2    0    0  0.00000000000E+00  0.00000000000E+00 -0.58435106527E+02  0.38025201885E+04  0.38020711622E+04 0.  0.
        3    1    3    3  502    0  0.18879634219E+04 -0.78954911296E+02 -0.23732026147E+03  0.19044581059E+04  0.10100000352E+00 0.  1.
       -3    1    3    3    0  502 -0.18879634219E+04  0.78954911296E+02  0.17888515494E+03  0.18980620826E+04  0.10100000352E+00 0. -1.
</event>
<event>
 5   0  0.4071750E-09  0.3800967E+04  0.7818609E-02  0.8045947E-01
       -1   -1    0    0    0  501  0.00000000000E+00  0.00000000000E+00  0.20599929184E+04  0.20599929184E+04  0.50400001928E-02 0. -1.
        1   -1    0    0  501    0  0.00000000000E+00  0.00000000000E+00 -0.17533251508E+04  0.17533251508E+04  0.50400001928E-02 0.  1.
    10030    2    1    2    0    0  0.00000000000E+00  0.00000000000E+00  0.30666776752E+03  0.38133180692E+04  0.38009669266E+04 0.  0.
        1    1    3    3  502    0  0.81849551979E+03 -0.16513780642E+04  0.61836243574E+03  0.19440567196E+04  0.50400001928E-02 0. -1.
       -1    1    3    3    0  502 -0.81849551979E+03  0.16513780642E+04 -0.31169466822E+03  0.18692613496E+04  0.50400001928E-02 0.  1.
</event>
<event>
 5   0  0.4071750E-09  0.3801238E+04  0.7818609E-02  0.8045889E-01
        1   -1    0    0  501    0  0.00000000000E+00  0.00000000000E+00  0.22987416630E+04  0.22987416630E+04  0.50400001928E-02 0.  1.
       -1   -1    0    0    0  501  0.00000000000E+00  0.00000000000E+00 -0.15714475733E+04  0.15714475733E+04  0.50400001928E-02 0. -1.
    10030    2    1    2    0    0  0.00000000000E+00  0.00000000000E+00  0.72729408970E+03  0.38701892363E+04  0.38012376974E+04 0.  0.
        1    1    3    3  502    0  0.70202537605E+03 -0.48269827006E+03  0.20934397626E+04  0.22601608987E+04  0.50400001928E-02 0.  1.
       -1    1    3    3    0  502 -0.70202537605E+03  0.48269827006E+03 -0.13661456728E+04  0.16100283376E+04  0.50400001928E-02 0. -1.
</event>
<event>
 5   0  0.1327249E-08  0.3797161E+04  0.7818609E-02  0.8046764E-01
        2   -1    0    0  501    0  0.00000000000E+00  0.00000000000E+00  0.18210208101E+04  0.18210208101E+04  0.25500000920E-02 0.  1.
       -2   -1    0    0    0  501  0.00000000000E+00  0.00000000000E+00 -0.19794430613E+04  0.19794430613E+04  0.25500000920E-02 0. -1.
    10030    2    1    2    0    0  0.00000000000E+00  0.00000000000E+00 -0.15842225120E+03  0.38004638714E+04  0.37971605218E+04 0.  0.
        1    1    3    3  502    0 -0.84438603931E+02  0.13696777619E+04 -0.13923967323E+04  0.19549720483E+04  0.50400001928E-02 0. -1.
       -1    1    3    3    0  502  0.84438603931E+02 -0.13696777619E+04  0.12339744811E+04  0.18454918232E+04  0.50400001928E-02 0.  1.
</event>
<event>
 5   0  0.4071750E-09  0.3799506E+04  0.7818609E-02  0.8046261E-01
       -1   -1    0    0    0  501  0.00000000000E+00  0.00000000000E+00  0.25382014687E+04  0.25382014687E+04  0.50400001928E-02 0.  1.
        1   -1    0    0  501    0  0.00000000000E+00  0.00000000000E+00 -0.14218974811E+04  0.14218974811E+04  0.50400001928E-02 0. -1.
    10030    2    1    2    0    0  0.00000000000E+00  0.00000000000E+00  0.11163039876E+04  0.39600989498E+04  0.37995064284E+04 0.  0.
        3    1    3    3  502    0 -0.75538404379E+03  0.10847008417E+04 -0.86402892830E+03  0.15791538775E+04  0.10100000352E+00 0. -1.
       -3    1    3    3    0  502  0.75538404379E+03 -0.10847008417E+04  0.19803329159E+04  0.23809450723E+04  0.10100000352E+00 0.  1.
</event>
<event>
 5   0  0.4071750E-09  0.3790760E+04  0.7818609E-02  0.8048141E-01
       -1   -1    0    0    0  501  0.00000000000E+00  0.00000000000E+00  0.26336248081E+04  0.26336248081E+04  0.50400001928E-02 0. -1.
        1   -1    0    0  501    0  0.00000000000E+00  0.00000000000E+00 -0.13640763042E+04  0.13640763042E+04  0.50400001928E-02 0.  1.
    10030    2    1    2    0    0  0.00000000000E+00  0.00000000000E+00  0.12695485039E+04  0.39977011122E+04  0.37907599211E+04 0.  0.
        3    1    3    3  502    0 -0.11977622426E+04 -0.11350966055E+04  0.16180843168E+04  0.23111199796E+04  0.10100000352E+00 0. -1.
       -3    1    3    3    0  502  0.11977622426E+04  0.11350966055E+04 -0.34853581289E+03  0.16865811326E+04  0.10100000352E+00 0.  1.
</event>
<event>
 5   0  0.1305088E-08  0.3799748E+04  0.7818609E-02  0.8046209E-01
        2   -1    0    0  501    0  0.00000000000E+00  0.00000000000E+00  0.13053667287E+04  0.13053667287E+04  0.25500000920E-02 0.  1.
       -2   -1    0    0    0  501  0.00000000000E+00  0.00000000000E+00 -0.27651393087E+04  0.27651393087E+04  0.25500000920E-02 0. -1.
    10030    2    1    2    0    0  0.00000000000E+00  0.00000000000E+00 -0.14597725800E+04  0.40705060374E+04  0.37997478094E+04 0.  0.
        3    1    3    3  502    0  0.77165092428E+03  0.31668012338E+03 -0.25585031051E+04  0.26910350422E+04  0.10100000352E+00 0. -1.
       -3    1    3    3    0  502 -0.77165092428E+03 -0.31668012338E+03  0.10987305251E+04  0.13794709952E+04  0.10100000352E+00 0.  1.
</event>
<event>
 5   0  0.1293993E-08  0.3801092E+04  0.7818609E-02  0.8045921E-01
        2   -1    0    0  501    0  0.00000000000E+00  0.00000000000E+00  0.14495029947E+04  0.14495029947E+04  0.25500000920E-02 0. -1.
       -2   -1    0    0    0  501  0.00000000000E+00  0.00000000000E+00 -0.24919403101E+04  0.24919403101E+04  0.25500000920E-02 0.  1.
    10030    2    1    2    0    0  0.00000000000E+00  0.00000000000E+00 -0.10424373154E+04  0.39414433048E+04  0.38010919179E+04 0.  0.
        5    1    3    3  502    0 -0.13197615968E+04 -0.12762490082E+04 -0.10307596007E+04  0.21054856085E+04  0.46999998093E+01 0. -1.
       -5    1    3    3    0  502  0.13197615968E+04  0.12762490082E+04 -0.11677714754E+02  0.18359576962E+04  0.46999998093E+01 0.  1.
</event>
<event>
 5   0  0.1261152E-08  0.3800077E+04  0.7818609E-02  0.8046138E-01
        2   -1    0    0  501    0  0.00000000000E+00  0.00000000000E+00  0.13774254069E+04  0.13774254069E+04  0.25500000920E-02 0.  1.
       -2   -1    0    0    0  501  0.00000000000E+00  0.00000000000E+00 -0.26209373486E+04  0.26209373486E+04  0.25500000920E-02 0. -1.
    10030    2    1    2    0    0  0.00000000000E+00  0.00000000000E+00 -0.12435119417E+04  0.39983627555E+04  0.38000766802E+04 0.  0.
        2    1    3    3  502    0  0.17288773927E+01  0.99909043556E+03 -0.23222424290E+04  0.25280416505E+04  0.25500000920E-02 0. -1.
       -2    1    3    3    0  502 -0.17288773927E+01 -0.99909043556E+03  0.10787304874E+04  0.14703211050E+04  0.25500000920E-02 0.  1.
</event>
<event>
 5   0  0.1261152E-08  0.3800158E+04  0.7818609E-02  0.8046121E-01
        2   -1    0    0  501    0  0.00000000000E+00  0.00000000000E+00  0.18594449262E+04  0.18594449262E+04  0.25500000920E-02 0. -1.
       -2   -1    0    0    0  501  0.00000000000E+00  0.00000000000E+00 -0.19416013154E+04  0.19416013154E+04  0.25500000920E-02 0.  1.
    10030    2    1    2    0    0  0.00000000000E+00  0.00000000000E+00 -0.82156389207E+02  0.38010462416E+04  0.38001582675E+04 0.  0.
        2    1    3    3  502    0 -0.13074213227E+03 -0.80813295567E+03 -0.17561591028E+04  0.19375931393E+04  0.25500000920E-02 0.  1.
       -2    1    3    3    0  502  0.13074213227E+03  0.80813295567E+03  0.16740027136E+04  0.18634531023E+04  0.25500000920E-02 0. -1.
</event>
<event>
 5   0  0.1305088E-08  0.3802277E+04  0.7818609E-02  0.8045666E-01
       -2   -1    0    0    0  501  0.00000000000E+00  0.00000000000E+00  0.27192266841E+04  0.27192266841E+04  0.25500000920E-02 0.  1.
        2   -1    0    0  501    0  0.00000000000E+00  0.00000000000E+00 -0.13291748303E+04  0.13291748303E+04  0.25500000920E-02 0. -1.
    10030    2    1    2    0    0  0.00000000000E+00  0.00000000000E+00  0.13900518537E+04  0.40484015144E+04  0.38022770370E+04 0.  0.
        3    1    3    3  502    0  0.66353051674E+03 -0.15261916941E+04  0.16736484044E+04  0.23602188088E+04  0.10100000352E+00 0.  1.
       -3    1    3    3    0  502 -0.66353051674E+03  0.15261916941E+04 -0.28359655060E+03  0.16881827056E+04  0.10100000352E+00 0. -1.
</event>
<event>
 5   0  0.4071750E-09  0.3799067E+04  0.7818609E-02  0.8046355E-01
       -1   -1    0    0    0  501  0.00000000000E+00  0.00000000000E+00  0.26797950811E+04  0.26797950811E+04  0.50400001928E-02 0. -1.
        1   -1    0    0  501    0  0.00000000000E+00  0.00000000000E+00 -0.13464564179E+04  0.13464564179E+04  0.50400001928E-02 0.  1.
    10030    2    1    2    0    0  0.00000000000E+00  0.00000000000E+00  0.13333386632E+04  0.40262514991E+04  0.37990668779E+04 0.  0.
        2    1    3    3  502    0 -0.14320220668E+04 -0.10085945335E+04  0.14456600121E+04  0.22710973126E+04  0.25500000920E-02 0. -1.
       -2    1    3    3    0  502  0.14320220668E+04  0.10085945335E+04 -0.11232134892E+03  0.17551541864E+04  0.25500000920E-02 0.  1.
</event>
<event>
 5   0  0.1327249E-08  0.3796134E+04  0.7818609E-02  0.8046985E-01
       -2   -1    0    0    0  501  0.00000000000E+00  0.00000000000E+00  0.26515449550E+04  0.26515449550E+04  0.25500000920E-02 0. -1.
        2   -1    0    0  501    0  0.00000000000E+00  0.00000000000E+00 -0.13587018686E+04  0.13587018686E+04  0.25500000920E-02 0.  1.
    10030    2    1    2    0    0  0.00000000000E+00  0.00000000000E+00  0.12928430864E+04  0.40102468236E+04  0.37961343943E+04 0.  0.
        1    1    3    3  502    0  0.14286223402E+04  0.10546397678E+04  0.13546308711E+04  0.22334394167E+04  0.50400001928E-02 0. -1.
       -1    1    3    3    0  502 -0.14286223402E+04 -0.10546397678E+04 -0.61787784685E+02  0.17768074069E+04  0.50400001928E-02 0.  1.
</event>
<event>
 5   0  0.4071750E-09  0.3800195E+04  0.7818609E-02  0.8046113E-01
       -1   -1    0    0    0  501  0.00000000000E+00  0.00000000000E+00  0.18094477708E+04  0.18094477708E+04  0.50400001928E-02 0.  1.
        1   -1    0    0  501    0  0.00000000000E+00  0.00000000000E+00 -0.19952884422E+04  0.19952884422E+04  0.50400001928E-02 0. -1.
    10030    2    1    2    0    0  0.00000000000E+00  0.00000000000E+00 -0.18584067138E+03  0.38047362130E+04  0.38001948496E+04 0.  0.
        3    1    3    3  502    0 -0.35998686090E+03  0.16209490476E+04  0.83192804769E+03  0.18571942929E+04  0.10100000352E+00 0. -1.
       -3    1    3    3    0  502  0.35998686090E+03 -0.16209490476E+04 -0.10177687191E+04  0.19475419201E+04  0.10100000352E+00 0.  1.
</event>
<event>
 5   0  0.4071750E-09  0.3797835E+04  0.7818609E-02  0.8046620E-01
       -1   -1    0    0    0  501  0.00000000000E+00  0.00000000000E+00  0.16365917038E+04  0.16365917038E+04  0.50400001928E-02 0.  1.
        1   -1    0    0  501    0  0.00000000000E+00  0.00000000000E+00 -0.22032913404E+04  0.22032913404E+04  0.50400001928E-02 0. -1.
    10030    2    1    2    0    0  0.00000000000E+00  0.00000000000E+00 -0.56669963665E+03  0.38398830442E+04  0.37978353459E+04 0.  0.
        3    1    3    3  502    0 -0.12458698163E+04 -0.91414613954E+03 -0.13992143948E+04  0.20846236342E+04  0.10100000352E+00 0. -1.
       -3    1    3    3    0  502  0.12458698163E+04  0.91414613954E+03  0.83251475814E+03  0.17552594100E+04  0.10100000352E+00 0.  1.
</event>
<event>
 5   0  0.4071750E-09  0.3801132E+04  0.7818609E-02  0.8045912E-01
        1   -1    0    0  501    0  0.00000000000E+00  0.00000000000E+00  0.15921414391E+04  0.15921414391E+04  0.50400001928E-02 0.  1.
       -1   -1    0    0    0  501  0.00000000000E+00  0.00000000000E+00 -0.22687373487E+04  0.22687373487E+04  0.50400001928E-02 0. -1.
    10030    2    1    2    0    0  0.00000000000E+00  0.00000000000E+00 -0.67659590957E+03  0.38608787878E+04  0.38011318037E+04 0.  0.
        4    1    3    3  502    0  0.61945211525E+03  0.17959547243E+04 -0.28289855989E+03  0.19207309814E+04  0.12699999809E+01 0.  1.
       -4    1    3    3    0  502 -0.61945211525E+03 -0.17959547243E+04 -0.39369734968E+03  0.19401478064E+04  0.12699999809E+01 0. -1.
</event>
<event>
 5   0  0.1264013E-08  0.3800978E+04  0.7818609E-02  0.8045945E-01
        2   -1    0    0  501    0  0.00000000000E+00  0.00000000000E+00  0.20188635080E+04  0.20188635080E+04  0.25500000920E-02 0. -1.
       -2   -1    0    0    0  501  0.00000000000E+00  0.00000000000E+00 -0.17890549894E+04  0.17890549894E+04  0.25500000920E-02 0.  1.
    10030    2    1    2    0    0  0.00000000000E+00  0.00000000000E+00  0.22980851851E+03  0.38079184974E+04  0.38009776805E+04 0.  0.
        4    1    3    3  502    0 -0.25434789655E+03  0.15437285694E+04 -0.96598456991E+03  0.18387274270E+04  0.12699999809E+01 0.  1.
       -4    1    3    3    0  502  0.25434789655E+03 -0.15437285694E+04  0.11957930884E+04  0.19691910704E+04  0.12699999809E+01 0. -1.
</event>
<event>
 5   0  0.4071750E-09  0.3794238E+04  0.7818609E-02  0.8047393E-01
       -1   -1    0    0    0  501  0.00000000000E+00  0.00000000000E+00  0.12634923256E+04  0.12634923256E+04  0.50400001928E-02 0. -1.
        1   -1    0    0  501    0  0.00000000000E+00  0.00000000000E+00 -0.28485018001E+04  0.28485018001E+04  0.50400001928E-02 0.  1.
    10030    2    1    2    0    0  0.00000000000E+00  0.00000000000E+00 -0.15850094746E+04  0.41119941257E+04  0.37942378227E+04 0.  0.
        3    1    3    3  502    0 -0.17993599174E+03  0.15454253167E+04  0.38391944717E+03  0.16025325341E+04  0.10100000352E+00 0. -1.
       -3    1    3    3    0  502  0.17993599174E+03 -0.15454253167E+04 -0.19689289217E+04  0.25094615916E+04  0.10100000352E+00 0.  1.
</event>
<event>
 5   0  0.1293993E-08  0.3799743E+04  0.7818609E-02  0.8046210E-01
        2   -1    0    0  501    0  0.00000000000E+00  0.00000000000E+00  0.13164789062E+04  0.13164789062E+04  0.25500000920E-02 0.  1.
       -2   -1    0    0    0  501  0.00000000000E+00  0.00000000000E+00 -0.27417922329E+04  0.27417922329E+04  0.25500000920E-02 0. -1.
    10030    2    1    2    0    0  0.00000000000E+00  0.00000000000E+00 -0.14253133267E+04  0.40582711392E+04  0.37997429597E+04 0.  0.
        5    1    3    3  502    0 -0.82468525793E+03  0.37548839204E+03  0.10708049800E+04  0.14027625253E+04  0.46999998093E+01 0.  1.
       -5    1    3    3    0  502  0.82468525793E+03 -0.37548839204E+03 -0.24961183067E+04  0.26555086139E+04  0.46999998093E+01 0. -1.
</event>
<event>
 5   0  0.4071750E-09  0.3799319E+04  0.7818609E-02  0.8046301E-01
       -1   -1    0    0    0  501  0.00000000000E+00  0.00000000000E+00  0.28178871141E+04  0.28178871141E+04  0.50400001928E-02 0.  1.
        1   -1    0    0  501    0  0.00000000000E+00  0.00000000000E+00 -0.12806427051E+04  0.12806427051E+04  0.50400001928E-02 0. -1.
    10030    2    1    2    0    0  0.00000000000E+00  0.00000000000E+00  0.15372444090E+04  0.40985298192E+04  0.37993191898E+04 0.  0.
        3    1    3    3  502    0 -0.95591803845E+03  0.36227978207E+03 -0.95862412714E+03  0.14014229069E+04  0.10100000352E+00 0. -1.
       -3    1    3    3    0  502  0.95591803845E+03 -0.36227978207E+03  0.24958685361E+04  0.26971069123E+04  0.10100000352E+00 0.  1.
</event>
<event>
 5   0  0.1327249E-08  0.3800802E+04  0.7818609E-02  0.8045983E-01
        2   -1    0    0  501    0  0.00000000000E+00  0.00000000000E+00  0.18709764651E+04  0.18709764651E+04  0.25500000920E-02 0.  1.
       -2   -1    0    0    0  501  0.00000000000E+00  0.00000000000E+00 -0.19302886290E+04  0.19302886290E+04  0.25500000920E-02 0. -1.
    10030    2    1    2    0    0  0.00000000000E+00  0.00000000000E+00 -0.59312163868E+02  0.38012650941E+04  0.38008023341E+04 0.  0.
        1    1    3    3  502    0  0.70988065268E+03 -0.59661369650E+03  0.16293545377E+04  0.18747465572E+04  0.50400001928E-02 0.  1.
       -1    1    3    3    0  502 -0.70988065268E+03  0.59661369650E+03 -0.16886667016E+04  0.19265185369E+04  0.50400001928E-02 0. -1.
</event>
<event>
 5   0  0.4071750E-09  0.3801136E+04  0.7818609E-02  0.8045911E-01
        1   -1    0    0  501    0  0.00000000000E+00  0.00000000000E+00  0.29182087170E+04  0.29182087170E+04  0.50400001928E-02 0. -1.
       -1   -1    0    0    0  501  0.00000000000E+00  0.00000000000E+00 -0.12377998176E+04  0.12377998176E+04  0.50400001928E-02 0.  1.
    10030    2    1    2    0    0  0.00000000000E+00  0.00000000000E+00  0.16804088994E+04  0.41560085346E+04  0.38011357343E+04 0.  0.
        3    1    3    3  502    0  0.70971687956E+02  0.10643932666E+04 -0.87960138660E+03  0.13826310484E+04  0.10100000352E+00 0.  1.
       -3    1    3    3    0  502 -0.70971687956E+02 -0.10643932666E+04  0.25600102860E+04  0.27733774862E+04  0.10100000352E+00 0. -1.
</event>
<event>
 5   0  0.1293993E-08  0.3795961E+04  0.7818609E-02  0.8047022E-01
       -2   -1    0    0    0  501  0.00000000000E+00  0.00000000000E+00  0.14490465427E+04  0.14490465427E+04  0.25500000920E-02 0.  1.
        2   -1    0    0  501    0  0.00000000000E+00  0.00000000000E+00 -0.24860005334E+04  0.24860005334E+04  0.25500000920E-02 0. -1.
    10030    2    1    2    0    0  0.00000000000E+00  0.00000000000E+00 -0.10369539907E+04  0.39350470761E+04  0.37959612633E+04 0.  0.
        5    1    3    3  502    0  0.14438305025E+04 -0.72986961109E+03  0.51033434299E+03  0.16964136880E+04  0.46999998093E+01 0.  1.
       -5    1    3    3    0  502 -0.14438305025E+04  0.72986961109E+03 -0.15472883337E+04  0.22386333882E+04  0.46999998093E+01 0. -1.
</event>
<event>
 5   0  0.1305088E-08  0.3801612E+04  0.7818609E-02  0.8045809E-01
        2   -1    0    0  501    0  0.00000000000E+00  0.00000000000E+00  0.21068658663E+04  0.21068658663E+04  0.25500000920E-02 0.  1.
       -2   -1    0    0    0  501  0.00000000000E+00  0.00000000000E+00 -0.17148992936E+04  0.17148992936E+04  0.25500000920E-02 0. -1.
    10030    2    1    2    0    0  0.00000000000E+00  0.00000000000E+00  0.39196657277E+03  0.38217651599E+04  0.38016116507E+04 0.  0.
        3    1    3    3  502    0  0.82288760687E+03 -0.14498594169E+02 -0.15264908760E+04  0.17342227733E+04  0.10100000352E+00 0. -1.
       -3    1    3    3    0  502 -0.82288760687E+03  0.14498594169E+02  0.19184574488E+04  0.20875423866E+04  0.10100000352E+00 0.  1.
</event>
<event>
 5   0  0.1305088E-08  0.3800800E+04  0.7818609E-02  0.8045983E-01
       -2   -1    0    0    0  501  0.00000000000E+00  0.00000000000E+00  0.18557125150E+04  0.18557125150E+04  0.25500000920E-02 0.  1.
        2   -1    0    0  501    0  0.00000000000E+00  0.00000000000E+00 -0.19461639444E+04  0.19461639444E+04  0.25500000920E-02 0. -1.
    10030    2    1    2    0    0  0.00000000000E+00  0.00000000000E+00 -0.90451429404E+02  0.38018764594E+04  0.38008003304E+04 0.  0.
        3    1    3    3  502    0 -0.34368237259E+03  0.16503214639E+04  0.83242926662E+03  0.18800577123E+04  0.10100000352E+00 0.  1.
       -3    1    3    3    0  502  0.34368237259E+03 -0.16503214639E+04 -0.92288069602E+03  0.19218187471E+04  0.10100000352E+00 0. -1.
</event>
<event>
 5   0  0.4071750E-09  0.3800106E+04  0.7818609E-02  0.8046132E-01
       -1   -1    0    0    0  501  0.00000000000E+00  0.00000000000E+00  0.12547360942E+04  0.12547360942E+04  0.50400001928E-02 0.  1.
        1   -1    0    0  501    0  0.00000000000E+00  0.00000000000E+00 -0.28772592524E+04  0.28772592524E+04  0.50400001928E-02 0. -1.
    10030    2    1    2    0    0  0.00000000000E+00  0.00000000000E+00 -0.16225231582E+04  0.41319953466E+04  0.38001058071E+04 0.  0.
        1    1    3    3  502    0 -0.20713099166E+03 -0.90876111358E+03 -0.26116009578E+04  0.27729424033E+04  0.50400001928E-02 0. -1.
       -1    1    3    3    0  502  0.20713099166E+03  0.90876111358E+03  0.98907779952E+03  0.13590529433E+04  0.50400001928E-02 0.  1.
</event>
<event>
 5   0  0.4071750E-09  0.3798664E+04  0.7818609E-02  0.8046442E-01
        1   -1    0    0  501    0  0.00000000000E+00  0.00000000000E+00  0.18376942004E+04  0.18376942004E+04  0.50400001928E-02 0.  1.
       -1   -1    0    0    0  501  0.00000000000E+00  0.00000000000E+00 -0.19630370133E+04  0.19630370133E+04  0.50400001928E-02 0. -1.
    10030    2    1    2    0    0  0.00000000000E+00  0.00000000000E+00 -0.12534281292E+03  0.38007312137E+04  0.37986638359E+04 0.  0.
        4    1    3    3  502    0  0.10119588463E+04  0.13662997551E+04  0.78432601687E+03  0.18724328135E+04  0.12699999809E+01 0.  1.
       -4    1    3    3    0  502 -0.10119588463E+04 -0.13662997551E+04 -0.90966882979E+03  0.19282984002E+04  0.12699999809E+01 0. -1.
</event>
<event>
 5   0  0.4071750E-09  0.3800321E+04  0.7818609E-02  0.8046086E-01
       -1   -1    0    0    0  501  0.00000000000E+00  0.00000000000E+00  0.32341387969E+04  0.32341387969E+04  0.50400001928E-02 0.  1.
        1   -1    0    0  501    0  0.00000000000E+00  0.00000000000E+00 -0.11164052527E+04  0.11164052527E+04  0.50400001928E-02 0. -1.
    10030    2    1    2    0    0  0.00000000000E+00  0.00000000000E+00  0.21177335441E+04  0.43505440496E+04  0.38003207975E+04 0.  0.
        1    1    3    3  502    0 -0.37545632245E+03 -0.18478677970E+04  0.79032612617E+03  0.20445533084E+04  0.50400001928E-02 0.  1.
       -1    1    3    3    0  502  0.37545632245E+03  0.18478677970E+04  0.13274074180E+04  0.23059907412E+04  0.50400001928E-02 0. -1.
</event>
<event>
 5   0  0.4071750E-09  0.3799821E+04  0.7818609E-02  0.8046193E-01
       -1   -1    0    0    0  501  0.00000000000E+00  0.00000000000E+00  0.16313061194E+04  0.16313061194E+04  0.50400001928E-02 0.  1.
        1   -1    0    0  501    0  0.00000000000E+00  0.00000000000E+00 -0.22127422306E+04  0.22127422306E+04  0.50400001928E-02 0. -1.
    10030    2    1    2    0    0  0.00000000000E+00  0.00000000000E+00 -0.58143611119E+03  0.38440483501E+04  0.37998210177E+04 0.  0.
        5    1    3    3  502    0 -0.92581682281E+03  0.16588225138E+04 -0.31949079320E+03  0.19263762297E+04  0.46999998093E+01 0.  1.
       -5    1    3    3    0  502  0.92581682281E+03 -0.16588225138E+04 -0.26194531799E+03  0.19176721203E+04  0.46999998093E+01 0. -1.
</event>
<event>
 5   0  0.4071750E-09  0.3800066E+04  0.7818609E-02  0.8046141E-01
        1   -1    0    0  501    0  0.00000000000E+00  0.00000000000E+00  0.24686464792E+04  0.24686464792E+04  0.50400001928E-02 0.  1.
       -1   -1    0    0    0  501  0.00000000000E+00  0.00000000000E+00 -0.14623909471E+04  0.14623909471E+04  0.50400001928E-02 0. -1.
    10030    2    1    2    0    0  0.00000000000E+00  0.00000000000E+00  0.10062555320E+04  0.39310374263E+04  0.38000664535E+04 0.  0.
        4    1    3    3  502    0 -0.13018188522E+04  0.42586722566E+03  0.18653382535E+04  0.23142133935E+04  0.12699999809E+01 0.  1.
       -4    1    3    3    0  502  0.13018188522E+04 -0.42586722566E+03 -0.85908272146E+03  0.16168240328E+04  0.12699999809E+01 0. -1.
</event>
<event>
 5   0  0.4071750E-09  0.3799576E+04  0.7818609E-02  0.8046246E-01
        1   -1    0    0  501    0  0.00000000000E+00  0.00000000000E+00  0.22242485209E+04  0.22242485210E+04  0.50400001928E-02 0. -1.
       -1   -1    0    0    0  501  0.00000000000E+00  0.00000000000E+00 -0.16226579087E+04  0.16226579087E+04  0.50400001928E-02 0.  1.
    10030    2    1    2    0    0  0.00000000000E+00  0.00000000000E+00  0.60159061225E+03  0.38469064297E+04  0.37995760045E+04 0.  0.
        2    1    3    3  502    0  0.11899851324E+04  0.14698029089E+04  0.11740574199E+03  0.18947742121E+04  0.25500000920E-02 0.  1.
       -2    1    3    3    0  502 -0.11899851324E+04 -0.14698029089E+04  0.48418487026E+03  0.19521322176E+04  0.25500000920E-02 0. -1.
</event>
<event>
 5   0  0.1261152E-08  0.3799527E+04  0.7818609E-02  0.8046256E-01
       -2   -1    0    0    0  501  0.00000000000E+00  0.00000000000E+00  0.14409302969E+04  0.14409302969E+04  0.25500000920E-02 0.  1.
        2   -1    0    0  501    0  0.00000000000E+00  0.00000000000E+00 -0.25047022374E+04  0.25047022374E+04  0.25500000920E-02 0. -1.
    10030    2    1    2    0    0  0.00000000000E+00  0.00000000000E+00 -0.10637719405E+04  0.39456325343E+04  0.37995269908E+04 0.  0.
        2    1    3    3  502    0 -0.14168410342E+04  0.56006029775E+03 -0.17104257299E+04  0.22905593707E+04  0.25500000920E-02 0. -1.
       -2    1    3    3    0  502  0.14168410342E+04 -0.56006029775E+03  0.64665378935E+03  0.16550731635E+04  0.25500000920E-02 0.  1.
</event>
<event>
 5   0  0.4071750E-09  0.3798742E+04  0.7818609E-02  0.8046425E-01
       -1   -1    0    0    0  501  0.00000000000E+00  0.00000000000E+00  0.31555615440E+04  0.31555615440E+04  0.50400001928E-02 0. -1.
        1   -1    0    0  501    0  0.00000000000E+00  0.00000000000E+00 -0.11432545053E+04  0.11432545053E+04  0.50400001928E-02 0.  1.
    10030    2    1    2    0    0  0.00000000000E+00  0.00000000000E+00  0.20123070387E+04  0.42988160493E+04  0.37987418717E+04 0.  0.
        5    1    3    3  502    0  0.84302933957E+03  0.78430084457E+03 -0.70324848720E+03  0.13492245206E+04  0.46999998093E+01 0.  1.
       -5    1    3    3    0  502 -0.84302933957E+03 -0.78430084457E+03  0.27155555259E+04  0.29495915287E+04  0.46999998093E+01 0. -1.
</event>
<event>
 5   0  0.4071750E-09  0.3793759E+04  0.7818609E-02  0.8047496E-01
       -1   -1    0    0    0  501  0.00000000000E+00  0.00000000000E+00  0.27237347291E+04  0.27237347291E+04  0.50400001928E-02 0.  1.
        1   -1    0    0  501    0  0.00000000000E+00  0.00000000000E+00 -0.13210358499E+04  0.13210358499E+04  0.50400001928E-02 0. -1.
    10030    2    1    2    0    0  0.00000000000E+00  0.00000000000E+00  0.14026988793E+04  0.40447705790E+04  0.37937586759E+04 0.  0.
        3    1    3    3  502    0 -0.14245824642E+04 -0.10930742970E+04  0.13532848843E+04  0.22484720600E+04  0.10100000352E+00 0.  1.
       -3    1    3    3    0  502  0.14245824642E+04  0.10930742970E+04  0.49413994946E+02  0.17962985190E+04  0.10100000352E+00 0. -1.
</event>
<event>
 5   0  0.1261152E-08  0.3798846E+04  0.7818609E-02  0.8046403E-01
        2   -1    0    0  501    0  0.00000000000E+00  0.00000000000E+00  0.17676003370E+04  0.17676003370E+04  0.25500000920E-02 0.  1.
       -2   -1    0    0    0  501  0.00000000000E+00  0.00000000000E+00 -0.20410763230E+04  0.20410763230E+04  0.25500000920E-02 0. -1.
    10030    2    1    2    0    0  0.00000000000E+00  0.00000000000E+00 -0.27347598602E+03  0.38086766599E+04  0.37988457175E+04 0.  0.
        2    1    3    3  502    0  0.16235171683E+04  0.22713635490E+03 -0.10985998575E+04  0.19734032954E+04  0.25500000920E-02 0. -1.
       -2    1    3    3    0  502 -0.16235171683E+04 -0.22713635490E+03  0.82512387147E+03  0.18352733646E+04  0.25500000920E-02 0.  1.
</event>
<event>
 5   0  0.4071750E-09  0.3798327E+04  0.7818609E-02  0.8046514E-01
        1   -1    0    0  501    0  0.00000000000E+00  0.00000000000E+00  0.19952191594E+04  0.19952191594E+04  0.50400001928E-02 0. -1.
       -1   -1    0    0    0  501  0.00000000000E+00  0.00000000000E+00 -0.18077319074E+04  0.18077319074E+04  0.50400001928E-02 0.  1.
    10030    2    1    2    0    0  0.00000000000E+00  0.00000000000E+00  0.18748725194E+03  0.38029510668E+04  0.37983266509E+04 0.  0.
        2    1    3    3  502    0 -0.42721075526E+03  0.59396319854E+03 -0.16609653683E+04  0.18149675659E+04  0.25500000920E-02 0.  1.
       -2    1    3    3    0  502  0.42721075526E+03 -0.59396319854E+03  0.18484526202E+04  0.19879835009E+04  0.25500000920E-02 0. -1.
</event>
<event>
 5   0  0.4071750E-09  0.3800845E+04  0.7818609E-02  0.8045974E-01
       -1   -1    0    0    0  501  0.00000000000E+00  0.00000000000E+00  0.21796854870E+04  0.21796854870E+04  0.50400001928E-02 0.  1.
        1   -1    0    0  501    0  0.00000000000E+00  0.00000000000E+00 -0.16569388107E+04  0.16569388107E+04  0.50400001928E-02 0. -1.
    10030    2    1    2    0    0  0.00000000000E+00  0.00000000000E+00  0.52274667628E+03  0.38366242977E+04  0.38008448948E+04 0.  0.
        5    1    3    3  502    0  0.12459176756E+04 -0.14314875362E+04  0.15984837308E+03  0.19044791973E+04  0.46999998093E+01 0. -1.
       -5    1    3    3    0  502 -0.12459176756E+04  0.14314875362E+04  0.36289830320E+03  0.19321451004E+04  0.46999998093E+01 0.  1.
</event>
<event>
 5   0  0.1327249E-08  0.3799703E+04  0.7818609E-02  0.8046219E-01
        2   -1    0    0  501    0  0.00000000000E+00  0.00000000000E+00  0.18210035383E+04  0.18210035383E+04  0.25500000920E-02 0.  1.
       -2   -1    0    0    0  501  0.00000000000E+00  0.00000000000E+00 -0.19821132479E+04  0.19821132479E+04  0.25500000920E-02 0. -1.
    10030    2    1    2    0    0  0.00000000000E+00  0.00000000000E+00 -0.16110970967E+03  0.38031167862E+04  0.37997027451E+04 0.  0.
        1    1    3    3  502    0  0.18281470315E+04 -0.51675944936E+03 -0.64006994592E+02  0.19008573836E+04  0.50400001928E-02 0.  1.
       -1    1    3    3    0  502 -0.18281470315E+04  0.51675944936E+03 -0.97102715076E+02  0.19022594026E+04  0.50400001928E-02 0. -1.
</event>
<event>
 5   0  0.1261152E-08  0.3799238E+04  0.7818609E-02  0.8046318E-01
       -2   -1    0    0    0  501  0.00000000000E+00  0.00000000000E+00  0.16632470912E+04  0.16632470912E+04  0.25500000920E-02 0.  1.
        2   -1    0    0  501    0  0.00000000000E+00  0.00000000000E+00 -0.21695825827E+04  0.21695825827E+04  0.25500000920E-02 0. -1.
    10030    2    1    2    0    0  0.00000000000E+00  0.00000000000E+00 -0.50633549147E+03  0.38328296739E+04  0.37992377761E+04 0.  0.
        2    1    3    3  502    0 -0.64933985236E+03  0.24080592007E+03 -0.20376836654E+04  0.21521580925E+04  0.25500000920E-02 0. -1.
       -2    1    3    3    0  502  0.64933985236E+03 -0.24080592007E+03  0.15313481739E+04  0.16806715814E+04  0.25500000920E-02 0.  1.
</event>
<event>
 5   0  0.1264013E-08  0.3800321E+04  0.7818609E-02  0.8046086E-01
        2   -1    0    0  501    0  0.00000000000E+00  0.00000000000E+00  0.28564681427E+04  0.28564681427E+04  0.25500000920E-02 0. -1.
       -2   -1    0    0    0  501  0.00000000000E+00  0.00000000000E+00 -0.12640118155E+04  0.12640118155E+04  0.25500000920E-02 0.  1.
    10030    2    1    2    0    0  0.00000000000E+00  0.00000000000E+00  0.15924563272E+04  0.41204799583E+04  0.38003207670E+04 0.  0.
        4    1    3    3  502    0  0.85083627440E+03  0.95620126723E+03  0.23189520322E+04  0.26487324081E+04  0.12699999809E+01 0. -1.
       -4    1    3    3    0  502 -0.85083627440E+03 -0.95620126723E+03 -0.72649570491E+03  0.14717475502E+04  0.12699999809E+01 0.  1.
</event>
<event>
 5   0  0.1293993E-08  0.3799372E+04  0.7818609E-02  0.8046290E-01
        2   -1    0    0  501    0  0.00000000000E+00  0.00000000000E+00  0.24416071055E+04  0.24416071055E+04  0.25500000920E-02 0.  1.
       -2   -1    0    0    0  501  0.00000000000E+00  0.00000000000E+00 -0.14780454344E+04  0.14780454344E+04  0.25500000920E-02 0. -1.
    10030    2    1    2    0    0  0.00000000000E+00  0.00000000000E+00  0.96356167102E+03  0.39196525399E+04  0.37993716506E+04 0.  0.
        5    1    3    3  502    0  0.19481514816E+03  0.18774987618E+04  0.26092502107E+03  0.19055336521E+04  0.46999998093E+01 0. -1.
       -5    1    3    3    0  502 -0.19481514816E+03 -0.18774987618E+04  0.70263664995E+03  0.20141188878E+04  0.46999998093E+01 0.  1.
</event>
<event>
 5   0  0.1264013E-08  0.3800336E+04  0.7818609E-02  0.8046083E-01
        2   -1    0    0  501    0  0.00000000000E+00  0.00000000000E+00  0.13399689473E+04  0.13399689473E+04  0.25500000920E-02 0.  1.
       -2   -1    0    0    0  501  0.00000000000E+00  0.00000000000E+00 -0.26945687817E+04  0.26945687817E+04  0.25500000920E-02 0. -1.
    10030    2    1    2    0    0  0.00000000000E+00  0.00000000000E+00 -0.13545998344E+04  0.40345377291E+04  0.38003360346E+04 0.  0.
        4    1    3    3  502    0  0.42638686025E+03 -0.97537290467E+03 -0.23483010987E+04  0.25783090817E+04  0.12699999809E+01 0. -1.
       -4    1    3    3    0  502 -0.42638686025E+03  0.97537290467E+03  0.99370126429E+03  0.14562286473E+04  0.12699999809E+01 0.  1.
</event>
<event>
 5   0  0.1327249E-08  0.3776785E+04  0.7818609E-02  0.8051155E-01
        2   -1    0    0  501    0  0.00000000000E+00  0.00000000000E+00  0.23225677674E+04  0.23225677674E+04  0.25500000920E-02 0. -1.
       -2   -1    0    0    0  501  0.00000000000E+00  0.00000000000E+00 -0.15353810348E+04  0.15353810348E+04  0.25500000920E-02 0.  1.
    10030    2    1    2    0    0  0.00000000000E+00  0.00000000000E+00  0.78718673261E+03  0.38579488022E+04  0.37767851419E+04 0.  0.
        1    1    3    3  502    0  0.81357714680E+03 -0.17034465070E+04  0.44351828455E+03  0.19391612219E+04  0.50400001928E-02 0. -1.
       -1    1    3    3    0  502 -0.81357714680E+03  0.17034465070E+04  0.34366844806E+03  0.19187875802E+04  0.50400001928E-02 0.  1.
</event>
<event>
 5   0  0.4071750E-09  0.3799608E+04  0.7818609E-02  0.8046239E-01
       -1   -1    0    0    0  501  0.00000000000E+00  0.00000000000E+00  0.16307028455E+04  0.16307028455E+04  0.50400001928E-02 0.  1.
        1   -1    0    0  501    0  0.00000000000E+00  0.00000000000E+00 -0.22133131544E+04  0.22133131544E+04  0.50400001928E-02 0. -1.
    10030    2    1    2    0    0  0.00000000000E+00  0.00000000000E+00 -0.58261030893E+03  0.38440159999E+04  0.37996084318E+04 0.  0.
        4    1    3    3  502    0 -0.17394720567E+04  0.18034766239E+03 -0.10422513044E+04  0.20358235950E+04  0.12699999809E+01 0. -1.
       -4    1    3    3    0  502  0.17394720567E+04 -0.18034766239E+03  0.45964099542E+03  0.18081924049E+04  0.12699999809E+01 0.  1.
</event>
<event>
 5   0  0.1261152E-08  0.3801247E+04  0.7818609E-02  0.8045887E-01
       -2   -1    0    0    0  501  0.00000000000E+00  0.00000000000E+00  0.14399931210E+04  0.14399931210E+04  0.25500000920E-02 0. -1.
        2   -1    0    0  501    0  0.00000000000E+00  0.00000000000E+00 -0.25086018932E+04  0.25086018932E+04  0.25500000920E-02 0.  1.
    10030    2    1    2    0    0  0.00000000000E+00  0.00000000000E+00 -0.10686087721E+04  0.39485950142E+04  0.38012468847E+04 0.  0.
        2    1    3    3  502    0 -0.17174864606E+03  0.72705426979E+03 -0.23496938034E+04  0.24655965766E+04  0.25500000920E-02 0.  1.
       -2    1    3    3    0  502  0.17174864606E+03 -0.72705426979E+03  0.12810850313E+04  0.14829984376E+04  0.25500000920E-02 0. -1.
</event>
<event>
 5   0  0.1305088E-08  0.3804442E+04  0.7818609E-02  0.8045202E-01
        2   -1    0    0  501    0  0.00000000000E+00  0.00000000000E+00  0.23809730120E+04  0.23809730120E+04  0.25500000920E-02 0.  1.
       -2   -1    0    0    0  501  0.00000000000E+00  0.00000000000E+00 -0.15197337936E+04  0.15197337936E+04  0.25500000920E-02 0. -1.
    10030    2    1    2    0    0  0.00000000000E+00  0.00000000000E+00  0.86123921840E+03  0.39007068056E+04  0.38044422182E+04 0.  0.
        3    1    3    3  502    0 -0.12209637532E+04  0.12638568927E+03 -0.10593259877E+04  0.16213874883E+04  0.10100000352E+00 0. -1.
       -3    1    3    3    0  502  0.12209637532E+04 -0.12638568927E+03  0.19205652061E+04  0.22793193172E+04  0.10100000352E+00 0.  1.
</event>
<event>
 5   0  0.1293993E-08  0.3800513E+04  0.7818609E-02  0.8046045E-01
        2   -1    0    0  501    0  0.00000000000E+00  0.00000000000E+00  0.18382325834E+04  0.18382325834E+04  0.25500000920E-02 0.  1.
       -2   -1    0    0    0  501  0.00000000000E+00  0.00000000000E+00 -0.19643732926E+04  0.19643732926E+04  0.25500000920E-02 0. -1.
    10030    2    1    2    0    0  0.00000000000E+00  0.00000000000E+00 -0.12614070922E+03  0.38026058760E+04  0.38005131193E+04 0.  0.
        5    1    3    3  502    0  0.15362323166E+04  0.94681966776E+02 -0.11781249127E+04  0.19382917234E+04  0.46999998093E+01 0. -1.
       -5    1    3    3    0  502 -0.15362323166E+04 -0.94681966776E+02  0.10519842035E+04  0.18643141526E+04  0.46999998093E+01 0.  1.
</event>
<event>
 5   0  0.1327249E-08  0.3797827E+04  0.7818609E-02  0.8046621E-01
        2   -1    0    0  501    0  0.00000000000E+00  0.00000000000E+00  0.15988259929E+04  0.15988259929E+04  0.25500000920E-02 0.  1.
       -2   -1    0    0    0  501  0.00000000000E+00  0.00000000000E+00 -0.22553251964E+04  0.22553251964E+04  0.25500000920E-02 0. -1.
    10030    2    1    2    0    0  0.00000000000E+00  0.00000000000E+00 -0.65649920355E+03  0.38541511893E+04  0.37978270347E+04 0.  0.
        1    1    3    3  502    0 -0.35890459062E+03  0.99311504446E+03 -0.19298769376E+04  0.21998897679E+04  0.50400001928E-02 0. -1.
       -1    1    3    3    0  502  0.35890459062E+03 -0.99311504446E+03  0.12733777340E+04  0.16542614214E+04  0.50400001928E-02 0.  1.
</event>
<event>
 5   0  0.4071750E-09  0.3801173E+04  0.7818609E-02  0.8045903E-01
       -1   -1    0    0    0  501  0.00000000000E+00  0.00000000000E+00  0.27271270993E+04  0.27271270993E+04  0.50400001928E-02 0.  1.
        1   -1    0    0  501    0  0.00000000000E+00  0.00000000000E+00 -0.13245547374E+04  0.13245547374E+04  0.50400001928E-02 0. -1.
    10030    2    1    2    0    0  0.00000000000E+00  0.00000000000E+00  0.14025723619E+04  0.40516818367E+04  0.38011730394E+04 0.  0.
        1    1    3    3  502    0 -0.16109986900E+04  0.45089696417E+03  0.16627308663E+04  0.23586646191E+04  0.50400001928E-02 0.  1.
       -1    1    3    3    0  502  0.16109986900E+04 -0.45089696417E+03 -0.26015850436E+03  0.16930172176E+04  0.50400001928E-02 0. -1.
</event>
<event>
 5   0  0.1261152E-08  0.3799792E+04  0.7818609E-02  0.8046200E-01
       -2   -1    0    0    0  501  0.00000000000E+00  0.00000000000E+00  0.19381244014E+04  0.19381244014E+04  0.25500000920E-02 0. -1.
        2   -1    0    0  501    0  0.00000000000E+00  0.00000000000E+00 -0.18624212091E+04  0.18624212091E+04  0.25500000920E-02 0.  1.
    10030    2    1    2    0    0  0.00000000000E+00  0.00000000000E+00  0.75703192366E+02  0.38005456105E+04  0.37997915685E+04 0.  0.
        2    1    3    3  502    0 -0.17509872022E+04  0.56083375960E+03 -0.44090120398E+03  0.18907365125E+04  0.25500000920E-02 0.  1.
       -2    1    3    3    0  502  0.17509872022E+04 -0.56083375960E+03  0.51660439635E+03  0.19098090979E+04  0.25500000920E-02 0. -1.
</event>
<event>
 5   0  0.4071750E-09  0.3797929E+04  0.7818609E-02  0.8046599E-01
        1   -1    0    0  501    0  0.00000000000E+00  0.00000000000E+00  0.27256397951E+04  0.27256397951E+04  0.50400001928E-02 0.  1.
       -1   -1    0    0    0  501  0.00000000000E+00  0.00000000000E+00 -0.13230166839E+04  0.13230166839E+04  0.50400001928E-02 0. -1.
    10030    2    1    2    0    0  0.00000000000E+00  0.00000000000E+00  0.14026231112E+04  0.40486564790E+04  0.37979293955E+04 0.  0.
        5    1    3    3  502    0  0.15462564970E+04  0.95434848794E+03  0.11320772582E+03  0.18205845957E+04  0.46999998093E+01 0. -1.
       -5    1    3    3    0  502 -0.15462564970E+04 -0.95434848794E+03  0.12894153854E+04  0.22280718833E+04  0.46999998093E+01 0.  1.
</event>
<event>
 5   0  0.1293993E-08  0.3799340E+04  0.7818609E-02  0.8046297E-01
       -2   -1    0    0    0  501  0.00000000000E+00  0.00000000000E+00  0.16154468367E+04  0.16154468367E+04  0.25500000920E-02 0.  1.
        2   -1    0    0  501    0  0.00000000000E+00  0.00000000000E+00 -0.22338991717E+04  0.22338991717E+04  0.25500000920E-02 0. -1.
    10030    2    1    2    0    0  0.00000000000E+00  0.00000000000E+00 -0.61845233501E+03  0.38493460085E+04  0.37993396008E+04 0.  0.
        5    1    3    3  502    0 -0.14471884464E+04  0.98799778720E+03 -0.10525233344E+04  0.20440942949E+04  0.46999998093E+01 0. -1.
       -5    1    3    3    0  502  0.14471884464E+04 -0.98799778720E+03  0.43407099937E+03  0.18052517136E+04  0.46999998093E+01 0.  1.
</event>
<event>
 5   0  0.4071750E-09  0.3803590E+04  0.7818609E-02  0.8045385E-01
       -1   -1    0    0    0  501  0.00000000000E+00  0.00000000000E+00  0.16393589235E+04  0.16393589235E+04  0.50400001928E-02 0. -1.
        1   -1    0    0  501    0  0.00000000000E+00  0.00000000000E+00 -0.22062428331E+04  0.22062428331E+04  0.50400001928E-02 0.  1.
    10030    2    1    2    0    0  0.00000000000E+00  0.00000000000E+00 -0.56688390963E+03  0.38456017566E+04  0.38035898179E+04 0.  0.
        4    1    3    3  502    0  0.87350174955E+03 -0.16279786968E+04 -0.73953695656E+03  0.19900342878E+04  0.12699999809E+01 0.  1.
       -4    1    3    3    0  502 -0.87350174955E+03  0.16279786968E+04  0.17265304692E+03  0.18555674688E+04  0.12699999809E+01 0. -1.
</event>
<event>
 5   0  0.1264013E-08  0.3798770E+04  0.7818609E-02  0.8046419E-01
        2   -1    0    0  501    0  0.00000000000E+00  0.00000000000E+00  0.22391067426E+04  0.22391067426E+04  0.25500000920E-02 0.  1.
       -2   -1    0    0    0  501  0.00000000000E+00  0.00000000000E+00 -0.16112066643E+04  0.16112066643E+04  0.25500000920E-02 0. -1.
    10030    2    1    2    0    0  0.00000000000E+00  0.00000000000E+00  0.62790007827E+03  0.38503134069E+04  0.37987701725E+04 0.  0.
        4    1    3    3  502    0  0.13317880089E+04 -0.11085699564E+04  0.11023703909E+04  0.20537304450E+04  0.12699999809E+01 0.  1.
       -4    1    3    3    0  502 -0.13317880089E+04  0.11085699564E+04 -0.47447031266E+03  0.17965829620E+04  0.12699999809E+01 0. -1.
</event>
<event>
 5   0  0.4071750E-09  0.3800061E+04  0.7818609E-02  0.8046142E-01
        1   -1    0    0  501    0  0.00000000000E+00  0.00000000000E+00  0.22487171894E+04  0.22487171894E+04  0.50400001928E-02 0. -1.
       -1   -1    0    0    0  501  0.00000000000E+00  0.00000000000E+00 -0.16054110990E+04  0.16054110990E+04  0.50400001928E-02 0.  1.
    10030    2    1    2    0    0  0.00000000000E+00  0.00000000000E+00  0.64330609038E+03  0.38541282884E+04  0.38000608071E+04 0.  0.
        1    1    3    3  502    0  0.12144130390E+04  0.49417642217E+03 -0.10730879817E+04  0.16942630203E+04  0.50400001928E-02 0.  1.
       -1    1    3    3    0  502 -0.12144130390E+04 -0.49417642217E+03  0.17163940721E+04  0.21598652681E+04  0.50400001928E-02 0. -1.
</event>
<event>
 5   0  0.1327249E-08  0.3802834E+04  0.7818609E-02  0.8045547E-01
       -2   -1    0    0    0  501  0.00000000000E+00  0.00000000000E+00  0.19439760618E+04  0.19439760618E+04  0.25500000920E-02 0.  1.
        2   -1    0    0  501    0  0.00000000000E+00  0.00000000000E+00 -0.18597895317E+04  0.18597895317E+04  0.25500000920E-02 0. -1.
    10030    2    1    2    0    0  0.00000000000E+00  0.00000000000E+00  0.84186530160E+02  0.38037655935E+04  0.38028338537E+04 0.  0.
        1    1    3    3  502    0 -0.45096829365E+03 -0.14813785703E+04 -0.10615951656E+04  0.18774555031E+04  0.50400001928E-02 0. -1.
       -1    1    3    3    0  502  0.45096829365E+03  0.14813785703E+04  0.11457816957E+04  0.19263100905E+04  0.50400001928E-02 0.  1.
</event>
<event>
 5   0  0.4071750E-09  0.3799599E+04  0.7818609E-02  0.8046241E-01
       -1   -1    0    0    0  501  0.00000000000E+00  0.00000000000E+00  0.13750987440E+04  0.13750987440E+04  0.50400001928E-02 0.  1.
        1   -1    0    0  501    0  0.00000000000E+00  0.00000000000E+00 -0.26247116648E+04  0.26247116648E+04  0.50400001928E-02 0. -1.
    10030    2    1    2    0    0  0.00000000000E+00  0.00000000000E+00 -0.12496129208E+04  0.39998104088E+04  0.37995987755E+04 0.  0.
        4    1    3    3  502    0 -0.15305703530E+04  0.11193950811E+04 -0.50229025447E+03  0.19616289317E+04  0.12699999809E+01 0. -1.
       -4    1    3    3    0  502  0.15305703530E+04 -0.11193950811E+04 -0.74732266630E+03  0.20381814771E+04  0.12699999809E+01 0.  1.
</event>
<event>
 5   0  0.1305088E-08  0.3798881E+04  0.7818609E-02  0.8046395E-01
       -2   -1    0    0    0  501  0.00000000000E+00  0.00000000000E+00  0.26619645670E+04  0.26619645670E+04  0.25500000920E-02 0. -1.
        2   -1    0    0  501    0  0.00000000000E+00  0.00000000000E+00 -0.13553428142E+04  0.13553428142E+04  0.25500000920E-02 0.  1.
    10030    2    1    2    0    0  0.00000000000E+00  0.00000000000E+00  0.13066217528E+04  0.40173073812E+04  0.37988811761E+04 0.  0.
        3    1    3    3  502    0 -0.65546654420E+03 -0.13764267317E+03 -0.12263274033E+04  0.13973048366E+04  0.10100000352E+00 0.  1.
       -3    1    3    3    0  502  0.65546654420E+03  0.13764267317E+03  0.25329491561E+04  0.26200025446E+04  0.10100000352E+00 0. -1.
</event>
<event>
 5   0  0.4071750E-09  0.3799926E+04  0.7818609E-02  0.8046171E-01
        1   -1    0    0  501    0  0.00000000000E+00  0.00000000000E+00  0.12928576981E+04  0.12928576981E+04  0.50400001928E-02 0.  1.
       -1   -1    0    0    0  501  0.00000000000E+00  0.00000000000E+00 -0.27921547819E+04  0.27921547819E+04  0.50400001928E-02 0. -1.
    10030    2    1    2    0    0  0.00000000000E+00  0.00000000000E+00 -0.14992970839E+04  0.40850124800E+04  0.37999256856E+04 0.  0.
        3    1    3    3  502    0 -0.58581806727E+03 -0.15280978325E+04  0.28795487371E+03  0.16616810203E+04  0.10100000352E+00 0. -1.
       -3    1    3    3    0  502  0.58581806727E+03  0.15280978325E+04 -0.17872519576E+04  0.24233314597E+04  0.10100000352E+00 0.  1.
</event>
<event>
 5   0  0.1327249E-08  0.3795402E+04  0.7818609E-02  0.8047142E-01
       -2   -1    0    0    0  501  0.00000000000E+00  0.00000000000E+00  0.20474372041E+04  0.20474372041E+04  0.25500000920E-02 0. -1.
        2   -1    0    0  501    0  0.00000000000E+00  0.00000000000E+00 -0.17589154838E+04  0.17589154838E+04  0.25500000920E-02 0.  1.
    10030    2    1    2    0    0  0.00000000000E+00  0.00000000000E+00  0.28852172030E+03  0.38063526879E+04  0.37954019552E+04 0.  0.
        1    1    3    3  502    0 -0.43823138690E+03 -0.16910433788E+04  0.88774627868E+03  0.19595325751E+04  0.50400001928E-02 0. -1.
       -1    1    3    3    0  502  0.43823138690E+03  0.16910433788E+04 -0.59922455838E+03  0.18468201128E+04  0.50400001928E-02 0.  1.
</event>
<event>
 5   0  0.4071750E-09  0.3799070E+04  0.7818609E-02  0.8046354E-01
       -1   -1    0    0    0  501  0.00000000000E+00  0.00000000000E+00  0.29147611786E+04  0.29147611786E+04  0.50400001928E-02 0. -1.
        1   -1    0    0  501    0  0.00000000000E+00  0.00000000000E+00 -0.12379172429E+04  0.12379172429E+04  0.50400001928E-02 0.  1.
    10030    2    1    2    0    0  0.00000000000E+00  0.00000000000E+00  0.16768439357E+04  0.41526784215E+04  0.37990699503E+04 0.  0.
        4    1    3    3  502    0 -0.19202906572E+03  0.13692535820E+04 -0.58530944689E+03  0.15014390748E+04  0.12699999809E+01 0.  1.
       -4    1    3    3    0  502  0.19202906572E+03 -0.13692535820E+04  0.22621533826E+04  0.26512393467E+04  0.12699999809E+01 0. -1.
</event>
<event>
 5   0  0.1305088E-08  0.3799221E+04  0.7818609E-02  0.8046322E-01
       -2   -1    0    0    0  501  0.00000000000E+00  0.00000000000E+00  0.22973542140E+04  0.22973542140E+04  0.25500000920E-02 0.  1.
        2   -1    0    0  501    0  0.00000000000E+00  0.00000000000E+00 -0.15707284223E+04  0.15707284223E+04  0.25500000920E-02 0. -1.
    10030    2    1    2    0    0  0.00000000000E+00  0.00000000000E+00  0.72662579168E+03  0.38680826362E+04  0.37992207411E+04 0.  0.
        3    1    3    3  502    0 -0.82803692130E+03  0.17082238499E+04  0.43418556962E+03  0.19473548684E+04  0.10100000352E+00 0.  1.
       -3    1    3    3    0  502  0.82803692130E+03 -0.17082238499E+04  0.29244022206E+03  0.19207277678E+04  0.10100000352E+00 0. -1.
</event>
<event>
 5   0  0.4071750E-09  0.3800786E+04  0.7818609E-02  0.8045986E-01
       -1   -1    0    0    0  501  0.00000000000E+00  0.00000000000E+00  0.15794052646E+04  0.15794052646E+04  0.50400001928E-02 0. -1.
        1   -1    0    0  501    0  0.00000000000E+00  0.00000000000E+00 -0.22866158415E+04  0.22866158415E+04  0.50400001928E-02 0.  1.
    10030    2    1    2    0    0  0.00000000000E+00  0.00000000000E+00 -0.70721057686E+03  0.38660211061E+04  0.38007857599E+04 0.  0.
        4    1    3    3  502    0 -0.21358471221E+01 -0.21731330099E+03 -0.22739342493E+04  0.22842960000E+04  0.12699999809E+01 0.  1.
       -4    1    3    3    0  502  0.21358471221E+01  0.21731330099E+03  0.15667236724E+04  0.15817251061E+04  0.12699999809E+01 0. -1.
</event>
<event>
 5   0  0.4071750E-09  0.3798754E+04  0.7818609E-02  0.8046422E-01
        1   -1    0    0  501    0  0.00000000000E+00  0.00000000000E+00  0.13893948621E+04  0.13893948621E+04  0.50400001928E-02 0.  1.
       -1   -1    0    0    0  501  0.00000000000E+00  0.00000000000E+00 -0.25965496175E+04  0.25965496175E+04  0.50400001928E-02 0. -1.
    10030    2    1    2    0    0  0.00000000000E+00  0.00000000000E+00 -0.12071547554E+04  0.39859444795E+04  0.37987538470E+04 0.  0.
        4    1    3    3  502    0  0.13846963605E+04  0.12296713519E+04 -0.16069373907E+03  0.18588436554E+04  0.12699999809E+01 0.  1.
       -4    1    3    3    0  502 -0.13846963605E+04 -0.12296713519E+04 -0.10464610164E+04  0.21271008242E+04  0.12699999809E+01 0. -1.
</event>
<event>
 5   0  0.4071750E-09  0.3799923E+04  0.7818609E-02  0.8046171E-01
        1   -1    0    0  501    0  0.00000000000E+00  0.00000000000E+00  0.17464510659E+04  0.17464510659E+04  0.50400001928E-02 0. -1.
       -1   -1    0    0    0  501  0.00000000000E+00  0.00000000000E+00 -0.20669648811E+04  0.20669648811E+04  0.50400001928E-02 0.  1.
    10030    2    1    2    0    0  0.00000000000E+00  0.00000000000E+00 -0.32051381526E+03  0.38134159470E+04  0.37999226412E+04 0.  0.
        5    1    3    3  502    0  0.46289095399E+03 -0.11865515079E+04  0.12545927653E+04  0.17877912666E+04  0.46999998093E+01 0. -1.
       -5    1    3    3    0  502 -0.46289095399E+03  0.11865515079E+04 -0.15751065805E+04  0.20256246805E+04  0.46999998093E+01 0.  1.
</event>
<event>
 5   0  0.1261152E-08  0.3801969E+04  0.7818609E-02  0.8045732E-01
       -2   -1    0    0    0  501  0.00000000000E+00  0.00000000000E+00  0.14961118962E+04  0.14961118962E+04  0.25500000920E-02 0. -1.
        2   -1    0    0  501    0  0.00000000000E+00  0.00000000000E+00 -0.24154224451E+04  0.24154224451E+04  0.25500000920E-02 0.  1.
    10030    2    1    2    0    0  0.00000000000E+00  0.00000000000E+00 -0.91931054886E+03  0.39115343412E+04  0.38019690974E+04 0.  0.
        2    1    3    3  502    0 -0.42575101885E+03 -0.18274745949E+04 -0.77309026929E+03  0.20294324058E+04  0.25500000920E-02 0.  1.
       -2    1    3    3    0  502  0.42575101885E+03  0.18274745949E+04 -0.14622027958E+03  0.18821019354E+04  0.25500000920E-02 0. -1.
</event>
<event>
 5   0  0.1264013E-08  0.3797739E+04  0.7818609E-02  0.8046640E-01
        2   -1    0    0  501    0  0.00000000000E+00  0.00000000000E+00  0.26421472049E+04  0.26421472049E+04  0.25500000920E-02 0. -1.
       -2   -1    0    0    0  501  0.00000000000E+00  0.00000000000E+00 -0.13646876486E+04  0.13646876486E+04  0.25500000920E-02 0.  1.
    10030    2    1    2    0    0  0.00000000000E+00  0.00000000000E+00  0.12774595563E+04  0.40068348536E+04  0.37977391466E+04 0.  0.
        4    1    3    3  502    0 -0.41425939719E+03  0.18203119409E+04  0.27239878080E+03  0.18866237354E+04  0.12699999809E+01 0.  1.
       -4    1    3    3    0  502  0.41425939719E+03 -0.18203119409E+04  0.10050607755E+04  0.21202111182E+04  0.12699999809E+01 0. -1.
</event>
<event>
 5   0  0.1293993E-08  0.3800352E+04  0.7818609E-02  0.8046079E-01
        2   -1    0    0  501    0  0.00000000000E+00  0.00000000000E+00  0.21644304379E+04  0.21644304379E+04  0.25500000920E-02 0.  1.
       -2   -1    0    0    0  501  0.00000000000E+00  0.00000000000E+00 -0.16681845192E+04  0.16681845192E+04  0.25500000920E-02 0. -1.
    10030    2    1    2    0    0  0.00000000000E+00  0.00000000000E+00  0.49624591865E+03  0.38326149571E+04  0.38003522728E+04 0.  0.
        5    1    3    3  502    0 -0.58013368791E+02 -0.66372558926E+03  0.20427666146E+04  0.21486774399E+04  0.46999998093E+01 0.  1.
       -5    1    3    3    0  502  0.58013368791E+02  0.66372558926E+03 -0.15465206960E+04  0.16839375172E+04  0.46999998093E+01 0. -1.
</event>
<event>
 5   0  0.1293993E-08  0.3799976E+04  0.7818609E-02  0.8046160E-01
        2   -1    0    0  501    0  0.00000000000E+00  0.00000000000E+00  0.16464973330E+04  0.16464973330E+04  0.25500000920E-02 0. -1.
       -2   -1    0    0    0  501  0.00000000000E+00  0.00000000000E+00 -0.21925057296E+04  0.21925057296E+04  0.25500000920E-02 0.  1.
    10030    2    1    2    0    0  0.00000000000E+00  0.00000000000E+00 -0.54600839663E+03  0.38390030626E+04  0.37999762296E+04 0.  0.
        5    1    3    3  502    0 -0.16473536910E+04  0.10277832893E+03  0.67772142811E+03  0.17842830471E+04  0.46999998093E+01 0. -1.
       -5    1    3    3    0  502  0.16473536910E+04 -0.10277832893E+03 -0.12237298247E+04  0.20547200155E+04  0.46999998093E+01 0.  1.
</event>
<event>
 5   0  0.4071750E-09  0.3800754E+04  0.7818609E-02  0.8045993E-01
       -1   -1    0    0    0  501  0.00000000000E+00  0.00000000000E+00  0.25274214885E+04  0.25274214885E+04  0.50400001928E-02 0.  1.
        1   -1    0    0  501    0  0.00000000000E+00  0.00000000000E+00 -0.14288998314E+04  0.14288998314E+04  0.50400001928E-02 0. -1.
    10030    2    1    2    0    0  0.00000000000E+00  0.00000000000E+00  0.10985216571E+04  0.39563213199E+04  0.38007536825E+04 0.  0.
        4    1    3    3  502    0  0.11741771776E+04  0.14917821801E+04  0.46017510345E+03  0.19534249041E+04  0.12699999809E+01 0. -1.
       -4    1    3    3    0  502 -0.11741771776E+04 -0.14917821801E+04  0.63834655363E+03  0.20028964158E+04  0.12699999809E+01 0.  1.
</event>
<event>
 5   0  0.4071750E-09  0.3801120E+04  0.7818609E-02  0.8045914E-01
       -1   -1    0    0    0  501  0.00000000000E+00  0.00000000000E+00  0.26872631677E+04  0.26872631677E+04  0.50400001928E-02 0.  1.
        1   -1    0    0  501    0  0.00000000000E+00  0.00000000000E+00 -0.13441664491E+04  0.13441664491E+04  0.50400001928E-02 0. -1.
    10030    2    1    2    0    0  0.00000000000E+00  0.00000000000E+00  0.13430967187E+04  0.40314296168E+04  0.38011203558E+04 0.  0.
        1    1    3    3  502    0 -0.64123649416E+03 -0.10645161640E+04 -0.85354519189E+03  0.15076200780E+04  0.50400001928E-02 0. -1.
       -1    1    3    3    0  502  0.64123649416E+03  0.10645161640E+04  0.21966419106E+04  0.25238095388E+04  0.50400001928E-02 0.  1.
</event>
<event>
 5   0  0.1305088E-08  0.3799796E+04  0.7818609E-02  0.8046199E-01
        2   -1    0    0  501    0  0.00000000000E+00  0.00000000000E+00  0.21056185899E+04  0.21056185899E+04  0.25500000920E-02 0. -1.
       -2   -1    0    0    0  501  0.00000000000E+00  0.00000000000E+00 -0.17142764109E+04  0.17142764109E+04  0.25500000920E-02 0.  1.
    10030    2    1    2    0    0  0.00000000000E+00  0.00000000000E+00  0.39134217908E+03  0.38198950008E+04  0.37997959308E+04 0.  0.
        3    1    3    3  502    0  0.13238491072E+04 -0.11248450523E+04  0.96899910121E+03  0.19891737276E+04  0.10100000352E+00 0.  1.
       -3    1    3    3    0  502 -0.13238491072E+04  0.11248450523E+04 -0.57765692213E+03  0.18307212732E+04  0.10100000352E+00 0. -1.
</event>
<event>
 5   0  0.1327249E-08  0.3805409E+04  0.7818609E-02  0.8044995E-01
       -2   -1    0    0    0  501  0.00000000000E+00  0.00000000000E+00  0.29232368263E+04  0.29232368263E+04  0.25500000920E-02 0.  1.
        2   -1    0    0  501    0  0.00000000000E+00  0.00000000000E+00 -0.12384505656E+04  0.12384505656E+04  0.25500000920E-02 0. -1.
    10030    2    1    2    0    0  0.00000000000E+00  0.00000000000E+00  0.16847862607E+04  0.41616873919E+04  0.38054089404E+04 0.  0.
        1    1    3    3  502    0  0.96570465247E+03 -0.14718358454E+04  0.16320762052E+04  0.24005330598E+04  0.50400001928E-02 0.  1.
       -1    1    3    3    0  502 -0.96570465247E+03  0.14718358454E+04  0.52710055482E+02  0.17611543321E+04  0.50400001928E-02 0. -1.
</event>
<event>
 5   0  0.1293993E-08  0.3800682E+04  0.7818609E-02  0.8046008E-01
        2   -1    0    0  501    0  0.00000000000E+00  0.00000000000E+00  0.28644114808E+04  0.28644114808E+04  0.25500000920E-02 0. -1.
       -2   -1    0    0    0  501  0.00000000000E+00  0.00000000000E+00 -0.12607464591E+04  0.12607464591E+04  0.25500000920E-02 0.  1.
    10030    2    1    2    0    0  0.00000000000E+00  0.00000000000E+00  0.16036650217E+04  0.41251579399E+04  0.38006823766E+04 0.  0.
        5    1    3    3  502    0 -0.15446593227E+03  0.71457619944E+02 -0.12524515826E+04  0.12639711122E+04  0.46999998093E+01 0.  1.
       -5    1    3    3    0  502  0.15446593227E+03 -0.71457619944E+02  0.28561166043E+04  0.28611868277E+04  0.46999998093E+01 0. -1.
</event>
<event>
 5   0  0.4071750E-09  0.3801851E+04  0.7818609E-02  0.8045758E-01
       -1   -1    0    0    0  501  0.00000000000E+00  0.00000000000E+00  0.16679043529E+04  0.16679043529E+04  0.50400001928E-02 0.  1.
        1   -1    0    0  501    0  0.00000000000E+00  0.00000000000E+00 -0.21665021289E+04  0.21665021289E+04  0.50400001928E-02 0. -1.
    10030    2    1    2    0    0  0.00000000000E+00  0.00000000000E+00 -0.49859777599E+03  0.38344064818E+04  0.38018513024E+04 0.  0.
        5    1    3    3  502    0 -0.74470080301E+03 -0.14316351919E+04  0.76396194691E+03  0.17854463181E+04  0.46999998093E+01 0.  1.
       -5    1    3    3    0  502  0.74470080301E+03  0.14316351919E+04 -0.12625597229E+04  0.20489601637E+04  0.46999998093E+01 0. -1.
</event>
<event>
 5   0  0.1261152E-08  0.3800706E+04  0.7818609E-02  0.8046003E-01
        2   -1    0    0  501    0  0.00000000000E+00  0.00000000000E+00  0.30317340348E+04  0.30317340348E+04  0.25500000920E-02 0. -1.
       -2   -1    0    0    0  501  0.00000000000E+00  0.00000000000E+00 -0.11911801090E+04  0.11911801090E+04  0.25500000920E-02 0.  1.
    10030    2    1    2    0    0  0.00000000000E+00  0.00000000000E+00  0.18405539258E+04  0.42229141438E+04  0.38007058703E+04 0.  0.
        2    1    3    3  502    0  0.10428893682E+04  0.34205925777E+03 -0.80341889936E+03  0.13601855381E+04  0.25500000920E-02 0.  1.
       -2    1    3    3    0  502 -0.10428893682E+04 -0.34205925777E+03  0.26439728251E+04  0.28627286057E+04  0.25500000920E-02 0. -1.
</event>
<event>
 5   0  0.4071750E-09  0.3800941E+04  0.7818609E-02  0.8045953E-01
       -1   -1    0    0    0  501  0.00000000000E+00  0.00000000000E+00  0.19577476421E+04  0.19577476421E+04  0.50400001928E-02 0. -1.
        1   -1    0    0  501    0  0.00000000000E+00  0.00000000000E+00 -0.18448695270E+04  0.18448695270E+04  0.50400001928E-02 0.  1.
    10030    2    1    2    0    0  0.00000000000E+00  0.00000000000E+00  0.11287811504E+03  0.38026171691E+04  0.38009414447E+04 0.  0.
        1    1    3    3  502    0 -0.26790112663E+03 -0.54340932377E+03 -0.17456669048E+04  0.18478142897E+04  0.50400001928E-02 0.  1.
       -1    1    3    3    0  502  0.26790112663E+03  0.54340932377E+03  0.18585450198E+04  0.19548028794E+04  0.50400001928E-02 0. -1.
</event>
<event>
 5   0  0.1305088E-08  0.3800241E+04  0.7818609E-02  0.8046103E-01
        2   -1    0    0  501    0  0.00000000000E+00  0.00000000000E+00  0.25190758005E+04  0.25190758005E+04  0.25500000920E-02 0.  1.
       -2   -1    0    0    0  501  0.00000000000E+00  0.00000000000E+00 -0.14332467937E+04  0.14332467937E+04  0.25500000920E-02 0. -1.
    10030    2    1    2    0    0  0.00000000000E+00  0.00000000000E+00  0.10858290067E+04  0.39523225942E+04  0.38002406841E+04 0.  0.
        3    1    3    3  502    0  0.66802786970E+03 -0.67737451720E+03  0.22535355098E+04  0.24461234179E+04  0.10100000352E+00 0.  1.
       -3    1    3    3    0  502 -0.66802786970E+03  0.67737451720E+03 -0.11677065031E+04  0.15061991763E+04  0.10100000352E+00 0. -1.
</event>
<event>
 5   0  0.1261152E-08  0.3802601E+04  0.7818609E-02  0.8045597E-01
       -2   -1    0    0    0  501  0.00000000000E+00  0.00000000000E+00  0.12764172956E+04  0.12764172956E+04  0.25500000920E-02 0.  1.
        2   -1    0    0  501    0  0.00000000000E+00  0.00000000000E+00 -0.28321017826E+04  0.28321017826E+04  0.25500000920E-02 0. -1.
    10030    2    1    2    0    0  0.00000000000E+00  0.00000000000E+00 -0.15556844870E+04  0.41085190783E+04  0.38026010563E+04 0.  0.
        2    1    3    3  502    0  0.91496862562E+03 -0.16412050625E+04 -0.10913999369E+04  0.21729876818E+04  0.25500000920E-02 0. -1.
       -2    1    3    3    0  502 -0.91496862562E+03  0.16412050625E+04 -0.46428455011E+03  0.19355313964E+04  0.25500000920E-02 0.  1.
</event>
<event>
 5   0  0.4071750E-09  0.3800656E+04  0.7818609E-02  0.8046014E-01
        1   -1    0    0  501    0  0.00000000000E+00  0.00000000000E+00  0.16398670752E+04  0.16398670752E+04  0.50400001928E-02 0.  1.
       -1   -1    0    0    0  501  0.00000000000E+00  0.00000000000E+00 -0.22021578136E+04  0.22021578136E+04  0.50400001928E-02 0. -1.
    10030    2    1    2    0    0  0.00000000000E+00  0.00000000000E+00 -0.56229073833E+03  0.38420248888E+04  0.38006557818E+04 0.  0.
        3    1    3    3  502    0  0.85897490494E+03  0.27690431182E+03  0.14094009594E+04  0.16735964149E+04  0.10100000352E+00 0.  1.
       -3    1    3    3    0  502 -0.85897490494E+03 -0.27690431182E+03 -0.19716916978E+04  0.21684284739E+04  0.10100000352E+00 0. -1.
</event>
<event>
 5   0  0.1293993E-08  0.3795697E+04  0.7818609E-02  0.8047079E-01
       -2   -1    0    0    0  501  0.00000000000E+00  0.00000000000E+00  0.13602527973E+04  0.13602527973E+04  0.25500000920E-02 0. -1.
        2   -1    0    0  501    0  0.00000000000E+00  0.00000000000E+00 -0.26479112767E+04  0.26479112767E+04  0.25500000920E-02 0.  1.
    10030    2    1    2    0    0  0.00000000000E+00  0.00000000000E+00 -0.12876584795E+04  0.40081640740E+04  0.37956968904E+04 0.  0.
        5    1    3    3  502    0  0.40417920953E+03  0.11979950933E+04  0.85076026394E+03  0.15239318205E+04  0.46999998093E+01 0. -1.
       -5    1    3    3    0  502 -0.40417920953E+03 -0.11979950933E+04 -0.21384187434E+04  0.24842322534E+04  0.46999998093E+01 0.  1.
</event>
<event>
 5   0  0.1261152E-08  0.3798450E+04  0.7818609E-02  0.8046488E-01
        2   -1    0    0  501    0  0.00000000000E+00  0.00000000000E+00  0.20163335448E+04  0.20163335448E+04  0.25500000920E-02 0. -1.
       -2   -1    0    0    0  501  0.00000000000E+00  0.00000000000E+00 -0.17889178691E+04  0.17889178691E+04  0.25500000920E-02 0.  1.
    10030    2    1    2    0    0  0.00000000000E+00  0.00000000000E+00  0.22741567573E+03  0.38052514139E+04  0.37984497408E+04 0.  0.
        2    1    3    3  502    0  0.45385851380E+03  0.14581977563E+04  0.12447675684E+04  0.19702219535E+04  0.25500000920E-02 0. -1.
       -2    1    3    3    0  502 -0.45385851380E+03 -0.14581977563E+04 -0.10173518926E+04  0.18350294604E+04  0.25500000920E-02 0.  1.
</event>
<event>
 5   0  0.1293993E-08  0.3801660E+04  0.7818609E-02  0.8045799E-01
       -2   -1    0    0    0  501  0.00000000000E+00  0.00000000000E+00  0.21110471144E+04  0.21110471144E+04  0.25500000920E-02 0. -1.
        2   -1    0    0  501    0  0.00000000000E+00  0.00000000000E+00 -0.17115458638E+04  0.17115458638E+04  0.25500000920E-02 0.  1.
    10030    2    1    2    0    0  0.00000000000E+00  0.00000000000E+00  0.39950125061E+03  0.38225929783E+04  0.38016596150E+04 0.  0.
        5    1    3    3  502    0  0.76485172562E+03  0.11076378290E+04  0.15492556157E+04  0.20523339824E+04  0.46999998093E+01 0. -1.
       -5    1    3    3    0  502 -0.76485172562E+03 -0.11076378290E+04 -0.11497543651E+04  0.17702589959E+04  0.46999998093E+01 0.  1.
</event>
<event>
 5   0  0.4071750E-09  0.3799992E+04  0.7818609E-02  0.8046157E-01
        1   -1    0    0  501    0  0.00000000000E+00  0.00000000000E+00  0.25947693629E+04  0.25947693629E+04  0.50400001928E-02 0.  1.
       -1   -1    0    0    0  501  0.00000000000E+00  0.00000000000E+00 -0.13912544504E+04  0.13912544504E+04  0.50400001928E-02 0. -1.
    10030    2    1    2    0    0  0.00000000000E+00  0.00000000000E+00  0.12035149126E+04  0.39860238133E+04  0.37999918020E+04 0.  0.
        1    1    3    3  502    0  0.13838520759E+03  0.83532044398E+03 -0.11824156097E+04  0.14543099339E+04  0.50400001928E-02 0. -1.
       -1    1    3    3    0  502 -0.13838520759E+03 -0.83532044398E+03  0.23859305223E+04  0.25317138794E+04  0.50400001928E-02 0.  1.
</event>
<event>
 5   0  0.1264013E-08  0.3800461E+04  0.7818609E-02  0.8046056E-01
        2   -1    0    0  501    0  0.00000000000E+00  0.00000000000E+00  0.29801719593E+04  0.29801719593E+04  0.25500000920E-02 0. -1.
       -2   -1    0    0    0  501  0.00000000000E+00  0.00000000000E+00 -0.12116331054E+04  0.12116331054E+04  0.25500000920E-02 0.  1.
    10030    2    1    2    0    0  0.00000000000E+00  0.00000000000E+00  0.17685388539E+04  0.41918050646E+04  0.38004605013E+04 0.  0.
        4    1    3    3  502    0  0.17131778152E+04 -0.82152644692E+03  0.84957460467E+03  0.20812646519E+04  0.12699999809E+01 0.  1.
       -4    1    3    3    0  502 -0.17131778152E+04  0.82152644692E+03  0.91896424923E+03  0.21105404127E+04  0.12699999809E+01 0. -1.
</event>
<event>
 5   0  0.1305088E-08  0.3802711E+04  0.7818609E-02  0.8045573E-01
        2   -1    0    0  501    0  0.00000000000E+00  0.00000000000E+00  0.17084482457E+04  0.17084482457E+04  0.25500000920E-02 0. -1.
       -2   -1    0    0    0  501  0.00000000000E+00  0.00000000000E+00 -0.21160442888E+04  0.21160442888E+04  0.25500000920E-02 0.  1.
    10030    2    1    2    0    0  0.00000000000E+00  0.00000000000E+00 -0.40759604307E+03  0.38244925344E+04  0.38027106926E+04 0.  0.
        3    1    3    3  502    0  0.62073084448E+03 -0.32553020137E+03 -0.19813707825E+04  0.21016914334E+04  0.10100000352E+00 0.  1.
       -3    1    3    3    0  502 -0.62073084448E+03  0.32553020137E+03  0.15737747394E+04  0.17228011011E+04  0.10100000352E+00 0. -1.
</event>
<event>
 5   0  0.1293993E-08  0.3799938E+04  0.7818609E-02  0.8046168E-01
        2   -1    0    0  501    0  0.00000000000E+00  0.00000000000E+00  0.28291876010E+04  0.28291876010E+04  0.25500000920E-02 0. -1.
       -2   -1    0    0    0  501  0.00000000000E+00  0.00000000000E+00 -0.12759428952E+04  0.12759428952E+04  0.25500000920E-02 0.  1.
    10030    2    1    2    0    0  0.00000000000E+00  0.00000000000E+00  0.15532447058E+04  0.41051304962E+04  0.37999377988E+04 0.  0.
        5    1    3    3  502    0  0.95076304640E+03  0.11864196682E+04 -0.45432923638E+03  0.15868141493E+04  0.46999998093E+01 0.  1.
       -5    1    3    3    0  502 -0.95076304640E+03 -0.11864196682E+04  0.20075739422E+04  0.25183163468E+04  0.46999998093E+01 0. -1.
</event>
<event>
 5   0  0.1305088E-08  0.3799747E+04  0.7818609E-02  0.8046209E-01
       -2   -1    0    0    0  501  0.00000000000E+00  0.00000000000E+00  0.23281817201E+04  0.23281817201E+04  0.25500000920E-02 0. -1.
        2   -1    0    0  501    0  0.00000000000E+00  0.00000000000E+00 -0.15503596194E+04  0.15503596194E+04  0.25500000920E-02 0.  1.
    10030    2    1    2    0    0  0.00000000000E+00  0.00000000000E+00  0.77782210074E+03  0.38785413395E+04  0.37997467944E+04 0.  0.
        3    1    3    3  502    0 -0.13280977875E+03  0.11839218080E+04 -0.11217137473E+04  0.16363224089E+04  0.10100000352E+00 0.  1.
       -3    1    3    3    0  502  0.13280977875E+03 -0.11839218080E+04  0.18995358480E+04  0.22422189306E+04  0.10100000352E+00 0. -1.
</event>
<event>
 5   0  0.4071750E-09  0.3798880E+04  0.7818609E-02  0.8046395E-01
        1   -1    0    0  501    0  0.00000000000E+00  0.00000000000E+00  0.17923981396E+04  0.17923981396E+04  0.50400001928E-02 0.  1.
       -1   -1    0    0    0  501  0.00000000000E+00  0.00000000000E+00 -0.20128743934E+04  0.20128743934E+04  0.50400001928E-02 0. -1.
    10030    2    1    2    0    0  0.00000000000E+00  0.00000000000E+00 -0.22047625386E+03  0.38052725330E+04  0.37988800023E+04 0.  0.
        3    1    3    3  502    0  0.60751823015E+03 -0.13392300195E+04 -0.13144494625E+04  0.19724078799E+04  0.10100000352E+00 0. -1.
       -3    1    3    3    0  502 -0.60751823015E+03  0.13392300195E+04  0.10939732086E+04  0.18328646531E+04  0.10100000352E+00 0.  1.
</event>
<event>
 5   0  0.4071750E-09  0.3799063E+04  0.7818609E-02  0.8046356E-01
       -1   -1    0    0    0  501  0.00000000000E+00  0.00000000000E+00  0.12977214440E+04  0.12977214440E+04  0.50400001928E-02 0.  1.
        1   -1    0    0  501    0  0.00000000000E+00  0.00000000000E+00 -0.27804270843E+04  0.27804270843E+04  0.50400001928E-02 0. -1.
    10030    2    1    2    0    0  0.00000000000E+00  0.00000000000E+00 -0.14827056403E+04  0.40781485283E+04  0.37990629638E+04 0.  0.
        3    1    3    3  502    0  0.15684579520E+04 -0.10291204134E+04 -0.42098129959E+03  0.19225957550E+04  0.10100000352E+00 0.  1.
       -3    1    3    3    0  502 -0.15684579520E+04  0.10291204134E+04 -0.10617243407E+04  0.21555527733E+04  0.10100000352E+00 0. -1.
</event>
<event>
 5   0  0.1264013E-08  0.3801759E+04  0.7818609E-02  0.8045777E-01
        2   -1    0    0  501    0  0.00000000000E+00  0.00000000000E+00  0.21156931033E+04  0.21156931033E+04  0.25500000920E-02 0.  1.
       -2   -1    0    0    0  501  0.00000000000E+00  0.00000000000E+00 -0.17078769652E+04  0.17078769652E+04  0.25500000920E-02 0. -1.
    10030    2    1    2    0    0  0.00000000000E+00  0.00000000000E+00  0.40781613817E+03  0.38235700685E+04  0.38017593383E+04 0.  0.
        4    1    3    3  502    0  0.54501484065E+03  0.56625125103E+03  0.19446352472E+04  0.20974483339E+04  0.12699999809E+01 0.  1.
       -4    1    3    3    0  502 -0.54501484065E+03 -0.56625125103E+03 -0.15368191090E+04  0.17261217346E+04  0.12699999809E+01 0. -1.
</event>
<event>
 5   0  0.4071750E-09  0.3800293E+04  0.7818609E-02  0.8046092E-01
       -1   -1    0    0    0  501  0.00000000000E+00  0.00000000000E+00  0.21046922532E+04  0.21046922532E+04  0.50400001928E-02 0.  1.
        1   -1    0    0  501    0  0.00000000000E+00  0.00000000000E+00 -0.17154792087E+04  0.17154792087E+04  0.50400001928E-02 0. -1.
    10030    2    1    2    0    0  0.00000000000E+00  0.00000000000E+00  0.38921304444E+03  0.38201714619E+04  0.38002925156E+04 0.  0.
        5    1    3    3  502    0 -0.12974814053E+04 -0.13355472937E+03  0.15835864215E+04  0.20516000846E+04  0.46999998093E+01 0.  1.
       -5    1    3    3    0  502  0.12974814053E+04  0.13355472937E+03 -0.11943733771E+04  0.17685713773E+04  0.46999998093E+01 0. -1.
</event>
<event>
 5   0  0.4071750E-09  0.3799234E+04  0.7818609E-02  0.8046319E-01
        1   -1    0    0  501    0  0.00000000000E+00  0.00000000000E+00  0.18875450129E+04  0.18875450129E+04  0.50400001928E-02 0.  1.
       -1   -1    0    0    0  501  0.00000000000E+00  0.00000000000E+00 -0.19117661868E+04  0.19117661868E+04  0.50400001928E-02 0. -1.
    10030    2    1    2    0    0  0.00000000000E+00  0.00000000000E+00 -0.24221173902E+02  0.37993111997E+04  0.37992339921E+04 0.  0.
        5    1    3    3  502    0 -0.10150694884E+04 -0.15390697350E+04 -0.46974519885E+03  0.19025730885E+04  0.46999998093E+01 0. -1.
       -5    1    3    3    0  502  0.10150694884E+04  0.15390697350E+04  0.44552402495E+03  0.18967381111E+04  0.46999998093E+01 0.  1.
</event>
<event>
 5   0  0.4071750E-09  0.3801078E+04  0.7818609E-02  0.8045924E-01
        1   -1    0    0  501    0  0.00000000000E+00  0.00000000000E+00  0.23607283726E+04  0.23607283726E+04  0.50400001928E-02 0.  1.
       -1   -1    0    0    0  501  0.00000000000E+00  0.00000000000E+00 -0.15300567360E+04  0.15300567360E+04  0.50400001928E-02 0. -1.
    10030    2    1    2    0    0  0.00000000000E+00  0.00000000000E+00  0.83067163655E+03  0.38907851086E+04  0.38010779252E+04 0.  0.
        3    1    3    3  502    0 -0.10329404865E+04  0.85631702911E+03  0.17931352818E+04  0.22395488501E+04  0.10100000352E+00 0.  1.
       -3    1    3    3    0  502  0.10329404865E+04 -0.85631702911E+03 -0.96246364521E+03  0.16512362585E+04  0.10100000352E+00 0. -1.
</event>
<event>
 5   0  0.1327249E-08  0.3799448E+04  0.7818609E-02  0.8046273E-01
       -2   -1    0    0    0  501  0.00000000000E+00  0.00000000000E+00  0.14960497228E+04  0.14960497228E+04  0.25500000920E-02 0. -1.
        2   -1    0    0  501    0  0.00000000000E+00  0.00000000000E+00 -0.24123199483E+04  0.24123199483E+04  0.25500000920E-02 0.  1.
    10030    2    1    2    0    0  0.00000000000E+00  0.00000000000E+00 -0.91627022548E+03  0.39083696711E+04  0.37994476388E+04 0.  0.
        1    1    3    3  502    0 -0.64977603122E+03 -0.87002887993E+03 -0.20616007978E+04  0.23300980650E+04  0.50400001928E-02 0.  1.
       -1    1    3    3    0  502  0.64977603122E+03  0.87002887993E+03  0.11453305724E+04  0.15782716061E+04  0.50400001928E-02 0. -1.
</event>
<event>
 5   0  0.4071750E-09  0.3799339E+04  0.7818609E-02  0.8046297E-01
        1   -1    0    0  501    0  0.00000000000E+00  0.00000000000E+00  0.17440987106E+04  0.17440987106E+04  0.50400001928E-02 0.  1.
       -1   -1    0    0    0  501  0.00000000000E+00  0.00000000000E+00 -0.20691165901E+04  0.20691165901E+04  0.50400001928E-02 0. -1.
    10030    2    1    2    0    0  0.00000000000E+00  0.00000000000E+00 -0.32501787943E+03  0.38132153007E+04  0.37993386671E+04 0.  0.
        2    1    3    3  502    0 -0.12567518833E+03  0.26934679462E+03  0.17206172611E+04  0.17461001426E+04  0.25500000920E-02 0.  1.
       -2    1    3    3    0  502  0.12567518833E+03 -0.26934679462E+03 -0.20456351405E+04  0.20671151581E+04  0.25500000920E-02 0. -1.
</event>
<event>
 5   0  0.4071750E-09  0.3799114E+04  0.7818609E-02  0.8046345E-01
       -1   -1    0    0    0  501  0.00000000000E+00  0.00000000000E+00  0.20047673882E+04  0.20047673882E+04  0.50400001928E-02 0.  1.
        1   -1    0    0  501    0  0.00000000000E+00  0.00000000000E+00 -0.17998680860E+04  0.17998680861E+04  0.50400001928E-02 0. -1.
    10030    2    1    2    0    0  0.00000000000E+00  0.00000000000E+00  0.20489930216E+03  0.38046354743E+04  0.37991140241E+04 0.  0.
        3    1    3    3  502    0 -0.12145265826E+04  0.14414225799E+04  0.33846770665E+03  0.19150285304E+04  0.10100000352E+00 0.  1.
       -3    1    3    3    0  502  0.12145265826E+04 -0.14414225799E+04 -0.13356840448E+03  0.18896069439E+04  0.10100000352E+00 0. -1.
</event>
<event>
 5   0  0.4071750E-09  0.3799186E+04  0.7818609E-02  0.8046330E-01
        1   -1    0    0  501    0  0.00000000000E+00  0.00000000000E+00  0.28129449763E+04  0.28129449763E+04  0.50400001928E-02 0.  1.
       -1   -1    0    0    0  501  0.00000000000E+00  0.00000000000E+00 -0.12828025235E+04  0.12828025235E+04  0.50400001928E-02 0. -1.
    10030    2    1    2    0    0  0.00000000000E+00  0.00000000000E+00  0.15301424528E+04  0.40957474997E+04  0.37991856569E+04 0.  0.
        2    1    3    3  502    0 -0.17234066252E+03 -0.83868030422E+03 -0.10629839361E+04  0.13649252013E+04  0.25500000920E-02 0. -1.
       -2    1    3    3    0  502  0.17234066252E+03  0.83868030422E+03  0.25931263889E+04  0.27308222984E+04  0.25500000920E-02 0.  1.
</event>
<event>
 5   0  0.4071750E-09  0.3800790E+04  0.7818609E-02  0.8045985E-01
        1   -1    0    0  501    0  0.00000000000E+00  0.00000000000E+00  0.18009425272E+04  0.18009425272E+04  0.50400001928E-02 0. -1.
       -1   -1    0    0    0  501  0.00000000000E+00  0.00000000000E+00 -0.20053396553E+04  0.20053396553E+04  0.50400001928E-02 0.  1.
    10030    2    1    2    0    0  0.00000000000E+00  0.00000000000E+00 -0.20439712816E+03  0.38062821825E+04  0.38007901635E+04 0.  0.
        3    1    3    3  502    0 -0.92489117099E+03  0.13458282476E+04 -0.10756237331E+04  0.19554139653E+04  0.10100000352E+00 0.  1.
       -3    1    3    3    0  502  0.92489117099E+03 -0.13458282476E+04  0.87122660491E+03  0.18508682172E+04  0.10100000352E+00 0. -1.
</event>
<event>
 5   0  0.1293993E-08  0.3799761E+04  0.7818609E-02  0.8046206E-01
       -2   -1    0    0    0  501  0.00000000000E+00  0.00000000000E+00  0.14024213444E+04  0.14024213444E+04  0.25500000920E-02 0. -1.
        2   -1    0    0  501    0  0.00000000000E+00  0.00000000000E+00 -0.25737960798E+04  0.25737960798E+04  0.25500000920E-02 0.  1.
    10030    2    1    2    0    0  0.00000000000E+00  0.00000000000E+00 -0.11713747353E+04  0.39762174242E+04  0.37997613391E+04 0.  0.
        5    1    3    3  502    0  0.10697734994E+04  0.70604304766E+03  0.88179599003E+03  0.15557950968E+04  0.46999998093E+01 0. -1.
       -5    1    3    3    0  502 -0.10697734994E+04 -0.70604304766E+03 -0.20531707254E+04  0.24204223274E+04  0.46999998093E+01 0.  1.
</event>
<event>
 5   0  0.1327249E-08  0.3804272E+04  0.7818609E-02  0.8045239E-01
        2   -1    0    0  501    0  0.00000000000E+00  0.00000000000E+00  0.17820617540E+04  0.17820617540E+04  0.25500000920E-02 0. -1.
       -2   -1    0    0    0  501  0.00000000000E+00  0.00000000000E+00 -0.20303006355E+04  0.20303006355E+04  0.25500000920E-02 0.  1.
    10030    2    1    2    0    0  0.00000000000E+00  0.00000000000E+00 -0.24823888155E+03  0.38123623895E+04  0.38042718681E+04 0.  0.
        1    1    3    3  502    0  0.18785666118E+04 -0.24974134225E+03  0.39745460614E+02  0.18955112647E+04  0.50400001928E-02 0.  1.
       -1    1    3    3    0  502 -0.18785666118E+04  0.24974134225E+03 -0.28798434217E+03  0.19168511247E+04  0.50400001928E-02 0. -1.
</event>
<event>
 5   0  0.4071750E-09  0.3798348E+04  0.7818609E-02  0.8046509E-01
        1   -1    0    0  501    0  0.00000000000E+00  0.00000000000E+00  0.13761366286E+04  0.13761366286E+04  0.50400001928E-02 0. -1.
       -1   -1    0    0    0  501  0.00000000000E+00  0.00000000000E+00 -0.26210061885E+04  0.26210061885E+04  0.50400001928E-02 0.  1.
    10030    2    1    2    0    0  0.00000000000E+00  0.00000000000E+00 -0.12448695598E+04  0.39971428171E+04  0.37983483884E+04 0.  0.
        1    1    3    3  502    0  0.80626842249E+03  0.16259483618E+04 -0.33609377036E+02  0.18151877133E+04  0.50400001928E-02 0. -1.
       -1    1    3    3    0  502 -0.80626842249E+03 -0.16259483618E+04 -0.12112601828E+04  0.21819551038E+04  0.50400001928E-02 0.  1.
</event>
<event>
 5   0  0.1261152E-08  0.3800180E+04  0.7818609E-02  0.8046116E-01
        2   -1    0    0  501    0  0.00000000000E+00  0.00000000000E+00  0.22612523597E+04  0.22612523597E+04  0.25500000920E-02 0.  1.
       -2   -1    0    0    0  501  0.00000000000E+00  0.00000000000E+00 -0.15966113496E+04  0.15966113496E+04  0.25500000920E-02 0. -1.
    10030    2    1    2    0    0  0.00000000000E+00  0.00000000000E+00  0.66464101011E+03  0.38578637093E+04  0.38001795652E+04 0.  0.
        2    1    3    3  502    0 -0.11159957970E+04 -0.15032637993E+04  0.32199228443E+01  0.18722337026E+04  0.25500000920E-02 0. -1.
       -2    1    3    3    0  502  0.11159957970E+04  0.15032637993E+04  0.66142108726E+03  0.19856300068E+04  0.25500000920E-02 0.  1.
</event>
<event>
 5   0  0.1293993E-08  0.3801803E+04  0.7818609E-02  0.8045768E-01
        2   -1    0    0  501    0  0.00000000000E+00  0.00000000000E+00  0.22854065423E+04  0.22854065423E+04  0.25500000920E-02 0. -1.
       -2   -1    0    0    0  501  0.00000000000E+00  0.00000000000E+00 -0.15810872951E+04  0.15810872951E+04  0.25500000920E-02 0.  1.
    10030    2    1    2    0    0  0.00000000000E+00  0.00000000000E+00  0.70431924714E+03  0.38664938374E+04  0.38018033869E+04 0.  0.
        5    1    3    3  502    0  0.12185723549E+04  0.13042892361E+04 -0.31265770219E+03  0.18121440131E+04  0.46999998093E+01 0.  1.
       -5    1    3    3    0  502 -0.12185723549E+04 -0.13042892361E+04  0.10169769493E+04  0.20543498243E+04  0.46999998093E+01 0. -1.
</event>
<event>
 5   0  0.4071750E-09  0.3797531E+04  0.7818609E-02  0.8046685E-01
        1   -1    0    0  501    0  0.00000000000E+00  0.00000000000E+00  0.19982946561E+04  0.19982946561E+04  0.50400001928E-02 0.  1.
       -1   -1    0    0    0  501  0.00000000000E+00  0.00000000000E+00 -0.18041936980E+04  0.18041936980E+04  0.50400001928E-02 0. -1.
    10030    2    1    2    0    0  0.00000000000E+00  0.00000000000E+00  0.19410095819E+03  0.38024883541E+04  0.37975311060E+04 0.  0.
        2    1    3    3  502    0  0.16918236220E+04  0.30466577687E+03  0.90446667488E+03  0.19424593611E+04  0.25500000920E-02 0.  1.
       -2    1    3    3    0  502 -0.16918236220E+04 -0.30466577687E+03 -0.71036571670E+03  0.18600289930E+04  0.25500000920E-02 0. -1.
</event>
<event>
 5   0  0.1261152E-08  0.3798872E+04  0.7818609E-02  0.8046397E-01
       -2   -1    0    0    0  501  0.00000000000E+00  0.00000000000E+00  0.19227285547E+04  0.19227285547E+04  0.25500000920E-02 0.  1.
        2   -1    0    0  501    0  0.00000000000E+00  0.00000000000E+00 -0.18764253047E+04  0.18764253047E+04  0.25500000920E-02 0. -1.
    10030    2    1    2    0    0  0.00000000000E+00  0.00000000000E+00  0.46303250005E+02  0.37991538593E+04  0.37988716819E+04 0.  0.
        2    1    3    3  502    0  0.81067736318E+03 -0.22719396186E+03 -0.16796320735E+04  0.18788237772E+04  0.25500000920E-02 0. -1.
       -2    1    3    3    0  502 -0.81067736318E+03  0.22719396186E+03  0.17259353235E+04  0.19203300821E+04  0.25500000920E-02 0.  1.
</event>
<event>
 5   0  0.1305088E-08  0.3799554E+04  0.7818609E-02  0.8046251E-01
       -2   -1    0    0    0  501  0.00000000000E+00  0.00000000000E+00  0.14230005181E+04  0.14230005181E+04  0.25500000920E-02 0.  1.
        2   -1    0    0  501    0  0.00000000000E+00  0.00000000000E+00 -0.25362980314E+04  0.25362980314E+04  0.25500000920E-02 0. -1.
    10030    2    1    2    0    0  0.00000000000E+00  0.00000000000E+00 -0.11132975133E+04  0.39592985496E+04  0.37995544017E+04 0.  0.
        3    1    3    3  502    0  0.74264417739E+03  0.21614855292E+03  0.12515021563E+04  0.14712233782E+04  0.10100000352E+00 0.  1.
       -3    1    3    3    0  502 -0.74264417739E+03 -0.21614855292E+03 -0.23647996695E+04  0.24880751714E+04  0.10100000352E+00 0. -1.
</event>
<event>
 5   0  0.4071750E-09  0.3801474E+04  0.7818609E-02  0.8045839E-01
       -1   -1    0    0    0  501  0.00000000000E+00  0.00000000000E+00  0.14120748218E+04  0.14120748218E+04  0.50400001928E-02 0.  1.
        1   -1    0    0  501    0  0.00000000000E+00  0.00000000000E+00 -0.25585058057E+04  0.25585058057E+04  0.50400001928E-02 0. -1.
    10030    2    1    2    0    0  0.00000000000E+00  0.00000000000E+00 -0.11464309839E+04  0.39705806275E+04  0.38014742559E+04 0.  0.
        5    1    3    3  502    0 -0.18316374660E+04 -0.26932621994E+03 -0.10228864988E+04  0.21151244169E+04  0.46999998093E+01 0.  1.
       -5    1    3    3    0  502  0.18316374660E+04  0.26932621994E+03 -0.12354448512E+03  0.18554562106E+04  0.46999998093E+01 0. -1.
</event>
<event>
 5   0  0.1327249E-08  0.3797831E+04  0.7818609E-02  0.8046621E-01
        2   -1    0    0  501    0  0.00000000000E+00  0.00000000000E+00  0.22434057407E+04  0.22434057407E+04  0.25500000920E-02 0. -1.
       -2   -1    0    0    0  501  0.00000000000E+00  0.00000000000E+00 -0.16073237969E+04  0.16073237969E+04  0.25500000920E-02 0.  1.
    10030    2    1    2    0    0  0.00000000000E+00  0.00000000000E+00  0.63608194384E+03  0.38507295376E+04  0.37978306614E+04 0.  0.
        1    1    3    3  502    0 -0.14015748648E+04  0.77017064951E+03  0.13561695469E+04  0.20968478178E+04  0.50400001928E-02 0.  1.
       -1    1    3    3    0  502  0.14015748648E+04 -0.77017064951E+03 -0.72008760306E+03  0.17538817198E+04  0.50400001928E-02 0. -1.
</event>
<event>
 5   0  0.4071750E-09  0.3800841E+04  0.7818609E-02  0.8045974E-01
       -1   -1    0    0    0  501  0.00000000000E+00  0.00000000000E+00  0.19861989485E+04  0.19861989485E+04  0.50400001928E-02 0. -1.
        1   -1    0    0  501    0  0.00000000000E+00  0.00000000000E+00 -0.18183466437E+04  0.18183466437E+04  0.50400001928E-02 0.  1.
    10030    2    1    2    0    0  0.00000000000E+00  0.00000000000E+00  0.16785230473E+03  0.38045455922E+04  0.38008410605E+04 0.  0.
        4    1    3    3  502    0 -0.35811614312E+03 -0.91602853015E+03  0.17116233381E+04  0.19740849790E+04  0.12699999809E+01 0. -1.
       -4    1    3    3    0  502  0.35811614312E+03  0.91602853015E+03 -0.15437710334E+04  0.18304606132E+04  0.12699999809E+01 0.  1.
</event>
<event>
 5   0  0.4071750E-09  0.3799520E+04  0.7818609E-02  0.8046258E-01
        1   -1    0    0  501    0  0.00000000000E+00  0.00000000000E+00  0.22109388697E+04  0.22109388697E+04  0.50400001928E-02 0.  1.
       -1   -1    0    0    0  501  0.00000000000E+00  0.00000000000E+00 -0.16323783809E+04  0.16323783809E+04  0.50400001928E-02 0. -1.
    10030    2    1    2    0    0  0.00000000000E+00  0.00000000000E+00  0.57856048880E+03  0.38433172506E+04  0.37995203973E+04 0.  0.
        2    1    3    3  502    0 -0.15827435863E+03  0.18843661905E+04  0.47359505310E+03  0.19494047776E+04  0.25500000920E-02 0. -1.
       -2    1    3    3    0  502  0.15827435863E+03 -0.18843661905E+04  0.10496543570E+03  0.18939124730E+04  0.25500000920E-02 0.  1.
</event>
<event>
 5   0  0.1264013E-08  0.3799090E+04  0.7818609E-02  0.8046350E-01
       -2   -1    0    0    0  501  0.00000000000E+00  0.00000000000E+00  0.20512330057E+04  0.20512330057E+04  0.25500000920E-02 0.  1.
        2   -1    0    0  501    0  0.00000000000E+00  0.00000000000E+00 -0.17590738531E+04  0.17590738531E+04  0.25500000920E-02 0. -1.
    10030    2    1    2    0    0  0.00000000000E+00  0.00000000000E+00  0.29215915258E+03  0.38103068588E+04  0.37990895472E+04 0.  0.
        4    1    3    3  502    0  0.12394598866E+04 -0.71526894072E+03 -0.11067677535E+04  0.18090900865E+04  0.12699999809E+01 0. -1.
       -4    1    3    3    0  502 -0.12394598866E+04  0.71526894072E+03  0.13989269061E+04  0.20012167722E+04  0.12699999809E+01 0.  1.
</event>
<event>
 5   0  0.1261152E-08  0.3800408E+04  0.7818609E-02  0.8046067E-01
        2   -1    0    0  501    0  0.00000000000E+00  0.00000000000E+00  0.12348486129E+04  0.12348486129E+04  0.25500000920E-02 0.  1.
       -2   -1    0    0    0  501  0.00000000000E+00  0.00000000000E+00 -0.29240637728E+04  0.29240637728E+04  0.25500000920E-02 0. -1.
    10030    2    1    2    0    0  0.00000000000E+00  0.00000000000E+00 -0.16892151599E+04  0.41589123857E+04  0.38004084485E+04 0.  0.
        2    1    3    3  502    0 -0.51500767759E+03 -0.14890634961E+04 -0.20069896788E+04  0.25515780557E+04  0.25500000920E-02 0. -1.
       -2    1    3    3    0  502  0.51500767759E+03  0.14890634961E+04  0.31777451886E+03  0.16073343300E+04  0.25500000920E-02 0.  1.
</event>
<event>
 5   0  0.1305088E-08  0.3800361E+04  0.7818609E-02  0.8046077E-01
        2   -1    0    0  501    0  0.00000000000E+00  0.00000000000E+00  0.16938919172E+04  0.16938919172E+04  0.25500000920E-02 0.  1.
       -2   -1    0    0    0  501  0.00000000000E+00  0.00000000000E+00 -0.21315913495E+04  0.21315913495E+04  0.25500000920E-02 0. -1.
    10030    2    1    2    0    0  0.00000000000E+00  0.00000000000E+00 -0.43769943231E+03  0.38254832667E+04  0.38003606974E+04 0.  0.
        3    1    3    3  502    0  0.10568523283E+03 -0.16261925608E+04 -0.12025579288E+04  0.20252943479E+04  0.10100000352E+00 0. -1.
       -3    1    3    3    0  502 -0.10568523283E+03  0.16261925608E+04  0.76485849654E+03  0.18001889187E+04  0.10100000352E+00 0.  1.
</event>
<event>
 5   0  0.4071750E-09  0.3813029E+04  0.7818609E-02  0.8043365E-01
       -1   -1    0    0    0  501  0.00000000000E+00  0.00000000000E+00  0.16037876499E+04  0.16037876499E+04  0.50400001928E-02 0. -1.
        1   -1    0    0  501    0  0.00000000000E+00  0.00000000000E+00 -0.22663833171E+04  0.22663833171E+04  0.50400001928E-02 0.  1.
    10030    2    1    2    0    0  0.00000000000E+00  0.00000000000E+00 -0.66259566718E+03  0.38701709671E+04  0.38130290185E+04 0.  0.
        2    1    3    3  502    0  0.17882509728E+02 -0.70582255922E+03  0.14661997137E+04  0.16273435009E+04  0.25500000920E-02 0. -1.
       -2    1    3    3    0  502 -0.17882509728E+02  0.70582255922E+03 -0.21287953809E+04  0.22428274662E+04  0.25500000920E-02 0.  1.
</event>
<event>
 5   0  0.1264013E-08  0.3800950E+04  0.7818609E-02  0.8045951E-01
        2   -1    0    0  501    0  0.00000000000E+00  0.00000000000E+00  0.14091519242E+04  0.14091519242E+04  0.25500000920E-02 0.  1.
       -2   -1    0    0    0  501  0.00000000000E+00  0.00000000000E+00 -0.25631059392E+04  0.25631059392E+04  0.25500000920E-02 0. -1.
    10030    2    1    2    0    0  0.00000000000E+00  0.00000000000E+00 -0.11539540150E+04  0.39722578634E+04  0.38009502318E+04 0.  0.
        4    1    3    3  502    0 -0.16165972260E+04  0.93610252890E+03 -0.21175615061E+03  0.18800310678E+04  0.12699999809E+01 0. -1.
       -4    1    3    3    0  502  0.16165972260E+04 -0.93610252890E+03 -0.94219786439E+03  0.20922267956E+04  0.12699999809E+01 0.  1.
</event>
<event>
 5   0  0.1305088E-08  0.3799946E+04  0.7818609E-02  0.8046166E-01
       -2   -1    0    0    0  501  0.00000000000E+00  0.00000000000E+00  0.15671936790E+04  0.15671936790E+04  0.25500000920E-02 0. -1.
        2   -1    0    0  501    0  0.00000000000E+00  0.00000000000E+00 -0.23034154650E+04  0.23034154650E+04  0.25500000920E-02 0.  1.
    10030    2    1    2    0    0  0.00000000000E+00  0.00000000000E+00 -0.73622178604E+03  0.38706091440E+04  0.37999463980E+04 0.  0.
        3    1    3    3  502    0 -0.16942797538E+04 -0.83741610533E+03 -0.16942328391E+03  0.18975125499E+04  0.10100000352E+00 0.  1.
       -3    1    3    3    0  502  0.16942797538E+04  0.83741610533E+03 -0.56679850213E+03  0.19730965941E+04  0.10100000352E+00 0. -1.
</event>
<event>
 5   0  0.4071750E-09  0.3792939E+04  0.7818609E-02  0.8047672E-01
        1   -1    0    0  501    0  0.00000000000E+00  0.00000000000E+00  0.15913409951E+04  0.15913409951E+04  0.50400001928E-02 0.  1.
       -1   -1    0    0    0  501  0.00000000000E+00  0.00000000000E+00 -0.22601036952E+04  0.22601036952E+04  0.50400001928E-02 0. -1.
    10030    2    1    2    0    0  0.00000000000E+00  0.00000000000E+00 -0.66876270008E+03  0.38514446903E+04  0.37929385249E+04 0.  0.
        5    1    3    3  502    0  0.13740204381E+03 -0.14687294329E+03  0.15804751071E+04  0.15932277418E+04  0.46999998093E+01 0.  1.
       -5    1    3    3    0  502 -0.13740204381E+03  0.14687294329E+03 -0.22492378072E+04  0.22582169485E+04  0.46999998093E+01 0. -1.
</event>
<event>
 5   0  0.1305088E-08  0.3802735E+04  0.7818609E-02  0.8045568E-01
        2   -1    0    0  501    0  0.00000000000E+00  0.00000000000E+00  0.29098041663E+04  0.29098041663E+04  0.25500000920E-02 0.  1.
       -2   -1    0    0    0  501  0.00000000000E+00  0.00000000000E+00 -0.12424195343E+04  0.12424195343E+04  0.25500000920E-02 0. -1.
    10030    2    1    2    0    0  0.00000000000E+00  0.00000000000E+00  0.16673846320E+04  0.41522237006E+04  0.38027345619E+04 0.  0.
        3    1    3    3  502    0 -0.25019456172E+03  0.10310577211E+04  0.25565228372E+04  0.27679390113E+04  0.10100000352E+00 0.  1.
       -3    1    3    3    0  502  0.25019456172E+03 -0.10310577211E+04 -0.88913820512E+03  0.13842846893E+04  0.10100000352E+00 0. -1.
</event>
<event>
 5   0  0.4071750E-09  0.3799829E+04  0.7818609E-02  0.8046192E-01
       -1   -1    0    0    0  501  0.00000000000E+00  0.00000000000E+00  0.22534753465E+04  0.22534753465E+04  0.50400001928E-02 0. -1.
        1   -1    0    0  501    0  0.00000000000E+00  0.00000000000E+00 -0.16018256689E+04  0.16018256689E+04  0.50400001928E-02 0.  1.
    10030    2    1    2    0    0  0.00000000000E+00  0.00000000000E+00  0.65164967759E+03  0.38553010153E+04  0.37998287615E+04 0.  0.
        2    1    3    3  502    0 -0.11488908863E+04  0.96546588018E+03  0.15079955215E+04  0.21274691836E+04  0.25500000920E-02 0.  1.
       -2    1    3    3    0  502  0.11488908863E+04 -0.96546588018E+03 -0.85634584392E+03  0.17278318317E+04  0.25500000920E-02 0. -1.
</event>
<event>
 5   0  0.4071750E-09  0.3800679E+04  0.7818609E-02  0.8046009E-01
        1   -1    0    0  501    0  0.00000000000E+00  0.00000000000E+00  0.18306406693E+04  0.18306406693E+04  0.50400001928E-02 0.  1.
       -1   -1    0    0    0  501  0.00000000000E+00  0.00000000000E+00 -0.19726916505E+04  0.19726916505E+04  0.50400001928E-02 0. -1.
    10030    2    1    2    0    0  0.00000000000E+00  0.00000000000E+00 -0.14205098118E+03  0.38033323198E+04  0.38006786569E+04 0.  0.
        1    1    3    3  502    0  0.11562469732E+04 -0.10963257228E+04  0.96529034999E+03  0.18629607117E+04  0.50400001928E-02 0.  1.
       -1    1    3    3    0  502 -0.11562469732E+04  0.10963257228E+04 -0.11073413312E+04  0.19403716080E+04  0.50400001928E-02 0. -1.
</event>
<event>
 5   0  0.1264013E-08  0.3796104E+04  0.7818609E-02  0.8046992E-01
       -2   -1    0    0    0  501  0.00000000000E+00  0.00000000000E+00  0.14615095427E+04  0.14615095427E+04  0.25500000920E-02 0.  1.
        2   -1    0    0  501    0  0.00000000000E+00  0.00000000000E+00 -0.24649860518E+04  0.24649860518E+04  0.25500000920E-02 0. -1.
    10030    2    1    2    0    0  0.00000000000E+00  0.00000000000E+00 -0.10034765091E+04  0.39264955945E+04  0.37961036010E+04 0.  0.
        4    1    3    3  502    0 -0.48124995656E+03  0.13196520258E+04  0.81863396194E+03  0.16258063127E+04  0.12699999809E+01 0.  1.
       -4    1    3    3    0  502  0.48124995656E+03 -0.13196520258E+04 -0.18221104710E+04  0.23006892818E+04  0.12699999809E+01 0. -1.
</event>
<event>
 5   0  0.1264013E-08  0.3801541E+04  0.7818609E-02  0.8045824E-01
       -2   -1    0    0    0  501  0.00000000000E+00  0.00000000000E+00  0.16503283449E+04  0.16503283449E+04  0.25500000920E-02 0. -1.
        2   -1    0    0  501    0  0.00000000000E+00  0.00000000000E+00 -0.21892185436E+04  0.21892185436E+04  0.25500000920E-02 0.  1.
    10030    2    1    2    0    0  0.00000000000E+00  0.00000000000E+00 -0.53889019875E+03  0.38395468885E+04  0.38015414850E+04 0.  0.
        4    1    3    3  502    0 -0.97491663719E+03  0.13701338663E+04 -0.11644182024E+04  0.20453852019E+04  0.12699999809E+01 0.  1.
       -4    1    3    3    0  502  0.97491663719E+03 -0.13701338663E+04  0.62552800370E+03  0.17941616865E+04  0.12699999809E+01 0. -1.
</event>
<event>
 5   0  0.1264013E-08  0.3800152E+04  0.7818609E-02  0.8046122E-01
        2   -1    0    0  501    0  0.00000000000E+00  0.00000000000E+00  0.16598893208E+04  0.16598893208E+04  0.25500000920E-02 0. -1.
       -2   -1    0    0    0  501  0.00000000000E+00  0.00000000000E+00 -0.21750183147E+04  0.21750183148E+04  0.25500000920E-02 0.  1.
    10030    2    1    2    0    0  0.00000000000E+00  0.00000000000E+00 -0.51512899391E+03  0.38349076356E+04  0.38001524566E+04 0.  0.
        4    1    3    3  502    0  0.34413608739E+03  0.57703124598E+03 -0.20511470482E+04  0.21583791445E+04  0.12699999809E+01 0.  1.
       -4    1    3    3    0  502 -0.34413608739E+03 -0.57703124598E+03  0.15360180542E+04  0.16765284911E+04  0.12699999809E+01 0. -1.
</event>
<event>
 5   0  0.4071750E-09  0.3800297E+04  0.7818609E-02  0.8046091E-01
       -1   -1    0    0    0  501  0.00000000000E+00  0.00000000000E+00  0.27951598153E+04  0.27951598153E+04  0.50400001928E-02 0.  1.
        1   -1    0    0  501    0  0.00000000000E+00  0.00000000000E+00 -0.12917201919E+04  0.12917201919E+04  0.50400001928E-02 0. -1.
    10030    2    1    2    0    0  0.00000000000E+00  0.00000000000E+00  0.15034396234E+04  0.40868800071E+04  0.38002970267E+04 0.  0.
        3    1    3    3  502    0 -0.40324662233E+03  0.10992960795E+04 -0.85762954056E+03  0.14514090215E+04  0.10100000352E+00 0. -1.
       -3    1    3    3    0  502  0.40324662233E+03 -0.10992960795E+04  0.23610691640E+04  0.26354709856E+04  0.10100000352E+00 0.  1.
</event>
<event>
 5   0  0.1305088E-08  0.3801010E+04  0.7818609E-02  0.8045938E-01
       -2   -1    0    0    0  501  0.00000000000E+00  0.00000000000E+00  0.17944727759E+04  0.17944727759E+04  0.25500000920E-02 0. -1.
        2   -1    0    0  501    0  0.00000000000E+00  0.00000000000E+00 -0.20128027907E+04  0.20128027907E+04  0.25500000920E-02 0.  1.
    10030    2    1    2    0    0  0.00000000000E+00  0.00000000000E+00 -0.21833001481E+03  0.38072755665E+04  0.38010102926E+04 0.  0.
        3    1    3    3  502    0 -0.11914122498E+04 -0.69194068740E+03 -0.14203967775E+04  0.19788309882E+04  0.10100000352E+00 0.  1.
       -3    1    3    3    0  502  0.11914122498E+04  0.69194068740E+03  0.12020667627E+04  0.18284445784E+04  0.10100000352E+00 0. -1.
</event>
<event>
 5   0  0.1327249E-08  0.3803080E+04  0.7818609E-02  0.8045494E-01
       -2   -1    0    0    0  501  0.00000000000E+00  0.00000000000E+00  0.14951899827E+04  0.14951899827E+04  0.25500000920E-02 0.  1.
        2   -1    0    0  501    0  0.00000000000E+00  0.00000000000E+00 -0.24183245352E+04  0.24183245352E+04  0.25500000920E-02 0. -1.
    10030    2    1    2    0    0  0.00000000000E+00  0.00000000000E+00 -0.92313455249E+03  0.39135145180E+04  0.38030801307E+04 0.  0.
        1    1    3    3  502    0 -0.10099758416E+04 -0.17883170594E+02  0.11962651071E+04  0.15657015089E+04  0.50400001928E-02 0.  1.
       -1    1    3    3    0  502  0.10099758416E+04  0.17883170594E+02 -0.21193996596E+04  0.23478130091E+04  0.50400001928E-02 0. -1.
</event>
<event>
 5   0  0.4071750E-09  0.3799799E+04  0.7818609E-02  0.8046198E-01
        1   -1    0    0  501    0  0.00000000000E+00  0.00000000000E+00  0.20832582909E+04  0.20832582909E+04  0.50400001928E-02 0. -1.
       -1   -1    0    0    0  501  0.00000000000E+00  0.00000000000E+00 -0.17326788229E+04  0.17326788229E+04  0.50400001928E-02 0.  1.
    10030    2    1    2    0    0  0.00000000000E+00  0.00000000000E+00  0.35057946794E+03  0.38159371138E+04  0.37997986912E+04 0.  0.
        2    1    3    3  502    0 -0.24142168427E+03 -0.11796924782E+04 -0.13005295704E+04  0.17723814309E+04  0.25500000920E-02 0.  1.
       -2    1    3    3    0  502  0.24142168427E+03  0.11796924782E+04  0.16511090384E+04  0.20435556830E+04  0.25500000920E-02 0. -1.
</event>
<event>
 5   0  0.4071750E-09  0.3801354E+04  0.7818609E-02  0.8045864E-01
        1   -1    0    0  501    0  0.00000000000E+00  0.00000000000E+00  0.15121520961E+04  0.15121520961E+04  0.50400001928E-02 0.  1.
       -1   -1    0    0    0  501  0.00000000000E+00  0.00000000000E+00 -0.23890272382E+04  0.23890272382E+04  0.50400001928E-02 0. -1.
    10030    2    1    2    0    0  0.00000000000E+00  0.00000000000E+00 -0.87687514210E+03  0.39011793343E+04  0.38013537304E+04 0.  0.
        1    1    3    3  502    0  0.32446952970E+03  0.97991487416E+03  0.11994237448E+04  0.15824446138E+04  0.50400001928E-02 0.  1.
       -1    1    3    3    0  502 -0.32446952970E+03 -0.97991487416E+03 -0.20762988869E+04  0.23187347205E+04  0.50400001928E-02 0. -1.
</event>
<event>
 5   0  0.4071750E-09  0.3794177E+04  0.7818609E-02  0.8047406E-01
        1   -1    0    0  501    0  0.00000000000E+00  0.00000000000E+00  0.16611642753E+04  0.16611642753E+04  0.50400001928E-02 0.  1.
       -1   -1    0    0    0  501  0.00000000000E+00  0.00000000000E+00 -0.21665191141E+04  0.21665191141E+04  0.50400001928E-02 0. -1.
    10030    2    1    2    0    0  0.00000000000E+00  0.00000000000E+00 -0.50535483874E+03  0.38276833894E+04  0.37941766717E+04 0.  0.
        2    1    3    3  502    0 -0.74640667347E+03  0.17349993370E+04 -0.43200699238E+03  0.19375179130E+04  0.25500000920E-02 0. -1.
       -2    1    3    3    0  502  0.74640667347E+03 -0.17349993370E+04 -0.73347846363E+02  0.18901654764E+04  0.25500000920E-02 0.  1.
</event>
<event>
 5   0  0.1305088E-08  0.3799719E+04  0.7818609E-02  0.8046215E-01
        2   -1    0    0  501    0  0.00000000000E+00  0.00000000000E+00  0.31496175319E+04  0.31496175319E+04  0.25500000920E-02 0.  1.
       -2   -1    0    0    0  501  0.00000000000E+00  0.00000000000E+00 -0.11460014901E+04  0.11460014901E+04  0.25500000920E-02 0. -1.
    10030    2    1    2    0    0  0.00000000000E+00  0.00000000000E+00  0.20036160418E+04  0.42956190220E+04  0.37997191395E+04 0.  0.
        3    1    3    3  502    0  0.45934980116E+03  0.13874466813E+04 -0.37047226029E+03  0.15077334775E+04  0.10100000352E+00 0.  1.
       -3    1    3    3    0  502 -0.45934980116E+03 -0.13874466813E+04  0.23740883021E+04  0.27878855445E+04  0.10100000352E+00 0. -1.
</event>
<event>
 5   0  0.4071750E-09  0.3800053E+04  0.7818609E-02  0.8046144E-01
       -1   -1    0    0    0  501  0.00000000000E+00  0.00000000000E+00  0.13607660927E+04  0.13607660927E+04  0.50400001928E-02 0.  1.
        1   -1    0    0  501    0  0.00000000000E+00  0.00000000000E+00 -0.26529908252E+04  0.26529908252E+04  0.50400001928E-02 0. -1.
    10030    2    1    2    0    0  0.00000000000E+00  0.00000000000E+00 -0.12922247325E+04  0.40137569179E+04  0.38000526097E+04 0.  0.
        2    1    3    3  502    0 -0.63467942437E+03  0.10911363905E+03 -0.25342013400E+04  0.26147466779E+04  0.25500000920E-02 0. -1.
       -2    1    3    3    0  502  0.63467942437E+03 -0.10911363905E+03  0.12419766075E+04  0.13990102400E+04  0.25500000920E-02 0.  1.
</event>
<event>
 5   0  0.1261152E-08  0.3799819E+04  0.7818609E-02  0.8046194E-01
       -2   -1    0    0    0  501  0.00000000000E+00  0.00000000000E+00  0.15865742768E+04  0.15865742768E+04  0.25500000920E-02 0. -1.
        2   -1    0    0  501    0  0.00000000000E+00  0.00000000000E+00 -0.22751254605E+04  0.22751254605E+04  0.25500000920E-02 0.  1.
    10030    2    1    2    0    0  0.00000000000E+00  0.00000000000E+00 -0.68855118372E+03  0.38616997374E+04  0.37998186968E+04 0.  0.
        2    1    3    3  502    0  0.61199759832E+03  0.69355879349E+03  0.13422958582E+04  0.16301297590E+04  0.25500000920E-02 0. -1.
       -2    1    3    3    0  502 -0.61199759832E+03 -0.69355879349E+03 -0.20308470419E+04  0.22315699783E+04  0.25500000920E-02 0.  1.
</event>
<event>
 5   0  0.4071750E-09  0.3800670E+04  0.7818609E-02  0.8046011E-01
       -1   -1    0    0    0  501  0.00000000000E+00  0.00000000000E+00  0.27957926173E+04  0.27957926173E+04  0.50400001928E-02 0. -1.
        1   -1    0    0  501    0  0.00000000000E+00  0.00000000000E+00 -0.12916815955E+04  0.12916815955E+04  0.50400001928E-02 0.  1.
    10030    2    1    2    0    0  0.00000000000E+00  0.00000000000E+00  0.15041110218E+04  0.40874742128E+04  0.38006703980E+04 0.  0.
        3    1    3    3  502    0  0.45258003501E+03  0.10613949881E+03  0.27337020466E+04  0.27729444947E+04  0.10100000352E+00 0. -1.
       -3    1    3    3    0  502 -0.45258003501E+03 -0.10613949881E+03 -0.12295910247E+04  0.13145297180E+04  0.10100000352E+00 0.  1.
</event>
<event>
 5   0  0.4071750E-09  0.3800145E+04  0.7818609E-02  0.8046124E-01
       -1   -1    0    0    0  501  0.00000000000E+00  0.00000000000E+00  0.18166775748E+04  0.18166775748E+04  0.50400001928E-02 0. -1.
        1   -1    0    0  501    0  0.00000000000E+00  0.00000000000E+00 -0.19872961579E+04  0.19872961579E+04  0.50400001928E-02 0.  1.
    10030    2    1    2    0    0  0.00000000000E+00  0.00000000000E+00 -0.17061858314E+03  0.38039737327E+04  0.38001454522E+04 0.  0.
        1    1    3    3  502    0 -0.32262444963E+03 -0.13547518096E+04 -0.13792202137E+04  0.19600222955E+04  0.50400001928E-02 0.  1.
       -1    1    3    3    0  502  0.32262444963E+03  0.13547518096E+04  0.12086016305E+04  0.18439514371E+04  0.50400001928E-02 0. -1.
</event>
<event>
 5   0  0.1264013E-08  0.3802602E+04  0.7818609E-02  0.8045597E-01
       -2   -1    0    0    0  501  0.00000000000E+00  0.00000000000E+00  0.10966533246E+04  0.10966533246E+04  0.25500000920E-02 0.  1.
        2   -1    0    0  501    0  0.00000000000E+00  0.00000000000E+00 -0.32963423899E+04  0.32963423899E+04  0.25500000920E-02 0. -1.
    10030    2    1    2    0    0  0.00000000000E+00  0.00000000000E+00 -0.21996890653E+04  0.43929957145E+04  0.38026016573E+04 0.  0.
        4    1    3    3  502    0 -0.10480451129E+04  0.21653788421E+03 -0.29153525866E+04  0.31055707254E+04  0.12699999809E+01 0. -1.
       -4    1    3    3    0  502  0.10480451129E+04 -0.21653788421E+03  0.71566352130E+03  0.12874249891E+04  0.12699999809E+01 0.  1.
</event>
<event>
 5   0  0.1293993E-08  0.3801688E+04  0.7818609E-02  0.8045793E-01
        2   -1    0    0  501    0  0.00000000000E+00  0.00000000000E+00  0.26188352230E+04  0.26188352230E+04  0.25500000920E-02 0. -1.
       -2   -1    0    0    0  501  0.00000000000E+00  0.00000000000E+00 -0.13797005113E+04  0.13797005113E+04  0.25500000920E-02 0.  1.
    10030    2    1    2    0    0  0.00000000000E+00  0.00000000000E+00  0.12391347117E+04  0.39985357342E+04  0.38016882019E+04 0.  0.
        5    1    3    3  502    0 -0.15768545772E+04  0.86282462909E+03  0.12698436979E+04  0.22007866333E+04  0.46999998093E+01 0. -1.
       -5    1    3    3    0  502  0.15768545772E+04 -0.86282462909E+03 -0.30708986225E+02  0.17977491009E+04  0.46999998093E+01 0.  1.
</event>
<event>
 5   0  0.4071750E-09  0.3801403E+04  0.7818609E-02  0.8045854E-01
       -1   -1    0    0    0  501  0.00000000000E+00  0.00000000000E+00  0.18188978492E+04  0.18188978492E+04  0.50400001928E-02 0.  1.
        1   -1    0    0  501    0  0.00000000000E+00  0.00000000000E+00 -0.19861846194E+04  0.19861846195E+04  0.50400001928E-02 0. -1.
    10030    2    1    2    0    0  0.00000000000E+00  0.00000000000E+00 -0.16728677028E+03  0.38050824686E+04  0.38014033895E+04 0.  0.
        2    1    3    3  502    0 -0.92016990285E+03  0.16087395146E+04  0.33856035268E+03  0.18839794554E+04  0.25500000920E-02 0. -1.
       -2    1    3    3    0  502  0.92016990285E+03 -0.16087395146E+04 -0.50584712296E+03  0.19211030133E+04  0.25500000920E-02 0.  1.
</event>
<event>
 5   0  0.4071750E-09  0.3800036E+04  0.7818609E-02  0.8046147E-01
        1   -1    0    0  501    0  0.00000000000E+00  0.00000000000E+00  0.20332154955E+04  0.20332154955E+04  0.50400001928E-02 0.  1.
       -1   -1    0    0    0  501  0.00000000000E+00  0.00000000000E+00 -0.17755465823E+04  0.17755465823E+04  0.50400001928E-02 0. -1.
    10030    2    1    2    0    0  0.00000000000E+00  0.00000000000E+00  0.25766891315E+03  0.38087620778E+04  0.38000362230E+04 0.  0.
        4    1    3    3  502    0  0.26511566546E+03 -0.15631706761E+03 -0.17503964156E+04  0.17772480318E+04  0.12699999809E+01 0. -1.
       -4    1    3    3    0  502 -0.26511566546E+03  0.15631706761E+03  0.20080653288E+04  0.20315140460E+04  0.12699999809E+01 0.  1.
</event>
<event>
 5   0  0.4071750E-09  0.3799709E+04  0.7818609E-02  0.8046217E-01
        1   -1    0    0  501    0  0.00000000000E+00  0.00000000000E+00  0.22576942035E+04  0.22576942035E+04  0.50400001928E-02 0. -1.
       -1   -1    0    0    0  501  0.00000000000E+00  0.00000000000E+00 -0.15987314141E+04  0.15987314141E+04  0.50400001928E-02 0.  1.
    10030    2    1    2    0    0  0.00000000000E+00  0.00000000000E+00  0.65896278937E+03  0.38564256176E+04  0.37997087502E+04 0.  0.
        1    1    3    3  502    0 -0.73860973058E+03  0.70022076750E+03 -0.12987067922E+04  0.16499978150E+04  0.50400001928E-02 0.  1.
       -1    1    3    3    0  502  0.73860973058E+03 -0.70022076750E+03  0.19576695816E+04  0.22064278026E+04  0.50400001928E-02 0. -1.
</event>
<event>
 5   0  0.4071750E-09  0.3799089E+04  0.7818609E-02  0.8046350E-01
        1   -1    0    0  501    0  0.00000000000E+00  0.00000000000E+00  0.11378347376E+04  0.11378347376E+04  0.50400001928E-02 0. -1.
       -1   -1    0    0    0  501  0.00000000000E+00  0.00000000000E+00 -0.31711721368E+04  0.31711721368E+04  0.50400001928E-02 0.  1.
    10030    2    1    2    0    0  0.00000000000E+00  0.00000000000E+00 -0.20333373991E+04  0.43090068744E+04  0.37990892678E+04 0.  0.
        5    1    3    3  502    0  0.10157119157E+04  0.16024123093E+04 -0.90995651498E+03  0.21041480114E+04  0.46999998093E+01 0. -1.
       -5    1    3    3    0  502 -0.10157119157E+04 -0.16024123093E+04 -0.11233808842E+04  0.22048588630E+04  0.46999998093E+01 0.  1.
</event>
<event>
 5   0  0.4071750E-09  0.3803827E+04  0.7818609E-02  0.8045334E-01
        1   -1    0    0  501    0  0.00000000000E+00  0.00000000000E+00  0.10434740295E+04  0.10434740295E+04  0.50400001928E-02 0. -1.
       -1   -1    0    0    0  501  0.00000000000E+00  0.00000000000E+00 -0.34665696763E+04  0.34665696763E+04  0.50400001928E-02 0.  1.
    10030    2    1    2    0    0  0.00000000000E+00  0.00000000000E+00 -0.24230956468E+04  0.45100437058E+04  0.38038272457E+04 0.  0.
        3    1    3    3  502    0 -0.16879130018E+04  0.68221241933E+03 -0.18639960084E+04  0.26055604419E+04  0.10100000352E+00 0.  1.
       -3    1    3    3    0  502  0.16879130018E+04 -0.68221241933E+03 -0.55909963836E+03  0.19044832639E+04  0.10100000352E+00 0. -1.
</event>
<event>
 5   0  0.1327249E-08  0.3801078E+04  0.7818609E-02  0.8045924E-01
        2   -1    0    0  501    0  0.00000000000E+00  0.00000000000E+00  0.13900599427E+04  0.13900599427E+04  0.25500000920E-02 0.  1.
       -2   -1    0    0    0  501  0.00000000000E+00  0.00000000000E+00 -0.25984840318E+04  0.25984840318E+04  0.25500000920E-02 0. -1.
    10030    2    1    2    0    0  0.00000000000E+00  0.00000000000E+00 -0.12084240891E+04  0.39885439745E+04  0.38010780388E+04 0.  0.
        1    1    3    3  502    0 -0.10521319717E+04 -0.14891047892E+04 -0.11669776695E+04  0.21647751939E+04  0.50400001928E-02 0.  1.
       -1    1    3    3    0  502  0.10521319717E+04  0.14891047892E+04 -0.41446419580E+02  0.18237687805E+04  0.50400001928E-02 0. -1.
</event>
<event>
 5   0  0.4071750E-09  0.3799709E+04  0.7818609E-02  0.8046217E-01
        1   -1    0    0  501    0  0.00000000000E+00  0.00000000000E+00  0.21884176956E+04  0.21884176956E+04  0.50400001928E-02 0. -1.
       -1   -1    0    0    0  501  0.00000000000E+00  0.00000000000E+00 -0.16493413464E+04  0.16493413464E+04  0.50400001928E-02 0.  1.
    10030    2    1    2    0    0  0.00000000000E+00  0.00000000000E+00  0.53907634923E+03  0.38377590420E+04  0.37997093513E+04 0.  0.
        5    1    3    3  502    0 -0.30583792445E+03 -0.14985872716E+04  0.14078220060E+04  0.20787701982E+04  0.46999998093E+01 0. -1.
       -5    1    3    3    0  502  0.30583792445E+03  0.14985872716E+04 -0.86874565675E+03  0.17589888438E+04  0.46999998093E+01 0.  1.
</event>
<event>
 5   0  0.4071750E-09  0.3798959E+04  0.7818609E-02  0.8046378E-01
        1   -1    0    0  501    0  0.00000000000E+00  0.00000000000E+00  0.25854406743E+04  0.25854406743E+04  0.50400001928E-02 0.  1.
       -1   -1    0    0    0  501  0.00000000000E+00  0.00000000000E+00 -0.13955157666E+04  0.13955157666E+04  0.50400001928E-02 0. -1.
    10030    2    1    2    0    0  0.00000000000E+00  0.00000000000E+00  0.11899249077E+04  0.39809564410E+04  0.37989594495E+04 0.  0.
        1    1    3    3  502    0 -0.17012671216E+04  0.84094591126E+03  0.51032567822E+03  0.19651799262E+04  0.50400001928E-02 0. -1.
       -1    1    3    3    0  502  0.17012671216E+04 -0.84094591126E+03  0.67959922952E+03  0.20157765147E+04  0.50400001928E-02 0.  1.
</event>
<event>
 5   0  0.4071750E-09  0.3799176E+04  0.7818609E-02  0.8046332E-01
       -1   -1    0    0    0  501  0.00000000000E+00  0.00000000000E+00  0.35316669927E+04  0.35316669927E+04  0.50400001928E-02 0.  1.
        1   -1    0    0  501    0  0.00000000000E+00  0.00000000000E+00 -0.10217370439E+04  0.10217370439E+04  0.50400001928E-02 0. -1.
    10030    2    1    2    0    0  0.00000000000E+00  0.00000000000E+00  0.25099299488E+04  0.45534040365E+04  0.37991762228E+04 0.  0.
        3    1    3    3  502    0 -0.97361713252E+03 -0.12500699377E+04  0.25107469923E+04  0.29689148925E+04  0.10100000352E+00 0.  1.
       -3    1    3    3    0  502  0.97361713252E+03  0.12500699377E+04 -0.81704345465E+00  0.15844891440E+04  0.10100000352E+00 0. -1.
</event>
<event>
 5   0  0.4071750E-09  0.3799380E+04  0.7818609E-02  0.8046288E-01
        1   -1    0    0  501    0  0.00000000000E+00  0.00000000000E+00  0.12481076084E+04  0.12481076084E+04  0.50400001928E-02 0. -1.
       -1   -1    0    0    0  501  0.00000000000E+00  0.00000000000E+00 -0.28914356251E+04  0.28914356251E+04  0.50400001928E-02 0.  1.
    10030    2    1    2    0    0  0.00000000000E+00  0.00000000000E+00 -0.16433280167E+04  0.41395432335E+04  0.37993803721E+04 0.  0.
        4    1    3    3  502    0  0.37766071475E+03  0.24178547305E+03 -0.28329436183E+04  0.28682152967E+04  0.12699999809E+01 0.  1.
       -4    1    3    3    0  502 -0.37766071475E+03 -0.24178547305E+03  0.11896156016E+04  0.12713279369E+04  0.12699999809E+01 0. -1.
</event>
<event>
 5   0  0.4071750E-09  0.3799367E+04  0.7818609E-02  0.8046291E-01
       -1   -1    0    0    0  501  0.00000000000E+00  0.00000000000E+00  0.28459960118E+04  0.28459960118E+04  0.50400001928E-02 0. -1.
        1   -1    0    0  501    0  0.00000000000E+00  0.00000000000E+00 -0.12680259614E+04  0.12680259614E+04  0.50400001928E-02 0.  1.
    10030    2    1    2    0    0  0.00000000000E+00  0.00000000000E+00  0.15779700504E+04  0.41140219732E+04  0.37993666993E+04 0.  0.
        3    1    3    3  502    0 -0.17535773168E+04 -0.61929563630E+03  0.12086887994E+04  0.22179921359E+04  0.10100000352E+00 0. -1.
       -3    1    3    3    0  502  0.17535773168E+04  0.61929563630E+03  0.36928125103E+03  0.18960298372E+04  0.10100000352E+00 0.  1.
</event>
<event>
 5   0  0.1327249E-08  0.3802126E+04  0.7818609E-02  0.8045699E-01
       -2   -1    0    0    0  501  0.00000000000E+00  0.00000000000E+00  0.14626401234E+04  0.14626401234E+04  0.25500000920E-02 0. -1.
        2   -1    0    0  501    0  0.00000000000E+00  0.00000000000E+00 -0.24709019491E+04  0.24709019491E+04  0.25500000920E-02 0.  1.
    10030    2    1    2    0    0  0.00000000000E+00  0.00000000000E+00 -0.10082618256E+04  0.39335420725E+04  0.38021258957E+04 0.  0.
        1    1    3    3  502    0 -0.15562500939E+04  0.73888126451E+03 -0.13357687017E+04  0.21799398850E+04  0.50400001928E-02 0.  1.
       -1    1    3    3    0  502  0.15562500939E+04 -0.73888126451E+03  0.32750687604E+03  0.17536021875E+04  0.50400001928E-02 0. -1.
</event>
<event>
 5   0  0.1305088E-08  0.3800188E+04  0.7818609E-02  0.8046115E-01
       -2   -1    0    0    0  501  0.00000000000E+00  0.00000000000E+00  0.21771765612E+04  0.21771765612E+04  0.25500000920E-02 0. -1.
        2   -1    0    0  501    0  0.00000000000E+00  0.00000000000E+00 -0.16582744649E+04  0.16582744649E+04  0.25500000920E-02 0.  1.
    10030    2    1    2    0    0  0.00000000000E+00  0.00000000000E+00  0.51890209629E+03  0.38354510261E+04  0.38001875201E+04 0.  0.
        3    1    3    3  502    0 -0.84267013998E+02 -0.89962831716E+03  0.19464652078E+04  0.21459633860E+04  0.10100000352E+00 0. -1.
       -3    1    3    3    0  502  0.84267013998E+02  0.89962831716E+03 -0.14275631115E+04  0.16894876401E+04  0.10100000352E+00 0.  1.
</event>
<event>
 5   0  0.4071750E-09  0.3800264E+04  0.7818609E-02  0.8046098E-01
       -1   -1    0    0    0  501  0.00000000000E+00  0.00000000000E+00  0.16773119751E+04  0.16773119752E+04  0.50400001928E-02 0.  1.
        1   -1    0    0  501    0  0.00000000000E+00  0.00000000000E+00 -0.21525526842E+04  0.21525526842E+04  0.50400001928E-02 0. -1.
    10030    2    1    2    0    0  0.00000000000E+00  0.00000000000E+00 -0.47524070902E+03  0.38298646593E+04  0.38002644089E+04 0.  0.
        3    1    3    3  502    0  0.47369105358E+03 -0.33882621643E+03 -0.20603861034E+04  0.21411159064E+04  0.10100000352E+00 0. -1.
       -3    1    3    3    0  502 -0.47369105358E+03  0.33882621643E+03  0.15851453944E+04  0.16887487530E+04  0.10100000352E+00 0.  1.
</event>
<event>
 5   0  0.1293993E-08  0.3791678E+04  0.7818609E-02  0.8047943E-01
        2   -1    0    0  501    0  0.00000000000E+00  0.00000000000E+00  0.25253945890E+04  0.25253945890E+04  0.25500000920E-02 0. -1.
       -2   -1    0    0    0  501  0.00000000000E+00  0.00000000000E+00 -0.14232254352E+04  0.14232254352E+04  0.25500000920E-02 0.  1.
    10030    2    1    2    0    0  0.00000000000E+00  0.00000000000E+00  0.11021691538E+04  0.39486200242E+04  0.37916781578E+04 0.  0.
        5    1    3    3  502    0  0.11112357682E+03  0.18125381726E+04 -0.16010649947E+02  0.18160180361E+04  0.46999998093E+01 0.  1.
       -5    1    3    3    0  502 -0.11112357682E+03 -0.18125381726E+04  0.11181798037E+04  0.21326019881E+04  0.46999998093E+01 0. -1.
</event>
<event>
 5   0  0.4071750E-09  0.3800025E+04  0.7818609E-02  0.8046149E-01
        1   -1    0    0  501    0  0.00000000000E+00  0.00000000000E+00  0.22002133215E+04  0.22002133215E+04  0.50400001928E-02 0. -1.
       -1   -1    0    0    0  501  0.00000000000E+00  0.00000000000E+00 -0.16407717289E+04  0.16407717289E+04  0.50400001928E-02 0.  1.
    10030    2    1    2    0    0  0.00000000000E+00  0.00000000000E+00  0.55944159256E+03  0.38409850504E+04  0.38000251660E+04 0.  0.
        4    1    3    3  502    0  0.13478282121E+04 -0.13141517080E+04  0.54020107681E+03  0.19584316218E+04  0.12699999809E+01 0.  1.
       -4    1    3    3    0  502 -0.13478282121E+04  0.13141517080E+04  0.19240515748E+02  0.18825534286E+04  0.12699999809E+01 0. -1.
</event>
<event>
 5   0  0.4071750E-09  0.3798818E+04  0.7818609E-02  0.8046409E-01
        1   -1    0    0  501    0  0.00000000000E+00  0.00000000000E+00  0.12438905955E+04  0.12438905955E+04  0.50400001928E-02 0. -1.
       -1   -1    0    0    0  501  0.00000000000E+00  0.00000000000E+00 -0.29003793446E+04  0.29003793446E+04  0.50400001928E-02 0.  1.
    10030    2    1    2    0    0  0.00000000000E+00  0.00000000000E+00 -0.16564887492E+04  0.41442699401E+04  0.37988180215E+04 0.  0.
        2    1    3    3  502    0 -0.77502921648E+03  0.91863638608E+03 -0.24327713741E+04  0.27134737247E+04  0.25500000920E-02 0.  1.
       -2    1    3    3    0  502  0.77502921648E+03 -0.91863638608E+03  0.77628262490E+03  0.14307962154E+04  0.25500000920E-02 0. -1.
</event>
<event>
 5   0  0.4071750E-09  0.3798051E+04  0.7818609E-02  0.8046573E-01
       -1   -1    0    0    0  501  0.00000000000E+00  0.00000000000E+00  0.19690191838E+04  0.19690191838E+04  0.50400001928E-02 0.  1.
        1   -1    0    0  501    0  0.00000000000E+00  0.00000000000E+00 -0.18315203303E+04  0.18315203304E+04  0.50400001928E-02 0. -1.
    10030    2    1    2    0    0  0.00000000000E+00  0.00000000000E+00  0.13749885344E+03  0.38005395141E+04  0.37980514299E+04 0.  0.
        1    1    3    3  502    0 -0.83440669167E+03 -0.87487398154E+03  0.15341744460E+04  0.19532870351E+04  0.50400001928E-02 0.  1.
       -1    1    3    3    0  502  0.83440669167E+03  0.87487398154E+03 -0.13966755925E+04  0.18472524791E+04  0.50400001928E-02 0. -1.
</event>
<event>
 5   0  0.4071750E-09  0.3796542E+04  0.7818609E-02  0.8046897E-01
        1   -1    0    0  501    0  0.00000000000E+00  0.00000000000E+00  0.11525081926E+04  0.11525081926E+04  0.50400001928E-02 0.  1.
       -1   -1    0    0    0  501  0.00000000000E+00  0.00000000000E+00 -0.31266007910E+04  0.31266007910E+04  0.50400001928E-02 0. -1.
    10030    2    1    2    0    0  0.00000000000E+00  0.00000000000E+00 -0.19740925984E+04  0.42791089836E+04  0.37965421250E+04 0.  0.
        5    1    3    3  502    0 -0.14017276537E+04 -0.12298802704E+04 -0.58701852822E+03  0.19550086284E+04  0.46999998093E+01 0. -1.
       -5    1    3    3    0  502  0.14017276537E+04  0.12298802704E+04 -0.13870740702E+04  0.23241003552E+04  0.46999998093E+01 0.  1.
</event>
<event>
 5   0  0.1293993E-08  0.3800027E+04  0.7818609E-02  0.8046149E-01
       -2   -1    0    0    0  501  0.00000000000E+00  0.00000000000E+00  0.14019604108E+04  0.14019604108E+04  0.25500000920E-02 0. -1.
        2   -1    0    0  501    0  0.00000000000E+00  0.00000000000E+00 -0.25750022073E+04  0.25750022073E+04  0.25500000920E-02 0.  1.
    10030    2    1    2    0    0  0.00000000000E+00  0.00000000000E+00 -0.11730417965E+04  0.39769626181E+04  0.38000269222E+04 0.  0.
        5    1    3    3  502    0  0.73886928142E+03 -0.47088956689E+03  0.11779101949E+04  0.14680460880E+04  0.46999998093E+01 0. -1.
       -5    1    3    3    0  502 -0.73886928142E+03  0.47088956689E+03 -0.23509519914E+04  0.25089165301E+04  0.46999998093E+01 0.  1.
</event>
<event>
 5   0  0.1264013E-08  0.3800016E+04  0.7818609E-02  0.8046151E-01
        2   -1    0    0  501    0  0.00000000000E+00  0.00000000000E+00  0.23192439580E+04  0.23192439580E+04  0.25500000920E-02 0.  1.
       -2   -1    0    0    0  501  0.00000000000E+00  0.00000000000E+00 -0.15565546888E+04  0.15565546888E+04  0.25500000920E-02 0. -1.
    10030    2    1    2    0    0  0.00000000000E+00  0.00000000000E+00  0.76268926925E+03  0.38757986468E+04  0.38000158196E+04 0.  0.
        4    1    3    3  502    0 -0.48777506285E+03 -0.13312006207E+04  0.16714850884E+04  0.21917763613E+04  0.12699999809E+01 0.  1.
       -4    1    3    3    0  502  0.48777506285E+03  0.13312006207E+04 -0.90879581910E+03  0.16840222855E+04  0.12699999809E+01 0. -1.
</event>
<event>
 5   0  0.4071750E-09  0.3800217E+04  0.7818609E-02  0.8046108E-01
        1   -1    0    0  501    0  0.00000000000E+00  0.00000000000E+00  0.29536317913E+04  0.29536317914E+04  0.50400001928E-02 0.  1.
       -1   -1    0    0    0  501  0.00000000000E+00  0.00000000000E+00 -0.12223635472E+04  0.12223635472E+04  0.50400001928E-02 0. -1.
    10030    2    1    2    0    0  0.00000000000E+00  0.00000000000E+00  0.17312682441E+04  0.41759953386E+04  0.38002167484E+04 0.  0.
        5    1    3    3  502    0 -0.17859413627E+04 -0.51077138423E+03  0.13050718147E+04  0.22701780744E+04  0.46999998093E+01 0.  1.
       -5    1    3    3    0  502  0.17859413627E+04  0.51077138423E+03  0.42619642946E+03  0.19058172642E+04  0.46999998093E+01 0. -1.
</event>
<event>
 5   0  0.1327249E-08  0.3799909E+04  0.7818609E-02  0.8046174E-01
       -2   -1    0    0    0  501  0.00000000000E+00  0.00000000000E+00  0.21132372495E+04  0.21132372495E+04  0.25500000920E-02 0. -1.
        2   -1    0    0  501    0  0.00000000000E+00  0.00000000000E+00 -0.17081979608E+04  0.17081979608E+04  0.25500000920E-02 0.  1.
    10030    2    1    2    0    0  0.00000000000E+00  0.00000000000E+00  0.40503928876E+03  0.38214352103E+04  0.37999092412E+04 0.  0.
        1    1    3    3  502    0 -0.16745298458E+03 -0.14123076236E+04  0.14694874500E+04  0.20450053035E+04  0.50400001928E-02 0. -1.
       -1    1    3    3    0  502  0.16745298458E+03  0.14123076236E+04 -0.10644481612E+04  0.17764299068E+04  0.50400001928E-02 0.  1.
</event>
<event>
 5   0  0.1264013E-08  0.3798989E+04  0.7818609E-02  0.8046372E-01
       -2   -1    0    0    0  501  0.00000000000E+00  0.00000000000E+00  0.21481114266E+04  0.21481114266E+04  0.25500000920E-02 0.  1.
        2   -1    0    0  501    0  0.00000000000E+00  0.00000000000E+00 -0.16796520607E+04  0.16796520607E+04  0.25500000920E-02 0. -1.
    10030    2    1    2    0    0  0.00000000000E+00  0.00000000000E+00  0.46845936591E+03  0.38277634872E+04  0.37989892257E+04 0.  0.
        4    1    3    3  502    0  0.18372534839E+04 -0.16953326737E+02 -0.25138594753E+03  0.18544498610E+04  0.12699999809E+01 0. -1.
       -4    1    3    3    0  502 -0.18372534839E+04  0.16953326737E+02  0.71984531344E+03  0.19733136263E+04  0.12699999809E+01 0.  1.
</event>
<event>
 5   0  0.1264013E-08  0.3790209E+04  0.7818609E-02  0.8048259E-01
       -2   -1    0    0    0  501  0.00000000000E+00  0.00000000000E+00  0.32419636448E+04  0.32419636448E+04  0.25500000920E-02 0. -1.
        2   -1    0    0  501    0  0.00000000000E+00  0.00000000000E+00 -0.11077916383E+04  0.11077916383E+04  0.25500000920E-02 0.  1.
    10030    2    1    2    0    0  0.00000000000E+00  0.00000000000E+00  0.21341720064E+04  0.43497552831E+04  0.37902085523E+04 0.  0.
        4    1    3    3  502    0 -0.20474034191E+01  0.18950219160E+04  0.10871728142E+04  0.21847330718E+04  0.12699999809E+01 0. -1.
       -4    1    3    3    0  502  0.20474034191E+01 -0.18950219160E+04  0.10469991922E+04  0.21650222113E+04  0.12699999809E+01 0.  1.
</event>
<event>
 5   0  0.4071750E-09  0.3798025E+04  0.7818609E-02  0.8046579E-01
       -1   -1    0    0    0  501  0.00000000000E+00  0.00000000000E+00  0.15600044808E+04  0.15600044808E+04  0.50400001928E-02 0. -1.
        1   -1    0    0  501    0  0.00000000000E+00  0.00000000000E+00 -0.23116906314E+04  0.23116906314E+04  0.50400001928E-02 0.  1.
    10030    2    1    2    0    0  0.00000000000E+00  0.00000000000E+00 -0.75168615064E+03  0.38716951122E+04  0.37980246145E+04 0.  0.
        1    1    3    3  502    0  0.74641866238E+02 -0.14691230902E+04 -0.16001188578E+04  0.21735396066E+04  0.50400001928E-02 0.  1.
       -1    1    3    3    0  502 -0.74641866238E+02  0.14691230902E+04  0.84843270716E+03  0.16981555055E+04  0.50400001928E-02 0. -1.
</event>
<event>
 5   0  0.4071750E-09  0.3800728E+04  0.7818609E-02  0.8045999E-01
       -1   -1    0    0    0  501  0.00000000000E+00  0.00000000000E+00  0.19948780380E+04  0.19948780380E+04  0.50400001928E-02 0. -1.
        1   -1    0    0  501    0  0.00000000000E+00  0.00000000000E+00 -0.18103281031E+04  0.18103281031E+04  0.50400001928E-02 0.  1.
    10030    2    1    2    0    0  0.00000000000E+00  0.00000000000E+00  0.18454993490E+03  0.38052061411E+04  0.38007282326E+04 0.  0.
        5    1    3    3  502    0  0.16869325654E+04  0.87017379511E+03  0.18413147224E+03  0.19070580492E+04  0.46999998093E+01 0.  1.
       -5    1    3    3    0  502 -0.16869325654E+04 -0.87017379511E+03  0.41846265907E+00  0.18981480920E+04  0.46999998093E+01 0. -1.
</event>
<event>
 5   0  0.4071750E-09  0.3800239E+04  0.7818609E-02  0.8046104E-01
       -1   -1    0    0    0  501  0.00000000000E+00  0.00000000000E+00  0.17488884577E+04  0.17488884577E+04  0.50400001928E-02 0.  1.
        1   -1    0    0  501    0  0.00000000000E+00  0.00000000000E+00 -0.20644275800E+04  0.20644275800E+04  0.50400001928E-02 0. -1.
    10030    2    1    2    0    0  0.00000000000E+00  0.00000000000E+00 -0.31553912228E+03  0.38133160377E+04  0.38002387116E+04 0.  0.
        3    1    3    3  502    0 -0.52975055737E+03 -0.17532515187E+04  0.34986360435E+03  0.18646530757E+04  0.10100000352E+00 0.  1.
       -3    1    3    3    0  502  0.52975055737E+03  0.17532515187E+04 -0.66540272663E+03  0.19486629620E+04  0.10100000352E+00 0. -1.
</event>
<event>
 5   0  0.1264013E-08  0.3791285E+04  0.7818609E-02  0.8048028E-01
        2   -1    0    0  501    0  0.00000000000E+00  0.00000000000E+00  0.25776875647E+04  0.25776875647E+04  0.25500000920E-02 0.  1.
       -2   -1    0    0    0  501  0.00000000000E+00  0.00000000000E+00 -0.13940634753E+04  0.13940634753E+04  0.25500000920E-02 0. -1.
    10030    2    1    2    0    0  0.00000000000E+00  0.00000000000E+00  0.11836240894E+04  0.39717510400E+04  0.37912847873E+04 0.  0.
        4    1    3    3  502    0  0.35101895688E+03 -0.78593415036E+00  0.25433436416E+04  0.25674527100E+04  0.12699999809E+01 0.  1.
       -4    1    3    3    0  502 -0.35101895688E+03  0.78593415036E+00 -0.13597195523E+04  0.14042983300E+04  0.12699999809E+01 0. -1.
</event>
<event>
 5   0  0.4071750E-09  0.3800273E+04  0.7818609E-02  0.8046096E-01
       -1   -1    0    0    0  501  0.00000000000E+00  0.00000000000E+00  0.18898706634E+04  0.18898706634E+04  0.50400001928E-02 0. -1.
        1   -1    0    0  501    0  0.00000000000E+00  0.00000000000E+00 -0.19104584755E+04  0.19104584755E+04  0.50400001928E-02 0.  1.
    10030    2    1    2    0    0  0.00000000000E+00  0.00000000000E+00 -0.20587812073E+02  0.38003291389E+04  0.38002733725E+04 0.  0.
        4    1    3    3  502    0  0.15023886411E+04  0.16188262759E+03  0.11417387105E+04  0.18939235755E+04  0.12699999809E+01 0. -1.
       -4    1    3    3    0  502 -0.15023886411E+04 -0.16188262759E+03 -0.11623265225E+04  0.19064055633E+04  0.12699999809E+01 0.  1.
</event>
<event>
 5   0  0.1327249E-08  0.3800271E+04  0.7818609E-02  0.8046097E-01
       -2   -1    0    0    0  501  0.00000000000E+00  0.00000000000E+00  0.15389664127E+04  0.15389664127E+04  0.25500000920E-02 0. -1.
        2   -1    0    0  501    0  0.00000000000E+00  0.00000000000E+00 -0.23460648015E+04  0.23460648015E+04  0.25500000920E-02 0.  1.
    10030    2    1    2    0    0  0.00000000000E+00  0.00000000000E+00 -0.80709838876E+03  0.38850312142E+04  0.38002710069E+04 0.  0.
        1    1    3    3  502    0 -0.16976966529E+04 -0.85181213042E+03 -0.34986996716E+03  0.19313639804E+04  0.50400001928E-02 0.  1.
       -1    1    3    3    0  502  0.16976966529E+04  0.85181213042E+03 -0.45722842160E+03  0.19536672338E+04  0.50400001928E-02 0. -1.
</event>
<event>
 5   0  0.4071750E-09  0.3800115E+04  0.7818609E-02  0.8046130E-01
        1   -1    0    0  501    0  0.00000000000E+00  0.00000000000E+00  0.21138608422E+04  0.21138608422E+04  0.50400001928E-02 0.  1.
       -1   -1    0    0    0  501  0.00000000000E+00  0.00000000000E+00 -0.17078785532E+04  0.17078785532E+04  0.50400001928E-02 0. -1.
    10030    2    1    2    0    0  0.00000000000E+00  0.00000000000E+00  0.40598228902E+03  0.38217393954E+04  0.38001145229E+04 0.  0.
        5    1    3    3  502    0  0.13311043807E+04  0.11765630150E+04  0.88066252447E+03  0.19828585356E+04  0.46999998093E+01 0. -1.
       -5    1    3    3    0  502 -0.13311043807E+04 -0.11765630150E+04 -0.47468023545E+03  0.18388808597E+04  0.46999998093E+01 0.  1.
</event>
<event>
 5   0  0.1305088E-08  0.3800266E+04  0.7818609E-02  0.8046098E-01
        2   -1    0    0  501    0  0.00000000000E+00  0.00000000000E+00  0.25044417142E+04  0.25044417142E+04  0.25500000920E-02 0. -1.
       -2   -1    0    0    0  501  0.00000000000E+00  0.00000000000E+00 -0.14416406403E+04  0.14416406403E+04  0.25500000920E-02 0.  1.
    10030    2    1    2    0    0  0.00000000000E+00  0.00000000000E+00  0.10628010739E+04  0.39460823545E+04  0.38002657573E+04 0.  0.
        3    1    3    3  502    0  0.15551248408E+03  0.55381498603E+03  0.24118569109E+04  0.24795057855E+04  0.10100000352E+00 0. -1.
       -3    1    3    3    0  502 -0.15551248408E+03 -0.55381498603E+03 -0.13490558369E+04  0.14665765690E+04  0.10100000352E+00 0.  1.
</event>
<event>
 5   0  0.1327249E-08  0.3798978E+04  0.7818609E-02  0.8046374E-01
       -2   -1    0    0    0  501  0.00000000000E+00  0.00000000000E+00  0.16550908220E+04  0.16550908220E+04  0.25500000920E-02 0.  1.
        2   -1    0    0  501    0  0.00000000000E+00  0.00000000000E+00 -0.21799764474E+04  0.21799764474E+04  0.25500000920E-02 0. -1.
    10030    2    1    2    0    0  0.00000000000E+00  0.00000000000E+00 -0.52488562543E+03  0.38350672694E+04  0.37989782891E+04 0.  0.
        1    1    3    3  502    0  0.10279907356E+02  0.29559822576E+03  0.16317011159E+04  0.16582920489E+04  0.50400001928E-02 0.  1.
       -1    1    3    3    0  502 -0.10279907356E+02 -0.29559822576E+03 -0.21565867414E+04  0.21767752205E+04  0.50400001928E-02 0. -1.
</event>
<event>
 5   0  0.4071750E-09  0.3798862E+04  0.7818609E-02  0.8046399E-01
        1   -1    0    0  501    0  0.00000000000E+00  0.00000000000E+00  0.24983573632E+04  0.24983573632E+04  0.50400001928E-02 0. -1.
       -1   -1    0    0    0  501  0.00000000000E+00  0.00000000000E+00 -0.14440844301E+04  0.14440844301E+04  0.50400001928E-02 0.  1.
    10030    2    1    2    0    0  0.00000000000E+00  0.00000000000E+00  0.10542729331E+04  0.39424417933E+04  0.37988624450E+04 0.  0.
        5    1    3    3  502    0  0.16099909558E+04 -0.85513015782E+03  0.10806798284E+04  0.21192473773E+04  0.46999998093E+01 0. -1.
       -5    1    3    3    0  502 -0.16099909558E+04  0.85513015782E+03 -0.26406895305E+02  0.18231944160E+04  0.46999998093E+01 0.  1.
</event>
<event>
 5   0  0.4071750E-09  0.3799027E+04  0.7818609E-02  0.8046364E-01
       -1   -1    0    0    0  501  0.00000000000E+00  0.00000000000E+00  0.15929181160E+04  0.15929181160E+04  0.50400001928E-02 0.  1.
        1   -1    0    0  501    0  0.00000000000E+00  0.00000000000E+00 -0.22651206310E+04  0.22651206310E+04  0.50400001928E-02 0. -1.
    10030    2    1    2    0    0  0.00000000000E+00  0.00000000000E+00 -0.67220251499E+03  0.38580387471E+04  0.37990270798E+04 0.  0.
        2    1    3    3  502    0 -0.12953615510E+04 -0.34968710402E+03  0.10293697630E+04  0.16911075447E+04  0.25500000920E-02 0.  1.
       -2    1    3    3    0  502  0.12953615510E+04  0.34968710402E+03 -0.17015722780E+04  0.21669312024E+04  0.25500000920E-02 0. -1.
</event>
<event>
 5   0  0.1261152E-08  0.3802183E+04  0.7818609E-02  0.8045687E-01
       -2   -1    0    0    0  501  0.00000000000E+00  0.00000000000E+00  0.15388909084E+04  0.15388909084E+04  0.25500000920E-02 0. -1.
        2   -1    0    0  501    0  0.00000000000E+00  0.00000000000E+00 -0.23485407555E+04  0.23485407555E+04  0.25500000920E-02 0.  1.
    10030    2    1    2    0    0  0.00000000000E+00  0.00000000000E+00 -0.80964984707E+03  0.38874316639E+04  0.38021825399E+04 0.  0.
        2    1    3    3  502    0  0.64847590273E+03 -0.55650565035E+03 -0.21411140586E+04  0.23053392260E+04  0.25500000920E-02 0.  1.
       -2    1    3    3    0  502 -0.64847590273E+03  0.55650565035E+03  0.13314642115E+04  0.15820924378E+04  0.25500000920E-02 0. -1.
</event>
<event>
 5   0  0.1261152E-08  0.3819277E+04  0.7818609E-02  0.8042031E-01
       -2   -1    0    0    0  501  0.00000000000E+00  0.00000000000E+00  0.21015721880E+04  0.21015721880E+04  0.25500000920E-02 0.  1.
        2   -1    0    0  501    0  0.00000000000E+00  0.00000000000E+00 -0.17352340784E+04  0.17352340784E+04  0.25500000920E-02 0. -1.
    10030    2    1    2    0    0  0.00000000000E+00  0.00000000000E+00  0.36633810954E+03  0.38368062664E+04  0.38192772504E+04 0.  0.
        2    1    3    3  502    0  0.27297025550E+03 -0.14405668839E+04  0.14122933675E+04  0.20357598736E+04  0.25500000920E-02 0.  1.
       -2    1    3    3    0  502 -0.27297025550E+03  0.14405668839E+04 -0.10459552579E+04  0.18010463928E+04  0.25500000920E-02 0. -1.
</event>
<event>
 5   0  0.4071750E-09  0.3796696E+04  0.7818609E-02  0.8046864E-01
        1   -1    0    0  501    0  0.00000000000E+00  0.00000000000E+00  0.18114512791E+04  0.18114512791E+04  0.50400001928E-02 0. -1.
       -1   -1    0    0    0  501  0.00000000000E+00  0.00000000000E+00 -0.19894132829E+04  0.19894132829E+04  0.50400001928E-02 0.  1.
    10030    2    1    2    0    0  0.00000000000E+00  0.00000000000E+00 -0.17796200381E+03  0.38008645620E+04  0.37966960563E+04 0.  0.
        3    1    3    3  502    0 -0.13087927382E+04  0.79990727800E+03  0.10306990982E+04  0.18480072311E+04  0.10100000352E+00 0. -1.
       -3    1    3    3    0  502  0.13087927382E+04 -0.79990727800E+03 -0.12086611020E+04  0.19528573309E+04  0.10100000352E+00 0.  1.
</event>
<event>
 5   0  0.4071750E-09  0.3799644E+04  0.7818609E-02  0.8046231E-01
       -1   -1    0    0    0  501  0.00000000000E+00  0.00000000000E+00  0.15479420273E+04  0.15479420273E+04  0.50400001928E-02 0.  1.
        1   -1    0    0  501    0  0.00000000000E+00  0.00000000000E+00 -0.23316921587E+04  0.23316921587E+04  0.50400001928E-02 0. -1.
    10030    2    1    2    0    0  0.00000000000E+00  0.00000000000E+00 -0.78375013135E+03  0.38796341860E+04  0.37996443451E+04 0.  0.
        2    1    3    3  502    0 -0.11591999904E+04 -0.51115168815E+03 -0.18374133076E+04  0.22318396737E+04  0.25500000920E-02 0. -1.
       -2    1    3    3    0  502  0.11591999904E+04  0.51115168815E+03  0.10536631762E+04  0.16477945124E+04  0.25500000920E-02 0.  1.
</event>
<event>
 5   0  0.1327249E-08  0.3799981E+04  0.7818609E-02  0.8046159E-01
        2   -1    0    0  501    0  0.00000000000E+00  0.00000000000E+00  0.22469623061E+04  0.22469623061E+04  0.25500000920E-02 0. -1.
       -2   -1    0    0    0  501  0.00000000000E+00  0.00000000000E+00 -0.16065973615E+04  0.16065973615E+04  0.25500000920E-02 0.  1.
    10030    2    1    2    0    0  0.00000000000E+00  0.00000000000E+00  0.64036494456E+03  0.38535596676E+04  0.37999809012E+04 0.  0.
        1    1    3    3  502    0 -0.13562536015E+04 -0.89646828935E+03  0.13173496389E+04  0.20924840015E+04  0.50400001928E-02 0. -1.
       -1    1    3    3    0  502  0.13562536015E+04  0.89646828935E+03 -0.67698469438E+03  0.17610756661E+04  0.50400001928E-02 0.  1.
</event>
<event>
 5   0  0.4071750E-09  0.3801955E+04  0.7818609E-02  0.8045735E-01
        1   -1    0    0  501    0  0.00000000000E+00  0.00000000000E+00  0.27875198420E+04  0.27875198420E+04  0.50400001928E-02 0. -1.
       -1   -1    0    0    0  501  0.00000000000E+00  0.00000000000E+00 -0.12963910975E+04  0.12963910975E+04  0.50400001928E-02 0.  1.
    10030    2    1    2    0    0  0.00000000000E+00  0.00000000000E+00  0.14911287444E+04  0.40839109395E+04  0.38019552377E+04 0.  0.
        4    1    3    3  502    0  0.86926203372E+03 -0.49447762493E+03  0.24821170710E+04  0.26760103460E+04  0.12699999809E+01 0. -1.
       -4    1    3    3    0  502 -0.86926203372E+03  0.49447762493E+03 -0.99098832657E+03  0.14079005935E+04  0.12699999809E+01 0.  1.
</event>
<event>
 5   0  0.1327249E-08  0.3786382E+04  0.7818609E-02  0.8049084E-01
       -2   -1    0    0    0  501  0.00000000000E+00  0.00000000000E+00  0.15608657088E+04  0.15608657088E+04  0.25500000920E-02 0. -1.
        2   -1    0    0  501    0  0.00000000000E+00  0.00000000000E+00 -0.22962722931E+04  0.22962722931E+04  0.25500000920E-02 0.  1.
    10030    2    1    2    0    0  0.00000000000E+00  0.00000000000E+00 -0.73540658428E+03  0.38571380020E+04  0.37863822736E+04 0.  0.
        1    1    3    3  502    0  0.49283184576E+03  0.91133715314E+03 -0.19818492570E+04  0.22363240178E+04  0.50400001928E-02 0.  1.
       -1    1    3    3    0  502 -0.49283184576E+03 -0.91133715314E+03  0.12464426727E+04  0.16208139842E+04  0.50400001928E-02 0. -1.
</event>
<event>
 5   0  0.4071750E-09  0.3788068E+04  0.7818609E-02  0.8048720E-01
       -1   -1    0    0    0  501  0.00000000000E+00  0.00000000000E+00  0.13585032852E+04  0.13585032852E+04  0.50400001928E-02 0.  1.
        1   -1    0    0  501    0  0.00000000000E+00  0.00000000000E+00 -0.26406747666E+04  0.26406747666E+04  0.50400001928E-02 0. -1.
    10030    2    1    2    0    0  0.00000000000E+00  0.00000000000E+00 -0.12821714814E+04  0.39991780518E+04  0.37880682917E+04 0.  0.
        1    1    3    3  502    0 -0.27435486377E+03 -0.13482165374E+04  0.73315177064E+03  0.15589964534E+04  0.50400001928E-02 0.  1.
       -1    1    3    3    0  502  0.27435486377E+03  0.13482165374E+04 -0.20153232520E+04  0.24401815984E+04  0.50400001928E-02 0. -1.
</event>
<event>
 5   0  0.1264013E-08  0.3776246E+04  0.7818609E-02  0.8051272E-01
        2   -1    0    0  501    0  0.00000000000E+00  0.00000000000E+00  0.22650337259E+04  0.22650337259E+04  0.25500000920E-02 0.  1.
       -2   -1    0    0    0  501  0.00000000000E+00  0.00000000000E+00 -0.15739314000E+04  0.15739314000E+04  0.25500000920E-02 0. -1.
    10030    2    1    2    0    0  0.00000000000E+00  0.00000000000E+00  0.69110232588E+03  0.38389651259E+04  0.37762455976E+04 0.  0.
        4    1    3    3  502    0 -0.98667059797E+03  0.62850309688E+03 -0.11611137672E+04  0.16482481018E+04  0.12699999809E+01 0. -1.
       -4    1    3    3    0  502  0.98667059797E+03 -0.62850309688E+03  0.18522160931E+04  0.21907170242E+04  0.12699999809E+01 0.  1.
</event>
<event>
 5   0  0.1305088E-08  0.3805465E+04  0.7818609E-02  0.8044983E-01
        2   -1    0    0  501    0  0.00000000000E+00  0.00000000000E+00  0.24491812319E+04  0.24491812319E+04  0.25500000920E-02 0. -1.
       -2   -1    0    0    0  501  0.00000000000E+00  0.00000000000E+00 -0.14782048338E+04  0.14782048338E+04  0.25500000920E-02 0.  1.
    10030    2    1    2    0    0  0.00000000000E+00  0.00000000000E+00  0.97097639807E+03  0.39273860657E+04  0.38054652992E+04 0.  0.
        3    1    3    3  502    0 -0.44791360094E+03  0.18085154382E+04  0.88390959063E+03  0.20621956403E+04  0.10100000352E+00 0. -1.
       -3    1    3    3    0  502  0.44791360094E+03 -0.18085154382E+04  0.87066807436E+02  0.18651904255E+04  0.10100000352E+00 0.  1.
</event>
<event>
 5   0  0.1261152E-08  0.3800240E+04  0.7818609E-02  0.8046103E-01
        2   -1    0    0  501    0  0.00000000000E+00  0.00000000000E+00  0.25861852738E+04  0.25861852738E+04  0.25500000920E-02 0.  1.
       -2   -1    0    0    0  501  0.00000000000E+00  0.00000000000E+00 -0.13960546818E+04  0.13960546818E+04  0.25500000920E-02 0. -1.
    10030    2    1    2    0    0  0.00000000000E+00  0.00000000000E+00  0.11901305921E+04  0.39822399556E+04  0.38002400237E+04 0.  0.
        2    1    3    3  502    0 -0.18291489215E+04  0.33746478803E+03  0.10019763610E+04  0.21127292510E+04  0.25500000920E-02 0.  1.
       -2    1    3    3    0  502  0.18291489215E+04 -0.33746478803E+03  0.18815423112E+03  0.18695107046E+04  0.25500000920E-02 0. -1.
</event>
<event>
 5   0  0.1327249E-08  0.3799102E+04  0.7818609E-02  0.8046348E-01
        2   -1    0    0  501    0  0.00000000000E+00  0.00000000000E+00  0.22505057011E+04  0.22505057011E+04  0.25500000920E-02 0. -1.
       -2   -1    0    0    0  501  0.00000000000E+00  0.00000000000E+00 -0.16033255323E+04  0.16033255323E+04  0.25500000920E-02 0.  1.
    10030    2    1    2    0    0  0.00000000000E+00  0.00000000000E+00  0.64718016873E+03  0.38538312334E+04  0.37991016050E+04 0.  0.
        1    1    3    3  502    0  0.10031586201E+04 -0.16035932132E+04  0.14656290518E+03  0.18971871536E+04  0.50400001928E-02 0.  1.
       -1    1    3    3    0  502 -0.10031586201E+04  0.16035932132E+04  0.50061726356E+03  0.19566440798E+04  0.50400001928E-02 0. -1.
</event>
<event>
 5   0  0.4071750E-09  0.3797745E+04  0.7818609E-02  0.8046639E-01
       -1   -1    0    0    0  501  0.00000000000E+00  0.00000000000E+00  0.20050190795E+04  0.20050190795E+04  0.50400001928E-02 0.  1.
        1   -1    0    0  501    0  0.00000000000E+00  0.00000000000E+00 -0.17983457870E+04  0.17983457870E+04  0.50400001928E-02 0. -1.
    10030    2    1    2    0    0  0.00000000000E+00  0.00000000000E+00  0.20667329253E+03  0.38033648665E+04  0.37977454441E+04 0.  0.
        4    1    3    3  502    0  0.36903846432E+03  0.17592184964E+04  0.71635093198E+03  0.19349933790E+04  0.12699999809E+01 0. -1.
       -4    1    3    3    0  502 -0.36903846432E+03 -0.17592184964E+04 -0.50967763945E+03  0.18683714875E+04  0.12699999809E+01 0.  1.
</event>
<event>
 5   0  0.1261152E-08  0.3800379E+04  0.7818609E-02  0.8046074E-01
       -2   -1    0    0    0  501  0.00000000000E+00  0.00000000000E+00  0.16482616987E+04  0.16482616987E+04  0.25500000920E-02 0.  1.
        2   -1    0    0  501    0  0.00000000000E+00  0.00000000000E+00 -0.21906225199E+04  0.21906225199E+04  0.25500000920E-02 0. -1.
    10030    2    1    2    0    0  0.00000000000E+00  0.00000000000E+00 -0.54236082116E+03  0.38388842186E+04  0.38003785053E+04 0.  0.
        2    1    3    3  502    0  0.99510299573E+03 -0.13910379018E+04  0.56515940136E+03  0.18012833107E+04  0.25500000920E-02 0.  1.
       -2    1    3    3    0  502 -0.99510299573E+03  0.13910379018E+04 -0.11075202225E+04  0.20376009079E+04  0.25500000920E-02 0. -1.
</event>
<event>
 5   0  0.4071750E-09  0.3800481E+04  0.7818609E-02  0.8046052E-01
        1   -1    0    0  501    0  0.00000000000E+00  0.00000000000E+00  0.16153941701E+04  0.16153941702E+04  0.50400001928E-02 0. -1.
       -1   -1    0    0    0  501  0.00000000000E+00  0.00000000000E+00 -0.22353150062E+04  0.22353150063E+04  0.50400001928E-02 0.  1.
    10030    2    1    2    0    0  0.00000000000E+00  0.00000000000E+00 -0.61992083610E+03  0.38507091764E+04  0.38004814587E+04 0.  0.
        5    1    3    3  502    0  0.14607114690E+04  0.47320032193E+03 -0.14442631109E+04  0.21079645547E+04  0.46999998093E+01 0.  1.
       -5    1    3    3    0  502 -0.14607114690E+04 -0.47320032193E+03  0.82434227483E+03  0.17427446217E+04  0.46999998093E+01 0. -1.
</event>
<event>
 5   0  0.4071750E-09  0.3799771E+04  0.7818609E-02  0.8046204E-01
        1   -1    0    0  501    0  0.00000000000E+00  0.00000000000E+00  0.12439957517E+04  0.12439957517E+04  0.50400001928E-02 0. -1.
       -1   -1    0    0    0  501  0.00000000000E+00  0.00000000000E+00 -0.29015895535E+04  0.29015895535E+04  0.50400001928E-02 0.  1.
    10030    2    1    2    0    0  0.00000000000E+00  0.00000000000E+00 -0.16575938018E+04  0.41455853053E+04  0.37997710867E+04 0.  0.
        4    1    3    3  502    0  0.10239469626E+04 -0.11820063321E+04  0.34825852028E+03  0.16021522902E+04  0.12699999809E+01 0. -1.
       -4    1    3    3    0  502 -0.10239469626E+04  0.11820063321E+04 -0.20058523221E+04  0.25434330151E+04  0.12699999809E+01 0.  1.
</event>
<event>
 5   0  0.4071750E-09  0.3799559E+04  0.7818609E-02  0.8046250E-01
       -1   -1    0    0    0  501  0.00000000000E+00  0.00000000000E+00  0.29476202965E+04  0.29476202965E+04  0.50400001928E-02 0.  1.
        1   -1    0    0  501    0  0.00000000000E+00  0.00000000000E+00 -0.12244325040E+04  0.12244325040E+04  0.50400001928E-02 0. -1.
    10030    2    1    2    0    0  0.00000000000E+00  0.00000000000E+00  0.17231877925E+04  0.41720528006E+04  0.37995589748E+04 0.  0.
        2    1    3    3  502    0  0.14911836398E+04  0.10803542874E+04  0.34848307817E+03  0.18740956458E+04  0.25500000920E-02 0. -1.
       -2    1    3    3    0  502 -0.14911836398E+04 -0.10803542874E+04  0.13747047143E+04  0.22979571548E+04  0.25500000920E-02 0.  1.
</event>
<event>
 5   0  0.4071750E-09  0.3799557E+04  0.7818609E-02  0.8046250E-01
        1   -1    0    0  501    0  0.00000000000E+00  0.00000000000E+00  0.28445944585E+04  0.28445944585E+04  0.50400001928E-02 0.  1.
       -1   -1    0    0    0  501  0.00000000000E+00  0.00000000000E+00 -0.12687776929E+04  0.12687776929E+04  0.50400001928E-02 0. -1.
    10030    2    1    2    0    0  0.00000000000E+00  0.00000000000E+00  0.15758167657E+04  0.41133721514E+04  0.37995568133E+04 0.  0.
        5    1    3    3  502    0 -0.15033329946E+04  0.11215861467E+04  0.46102577237E+03  0.19314586275E+04  0.46999998093E+01 0. -1.
       -5    1    3    3    0  502  0.15033329946E+04 -0.11215861467E+04  0.11147909933E+04  0.21819135239E+04  0.46999998093E+01 0.  1.
</event>
<event>
 5   0  0.1327249E-08  0.3799876E+04  0.7818609E-02  0.8046181E-01
       -2   -1    0    0    0  501  0.00000000000E+00  0.00000000000E+00  0.17846370697E+04  0.17846370697E+04  0.25500000920E-02 0. -1.
        2   -1    0    0  501    0  0.00000000000E+00  0.00000000000E+00 -0.20226887451E+04  0.20226887451E+04  0.25500000920E-02 0.  1.
    10030    2    1    2    0    0  0.00000000000E+00  0.00000000000E+00 -0.23805167537E+03  0.38073258148E+04  0.37998764796E+04 0.  0.
        1    1    3    3  502    0 -0.82769876929E+03 -0.64598633139E+03 -0.17056015139E+04  0.20028629802E+04  0.50400001928E-02 0.  1.
       -1    1    3    3    0  502  0.82769876929E+03  0.64598633139E+03  0.14675498386E+04  0.18044628347E+04  0.50400001928E-02 0. -1.
</event>
<event>
 5   0  0.1264013E-08  0.3801465E+04  0.7818609E-02  0.8045841E-01
       -2   -1    0    0    0  501  0.00000000000E+00  0.00000000000E+00  0.20801334756E+04  0.20801334756E+04  0.25500000920E-02 0. -1.
        2   -1    0    0  501    0  0.00000000000E+00  0.00000000000E+00 -0.17368039903E+04  0.17368039903E+04  0.25500000920E-02 0.  1.
    10030    2    1    2    0    0  0.00000000000E+00  0.00000000000E+00  0.34332948533E+03  0.38169374659E+04  0.38014650443E+04 0.  0.
        4    1    3    3  502    0  0.58508254850E+03  0.42737780092E+03  0.19360331279E+04  0.20671718018E+04  0.12699999809E+01 0. -1.
       -4    1    3    3    0  502 -0.58508254850E+03 -0.42737780092E+03 -0.15927036425E+04  0.17497656640E+04  0.12699999809E+01 0.  1.
</event>
<event>
 5   0  0.1305088E-08  0.3799201E+04  0.7818609E-02  0.8046326E-01
        2   -1    0    0  501    0  0.00000000000E+00  0.00000000000E+00  0.18312879990E+04  0.18312879990E+04  0.25500000920E-02 0.  1.
       -2   -1    0    0    0  501  0.00000000000E+00  0.00000000000E+00 -0.19704617389E+04  0.19704617389E+04  0.25500000920E-02 0. -1.
    10030    2    1    2    0    0  0.00000000000E+00  0.00000000000E+00 -0.13917373989E+03  0.38017497378E+04  0.37992014607E+04 0.  0.
        3    1    3    3  502    0 -0.49881089308E+03  0.94768354191E+03 -0.16395772433E+04  0.19583487814E+04  0.10100000352E+00 0. -1.
       -3    1    3    3    0  502  0.49881089308E+03 -0.94768354191E+03  0.15004035035E+04  0.18434009564E+04  0.10100000352E+00 0.  1.
</event>
<event>
 5   0  0.4071750E-09  0.3802020E+04  0.7818609E-02  0.8045722E-01
        1   -1    0    0  501    0  0.00000000000E+00  0.00000000000E+00  0.26439672535E+04  0.26439672535E+04  0.50400001928E-02 0. -1.
       -1   -1    0    0    0  501  0.00000000000E+00  0.00000000000E+00 -0.13668243260E+04  0.13668243260E+04  0.50400001928E-02 0.  1.
    10030    2    1    2    0    0  0.00000000000E+00  0.00000000000E+00  0.12771429276E+04  0.40107915795E+04  0.38020198628E+04 0.  0.
        2    1    3    3  502    0 -0.12345454526E+03 -0.87093690048E+03  0.24163594995E+04  0.25714908788E+04  0.25500000920E-02 0. -1.
       -2    1    3    3    0  502  0.12345454526E+03  0.87093690048E+03 -0.11392165719E+04  0.14393007007E+04  0.25500000920E-02 0.  1.
</event>
<event>
 5   0  0.4071750E-09  0.3802235E+04  0.7818609E-02  0.8045675E-01
       -1   -1    0    0    0  501  0.00000000000E+00  0.00000000000E+00  0.19653814450E+04  0.19653814450E+04  0.50400001928E-02 0. -1.
        1   -1    0    0  501    0  0.00000000000E+00  0.00000000000E+00 -0.18389545902E+04  0.18389545902E+04  0.50400001928E-02 0.  1.
    10030    2    1    2    0    0  0.00000000000E+00  0.00000000000E+00  0.12642685477E+03  0.38043360353E+04  0.38022347271E+04 0.  0.
        2    1    3    3  502    0  0.13565475965E+04 -0.22707875118E+03  0.13763643914E+04  0.19458070507E+04  0.25500000920E-02 0. -1.
       -2    1    3    3    0  502 -0.13565475965E+04  0.22707875118E+03 -0.12499375366E+04  0.18585289845E+04  0.25500000920E-02 0.  1.
</event>
<event>
 5   0  0.4071750E-09  0.3799627E+04  0.7818609E-02  0.8046235E-01
       -1   -1    0    0    0  501  0.00000000000E+00  0.00000000000E+00  0.13371996258E+04  0.13371996258E+04  0.50400001928E-02 0. -1.
        1   -1    0    0  501    0  0.00000000000E+00  0.00000000000E+00 -0.26991423896E+04  0.26991423896E+04  0.50400001928E-02 0.  1.
    10030    2    1    2    0    0  0.00000000000E+00  0.00000000000E+00 -0.13619427637E+04  0.40363420154E+04  0.37996274520E+04 0.  0.
        4    1    3    3  502    0  0.85659907259E+02 -0.16026359068E+04  0.39898077679E+03  0.16537734859E+04  0.12699999809E+01 0.  1.
       -4    1    3    3    0  502 -0.85659907259E+02  0.16026359068E+04 -0.17609235405E+04  0.23825685295E+04  0.12699999809E+01 0. -1.
</event>
<event>
 5   0  0.4071750E-09  0.3797865E+04  0.7818609E-02  0.8046613E-01
       -1   -1    0    0    0  501  0.00000000000E+00  0.00000000000E+00  0.12958187631E+04  0.12958187631E+04  0.50400001928E-02 0. -1.
        1   -1    0    0  501    0  0.00000000000E+00  0.00000000000E+00 -0.27827538820E+04  0.27827538820E+04  0.50400001928E-02 0.  1.
    10030    2    1    2    0    0  0.00000000000E+00  0.00000000000E+00 -0.14869351189E+04  0.40785726451E+04  0.37978650283E+04 0.  0.
        3    1    3    3  502    0 -0.11567254039E+04  0.13781078068E+04 -0.13955982343E+04  0.22770351839E+04  0.10100000352E+00 0.  1.
       -3    1    3    3    0  502  0.11567254039E+04 -0.13781078068E+04 -0.91336884654E+02  0.18015374611E+04  0.10100000352E+00 0. -1.
</event>
<event>
 5   0  0.1264013E-08  0.3799050E+04  0.7818609E-02  0.8046359E-01
        2   -1    0    0  501    0  0.00000000000E+00  0.00000000000E+00  0.18289320333E+04  0.18289320333E+04  0.25500000920E-02 0.  1.
       -2   -1    0    0    0  501  0.00000000000E+00  0.00000000000E+00 -0.19728430828E+04  0.19728430828E+04  0.25500000920E-02 0. -1.
    10030    2    1    2    0    0  0.00000000000E+00  0.00000000000E+00 -0.14391104946E+03  0.38017751161E+04  0.37990503607E+04 0.  0.
        4    1    3    3  502    0 -0.53381389188E+03  0.18228266450E+04 -0.95211142689E+02  0.19017678680E+04  0.12699999809E+01 0.  1.
       -4    1    3    3    0  502  0.53381389188E+03 -0.18228266450E+04 -0.48699906776E+02  0.19000072481E+04  0.12699999809E+01 0. -1.
</event>
<event>
 5   0  0.1293993E-08  0.3799731E+04  0.7818609E-02  0.8046213E-01
        2   -1    0    0  501    0  0.00000000000E+00  0.00000000000E+00  0.28375015648E+04  0.28375015648E+04  0.25500000920E-02 0.  1.
       -2   -1    0    0    0  501  0.00000000000E+00  0.00000000000E+00 -0.12720661926E+04  0.12720661926E+04  0.25500000920E-02 0. -1.
    10030    2    1    2    0    0  0.00000000000E+00  0.00000000000E+00  0.15654353723E+04  0.41095677574E+04  0.37997314705E+04 0.  0.
        5    1    3    3  502    0 -0.84361967209E+03 -0.13222298122E+04  0.19422805737E+04  0.24964898847E+04  0.46999998093E+01 0.  1.
       -5    1    3    3    0  502  0.84361967209E+03  0.13222298122E+04 -0.37684520147E+03  0.16130778727E+04  0.46999998093E+01 0. -1.
</event>
<event>
 5   0  0.4071750E-09  0.3799754E+04  0.7818609E-02  0.8046208E-01
        1   -1    0    0  501    0  0.00000000000E+00  0.00000000000E+00  0.29180216292E+04  0.29180216292E+04  0.50400001928E-02 0.  1.
       -1   -1    0    0    0  501  0.00000000000E+00  0.00000000000E+00 -0.12369793820E+04  0.12369793820E+04  0.50400001928E-02 0. -1.
    10030    2    1    2    0    0  0.00000000000E+00  0.00000000000E+00  0.16810422472E+04  0.41550010112E+04  0.37997539876E+04 0.  0.
        5    1    3    3  502    0  0.18947468631E+04 -0.10110280307E+03  0.73550574073E+03  0.20350130803E+04  0.46999998093E+01 0. -1.
       -5    1    3    3    0  502 -0.18947468631E+04  0.10110280307E+03  0.94553650651E+03  0.21199879309E+04  0.46999998093E+01 0.  1.
</event>
<event>
 5   0  0.1327249E-08  0.3798968E+04  0.7818609E-02  0.8046376E-01
        2   -1    0    0  501    0  0.00000000000E+00  0.00000000000E+00  0.13899431868E+04  0.13899431868E+04  0.25500000920E-02 0.  1.
       -2   -1    0    0    0  501  0.00000000000E+00  0.00000000000E+00 -0.25958182751E+04  0.25958182751E+04  0.25500000920E-02 0. -1.
    10030    2    1    2    0    0  0.00000000000E+00  0.00000000000E+00 -0.12058750883E+04  0.39857614620E+04  0.37989682419E+04 0.  0.
        1    1    3    3  502    0 -0.76398863831E+03 -0.19873599547E+03  0.12096876354E+04  0.14444787332E+04  0.50400001928E-02 0.  1.
       -1    1    3    3    0  502  0.76398863831E+03  0.19873599547E+03 -0.24155627237E+04  0.25412827288E+04  0.50400001928E-02 0. -1.
</event>
<event>
 5   0  0.1261152E-08  0.3801529E+04  0.7818609E-02  0.8045827E-01
        2   -1    0    0  501    0  0.00000000000E+00  0.00000000000E+00  0.19560422716E+04  0.19560422716E+04  0.25500000920E-02 0.  1.
       -2   -1    0    0    0  501  0.00000000000E+00  0.00000000000E+00 -0.18470492852E+04  0.18470492852E+04  0.25500000920E-02 0. -1.
    10030    2    1    2    0    0  0.00000000000E+00  0.00000000000E+00  0.10899298641E+03  0.38030915568E+04  0.38015294183E+04 0.  0.
        2    1    3    3  502    0 -0.16109221789E+04 -0.10054548380E+04 -0.28584496844E+02  0.18991647562E+04  0.25500000920E-02 0.  1.
       -2    1    3    3    0  502  0.16109221789E+04  0.10054548380E+04  0.13757748325E+03  0.19039268005E+04  0.25500000920E-02 0. -1.
</event>
<event>
 5   0  0.1261152E-08  0.3800027E+04  0.7818609E-02  0.8046149E-01
        2   -1    0    0  501    0  0.00000000000E+00  0.00000000000E+00  0.23112340137E+04  0.23112340137E+04  0.25500000920E-02 0. -1.
       -2   -1    0    0    0  501  0.00000000000E+00  0.00000000000E+00 -0.15619582075E+04  0.15619582075E+04  0.25500000920E-02 0.  1.
    10030    2    1    2    0    0  0.00000000000E+00  0.00000000000E+00  0.74927580618E+03  0.38731922213E+04  0.38000268090E+04 0.  0.
        2    1    3    3  502    0  0.23716537126E+03 -0.93835063728E+03 -0.12918661338E+04  0.16142079914E+04  0.25500000920E-02 0.  1.
       -2    1    3    3    0  502 -0.23716537126E+03  0.93835063728E+03  0.20411419400E+04  0.22589842299E+04  0.25500000920E-02 0. -1.
</event>
<event>
 5   0  0.4071750E-09  0.3799396E+04  0.7818609E-02  0.8046284E-01
       -1   -1    0    0    0  501  0.00000000000E+00  0.00000000000E+00  0.16147756441E+04  0.16147756441E+04  0.50400001928E-02 0. -1.
        1   -1    0    0  501    0  0.00000000000E+00  0.00000000000E+00 -0.22348944409E+04  0.22348944409E+04  0.50400001928E-02 0.  1.
    10030    2    1    2    0    0  0.00000000000E+00  0.00000000000E+00 -0.62011879672E+03  0.38496700850E+04  0.37993963259E+04 0.  0.
        4    1    3    3  502    0  0.51386073158E+03 -0.14832047363E+04 -0.13942187954E+04  0.20994753638E+04  0.12699999809E+01 0.  1.
       -4    1    3    3    0  502 -0.51386073158E+03  0.14832047363E+04  0.77409999866E+03  0.17501947212E+04  0.12699999809E+01 0. -1.
</event>
<event>
 5   0  0.4071750E-09  0.3801773E+04  0.7818609E-02  0.8045774E-01
       -1   -1    0    0    0  501  0.00000000000E+00  0.00000000000E+00  0.19145115596E+04  0.19145115596E+04  0.50400001928E-02 0.  1.
        1   -1    0    0  501    0  0.00000000000E+00  0.00000000000E+00 -0.18873586705E+04  0.18873586705E+04  0.50400001928E-02 0. -1.
    10030    2    1    2    0    0  0.00000000000E+00  0.00000000000E+00  0.27152889093E+02  0.38018702301E+04  0.38017732662E+04 0.  0.
        1    1    3    3  502    0  0.89859057131E+02  0.51453664352E+03 -0.18141866110E+04  0.18878812641E+04  0.50400001928E-02 0. -1.
       -1    1    3    3    0  502 -0.89859057131E+02 -0.51453664352E+03  0.18413395001E+04  0.19139889661E+04  0.50400001928E-02 0.  1.
</event>
<event>
 5   0  0.1293993E-08  0.3802422E+04  0.7818609E-02  0.8045635E-01
        2   -1    0    0  501    0  0.00000000000E+00  0.00000000000E+00  0.20576622888E+04  0.20576622888E+04  0.25500000920E-02 0.  1.
       -2   -1    0    0    0  501  0.00000000000E+00  0.00000000000E+00 -0.17566556278E+04  0.17566556278E+04  0.25500000920E-02 0. -1.
    10030    2    1    2    0    0  0.00000000000E+00  0.00000000000E+00  0.30100666100E+03  0.38143179165E+04  0.38024224066E+04 0.  0.
        5    1    3    3  502    0  0.13917219433E+02  0.16408742329E+04 -0.81266711655E+03  0.18311504224E+04  0.46999998093E+01 0.  1.
       -5    1    3    3    0  502 -0.13917219433E+02 -0.16408742329E+04  0.11136737775E+04  0.19831674942E+04  0.46999998093E+01 0. -1.
</event>
<event>
 5   0  0.4071750E-09  0.3801502E+04  0.7818609E-02  0.8045833E-01
       -1   -1    0    0    0  501  0.00000000000E+00  0.00000000000E+00  0.26283064525E+04  0.26283064525E+04  0.50400001928E-02 0.  1.
        1   -1    0    0  501    0  0.00000000000E+00  0.00000000000E+00 -0.13745942554E+04  0.13745942554E+04  0.50400001928E-02 0. -1.
    10030    2    1    2    0    0  0.00000000000E+00  0.00000000000E+00  0.12537121971E+04  0.40029007079E+04  0.38015023089E+04 0.  0.
        5    1    3    3  502    0  0.14654040153E+04  0.41481044838E+03  0.18243646897E+04  0.23765111502E+04  0.46999998093E+01 0.  1.
       -5    1    3    3    0  502 -0.14654040153E+04 -0.41481044838E+03 -0.57065249264E+03  0.16263895577E+04  0.46999998093E+01 0. -1.
</event>
<event>
 5   0  0.1261152E-08  0.3802571E+04  0.7818609E-02  0.8045603E-01
        2   -1    0    0  501    0  0.00000000000E+00  0.00000000000E+00  0.16684719261E+04  0.16684719261E+04  0.25500000920E-02 0.  1.
       -2   -1    0    0    0  501  0.00000000000E+00  0.00000000000E+00 -0.21665851412E+04  0.21665851412E+04  0.25500000920E-02 0. -1.
    10030    2    1    2    0    0  0.00000000000E+00  0.00000000000E+00 -0.49811321511E+03  0.38350570672E+04  0.38025709637E+04 0.  0.
        2    1    3    3  502    0 -0.14930251088E+04  0.18477314543E+03  0.92346817741E+03  0.17652361217E+04  0.25500000920E-02 0.  1.
       -2    1    3    3    0  502  0.14930251088E+04 -0.18477314543E+03 -0.14215813925E+04  0.20698209455E+04  0.25500000920E-02 0. -1.
</event>
<event>
 5   0  0.1264013E-08  0.3798285E+04  0.7818609E-02  0.8046523E-01
        2   -1    0    0  501    0  0.00000000000E+00  0.00000000000E+00  0.25075014507E+04  0.25075014507E+04  0.25500000920E-02 0.  1.
       -2   -1    0    0    0  501  0.00000000000E+00  0.00000000000E+00 -0.14383810967E+04  0.14383810967E+04  0.25500000920E-02 0. -1.
    10030    2    1    2    0    0  0.00000000000E+00  0.00000000000E+00  0.10691203540E+04  0.39458825475E+04  0.37982852377E+04 0.  0.
        4    1    3    3  502    0  0.16963844835E+04 -0.60999905670E+03  0.11552050638E+04  0.21411024070E+04  0.12699999809E+01 0.  1.
       -4    1    3    3    0  502 -0.16963844835E+04  0.60999905670E+03 -0.86084709810E+02  0.18047801404E+04  0.12699999809E+01 0. -1.
</event>
<event>
 5   0  0.4071750E-09  0.3800942E+04  0.7818609E-02  0.8045953E-01
       -1   -1    0    0    0  501  0.00000000000E+00  0.00000000000E+00  0.12258623552E+04  0.12258623552E+04  0.50400001928E-02 0.  1.
        1   -1    0    0  501    0  0.00000000000E+00  0.00000000000E+00 -0.29463263816E+04  0.29463263816E+04  0.50400001928E-02 0. -1.
    10030    2    1    2    0    0  0.00000000000E+00  0.00000000000E+00 -0.17204640264E+04  0.41721887368E+04  0.38009423028E+04 0.  0.
        4    1    3    3  502    0  0.14508266057E+04  0.12067685326E+04 -0.11071493531E+04  0.21879144028E+04  0.12699999809E+01 0.  1.
       -4    1    3    3    0  502 -0.14508266057E+04 -0.12067685326E+04 -0.61331467329E+03  0.19842743340E+04  0.12699999809E+01 0. -1.
</event>
<event>
 5   0  0.1293993E-08  0.3800384E+04  0.7818609E-02  0.8046072E-01
        2   -1    0    0  501    0  0.00000000000E+00  0.00000000000E+00  0.13006561093E+04  0.13006561093E+04  0.25500000920E-02 0. -1.
       -2   -1    0    0    0  501  0.00000000000E+00  0.00000000000E+00 -0.27760833190E+04  0.27760833190E+04  0.25500000920E-02 0.  1.
    10030    2    1    2    0    0  0.00000000000E+00  0.00000000000E+00 -0.14754272097E+04  0.40767394283E+04  0.38003840484E+04 0.  0.
        5    1    3    3  502    0 -0.12082351457E+04 -0.13358338845E+04 -0.13870608622E+04  0.22733772806E+04  0.46999998093E+01 0.  1.
       -5    1    3    3    0  502  0.12082351457E+04  0.13358338845E+04 -0.88366347472E+02  0.18033621477E+04  0.46999998093E+01 0. -1.
</event>
<event>
 5   0  0.1305088E-08  0.3788109E+04  0.7818609E-02  0.8048711E-01
        2   -1    0    0  501    0  0.00000000000E+00  0.00000000000E+00  0.19342365721E+04  0.19342365721E+04  0.25500000920E-02 0.  1.
       -2   -1    0    0    0  501  0.00000000000E+00  0.00000000000E+00 -0.18547071618E+04  0.18547071618E+04  0.25500000920E-02 0. -1.
    10030    2    1    2    0    0  0.00000000000E+00  0.00000000000E+00  0.79529410371E+02  0.37889437339E+04  0.37881089862E+04 0.  0.
        3    1    3    3  502    0 -0.14249612141E+04 -0.29209323040E+03 -0.11736017419E+04  0.18690034713E+04  0.10100000352E+00 0. -1.
       -3    1    3    3    0  502  0.14249612141E+04  0.29209323040E+03  0.12531311523E+04  0.19199402626E+04  0.10100000352E+00 0.  1.
</event>
<event>
 5   0  0.1264013E-08  0.3800189E+04  0.7818609E-02  0.8046114E-01
       -2   -1    0    0    0  501  0.00000000000E+00  0.00000000000E+00  0.10289703148E+04  0.10289703148E+04  0.25500000920E-02 0.  1.
        2   -1    0    0  501    0  0.00000000000E+00  0.00000000000E+00 -0.35087114964E+04  0.35087114964E+04  0.25500000920E-02 0. -1.
    10030    2    1    2    0    0  0.00000000000E+00  0.00000000000E+00 -0.24797411816E+04  0.45376818112E+04  0.38001894547E+04 0.  0.
        4    1    3    3  502    0 -0.13996190394E+04 -0.76990752533E+03 -0.11276161964E+02  0.15974416477E+04  0.12699999809E+01 0. -1.
       -4    1    3    3    0  502  0.13996190394E+04  0.76990752533E+03 -0.24684650197E+04  0.29402401635E+04  0.12699999809E+01 0.  1.
</event>
<event>
 5   0  0.4071750E-09  0.3800667E+04  0.7818609E-02  0.8046012E-01
       -1   -1    0    0    0  501  0.00000000000E+00  0.00000000000E+00  0.30470397555E+04  0.30470397555E+04  0.50400001928E-02 0.  1.
        1   -1    0    0  501    0  0.00000000000E+00  0.00000000000E+00 -0.11851726419E+04  0.11851726419E+04  0.50400001928E-02 0. -1.
    10030    2    1    2    0    0  0.00000000000E+00  0.00000000000E+00  0.18618671136E+04  0.42322123974E+04  0.38006673924E+04 0.  0.
        2    1    3    3  502    0  0.67412282696E+03 -0.95804471005E+03  0.25971537638E+04  0.28491224833E+04  0.25500000920E-02 0.  1.
       -2    1    3    3    0  502 -0.67412282696E+03  0.95804471005E+03 -0.73528665024E+03  0.13830899140E+04  0.25500000920E-02 0. -1.
</event>
<event>
 5   0  0.1305088E-08  0.3800038E+04  0.7818609E-02  0.8046147E-01
        2   -1    0    0  501    0  0.00000000000E+00  0.00000000000E+00  0.14837382288E+04  0.14837382288E+04  0.25500000920E-02 0. -1.
       -2   -1    0    0    0  501  0.00000000000E+00  0.00000000000E+00 -0.24330927637E+04  0.24330927637E+04  0.25500000920E-02 0.  1.
    10030    2    1    2    0    0  0.00000000000E+00  0.00000000000E+00 -0.94935453492E+03  0.39168309924E+04  0.38000382880E+04 0.  0.
        3    1    3    3  502    0  0.17982353883E+04 -0.30545880127E+03  0.73763773127E+02  0.18254853315E+04  0.10100000352E+00 0. -1.
       -3    1    3    3    0  502 -0.17982353883E+04  0.30545880127E+03 -0.10231183080E+04  0.20913456609E+04  0.10100000352E+00 0.  1.
</event>
<event>
 5   0  0.4071750E-09  0.3800086E+04  0.7818609E-02  0.8046136E-01
        1   -1    0    0  501    0  0.00000000000E+00  0.00000000000E+00  0.26132918713E+04  0.26132918713E+04  0.50400001928E-02 0. -1.
       -1   -1    0    0    0  501  0.00000000000E+00  0.00000000000E+00 -0.13814618221E+04  0.13814618221E+04  0.50400001928E-02 0.  1.
    10030    2    1    2    0    0  0.00000000000E+00  0.00000000000E+00  0.12318300492E+04  0.39947536933E+04  0.38000857622E+04 0.  0.
        5    1    3    3  502    0 -0.11593923162E+04 -0.12144179568E+04  0.15509397603E+04  0.22857028999E+04  0.46999998093E+01 0. -1.
       -5    1    3    3    0  502  0.11593923162E+04  0.12144179568E+04 -0.31910971115E+03  0.17090507934E+04  0.46999998093E+01 0.  1.
</event>
<event>
 5   0  0.1264013E-08  0.3798287E+04  0.7818609E-02  0.8046523E-01
        2   -1    0    0  501    0  0.00000000000E+00  0.00000000000E+00  0.22601861694E+04  0.22601861694E+04  0.25500000920E-02 0.  1.
       -2   -1    0    0    0  501  0.00000000000E+00  0.00000000000E+00 -0.15957735016E+04  0.15957735016E+04  0.25500000920E-02 0. -1.
    10030    2    1    2    0    0  0.00000000000E+00  0.00000000000E+00  0.66441266781E+03  0.38559596710E+04  0.37982865599E+04 0.  0.
        4    1    3    3  502    0 -0.12209356237E+04  0.34235805858E+03  0.17674807371E+04  0.21752890858E+04  0.12699999809E+01 0.  1.
       -4    1    3    3    0  502  0.12209356237E+04 -0.34235805858E+03 -0.11030680693E+04  0.16806705852E+04  0.12699999809E+01 0. -1.
</event>
<event>
 5   0  0.4071750E-09  0.3800413E+04  0.7818609E-02  0.8046066E-01
       -1   -1    0    0    0  501  0.00000000000E+00  0.00000000000E+00  0.19460449964E+04  0.19460449964E+04  0.50400001928E-02 0.  1.
        1   -1    0    0  501    0  0.00000000000E+00  0.00000000000E+00 -0.18554472457E+04  0.18554472457E+04  0.50400001928E-02 0. -1.
    10030    2    1    2    0    0  0.00000000000E+00  0.00000000000E+00  0.90597750657E+02  0.38014922421E+04  0.38004125190E+04 0.  0.
        1    1    3    3  502    0 -0.37460287233E+03 -0.18613302876E+04  0.12217171570E+03  0.19025781665E+04  0.50400001928E-02 0.  1.
       -1    1    3    3    0  502  0.37460287233E+03  0.18613302876E+04 -0.31573965048E+02  0.18989140756E+04  0.50400001928E-02 0. -1.
</event>
<event>
 5   0  0.1293993E-08  0.3798194E+04  0.7818609E-02  0.8046543E-01
       -2   -1    0    0    0  501  0.00000000000E+00  0.00000000000E+00  0.27327314607E+04  0.27327314608E+04  0.25500000920E-02 0.  1.
        2   -1    0    0  501    0  0.00000000000E+00  0.00000000000E+00 -0.13197668865E+04  0.13197668865E+04  0.25500000920E-02 0. -1.
    10030    2    1    2    0    0  0.00000000000E+00  0.00000000000E+00  0.14129645742E+04  0.40524983473E+04  0.37981935136E+04 0.  0.
        5    1    3    3  502    0 -0.12593881673E+04  0.13044090890E+04  0.13091034094E+04  0.22363621026E+04  0.46999998093E+01 0.  1.
       -5    1    3    3    0  502  0.12593881673E+04 -0.13044090890E+04  0.10386116482E+03  0.18161362446E+04  0.46999998093E+01 0. -1.
</event>
<event>
 5   0  0.4071750E-09  0.3799672E+04  0.7818609E-02  0.8046225E-01
        1   -1    0    0  501    0  0.00000000000E+00  0.00000000000E+00  0.14432762907E+04  0.14432762907E+04  0.50400001928E-02 0. -1.
       -1   -1    0    0    0  501  0.00000000000E+00  0.00000000000E+00 -0.25008221763E+04  0.25008221763E+04  0.50400001928E-02 0.  1.
    10030    2    1    2    0    0  0.00000000000E+00  0.00000000000E+00 -0.10575458856E+04  0.39440984670E+04  0.37996722777E+04 0.  0.
        5    1    3    3  502    0  0.13965227081E+04 -0.20591373075E+03 -0.18485893531E+04  0.23259365480E+04  0.46999998093E+01 0.  1.
       -5    1    3    3    0  502 -0.13965227081E+04  0.20591373075E+03  0.79104346755E+03  0.16181619191E+04  0.46999998093E+01 0. -1.
</event>
<event>
 5   0  0.4071750E-09  0.3796962E+04  0.7818609E-02  0.8046807E-01
        1   -1    0    0  501    0  0.00000000000E+00  0.00000000000E+00  0.24840122153E+04  0.24840122153E+04  0.50400001928E-02 0. -1.
       -1   -1    0    0    0  501  0.00000000000E+00  0.00000000000E+00 -0.14509711084E+04  0.14509711084E+04  0.50400001928E-02 0.  1.
    10030    2    1    2    0    0  0.00000000000E+00  0.00000000000E+00  0.10330411068E+04  0.39349833237E+04  0.37969619210E+04 0.  0.
        5    1    3    3  502    0 -0.11733466714E+04  0.50400162658E+03 -0.93933899084E+03  0.15852885796E+04  0.46999998093E+01 0.  1.
       -5    1    3    3    0  502  0.11733466714E+04 -0.50400162658E+03  0.19723800977E+04  0.23496947441E+04  0.46999998093E+01 0. -1.
</event>
<event>
 5   0  0.1293993E-08  0.3790051E+04  0.7818609E-02  0.8048293E-01
       -2   -1    0    0    0  501  0.00000000000E+00  0.00000000000E+00  0.16042121972E+04  0.16042121972E+04  0.25500000920E-02 0.  1.
        2   -1    0    0  501    0  0.00000000000E+00  0.00000000000E+00 -0.22385572602E+04  0.22385572602E+04  0.25500000920E-02 0. -1.
    10030    2    1    2    0    0  0.00000000000E+00  0.00000000000E+00 -0.63434506306E+03  0.38427694574E+04  0.37900505859E+04 0.  0.
        5    1    3    3  502    0  0.62707562339E+03  0.80406859081E+03 -0.19366847451E+04  0.21887256631E+04  0.46999998093E+01 0. -1.
       -5    1    3    3    0  502 -0.62707562339E+03 -0.80406859081E+03  0.13023396820E+04  0.16540437943E+04  0.46999998093E+01 0.  1.
</event>
<event>
 5   0  0.4071750E-09  0.3800509E+04  0.7818609E-02  0.8046046E-01
        1   -1    0    0  501    0  0.00000000000E+00  0.00000000000E+00  0.16156337507E+04  0.16156337507E+04  0.50400001928E-02 0. -1.
       -1   -1    0    0    0  501  0.00000000000E+00  0.00000000000E+00 -0.22350161926E+04  0.22350161926E+04  0.50400001928E-02 0.  1.
    10030    2    1    2    0    0  0.00000000000E+00  0.00000000000E+00 -0.61938244187E+03  0.38506499434E+04  0.38005092260E+04 0.  0.
        1    1    3    3  502    0  0.11692550036E+04  0.14688924338E+04 -0.60710327940E+03  0.19731641182E+04  0.50400001928E-02 0.  1.
       -1    1    3    3    0  502 -0.11692550036E+04 -0.14688924338E+04 -0.12279162471E+02  0.18774858251E+04  0.50400001928E-02 0. -1.
</event>
<event>
 5   0  0.4071750E-09  0.3790636E+04  0.7818609E-02  0.8048167E-01
       -1   -1    0    0    0  501  0.00000000000E+00  0.00000000000E+00  0.23961664865E+04  0.23961664865E+04  0.50400001928E-02 0.  1.
        1   -1    0    0  501    0  0.00000000000E+00  0.00000000000E+00 -0.14991570299E+04  0.14991570299E+04  0.50400001928E-02 0. -1.
    10030    2    1    2    0    0  0.00000000000E+00  0.00000000000E+00  0.89700945656E+03  0.38953235164E+04  0.37906357425E+04 0.  0.
        4    1    3    3  502    0  0.18775414815E+04 -0.22362309459E+03  0.31428782771E+03  0.19167544848E+04  0.12699999809E+01 0.  1.
       -4    1    3    3    0  502 -0.18775414815E+04  0.22362309459E+03  0.58272162884E+03  0.19785690316E+04  0.12699999809E+01 0. -1.
</event>
<event>
 5   0  0.4071750E-09  0.3802491E+04  0.7818609E-02  0.8045620E-01
        1   -1    0    0  501    0  0.00000000000E+00  0.00000000000E+00  0.29408960804E+04  0.29408960804E+04  0.50400001928E-02 0. -1.
       -1   -1    0    0    0  501  0.00000000000E+00  0.00000000000E+00 -0.12291270376E+04  0.12291270376E+04  0.50400001928E-02 0.  1.
    10030    2    1    2    0    0  0.00000000000E+00  0.00000000000E+00  0.17117690428E+04  0.41700231181E+04  0.38024912294E+04 0.  0.
        5    1    3    3  502    0 -0.14458695533E+03 -0.22636947981E+03  0.29199768064E+04  0.29323088461E+04  0.46999998093E+01 0. -1.
       -5    1    3    3    0  502  0.14458695533E+03  0.22636947981E+03 -0.12082077636E+04  0.12377142720E+04  0.46999998093E+01 0.  1.
</event>
<event>
 5   0  0.4071750E-09  0.3800086E+04  0.7818609E-02  0.8046136E-01
        1   -1    0    0  501    0  0.00000000000E+00  0.00000000000E+00  0.23210460738E+04  0.23210460738E+04  0.50400001928E-02 0.  1.
       -1   -1    0    0    0  501  0.00000000000E+00  0.00000000000E+00 -0.15554039176E+04  0.15554039176E+04  0.50400001928E-02 0. -1.
    10030    2    1    2    0    0  0.00000000000E+00  0.00000000000E+00  0.76564215620E+03  0.38764499914E+04  0.38000863969E+04 0.  0.
        4    1    3    3  502    0 -0.56832521632E+03 -0.12564201282E+04 -0.95057155243E+03  0.16748650630E+04  0.12699999809E+01 0. -1.
       -4    1    3    3    0  502  0.56832521632E+03  0.12564201282E+04  0.17162137086E+04  0.22015849283E+04  0.12699999809E+01 0.  1.
</event>
<event>
 5   0  0.4071750E-09  0.3799916E+04  0.7818609E-02  0.8046173E-01
       -1   -1    0    0    0  501  0.00000000000E+00  0.00000000000E+00  0.11988788000E+04  0.11988788000E+04  0.50400001928E-02 0. -1.
        1   -1    0    0  501    0  0.00000000000E+00  0.00000000000E+00 -0.30110139586E+04  0.30110139586E+04  0.50400001928E-02 0.  1.
    10030    2    1    2    0    0  0.00000000000E+00  0.00000000000E+00 -0.18121351586E+04  0.42098927586E+04  0.37999162103E+04 0.  0.
        4    1    3    3  502    0 -0.18695981186E+04 -0.31252974209E+03 -0.10495265113E+04  0.21666978275E+04  0.12699999809E+01 0.  1.
       -4    1    3    3    0  502  0.18695981186E+04  0.31252974209E+03 -0.76260864731E+03  0.20431949311E+04  0.12699999809E+01 0. -1.
</event>
<event>
 5   0  0.4071750E-09  0.3801432E+04  0.7818609E-02  0.8045848E-01
        1   -1    0    0  501    0  0.00000000000E+00  0.00000000000E+00  0.21982464605E+04  0.21982464605E+04  0.50400001928E-02 0. -1.
       -1   -1    0    0    0  501  0.00000000000E+00  0.00000000000E+00 -0.16434561989E+04  0.16434561989E+04  0.50400001928E-02 0.  1.
    10030    2    1    2    0    0  0.00000000000E+00  0.00000000000E+00  0.55479026164E+03  0.38417026593E+04  0.38014322417E+04 0.  0.
        4    1    3    3  502    0 -0.10998376110E+04 -0.13918236155E+04  0.96719785636E+03  0.20204675334E+04  0.12699999809E+01 0. -1.
       -4    1    3    3    0  502  0.10998376110E+04  0.13918236155E+04 -0.41240759472E+03  0.18212351260E+04  0.12699999809E+01 0.  1.
</event>
<event>
 5   0  0.4071750E-09  0.3802203E+04  0.7818609E-02  0.8045682E-01
        1   -1    0    0  501    0  0.00000000000E+00  0.00000000000E+00  0.24708258781E+04  0.24708258781E+04  0.50400001928E-02 0.  1.
       -1   -1    0    0    0  501  0.00000000000E+00  0.00000000000E+00 -0.14627445669E+04  0.14627445669E+04  0.50400001928E-02 0. -1.
    10030    2    1    2    0    0  0.00000000000E+00  0.00000000000E+00  0.10080813112E+04  0.39335704451E+04  0.38022031135E+04 0.  0.
        3    1    3    3  502    0 -0.40243750344E+03 -0.32685484681E+03 -0.13881960212E+04  0.14818496005E+04  0.10100000352E+00 0. -1.
       -3    1    3    3    0  502  0.40243750344E+03  0.32685484681E+03  0.23962773325E+04  0.24517208445E+04  0.10100000352E+00 0.  1.
</event>
<event>
 5   0  0.1261152E-08  0.3791921E+04  0.7818609E-02  0.8047891E-01
        2   -1    0    0  501    0  0.00000000000E+00  0.00000000000E+00  0.23520880928E+04  0.23520880928E+04  0.25500000920E-02 0. -1.
       -2   -1    0    0    0  501  0.00000000000E+00  0.00000000000E+00 -0.15282871112E+04  0.15282871112E+04  0.25500000920E-02 0.  1.
    10030    2    1    2    0    0  0.00000000000E+00  0.00000000000E+00  0.82380098161E+03  0.38803752039E+04  0.37919208412E+04 0.  0.
        2    1    3    3  502    0 -0.19918754698E+02 -0.91878162863E+02 -0.15259004335E+04  0.15287938012E+04  0.25500000920E-02 0.  1.
       -2    1    3    3    0  502  0.19918754698E+02  0.91878162863E+02  0.23497014151E+04  0.23515814028E+04  0.25500000920E-02 0. -1.
</event>
<event>
 5   0  0.4071750E-09  0.3800174E+04  0.7818609E-02  0.8046118E-01
       -1   -1    0    0    0  501  0.00000000000E+00  0.00000000000E+00  0.14817383946E+04  0.14817383946E+04  0.50400001928E-02 0. -1.
        1   -1    0    0  501    0  0.00000000000E+00  0.00000000000E+00 -0.24365500051E+04  0.24365500051E+04  0.50400001928E-02 0.  1.
    10030    2    1    2    0    0  0.00000000000E+00  0.00000000000E+00 -0.95481161055E+03  0.39182883997E+04  0.38001735187E+04 0.  0.
        3    1    3    3  502    0 -0.16300837699E+04 -0.44919140978E+03  0.41636022725E+03  0.17413505875E+04  0.10100000352E+00 0.  1.
       -3    1    3    3    0  502  0.16300837699E+04  0.44919140978E+03 -0.13711718378E+04  0.21769378123E+04  0.10100000352E+00 0. -1.
</event>
<event>
 5   0  0.4071750E-09  0.3795349E+04  0.7818609E-02  0.8047154E-01
       -1   -1    0    0    0  501  0.00000000000E+00  0.00000000000E+00  0.17042111771E+04  0.17042111771E+04  0.50400001928E-02 0.  1.
        1   -1    0    0  501    0  0.00000000000E+00  0.00000000000E+00 -0.21130996781E+04  0.21130996781E+04  0.50400001928E-02 0. -1.
    10030    2    1    2    0    0  0.00000000000E+00  0.00000000000E+00 -0.40888850098E+03  0.38173108552E+04  0.37953487797E+04 0.  0.
        1    1    3    3  502    0 -0.18887049500E+04  0.26918222867E+02 -0.38780968352E+03  0.19282964838E+04  0.50400001928E-02 0. -1.
       -1    1    3    3    0  502  0.18887049500E+04 -0.26918222867E+02 -0.21078817455E+02  0.18890143714E+04  0.50400001928E-02 0.  1.
</event>
<event>
 5   0  0.1293993E-08  0.3793766E+04  0.7818609E-02  0.8047494E-01
       -2   -1    0    0    0  501  0.00000000000E+00  0.00000000000E+00  0.17620592231E+04  0.17620592231E+04  0.25500000920E-02 0.  1.
        2   -1    0    0  501    0  0.00000000000E+00  0.00000000000E+00 -0.20420229672E+04  0.20420229672E+04  0.25500000920E-02 0. -1.
    10030    2    1    2    0    0  0.00000000000E+00  0.00000000000E+00 -0.27996374407E+03  0.38040821903E+04  0.37937661516E+04 0.  0.
        5    1    3    3  502    0  0.66131169219E+03  0.15026131052E+04  0.81284622642E+03  0.18319171313E+04  0.46999998093E+01 0.  1.
       -5    1    3    3    0  502 -0.66131169219E+03 -0.15026131052E+04 -0.10928099705E+04  0.19721650590E+04  0.46999998093E+01 0. -1.
</event>
<event>
 5   0  0.4071750E-09  0.3800478E+04  0.7818609E-02  0.8046052E-01
        4   -1    0    0  501    0  0.00000000000E+00  0.00000000000E+00  0.17798536489E+04  0.17798541020E+04  0.12699999809E+01 0. -1.
       -4   -1    0    0    0  501  0.00000000000E+00  0.00000000000E+00 -0.20287655203E+04  0.20287659178E+04  0.12699999809E+01 0.  1.
    10030    2    1    2    0    0  0.00000000000E+00  0.00000000000E+00 -0.24891187146E+03  0.38086200198E+04  0.38004775141E+04 0.  0.
        2    1    3    3  502    0  0.11223286129E+04 -0.75402373568E+03  0.12135953363E+04  0.18168618411E+04  0.25500000920E-02 0. -1.
       -2    1    3    3    0  502 -0.11223286129E+04  0.75402373568E+03 -0.14625072078E+04  0.19917581786E+04  0.25500000920E-02 0.  1.
</event>
<event>
 5   0  0.4071750E-09  0.3803155E+04  0.7818609E-02  0.8045478E-01
        1   -1    0    0  501    0  0.00000000000E+00  0.00000000000E+00  0.15338761163E+04  0.15338761163E+04  0.50400001928E-02 0.  1.
       -1   -1    0    0    0  501  0.00000000000E+00  0.00000000000E+00 -0.23574243647E+04  0.23574243647E+04  0.50400001928E-02 0. -1.
    10030    2    1    2    0    0  0.00000000000E+00  0.00000000000E+00 -0.82354824833E+03  0.38913004810E+04  0.38031549687E+04 0.  0.
        5    1    3    3  502    0 -0.10422564695E+04 -0.15589240378E+04 -0.73441109236E+03  0.20139325824E+04  0.46999998093E+01 0. -1.
       -5    1    3    3    0  502  0.10422564695E+04  0.15589240378E+04 -0.89137155975E+02  0.18773678986E+04  0.46999998093E+01 0.  1.
</event>
<event>
 5   0  0.4071750E-09  0.3788918E+04  0.7818609E-02  0.8048537E-01
       -1   -1    0    0    0  501  0.00000000000E+00  0.00000000000E+00  0.11957276252E+04  0.11957276252E+04  0.50400001928E-02 0.  1.
        1   -1    0    0  501    0  0.00000000000E+00  0.00000000000E+00 -0.30014984461E+04  0.30014984461E+04  0.50400001928E-02 0. -1.
    10030    2    1    2    0    0  0.00000000000E+00  0.00000000000E+00 -0.18057708209E+04  0.41972260714E+04  0.37889178451E+04 0.  0.
        4    1    3    3  502    0  0.10184024415E+03 -0.16341369372E+04  0.15280712638E+03  0.16444228762E+04  0.12699999809E+01 0.  1.
       -4    1    3    3    0  502 -0.10184024415E+03  0.16341369372E+04 -0.19585779473E+04  0.25528031952E+04  0.12699999809E+01 0. -1.
</event>
<event>
 5   0  0.4071750E-09  0.3803367E+04  0.7818609E-02  0.8045433E-01
        1   -1    0    0  501    0  0.00000000000E+00  0.00000000000E+00  0.17036613749E+04  0.17036613749E+04  0.50400001928E-02 0.  1.
       -1   -1    0    0    0  501  0.00000000000E+00  0.00000000000E+00 -0.21227223126E+04  0.21227223126E+04  0.50400001928E-02 0. -1.
    10030    2    1    2    0    0  0.00000000000E+00  0.00000000000E+00 -0.41906093773E+03  0.38263836875E+04  0.38033669366E+04 0.  0.
        4    1    3    3  502    0  0.86729710003E+03  0.36075067718E+03 -0.18730341313E+04  0.20953767634E+04  0.12699999809E+01 0. -1.
       -4    1    3    3    0  502 -0.86729710003E+03 -0.36075067718E+03  0.14539731936E+04  0.17310069241E+04  0.12699999809E+01 0.  1.
</event>
<event>
 5   0  0.1264013E-08  0.3800628E+04  0.7818609E-02  0.8046020E-01
       -2   -1    0    0    0  501  0.00000000000E+00  0.00000000000E+00  0.21766459303E+04  0.21766459303E+04  0.25500000920E-02 0.  1.
        2   -1    0    0  501    0  0.00000000000E+00  0.00000000000E+00 -0.16590632816E+04  0.16590632816E+04  0.25500000920E-02 0. -1.
    10030    2    1    2    0    0  0.00000000000E+00  0.00000000000E+00  0.51758264867E+03  0.38357092119E+04  0.38006280218E+04 0.  0.
        4    1    3    3  502    0  0.17057462586E+04  0.79841513641E+03  0.51441704129E+03  0.19523482102E+04  0.12699999809E+01 0.  1.
       -4    1    3    3    0  502 -0.17057462586E+04 -0.79841513641E+03  0.31656073828E+01  0.18833610017E+04  0.12699999809E+01 0. -1.
</event>
<event>
 5   0  0.4071750E-09  0.3798039E+04  0.7818609E-02  0.8046576E-01
        1   -1    0    0  501    0  0.00000000000E+00  0.00000000000E+00  0.18230777359E+04  0.18230777359E+04  0.50400001928E-02 0. -1.
       -1   -1    0    0    0  501  0.00000000000E+00  0.00000000000E+00 -0.19781243974E+04  0.19781243975E+04  0.50400001928E-02 0.  1.
    10030    2    1    2    0    0  0.00000000000E+00  0.00000000000E+00 -0.15504666153E+03  0.38012021334E+04  0.37980387296E+04 0.  0.
        3    1    3    3  502    0  0.16789691107E+04  0.50139787528E+02  0.80911705566E+03  0.18644360255E+04  0.10100000352E+00 0. -1.
       -3    1    3    3    0  502 -0.16789691107E+04 -0.50139787528E+02 -0.96416371719E+03  0.19367661079E+04  0.10100000352E+00 0.  1.
</event>
<event>
 5   0  0.1261152E-08  0.3792436E+04  0.7818609E-02  0.8047780E-01
        2   -1    0    0  501    0  0.00000000000E+00  0.00000000000E+00  0.19281488304E+04  0.19281488304E+04  0.25500000920E-02 0.  1.
       -2   -1    0    0    0  501  0.00000000000E+00  0.00000000000E+00 -0.18648155287E+04  0.18648155287E+04  0.25500000920E-02 0. -1.
    10030    2    1    2    0    0  0.00000000000E+00  0.00000000000E+00  0.63333301701E+02  0.37929643591E+04  0.37924355660E+04 0.  0.
        2    1    3    3  502    0  0.32714731272E+03  0.16075706780E+04  0.98276351137E+03  0.19123631894E+04  0.25500000920E-02 0.  1.
       -2    1    3    3    0  502 -0.32714731272E+03 -0.16075706780E+04 -0.91943020967E+03  0.18806011697E+04  0.25500000920E-02 0. -1.
</event>
<event>
 5   0  0.1293993E-08  0.3800828E+04  0.7818609E-02  0.8045977E-01
       -2   -1    0    0    0  501  0.00000000000E+00  0.00000000000E+00  0.20558864313E+04  0.20558864313E+04  0.25500000920E-02 0.  1.
        2   -1    0    0  501    0  0.00000000000E+00  0.00000000000E+00 -0.17566991559E+04  0.17566991559E+04  0.25500000920E-02 0. -1.
    10030    2    1    2    0    0  0.00000000000E+00  0.00000000000E+00  0.29918727539E+03  0.38125855871E+04  0.38008283089E+04 0.  0.
        5    1    3    3  502    0  0.10946316373E+04 -0.81326459070E+03  0.14772945056E+04  0.20104822461E+04  0.46999998093E+01 0.  1.
       -5    1    3    3    0  502 -0.10946316373E+04  0.81326459070E+03 -0.11781072302E+04  0.18021033410E+04  0.46999998093E+01 0. -1.
</event>
<event>
 5   0  0.1305088E-08  0.3799480E+04  0.7818609E-02  0.8046267E-01
        2   -1    0    0  501    0  0.00000000000E+00  0.00000000000E+00  0.27375335976E+04  0.27375335976E+04  0.25500000920E-02 0.  1.
       -2   -1    0    0    0  501  0.00000000000E+00  0.00000000000E+00 -0.13183442011E+04  0.13183442011E+04  0.25500000920E-02 0. -1.
    10030    2    1    2    0    0  0.00000000000E+00  0.00000000000E+00  0.14191893965E+04  0.40558777986E+04  0.37994797242E+04 0.  0.
        3    1    3    3  502    0  0.10524348655E+04  0.14245405320E+03 -0.97185080924E+03  0.14395854643E+04  0.10100000352E+00 0. -1.
       -3    1    3    3    0  502 -0.10524348655E+04 -0.14245405320E+03  0.23910402057E+04  0.26162923344E+04  0.10100000352E+00 0.  1.
</event>
<event>
 5   0  0.4071750E-09  0.3795127E+04  0.7818609E-02  0.8047201E-01
        1   -1    0    0  501    0  0.00000000000E+00  0.00000000000E+00  0.20894923449E+04  0.20894923449E+04  0.50400001928E-02 0.  1.
       -1   -1    0    0    0  501  0.00000000000E+00  0.00000000000E+00 -0.17232642763E+04  0.17232642763E+04  0.50400001928E-02 0. -1.
    10030    2    1    2    0    0  0.00000000000E+00  0.00000000000E+00  0.36622806867E+03  0.38127566212E+04  0.37951271460E+04 0.  0.
        2    1    3    3  502    0 -0.11133320900E+04  0.37635023511E+03 -0.13136387664E+04  0.17626101812E+04  0.25500000920E-02 0. -1.
       -2    1    3    3    0  502  0.11133320900E+04 -0.37635023511E+03  0.16798668351E+04  0.20501464401E+04  0.25500000920E-02 0.  1.
</event>
<event>
 5   0  0.1305088E-08  0.3801125E+04  0.7818609E-02  0.8045914E-01
       -2   -1    0    0    0  501  0.00000000000E+00  0.00000000000E+00  0.12637294623E+04  0.12637294623E+04  0.25500000920E-02 0. -1.
        2   -1    0    0  501    0  0.00000000000E+00  0.00000000000E+00 -0.28583151494E+04  0.28583151494E+04  0.25500000920E-02 0.  1.
    10030    2    1    2    0    0  0.00000000000E+00  0.00000000000E+00 -0.15945856871E+04  0.41220446117E+04  0.38011246056E+04 0.  0.
        3    1    3    3  502    0  0.64563370376E+03 -0.17716374638E+04 -0.10552746801E+04  0.21608208725E+04  0.10100000352E+00 0. -1.
       -3    1    3    3    0  502 -0.64563370376E+03  0.17716374638E+04 -0.53931100698E+03  0.19612237392E+04  0.10100000352E+00 0.  1.
</event>
<event>
 5   0  0.4071750E-09  0.3804937E+04  0.7818609E-02  0.8045096E-01
        1   -1    0    0  501    0  0.00000000000E+00  0.00000000000E+00  0.19781899974E+04  0.19781899974E+04  0.50400001928E-02 0.  1.
       -1   -1    0    0    0  501  0.00000000000E+00  0.00000000000E+00 -0.18296454261E+04  0.18296454261E+04  0.50400001928E-02 0. -1.
    10030    2    1    2    0    0  0.00000000000E+00  0.00000000000E+00  0.14854457130E+03  0.38078354234E+04  0.38049369406E+04 0.  0.
        5    1    3    3  502    0 -0.41322613274E+03 -0.18546425002E+04 -0.20190032628E+02  0.19002327141E+04  0.46999998093E+01 0. -1.
       -5    1    3    3    0  502  0.41322613274E+03  0.18546425002E+04  0.16873460393E+03  0.19076027094E+04  0.46999998093E+01 0.  1.
</event>
<event>
 5   0  0.4071750E-09  0.3797773E+04  0.7818609E-02  0.8046633E-01
       -1   -1    0    0    0  501  0.00000000000E+00  0.00000000000E+00  0.12994193445E+04  0.12994193445E+04  0.50400001928E-02 0. -1.
        1   -1    0    0  501    0  0.00000000000E+00  0.00000000000E+00 -0.27749093446E+04  0.27749093446E+04  0.50400001928E-02 0.  1.
    10030    2    1    2    0    0  0.00000000000E+00  0.00000000000E+00 -0.14754900001E+04  0.40743286891E+04  0.37977734960E+04 0.  0.
        3    1    3    3  502    0  0.91172870093E+03  0.32292824928E+03  0.10153363496E+04  0.14022980394E+04  0.10100000352E+00 0. -1.
       -3    1    3    3    0  502 -0.91172870093E+03 -0.32292824928E+03 -0.24908263497E+04  0.26720306497E+04  0.10100000352E+00 0.  1.
</event>
<event>
 5   0  0.4071750E-09  0.3817382E+04  0.7818609E-02  0.8042435E-01
        1   -1    0    0  501    0  0.00000000000E+00  0.00000000000E+00  0.20309189458E+04  0.20309189459E+04  0.50400001928E-02 0. -1.
       -1   -1    0    0    0  501  0.00000000000E+00  0.00000000000E+00 -0.17938196086E+04  0.17938196086E+04  0.50400001928E-02 0.  1.
    10030    2    1    2    0    0  0.00000000000E+00  0.00000000000E+00  0.23709933729E+03  0.38247385544E+04  0.38173824689E+04 0.  0.
        1    1    3    3  502    0  0.16294311623E+04  0.81944252982E+03  0.68227964991E+03  0.19473154580E+04  0.50400001928E-02 0. -1.
       -1    1    3    3    0  502 -0.16294311623E+04 -0.81944252982E+03 -0.44518031262E+03  0.18774230964E+04  0.50400001928E-02 0.  1.
</event>
<event>
 5   0  0.1264013E-08  0.3800094E+04  0.7818609E-02  0.8046135E-01
       -2   -1    0    0    0  501  0.00000000000E+00  0.00000000000E+00  0.14627785702E+04  0.14627785702E+04  0.25500000920E-02 0. -1.
        2   -1    0    0  501    0  0.00000000000E+00  0.00000000000E+00 -0.24680285071E+04  0.24680285071E+04  0.25500000920E-02 0.  1.
    10030    2    1    2    0    0  0.00000000000E+00  0.00000000000E+00 -0.10052499370E+04  0.39308070773E+04  0.38000943203E+04 0.  0.
        4    1    3    3  502    0  0.40786602102E+03 -0.90805218557E+03  0.11714580896E+04  0.15372797830E+04  0.12699999809E+01 0. -1.
       -4    1    3    3    0  502 -0.40786602102E+03  0.90805218557E+03 -0.21767080265E+04  0.23935272943E+04  0.12699999809E+01 0.  1.
</event>
<event>
 5   0  0.4071750E-09  0.3800264E+04  0.7818609E-02  0.8046098E-01
        1   -1    0    0  501    0  0.00000000000E+00  0.00000000000E+00  0.21322028731E+04  0.21322028731E+04  0.50400001928E-02 0. -1.
       -1   -1    0    0    0  501  0.00000000000E+00  0.00000000000E+00 -0.16933199243E+04  0.16933199243E+04  0.50400001928E-02 0.  1.
    10030    2    1    2    0    0  0.00000000000E+00  0.00000000000E+00  0.43888294882E+03  0.38255227974E+04  0.38002639949E+04 0.  0.
        4    1    3    3  502    0  0.18146869801E+04 -0.56262069708E+03  0.18976485067E+03  0.19093567492E+04  0.12699999809E+01 0.  1.
       -4    1    3    3    0  502 -0.18146869801E+04  0.56262069708E+03  0.24911809815E+03  0.19161660482E+04  0.12699999809E+01 0. -1.
</event>
<event>
 5   0  0.1293993E-08  0.3798066E+04  0.7818609E-02  0.8046570E-01
       -2   -1    0    0    0  501  0.00000000000E+00  0.00000000000E+00  0.17343219098E+04  0.17343219098E+04  0.25500000920E-02 0. -1.
        2   -1    0    0  501    0  0.00000000000E+00  0.00000000000E+00 -0.20793866239E+04  0.20793866239E+04  0.25500000920E-02 0.  1.
    10030    2    1    2    0    0  0.00000000000E+00  0.00000000000E+00 -0.34506471407E+03  0.38137085338E+04  0.37980657082E+04 0.  0.
        5    1    3    3  502    0  0.15932809461E+03  0.41506924189E+03 -0.20263854824E+04  0.20745910756E+04  0.46999998093E+01 0.  1.
       -5    1    3    3    0  502 -0.15932809461E+03 -0.41506924189E+03  0.16813207684E+04  0.17391174582E+04  0.46999998093E+01 0. -1.
</event>
<event>
 5   0  0.4071750E-09  0.3800114E+04  0.7818609E-02  0.8046130E-01
       -1   -1    0    0    0  501  0.00000000000E+00  0.00000000000E+00  0.24819814745E+04  0.24819814745E+04  0.50400001928E-02 0.  1.
        1   -1    0    0  501    0  0.00000000000E+00  0.00000000000E+00 -0.14545703376E+04  0.14545703376E+04  0.50400001928E-02 0. -1.
    10030    2    1    2    0    0  0.00000000000E+00  0.00000000000E+00  0.10274111370E+04  0.39365518121E+04  0.38001140147E+04 0.  0.
        5    1    3    3  502    0  0.18589743744E+04 -0.49110692622E+02  0.10984003537E+03  0.18628699654E+04  0.46999998093E+01 0. -1.
       -5    1    3    3    0  502 -0.18589743744E+04  0.49110692622E+02  0.91757110161E+03  0.20736818467E+04  0.46999998093E+01 0.  1.
</event>
<event>
 5   0  0.1261152E-08  0.3795300E+04  0.7818609E-02  0.8047164E-01
        2   -1    0    0  501    0  0.00000000000E+00  0.00000000000E+00  0.17137098403E+04  0.17137098403E+04  0.25500000920E-02 0.  1.
       -2   -1    0    0    0  501  0.00000000000E+00  0.00000000000E+00 -0.21013330186E+04  0.21013330186E+04  0.25500000920E-02 0. -1.
    10030    2    1    2    0    0  0.00000000000E+00  0.00000000000E+00 -0.38762317834E+03  0.38150428589E+04  0.37952997625E+04 0.  0.
        2    1    3    3  502    0  0.43648390961E+03  0.13772126651E+04 -0.14305949495E+04  0.20331834246E+04  0.25500000920E-02 0. -1.
       -2    1    3    3    0  502 -0.43648390961E+03 -0.13772126651E+04  0.10429717712E+04  0.17818594344E+04  0.25500000920E-02 0.  1.
</event>
<event>
 5   0  0.1264013E-08  0.3799870E+04  0.7818609E-02  0.8046183E-01
        2   -1    0    0  501    0  0.00000000000E+00  0.00000000000E+00  0.23157582316E+04  0.23157582316E+04  0.25500000920E-02 0.  1.
       -2   -1    0    0    0  501  0.00000000000E+00  0.00000000000E+00 -0.15587779018E+04  0.15587779018E+04  0.25500000920E-02 0. -1.
    10030    2    1    2    0    0  0.00000000000E+00  0.00000000000E+00  0.75698032973E+03  0.38745361334E+04  0.37998698701E+04 0.  0.
        4    1    3    3  502    0  0.27712262649E+03  0.10129552354E+04  0.19929134309E+04  0.22526830258E+04  0.12699999809E+01 0.  1.
       -4    1    3    3    0  502 -0.27712262649E+03 -0.10129552354E+04 -0.12359331011E+04  0.16218531076E+04  0.12699999809E+01 0. -1.
</event>
<event>
 5   0  0.1261152E-08  0.3798770E+04  0.7818609E-02  0.8046419E-01
       -2   -1    0    0    0  501  0.00000000000E+00  0.00000000000E+00  0.33783571401E+04  0.33783571401E+04  0.25500000920E-02 0. -1.
        2   -1    0    0  501    0  0.00000000000E+00  0.00000000000E+00 -0.10678750503E+04  0.10678750503E+04  0.25500000920E-02 0.  1.
    10030    2    1    2    0    0  0.00000000000E+00  0.00000000000E+00  0.23104820898E+04  0.44462321904E+04  0.37987699592E+04 0.  0.
        2    1    3    3  502    0 -0.15430899433E+04  0.94225377918E+03  0.47407460362E+03  0.18691483321E+04  0.25500000920E-02 0.  1.
       -2    1    3    3    0  502  0.15430899433E+04 -0.94225377918E+03  0.18364074862E+04  0.25770838583E+04  0.25500000920E-02 0. -1.
</event>
<event>
 5   0  0.4071750E-09  0.3798884E+04  0.7818609E-02  0.8046394E-01
        1   -1    0    0  501    0  0.00000000000E+00  0.00000000000E+00  0.13045515387E+04  0.13045515387E+04  0.50400001928E-02 0. -1.
       -1   -1    0    0    0  501  0.00000000000E+00  0.00000000000E+00 -0.27656090810E+04  0.27656090810E+04  0.50400001928E-02 0.  1.
    10030    2    1    2    0    0  0.00000000000E+00  0.00000000000E+00 -0.14610575423E+04  0.40701606197E+04  0.37988838267E+04 0.  0.
        4    1    3    3  502    0 -0.18856179576E+03  0.15038637320E+04  0.49609078538E+03  0.15947631032E+04  0.12699999809E+01 0. -1.
       -4    1    3    3    0  502  0.18856179576E+03 -0.15038637320E+04 -0.19571483276E+04  0.24753975165E+04  0.12699999809E+01 0.  1.
</event>
<event>
 5   0  0.1293993E-08  0.3801487E+04  0.7818609E-02  0.8045836E-01
       -2   -1    0    0    0  501  0.00000000000E+00  0.00000000000E+00  0.31594767777E+04  0.31594767777E+04  0.25500000920E-02 0.  1.
        2   -1    0    0  501    0  0.00000000000E+00  0.00000000000E+00 -0.11434885432E+04  0.11434885432E+04  0.25500000920E-02 0. -1.
    10030    2    1    2    0    0  0.00000000000E+00  0.00000000000E+00  0.20159882345E+04  0.43029653209E+04  0.38014868132E+04 0.  0.
        5    1    3    3  502    0  0.24827731474E+03 -0.32294241564E+03  0.31094816041E+04  0.31360534698E+04  0.46999998093E+01 0.  1.
       -5    1    3    3    0  502 -0.24827731474E+03  0.32294241564E+03 -0.10934933697E+04  0.11669118511E+04  0.46999998093E+01 0. -1.
</event>
<event>
 5   0  0.4071750E-09  0.3801800E+04  0.7818609E-02  0.8045769E-01
        1   -1    0    0  501    0  0.00000000000E+00  0.00000000000E+00  0.18954836013E+04  0.18954836013E+04  0.50400001928E-02 0. -1.
       -1   -1    0    0    0  501  0.00000000000E+00  0.00000000000E+00 -0.19063318060E+04  0.19063318060E+04  0.50400001928E-02 0.  1.
    10030    2    1    2    0    0  0.00000000000E+00  0.00000000000E+00 -0.10848204650E+02  0.38018154073E+04  0.38017999300E+04 0.  0.
        2    1    3    3  502    0 -0.13465562482E+04  0.13379059212E+04  0.95644075607E+02  0.19006193129E+04  0.25500000920E-02 0. -1.
       -2    1    3    3    0  502  0.13465562482E+04 -0.13379059212E+04 -0.10649228026E+03  0.19011960944E+04  0.25500000920E-02 0.  1.
</event>
<event>
 5   0  0.4071750E-09  0.3800287E+04  0.7818609E-02  0.8046093E-01
        1   -1    0    0  501    0  0.00000000000E+00  0.00000000000E+00  0.18911688745E+04  0.18911688745E+04  0.50400001928E-02 0. -1.
       -1   -1    0    0    0  501  0.00000000000E+00  0.00000000000E+00 -0.19091611868E+04  0.19091611869E+04  0.50400001928E-02 0.  1.
    10030    2    1    2    0    0  0.00000000000E+00  0.00000000000E+00 -0.17992312309E+02  0.38003300614E+04  0.38002874697E+04 0.  0.
        1    1    3    3  502    0  0.30337109063E+03 -0.18057940382E+04 -0.51656473342E+03  0.19025680673E+04  0.50400001928E-02 0.  1.
       -1    1    3    3    0  502 -0.30337109063E+03  0.18057940382E+04  0.49857242111E+03  0.18977619941E+04  0.50400001928E-02 0. -1.
</event>
<event>
 5   0  0.4071750E-09  0.3797851E+04  0.7818609E-02  0.8046616E-01
        1   -1    0    0  501    0  0.00000000000E+00  0.00000000000E+00  0.12148849456E+04  0.12148849457E+04  0.50400001928E-02 0.  1.
       -1   -1    0    0    0  501  0.00000000000E+00  0.00000000000E+00 -0.29681143406E+04  0.29681143406E+04  0.50400001928E-02 0. -1.
    10030    2    1    2    0    0  0.00000000000E+00  0.00000000000E+00 -0.17532293949E+04  0.41829992862E+04  0.37978506708E+04 0.  0.
        5    1    3    3  502    0 -0.14515032348E+03  0.34661971510E+03  0.11735160741E+04  0.12322239689E+04  0.46999998093E+01 0.  1.
       -5    1    3    3    0  502  0.14515032348E+03 -0.34661971510E+03 -0.29267454690E+04  0.29507753174E+04  0.46999998093E+01 0. -1.
</event>
<event>
 5   0  0.4071750E-09  0.3802709E+04  0.7818609E-02  0.8045574E-01
       -1   -1    0    0    0  501  0.00000000000E+00  0.00000000000E+00  0.12908975015E+04  0.12908975015E+04  0.50400001928E-02 0. -1.
        1   -1    0    0  501    0  0.00000000000E+00  0.00000000000E+00 -0.28004921114E+04  0.28004921114E+04  0.50400001928E-02 0.  1.
    10030    2    1    2    0    0  0.00000000000E+00  0.00000000000E+00 -0.15095946099E+04  0.40913896129E+04  0.38027086502E+04 0.  0.
        4    1    3    3  502    0 -0.18685981023E+04 -0.25762009893E+03 -0.49765671064E+03  0.19508179817E+04  0.12699999809E+01 0.  1.
       -4    1    3    3    0  502  0.18685981023E+04  0.25762009893E+03 -0.10119378993E+04  0.21405716312E+04  0.12699999809E+01 0. -1.
</event>
<event>
 5   0  0.1327249E-08  0.3799878E+04  0.7818609E-02  0.8046181E-01
       -2   -1    0    0    0  501  0.00000000000E+00  0.00000000000E+00  0.15401611642E+04  0.15401611642E+04  0.25500000920E-02 0. -1.
        2   -1    0    0  501    0  0.00000000000E+00  0.00000000000E+00 -0.23437600721E+04  0.23437600721E+04  0.25500000920E-02 0.  1.
    10030    2    1    2    0    0  0.00000000000E+00  0.00000000000E+00 -0.80359890789E+03  0.38839212363E+04  0.37998780198E+04 0.  0.
        1    1    3    3  502    0 -0.47297334658E+03  0.17520340837E+04 -0.97677205416E+03  0.20609247592E+04  0.50400001928E-02 0.  1.
       -1    1    3    3    0  502  0.47297334658E+03 -0.17520340837E+04  0.17317314627E+03  0.18229964771E+04  0.50400001928E-02 0. -1.
</event>
<event>
 5   0  0.4071750E-09  0.3799856E+04  0.7818609E-02  0.8046186E-01
       -1   -1    0    0    0  501  0.00000000000E+00  0.00000000000E+00  0.13333570709E+04  0.13333570709E+04  0.50400001928E-02 0.  1.
        1   -1    0    0  501    0  0.00000000000E+00  0.00000000000E+00 -0.27072459053E+04  0.27072459053E+04  0.50400001928E-02 0. -1.
    10030    2    1    2    0    0  0.00000000000E+00  0.00000000000E+00 -0.13738888344E+04  0.40406029763E+04  0.37998555081E+04 0.  0.
        1    1    3    3  502    0  0.10245278659E+04 -0.15418750463E+03 -0.23804199357E+04  0.25961182956E+04  0.50400001928E-02 0. -1.
       -1    1    3    3    0  502 -0.10245278659E+04  0.15418750463E+03  0.10065311013E+04  0.14444846806E+04  0.50400001928E-02 0.  1.
</event>
<event>
 5   0  0.1305088E-08  0.3800863E+04  0.7818609E-02  0.8045970E-01
       -2   -1    0    0    0  501  0.00000000000E+00  0.00000000000E+00  0.23067361047E+04  0.23067361047E+04  0.25500000920E-02 0.  1.
        2   -1    0    0  501    0  0.00000000000E+00  0.00000000000E+00 -0.15656923467E+04  0.15656923467E+04  0.25500000920E-02 0. -1.
    10030    2    1    2    0    0  0.00000000000E+00  0.00000000000E+00  0.74104375809E+03  0.38724284514E+04  0.38008625679E+04 0.  0.
        3    1    3    3  502    0  0.60064370439E+03 -0.17889730953E+04  0.59934244638E+03  0.19800022660E+04  0.10100000352E+00 0. -1.
       -3    1    3    3    0  502 -0.60064370439E+03  0.17889730953E+04  0.14170131171E+03  0.18924261854E+04  0.10100000352E+00 0.  1.
</event>
<event>
 5   0  0.1327249E-08  0.3786289E+04  0.7818609E-02  0.8049104E-01
       -2   -1    0    0    0  501  0.00000000000E+00  0.00000000000E+00  0.17319046223E+04  0.17319046223E+04  0.25500000920E-02 0. -1.
        2   -1    0    0  501    0  0.00000000000E+00  0.00000000000E+00 -0.20693959262E+04  0.20693959262E+04  0.25500000920E-02 0.  1.
    10030    2    1    2    0    0  0.00000000000E+00  0.00000000000E+00 -0.33749130390E+03  0.38013005484E+04  0.37862891436E+04 0.  0.
        1    1    3    3  502    0 -0.51633123199E+03 -0.43988912069E+03  0.16057163951E+04  0.17431080061E+04  0.50400001928E-02 0. -1.
       -1    1    3    3    0  502  0.51633123199E+03  0.43988912069E+03 -0.19432076990E+04  0.20581925423E+04  0.50400001928E-02 0.  1.
</event>
<event>
 5   0  0.1327249E-08  0.3799297E+04  0.7818609E-02  0.8046306E-01
        2   -1    0    0  501    0  0.00000000000E+00  0.00000000000E+00  0.21481364119E+04  0.21481364119E+04  0.25500000920E-02 0.  1.
       -2   -1    0    0    0  501  0.00000000000E+00  0.00000000000E+00 -0.16799049779E+04  0.16799049779E+04  0.25500000920E-02 0. -1.
    10030    2    1    2    0    0  0.00000000000E+00  0.00000000000E+00  0.46823143404E+03  0.38280413898E+04  0.37992973306E+04 0.  0.
        1    1    3    3  502    0 -0.11011361063E+03 -0.34308291263E+03  0.21133901497E+04  0.21438863816E+04  0.50400001928E-02 0.  1.
       -1    1    3    3    0  502  0.11011361063E+03  0.34308291263E+03 -0.16451587157E+04  0.16841550083E+04  0.50400001928E-02 0. -1.
</event>
<event>
 5   0  0.1293993E-08  0.3798310E+04  0.7818609E-02  0.8046518E-01
        2   -1    0    0  501    0  0.00000000000E+00  0.00000000000E+00  0.23574848558E+04  0.23574848558E+04  0.25500000920E-02 0. -1.
       -2   -1    0    0    0  501  0.00000000000E+00  0.00000000000E+00 -0.15299312827E+04  0.15299312827E+04  0.25500000920E-02 0.  1.
    10030    2    1    2    0    0  0.00000000000E+00  0.00000000000E+00  0.82755357309E+03  0.38874161385E+04  0.37983100607E+04 0.  0.
        5    1    3    3  502    0  0.18784221477E+04  0.21780313698E+03  0.59356737235E+03  0.19819819088E+04  0.46999998093E+01 0. -1.
       -5    1    3    3    0  502 -0.18784221477E+04 -0.21780313698E+03  0.23398620074E+03  0.19054342297E+04  0.46999998093E+01 0.  1.
</event>
<event>
 5   0  0.4071750E-09  0.3799012E+04  0.7818609E-02  0.8046367E-01
        1   -1    0    0  501    0  0.00000000000E+00  0.00000000000E+00  0.23318994039E+04  0.23318994039E+04  0.50400001928E-02 0.  1.
       -1   -1    0    0    0  501  0.00000000000E+00  0.00000000000E+00 -0.15472896749E+04  0.15472896749E+04  0.50400001928E-02 0. -1.
    10030    2    1    2    0    0  0.00000000000E+00  0.00000000000E+00  0.78460972909E+03  0.38791890788E+04  0.37990124351E+04 0.  0.
        5    1    3    3  502    0 -0.12209792503E+04  0.55095081558E+03  0.17674885136E+04  0.22177409376E+04  0.46999998093E+01 0.  1.
       -5    1    3    3    0  502  0.12209792503E+04 -0.55095081558E+03 -0.98287878447E+03  0.16614481412E+04  0.46999998093E+01 0. -1.
</event>
<event>
 5   0  0.1305088E-08  0.3801339E+04  0.7818609E-02  0.8045867E-01
       -2   -1    0    0    0  501  0.00000000000E+00  0.00000000000E+00  0.13339651015E+04  0.13339651015E+04  0.25500000920E-02 0.  1.
        2   -1    0    0  501    0  0.00000000000E+00  0.00000000000E+00 -0.27081259108E+04  0.27081259108E+04  0.25500000920E-02 0. -1.
    10030    2    1    2    0    0  0.00000000000E+00  0.00000000000E+00 -0.13741608093E+04  0.40420910124E+04  0.38013394774E+04 0.  0.
        3    1    3    3  502    0  0.72415505791E+03  0.17012732272E+04 -0.11552059543E+04  0.21801908055E+04  0.10100000352E+00 0.  1.
       -3    1    3    3    0  502 -0.72415505791E+03 -0.17012732272E+04 -0.21895485496E+03  0.18619002068E+04  0.10100000352E+00 0. -1.
</event>
<event>
 5   0  0.4071750E-09  0.3802756E+04  0.7818609E-02  0.8045564E-01
        1   -1    0    0  501    0  0.00000000000E+00  0.00000000000E+00  0.21303957018E+04  0.21303957018E+04  0.50400001928E-02 0. -1.
       -1   -1    0    0    0  501  0.00000000000E+00  0.00000000000E+00 -0.16969797501E+04  0.16969797501E+04  0.50400001928E-02 0.  1.
    10030    2    1    2    0    0  0.00000000000E+00  0.00000000000E+00  0.43341595167E+03  0.38273754519E+04  0.38027560351E+04 0.  0.
        2    1    3    3  502    0  0.18898584386E+04  0.95736562712E+02  0.40367380302E+03  0.19348599295E+04  0.25500000920E-02 0. -1.
       -2    1    3    3    0  502 -0.18898584386E+04 -0.95736562712E+02  0.29742148652E+02  0.18925155225E+04  0.25500000920E-02 0.  1.
</event>
<event>
 5   0  0.4071750E-09  0.3826912E+04  0.7818609E-02  0.8040404E-01
       -1   -1    0    0    0  501  0.00000000000E+00  0.00000000000E+00  0.25726034658E+04  0.25726034658E+04  0.50400001928E-02 0. -1.
        1   -1    0    0  501    0  0.00000000000E+00  0.00000000000E+00 -0.14231942757E+04  0.14231942757E+04  0.50400001928E-02 0.  1.
    10030    2    1    2    0    0  0.00000000000E+00  0.00000000000E+00  0.11494091901E+04  0.39957977416E+04  0.38269123462E+04 0.  0.
        1    1    3    3  502    0  0.13738852335E+04 -0.12961989369E+04  0.89418514286E+03  0.20897988871E+04  0.50400001928E-02 0.  1.
       -1    1    3    3    0  502 -0.13738852335E+04  0.12961989369E+04  0.25522404721E+03  0.19059988544E+04  0.50400001928E-02 0. -1.
</event>
<event>
 5   0  0.4071750E-09  0.3804117E+04  0.7818609E-02  0.8045272E-01
        1   -1    0    0  501    0  0.00000000000E+00  0.00000000000E+00  0.24747689787E+04  0.24747689787E+04  0.50400001928E-02 0. -1.
       -1   -1    0    0    0  501  0.00000000000E+00  0.00000000000E+00 -0.14618844324E+04  0.14618844324E+04  0.50400001928E-02 0.  1.
    10030    2    1    2    0    0  0.00000000000E+00  0.00000000000E+00  0.10128845463E+04  0.39366534112E+04  0.38041168457E+04 0.  0.
        3    1    3    3  502    0  0.88163829081E+02  0.18554031955E+04  0.82874724765E+02  0.18593445374E+04  0.10100000352E+00 0.  1.
       -3    1    3    3    0  502 -0.88163829081E+02 -0.18554031955E+04  0.93000982151E+03  0.20773088737E+04  0.10100000352E+00 0. -1.
</event>
<event>
 5   0  0.4071750E-09  0.3799917E+04  0.7818609E-02  0.8046173E-01
       -1   -1    0    0    0  501  0.00000000000E+00  0.00000000000E+00  0.14341988182E+04  0.14341988183E+04  0.50400001928E-02 0. -1.
        1   -1    0    0  501    0  0.00000000000E+00  0.00000000000E+00 -0.25169754315E+04  0.25169754315E+04  0.50400001928E-02 0.  1.
    10030    2    1    2    0    0  0.00000000000E+00  0.00000000000E+00 -0.10827766132E+04  0.39511742498E+04  0.37999174672E+04 0.  0.
        3    1    3    3  502    0  0.40667227561E+03 -0.15686380927E+04 -0.15727553164E+04  0.22582221107E+04  0.10100000352E+00 0.  1.
       -3    1    3    3    0  502 -0.40667227561E+03  0.15686380927E+04  0.48997870318E+03  0.16929521391E+04  0.10100000352E+00 0. -1.
</event>
<event>
 5   0  0.1261152E-08  0.3795894E+04  0.7818609E-02  0.8047037E-01
        2   -1    0    0  501    0  0.00000000000E+00  0.00000000000E+00  0.16895852634E+04  0.16895852634E+04  0.25500000920E-02 0. -1.
       -2   -1    0    0    0  501  0.00000000000E+00  0.00000000000E+00 -0.21320042572E+04  0.21320042572E+04  0.25500000920E-02 0.  1.
    10030    2    1    2    0    0  0.00000000000E+00  0.00000000000E+00 -0.44241899383E+03  0.38215895206E+04  0.37958940842E+04 0.  0.
        2    1    3    3  502    0  0.15163858238E+04 -0.98371276912E+03 -0.80399430194E+03  0.19782627774E+04  0.25500000920E-02 0.  1.
       -2    1    3    3    0  502 -0.15163858238E+04  0.98371276912E+03  0.36157530811E+03  0.18433267432E+04  0.25500000920E-02 0. -1.
</event>
<event>
 5   0  0.4071750E-09  0.3809124E+04  0.7818609E-02  0.8044200E-01
        1   -1    0    0  501    0  0.00000000000E+00  0.00000000000E+00  0.19516858118E+04  0.19516858118E+04  0.50400001928E-02 0.  1.
       -1   -1    0    0    0  501  0.00000000000E+00  0.00000000000E+00 -0.18585761578E+04  0.18585761578E+04  0.50400001928E-02 0. -1.
    10030    2    1    2    0    0  0.00000000000E+00  0.00000000000E+00  0.93109653972E+02  0.38102619696E+04  0.38091241604E+04 0.  0.
        5    1    3    3  502    0 -0.10502750709E+04  0.15190763363E+04  0.51216565636E+03  0.19165089067E+04  0.46999998093E+01 0.  1.
       -5    1    3    3    0  502  0.10502750709E+04 -0.15190763363E+04 -0.41905600239E+03  0.18937530629E+04  0.46999998093E+01 0. -1.
</event>
<event>
 5   0  0.1293993E-08  0.3799557E+04  0.7818609E-02  0.8046250E-01
       -2   -1    0    0    0  501  0.00000000000E+00  0.00000000000E+00  0.28275781720E+04  0.28275781720E+04  0.25500000920E-02 0.  1.
        2   -1    0    0  501    0  0.00000000000E+00  0.00000000000E+00 -0.12764133742E+04  0.12764133742E+04  0.25500000920E-02 0. -1.
    10030    2    1    2    0    0  0.00000000000E+00  0.00000000000E+00  0.15511647978E+04  0.41039915461E+04  0.37995571296E+04 0.  0.
        5    1    3    3  502    0 -0.78013900380E+03 -0.17189436708E+04  0.10066185427E+04  0.21393193285E+04  0.46999998093E+01 0.  1.
       -5    1    3    3    0  502  0.78013900380E+03  0.17189436708E+04  0.54454625508E+03  0.19646722176E+04  0.46999998093E+01 0. -1.
</event>
<event>
 5   0  0.4071750E-09  0.3801835E+04  0.7818609E-02  0.8045761E-01
        1   -1    0    0  501    0  0.00000000000E+00  0.00000000000E+00  0.18993678534E+04  0.18993678534E+04  0.50400001928E-02 0.  1.
       -1   -1    0    0    0  501  0.00000000000E+00  0.00000000000E+00 -0.19024686648E+04  0.19024686648E+04  0.50400001928E-02 0. -1.
    10030    2    1    2    0    0  0.00000000000E+00  0.00000000000E+00 -0.31008113984E+01  0.38018365181E+04  0.38018352536E+04 0.  0.
        2    1    3    3  502    0 -0.43426566486E+03 -0.16845960360E+04 -0.76773428835E+03  0.19015431654E+04  0.25500000920E-02 0. -1.
       -2    1    3    3    0  502  0.43426566486E+03  0.16845960360E+04  0.76463347695E+03  0.19002933527E+04  0.25500000920E-02 0.  1.
</event>
<event>
 5   0  0.4071750E-09  0.3799799E+04  0.7818609E-02  0.8046198E-01
        1   -1    0    0  501    0  0.00000000000E+00  0.00000000000E+00  0.16727725611E+04  0.16727725611E+04  0.50400001928E-02 0. -1.
       -1   -1    0    0    0  501  0.00000000000E+00  0.00000000000E+00 -0.21578660071E+04  0.21578660071E+04  0.50400001928E-02 0.  1.
    10030    2    1    2    0    0  0.00000000000E+00  0.00000000000E+00 -0.48509344602E+03  0.38306385682E+04  0.37997994932E+04 0.  0.
        2    1    3    3  502    0 -0.22324440984E+02 -0.13156365529E+04 -0.16241515987E+04  0.20902790090E+04  0.25500000920E-02 0.  1.
       -2    1    3    3    0  502  0.22324440984E+02  0.13156365529E+04  0.11390581527E+04  0.17403595591E+04  0.25500000920E-02 0. -1.
</event>
<event>
 5   0  0.4071750E-09  0.3796592E+04  0.7818609E-02  0.8046887E-01
       -1   -1    0    0    0  501  0.00000000000E+00  0.00000000000E+00  0.16219129921E+04  0.16219129921E+04  0.50400001928E-02 0.  1.
        1   -1    0    0  501    0  0.00000000000E+00  0.00000000000E+00 -0.22217759768E+04  0.22217759768E+04  0.50400001928E-02 0. -1.
    10030    2    1    2    0    0  0.00000000000E+00  0.00000000000E+00 -0.59986298472E+03  0.38436889689E+04  0.37965917991E+04 0.  0.
        1    1    3    3  502    0  0.30372545528E+03  0.10691049881E+04 -0.18579478739E+04  0.21649953649E+04  0.50400001928E-02 0. -1.
       -1    1    3    3    0  502 -0.30372545528E+03 -0.10691049881E+04  0.12580848892E+04  0.16786936040E+04  0.50400001928E-02 0.  1.
</event>
<event>
 5   0  0.4071750E-09  0.3802070E+04  0.7818609E-02  0.8045711E-01
        1   -1    0    0  501    0  0.00000000000E+00  0.00000000000E+00  0.29688855356E+04  0.29688855356E+04  0.50400001928E-02 0.  1.
       -1   -1    0    0    0  501  0.00000000000E+00  0.00000000000E+00 -0.12172698156E+04  0.12172698156E+04  0.50400001928E-02 0. -1.
    10030    2    1    2    0    0  0.00000000000E+00  0.00000000000E+00  0.17516157200E+04  0.41861553512E+04  0.38020703563E+04 0.  0.
        2    1    3    3  502    0  0.16359400773E+04 -0.49260627038E+03  0.17936741742E+04  0.24771410775E+04  0.25500000920E-02 0.  1.
       -2    1    3    3    0  502 -0.16359400773E+04  0.49260627038E+03 -0.42058454267E+02  0.17090142737E+04  0.25500000920E-02 0. -1.
</event>
<event>
 5   0  0.1327249E-08  0.3800686E+04  0.7818609E-02  0.8046008E-01
        2   -1    0    0  501    0  0.00000000000E+00  0.00000000000E+00  0.29475758705E+04  0.29475758705E+04  0.25500000920E-02 0. -1.
       -2   -1    0    0    0  501  0.00000000000E+00  0.00000000000E+00 -0.12251773043E+04  0.12251773043E+04  0.25500000920E-02 0.  1.
    10030    2    1    2    0    0  0.00000000000E+00  0.00000000000E+00  0.17223985662E+04  0.41727531748E+04  0.38006857588E+04 0.  0.
        1    1    3    3  502    0 -0.42815172773E+03  0.15602253126E+04 -0.23322405820E+03  0.16346285172E+04  0.50400001928E-02 0.  1.
       -1    1    3    3    0  502  0.42815172773E+03 -0.15602253126E+04  0.19556226244E+04  0.25381246575E+04  0.50400001928E-02 0. -1.
</event>
<event>
 5   0  0.1327249E-08  0.3801099E+04  0.7818609E-02  0.8045919E-01
       -2   -1    0    0    0  501  0.00000000000E+00  0.00000000000E+00  0.16009531152E+04  0.16009531152E+04  0.25500000920E-02 0.  1.
        2   -1    0    0  501    0  0.00000000000E+00  0.00000000000E+00 -0.22562116052E+04  0.22562116052E+04  0.25500000920E-02 0. -1.
    10030    2    1    2    0    0  0.00000000000E+00  0.00000000000E+00 -0.65525848996E+03  0.38571647204E+04  0.38010993136E+04 0.  0.
        1    1    3    3  502    0  0.99770332776E+03  0.15292332503E+04 -0.86278132025E+03  0.20194944591E+04  0.50400001928E-02 0. -1.
       -1    1    3    3    0  502 -0.99770332776E+03 -0.15292332503E+04  0.20752283029E+03  0.18376702612E+04  0.50400001928E-02 0.  1.
</event>
<event>
 5   0  0.4071750E-09  0.3800259E+04  0.7818609E-02  0.8046099E-01
        1   -1    0    0  501    0  0.00000000000E+00  0.00000000000E+00  0.15228390506E+04  0.15228390506E+04  0.50400001928E-02 0. -1.
       -1   -1    0    0    0  501  0.00000000000E+00  0.00000000000E+00 -0.23708949376E+04  0.23708949376E+04  0.50400001928E-02 0.  1.
    10030    2    1    2    0    0  0.00000000000E+00  0.00000000000E+00 -0.84805588701E+03  0.38937339881E+04  0.38002586205E+04 0.  0.
        4    1    3    3  502    0 -0.74756025037E+03 -0.16664503953E+03 -0.22057292180E+04  0.23349218174E+04  0.12699999809E+01 0.  1.
       -4    1    3    3    0  502  0.74756025037E+03  0.16664503953E+03  0.13576733310E+04  0.15588121708E+04  0.12699999809E+01 0. -1.
</event>
<event>
 5   0  0.1293993E-08  0.3799455E+04  0.7818609E-02  0.8046272E-01
       -2   -1    0    0    0  501  0.00000000000E+00  0.00000000000E+00  0.24911764615E+04  0.24911764615E+04  0.25500000920E-02 0. -1.
        2   -1    0    0  501    0  0.00000000000E+00  0.00000000000E+00 -0.14486986725E+04  0.14486986725E+04  0.25500000920E-02 0.  1.
    10030    2    1    2    0    0  0.00000000000E+00  0.00000000000E+00  0.10424777891E+04  0.39398751340E+04  0.37994547150E+04 0.  0.
        5    1    3    3  502    0 -0.13744900875E+04 -0.45003145457E+03  0.17985046297E+04  0.23078978105E+04  0.46999998093E+01 0. -1.
       -5    1    3    3    0  502  0.13744900875E+04  0.45003145457E+03 -0.75602684065E+03  0.16319773235E+04  0.46999998093E+01 0.  1.
</event>
<event>
 5   0  0.4071750E-09  0.3799711E+04  0.7818609E-02  0.8046217E-01
       -1   -1    0    0    0  501  0.00000000000E+00  0.00000000000E+00  0.17389988010E+04  0.17389988010E+04  0.50400001928E-02 0.  1.
        1   -1    0    0  501    0  0.00000000000E+00  0.00000000000E+00 -0.20755909459E+04  0.20755909459E+04  0.50400001928E-02 0. -1.
    10030    2    1    2    0    0  0.00000000000E+00  0.00000000000E+00 -0.33659214487E+03  0.38145897469E+04  0.37997106028E+04 0.  0.
        5    1    3    3  502    0 -0.15490146301E+04 -0.71990015849E+03  0.66666112682E+03  0.18336198381E+04  0.46999998093E+01 0. -1.
       -5    1    3    3    0  502  0.15490146301E+04  0.71990015849E+03 -0.10032532717E+04  0.19809699088E+04  0.46999998093E+01 0.  1.
</event>
<event>
 5   0  0.4071750E-09  0.3799141E+04  0.7818609E-02  0.8046339E-01
       -1   -1    0    0    0  501  0.00000000000E+00  0.00000000000E+00  0.18450165249E+04  0.18450165249E+04  0.50400001928E-02 0. -1.
        1   -1    0    0  501    0  0.00000000000E+00  0.00000000000E+00 -0.19557371468E+04  0.19557371468E+04  0.50400001928E-02 0.  1.
    10030    2    1    2    0    0  0.00000000000E+00  0.00000000000E+00 -0.11072062197E+03  0.38007536717E+04  0.37991406156E+04 0.  0.
        2    1    3    3  502    0 -0.73231774218E+03  0.75927847482E+03 -0.16357697170E+04  0.19464161027E+04  0.25500000920E-02 0.  1.
       -2    1    3    3    0  502  0.73231774218E+03 -0.75927847482E+03  0.15250490950E+04  0.18543375690E+04  0.25500000920E-02 0. -1.
</event>
<event>
 5   0  0.1293993E-08  0.3804696E+04  0.7818609E-02  0.8045148E-01
       -2   -1    0    0    0  501  0.00000000000E+00  0.00000000000E+00  0.28757472819E+04  0.28757472819E+04  0.25500000920E-02 0. -1.
        2   -1    0    0  501    0  0.00000000000E+00  0.00000000000E+00 -0.12584302268E+04  0.12584302268E+04  0.25500000920E-02 0.  1.
    10030    2    1    2    0    0  0.00000000000E+00  0.00000000000E+00  0.16173170551E+04  0.41341775087E+04  0.38046956799E+04 0.  0.
        5    1    3    3  502    0  0.68941668994E+03 -0.63478521927E+02  0.27339877106E+04  0.28202900182E+04  0.46999998093E+01 0. -1.
       -5    1    3    3    0  502 -0.68941668994E+03  0.63478521927E+02 -0.11166706554E+04  0.13138874905E+04  0.46999998093E+01 0.  1.
</event>
<event>
 5   0  0.1327249E-08  0.3796450E+04  0.7818609E-02  0.8046917E-01
        2   -1    0    0  501    0  0.00000000000E+00  0.00000000000E+00  0.25624924877E+04  0.25624924877E+04  0.25500000920E-02 0. -1.
       -2   -1    0    0    0  501  0.00000000000E+00  0.00000000000E+00 -0.14061535224E+04  0.14061535224E+04  0.25500000920E-02 0.  1.
    10030    2    1    2    0    0  0.00000000000E+00  0.00000000000E+00  0.11563389653E+04  0.39686460101E+04  0.37964498352E+04 0.  0.
        1    1    3    3  502    0 -0.12372294435E+04 -0.21863206629E+03  0.20656363759E+04  0.24177242013E+04  0.50400001928E-02 0. -1.
       -1    1    3    3    0  502  0.12372294435E+04  0.21863206629E+03 -0.90929741056E+03  0.15509218088E+04  0.50400001928E-02 0.  1.
</event>
<event>
 5   0  0.4071750E-09  0.3800017E+04  0.7818609E-02  0.8046151E-01
       -1   -1    0    0    0  501  0.00000000000E+00  0.00000000000E+00  0.21801310643E+04  0.21801310643E+04  0.50400001928E-02 0. -1.
        1   -1    0    0  501    0  0.00000000000E+00  0.00000000000E+00 -0.16558782956E+04  0.16558782956E+04  0.50400001928E-02 0.  1.
    10030    2    1    2    0    0  0.00000000000E+00  0.00000000000E+00  0.52425276872E+03  0.38360093599E+04  0.38000166900E+04 0.  0.
        2    1    3    3  502    0 -0.77297019163E+03 -0.15039808274E+04 -0.61244583022E+03  0.17984802310E+04  0.25500000920E-02 0.  1.
       -2    1    3    3    0  502  0.77297019163E+03  0.15039808274E+04  0.11366985989E+04  0.20375291289E+04  0.25500000920E-02 0. -1.
</event>
<event>
 5   0  0.4071750E-09  0.3805606E+04  0.7818609E-02  0.8044953E-01
       -3   -1    0    0    0  501  0.00000000000E+00  0.00000000000E+00  0.21922928702E+04  0.21922928726E+04  0.10100000352E+00 0. -1.
        3   -1    0    0  501    0  0.00000000000E+00  0.00000000000E+00 -0.16515395559E+04  0.16515395589E+04  0.10100000352E+00 0.  1.
    10030    2    1    2    0    0  0.00000000000E+00  0.00000000000E+00  0.54075331437E+03  0.38438324315E+04  0.38056055516E+04 0.  0.
        1    1    3    3  502    0 -0.75446700673E+03 -0.12695847618E+04 -0.94150568677E+03  0.17514276719E+04  0.50400001928E-02 0.  1.
       -1    1    3    3    0  502  0.75446700673E+03  0.12695847618E+04  0.14822590011E+04  0.20924047596E+04  0.50400001928E-02 0. -1.
</event>
<event>
 5   0  0.4071750E-09  0.3797126E+04  0.7818609E-02  0.8046772E-01
       -1   -1    0    0    0  501  0.00000000000E+00  0.00000000000E+00  0.19111824438E+04  0.19111824438E+04  0.50400001928E-02 0.  1.
        1   -1    0    0  501    0  0.00000000000E+00  0.00000000000E+00 -0.18860271688E+04  0.18860271688E+04  0.50400001928E-02 0. -1.
    10030    2    1    2    0    0  0.00000000000E+00  0.00000000000E+00  0.25155275006E+02  0.37972096126E+04  0.37971262890E+04 0.  0.
        5    1    3    3  502    0  0.23589003855E+03 -0.78786674997E+03 -0.16986413165E+04  0.18872685390E+04  0.46999998093E+01 0. -1.
       -5    1    3    3    0  502 -0.23589003855E+03  0.78786674997E+03  0.17237965915E+04  0.19099410737E+04  0.46999998093E+01 0.  1.
</event>
<event>
 5   0  0.4071750E-09  0.3799609E+04  0.7818609E-02  0.8046239E-01
       -1   -1    0    0    0  501  0.00000000000E+00  0.00000000000E+00  0.15024915277E+04  0.15024915277E+04  0.50400001928E-02 0. -1.
        1   -1    0    0  501    0  0.00000000000E+00  0.00000000000E+00 -0.24021807981E+04  0.24021807981E+04  0.50400001928E-02 0.  1.
    10030    2    1    2    0    0  0.00000000000E+00  0.00000000000E+00 -0.89968927048E+03  0.39046723258E+04  0.37996085573E+04 0.  0.
        3    1    3    3  502    0 -0.92027639345E+03  0.49203216591E+03 -0.20812719180E+04  0.23282390555E+04  0.10100000352E+00 0.  1.
       -3    1    3    3    0  502  0.92027639345E+03 -0.49203216591E+03  0.11815826475E+04  0.15764332703E+04  0.10100000352E+00 0. -1.
</event>
<event>
 5   0  0.4071750E-09  0.3801490E+04  0.7818609E-02  0.8045835E-01
        1   -1    0    0  501    0  0.00000000000E+00  0.00000000000E+00  0.18038588163E+04  0.18038588163E+04  0.50400001928E-02 0.  1.
       -1   -1    0    0    0  501  0.00000000000E+00  0.00000000000E+00 -0.20028354187E+04  0.20028354188E+04  0.50400001928E-02 0. -1.
    10030    2    1    2    0    0  0.00000000000E+00  0.00000000000E+00 -0.19897660245E+03  0.38066942351E+04  0.38014904065E+04 0.  0.
        5    1    3    3  502    0 -0.91612488494E+03  0.63511345851E+03  0.14421503541E+04  0.18227653836E+04  0.46999998093E+01 0.  1.
       -5    1    3    3    0  502  0.91612488494E+03 -0.63511345851E+03 -0.16411269565E+04  0.19839288514E+04  0.46999998093E+01 0. -1.
</event>
<event>
 5   0  0.4071750E-09  0.3799598E+04  0.7818609E-02  0.8046241E-01
       -1   -1    0    0    0  501  0.00000000000E+00  0.00000000000E+00  0.15541821301E+04  0.15541821301E+04  0.50400001928E-02 0.  1.
        1   -1    0    0  501    0  0.00000000000E+00  0.00000000000E+00 -0.23222732514E+04  0.23222732514E+04  0.50400001928E-02 0. -1.
    10030    2    1    2    0    0  0.00000000000E+00  0.00000000000E+00 -0.76809112132E+03  0.38764553816E+04  0.37995976569E+04 0.  0.
        4    1    3    3  502    0 -0.87461005663E+03  0.11402560051E+04  0.88371121396E+03  0.16870310106E+04  0.12699999809E+01 0.  1.
       -4    1    3    3    0  502  0.87461005663E+03 -0.11402560051E+04 -0.16518023353E+04  0.21894243709E+04  0.12699999809E+01 0. -1.
</event>
<event>
 5   0  0.4071750E-09  0.3800507E+04  0.7818609E-02  0.8046046E-01
       -1   -1    0    0    0  501  0.00000000000E+00  0.00000000000E+00  0.14136750705E+04  0.14136750705E+04  0.50400001928E-02 0.  1.
        1   -1    0    0  501    0  0.00000000000E+00  0.00000000000E+00 -0.25543088504E+04  0.25543088504E+04  0.50400001928E-02 0. -1.
    10030    2    1    2    0    0  0.00000000000E+00  0.00000000000E+00 -0.11406337799E+04  0.39679839209E+04  0.38005066737E+04 0.  0.
        5    1    3    3  502    0 -0.12047979409E+04 -0.11807432197E+04 -0.14836506539E+04  0.22465382218E+04  0.46999998093E+01 0. -1.
       -5    1    3    3    0  502  0.12047979409E+04  0.11807432197E+04  0.34301687401E+03  0.17214456991E+04  0.46999998093E+01 0.  1.
</event>
<event>
 5   0  0.1264013E-08  0.3801224E+04  0.7818609E-02  0.8045892E-01
       -2   -1    0    0    0  501  0.00000000000E+00  0.00000000000E+00  0.22716909377E+04  0.22716909377E+04  0.25500000920E-02 0.  1.
        2   -1    0    0  501    0  0.00000000000E+00  0.00000000000E+00 -0.15901486488E+04  0.15901486488E+04  0.25500000920E-02 0. -1.
    10030    2    1    2    0    0  0.00000000000E+00  0.00000000000E+00  0.68154228886E+03  0.38618395865E+04  0.38012241581E+04 0.  0.
        4    1    3    3  502    0 -0.11030551803E+04 -0.77993875595E+03  0.16989851281E+04  0.21706190988E+04  0.12699999809E+01 0.  1.
       -4    1    3    3    0  502  0.11030551803E+04  0.77993875595E+03 -0.10174428392E+04  0.16912204877E+04  0.12699999809E+01 0. -1.
</event>
<event>
 5   0  0.4071750E-09  0.3799748E+04  0.7818609E-02  0.8046209E-01
       -1   -1    0    0    0  501  0.00000000000E+00  0.00000000000E+00  0.16575143459E+04  0.16575143459E+04  0.50400001928E-02 0.  1.
        1   -1    0    0  501    0  0.00000000000E+00  0.00000000000E+00 -0.21776710565E+04  0.21776710565E+04  0.50400001928E-02 0. -1.
    10030    2    1    2    0    0  0.00000000000E+00  0.00000000000E+00 -0.52015671061E+03  0.38351854025E+04  0.37997478953E+04 0.  0.
        5    1    3    3  502    0  0.10865966378E+04 -0.55994021429E+03 -0.17280405065E+04  0.21166887771E+04  0.46999998093E+01 0. -1.
       -5    1    3    3    0  502 -0.10865966378E+04  0.55994021429E+03  0.12078837959E+04  0.17184966254E+04  0.46999998093E+01 0.  1.
</event>
<event>
 5   0  0.1305088E-08  0.3799293E+04  0.7818609E-02  0.8046307E-01
       -2   -1    0    0    0  501  0.00000000000E+00  0.00000000000E+00  0.14294801765E+04  0.14294801765E+04  0.25500000920E-02 0.  1.
        2   -1    0    0  501    0  0.00000000000E+00  0.00000000000E+00 -0.25244537511E+04  0.25244537511E+04  0.25500000920E-02 0. -1.
    10030    2    1    2    0    0  0.00000000000E+00  0.00000000000E+00 -0.10949735746E+04  0.39539339276E+04  0.37992928783E+04 0.  0.
        3    1    3    3  502    0 -0.90372393325E+03  0.10990845356E+04  0.76229140396E+03  0.16142465607E+04  0.10100000352E+00 0.  1.
       -3    1    3    3    0  502  0.90372393325E+03 -0.10990845356E+04 -0.18572649786E+04  0.23396873669E+04  0.10100000352E+00 0. -1.
</event>
<event>
 5   0  0.1305088E-08  0.3797823E+04  0.7818609E-02  0.8046622E-01
        2   -1    0    0  501    0  0.00000000000E+00  0.00000000000E+00  0.15478363943E+04  0.15478363944E+04  0.25500000920E-02 0.  1.
       -2   -1    0    0    0  501  0.00000000000E+00  0.00000000000E+00 -0.23296162359E+04  0.23296162359E+04  0.25500000920E-02 0. -1.
    10030    2    1    2    0    0  0.00000000000E+00  0.00000000000E+00 -0.78177984152E+03  0.38774526302E+04  0.37978229526E+04 0.  0.
        3    1    3    3  502    0 -0.89281568222E+02  0.10192887564E+04  0.12423206357E+04  0.16094350995E+04  0.10100000352E+00 0.  1.
       -3    1    3    3    0  502  0.89281568222E+02 -0.10192887564E+04 -0.20241004772E+04  0.22680175307E+04  0.10100000352E+00 0. -1.
</event>
<event>
 5   0  0.4071750E-09  0.3802736E+04  0.7818609E-02  0.8045568E-01
        1   -1    0    0  501    0  0.00000000000E+00  0.00000000000E+00  0.17557947208E+04  0.17557947208E+04  0.50400001928E-02 0.  1.
       -1   -1    0    0    0  501  0.00000000000E+00  0.00000000000E+00 -0.20590108412E+04  0.20590108412E+04  0.50400001928E-02 0. -1.
    10030    2    1    2    0    0  0.00000000000E+00  0.00000000000E+00 -0.30321612043E+03  0.38148055619E+04  0.38027360492E+04 0.  0.
        2    1    3    3  502    0 -0.31248777783E+03 -0.56243738406E+02  0.17290121697E+04  0.17579235059E+04  0.25500000920E-02 0.  1.
       -2    1    3    3    0  502  0.31248777783E+03  0.56243738406E+02 -0.20322282901E+04  0.20568820561E+04  0.25500000920E-02 0. -1.
</event>
<event>
 5   0  0.1293993E-08  0.3799962E+04  0.7818609E-02  0.8046163E-01
        2   -1    0    0  501    0  0.00000000000E+00  0.00000000000E+00  0.24402753027E+04  0.24402753027E+04  0.25500000920E-02 0.  1.
       -2   -1    0    0    0  501  0.00000000000E+00  0.00000000000E+00 -0.14793117541E+04  0.14793117541E+04  0.25500000920E-02 0. -1.
    10030    2    1    2    0    0  0.00000000000E+00  0.00000000000E+00  0.96096354864E+03  0.39195870568E+04  0.37999620727E+04 0.  0.
        5    1    3    3  502    0  0.95687472538E+03 -0.15077617211E+04 -0.18875058037E+03  0.17957181069E+04  0.46999998093E+01 0. -1.
       -5    1    3    3    0  502 -0.95687472538E+03  0.15077617211E+04  0.11497141290E+04  0.21238689499E+04  0.46999998093E+01 0.  1.
</event>
<event>
 5   0  0.4071750E-09  0.3804183E+04  0.7818609E-02  0.8045258E-01
       -1   -1    0    0    0  501  0.00000000000E+00  0.00000000000E+00  0.14934072099E+04  0.14934072099E+04  0.50400001928E-02 0. -1.
        1   -1    0    0  501    0  0.00000000000E+00  0.00000000000E+00 -0.24226160298E+04  0.24226160299E+04  0.50400001928E-02 0.  1.
    10030    2    1    2    0    0  0.00000000000E+00  0.00000000000E+00 -0.92920881992E+03  0.39160232398E+04  0.38041830902E+04 0.  0.
        5    1    3    3  502    0 -0.49400898048E+03 -0.17853846132E+04 -0.20305547670E+02  0.18525867038E+04  0.46999998093E+01 0. -1.
       -5    1    3    3    0  502  0.49400898048E+03  0.17853846132E+04 -0.90890327225E+03  0.20634365360E+04  0.46999998093E+01 0.  1.
</event>
<event>
 5   0  0.4071750E-09  0.3799700E+04  0.7818609E-02  0.8046219E-01
       -1   -1    0    0    0  501  0.00000000000E+00  0.00000000000E+00  0.26297137487E+04  0.26297137487E+04  0.50400001928E-02 0.  1.
        1   -1    0    0  501    0  0.00000000000E+00  0.00000000000E+00 -0.13725560539E+04  0.13725560539E+04  0.50400001928E-02 0. -1.
    10030    2    1    2    0    0  0.00000000000E+00  0.00000000000E+00  0.12571576948E+04  0.40022698026E+04  0.37996997386E+04 0.  0.
        2    1    3    3  502    0 -0.36937327630E+03  0.13560739686E+04 -0.71787226987E+03  0.15781995506E+04  0.25500000920E-02 0. -1.
       -2    1    3    3    0  502  0.36937327630E+03 -0.13560739686E+04  0.19750299646E+04  0.24240702520E+04  0.25500000920E-02 0.  1.
</event>
<event>
 5   0  0.1293993E-08  0.3800448E+04  0.7818609E-02  0.8046059E-01
       -2   -1    0    0    0  501  0.00000000000E+00  0.00000000000E+00  0.21121844130E+04  0.21121844130E+04  0.25500000920E-02 0.  1.
        2   -1    0    0  501    0  0.00000000000E+00  0.00000000000E+00 -0.17095344138E+04  0.17095344138E+04  0.25500000920E-02 0. -1.
    10030    2    1    2    0    0  0.00000000000E+00  0.00000000000E+00  0.40264999925E+03  0.38217188268E+04  0.38004483642E+04 0.  0.
        5    1    3    3  502    0 -0.35318562659E+03  0.13147980337E+04  0.15344126325E+04  0.20513113301E+04  0.46999998093E+01 0.  1.
       -5    1    3    3    0  502  0.35318562659E+03 -0.13147980337E+04 -0.11317626332E+04  0.17704074967E+04  0.46999998093E+01 0. -1.
</event>
<event>
 5   0  0.1327249E-08  0.3795968E+04  0.7818609E-02  0.8047021E-01
       -2   -1    0    0    0  501  0.00000000000E+00  0.00000000000E+00  0.15328194302E+04  0.15328194302E+04  0.25500000920E-02 0. -1.
        2   -1    0    0  501    0  0.00000000000E+00  0.00000000000E+00 -0.23501420266E+04  0.23501420266E+04  0.25500000920E-02 0.  1.
    10030    2    1    2    0    0  0.00000000000E+00  0.00000000000E+00 -0.81732259641E+03  0.38829614567E+04  0.37959680515E+04 0.  0.
        1    1    3    3  502    0  0.29328455727E+03  0.16912568865E+03 -0.23190053392E+04  0.23435880810E+04  0.50400001928E-02 0.  1.
       -1    1    3    3    0  502 -0.29328455727E+03 -0.16912568865E+03  0.15016827428E+04  0.15393733758E+04  0.50400001928E-02 0. -1.
</event>
<event>
 5   0  0.4071750E-09  0.3799640E+04  0.7818609E-02  0.8046232E-01
        1   -1    0    0  501    0  0.00000000000E+00  0.00000000000E+00  0.23074214922E+04  0.23074214922E+04  0.50400001928E-02 0. -1.
       -1   -1    0    0    0  501  0.00000000000E+00  0.00000000000E+00 -0.15642204381E+04  0.15642204381E+04  0.50400001928E-02 0.  1.
    10030    2    1    2    0    0  0.00000000000E+00  0.00000000000E+00  0.74320105410E+03  0.38716419304E+04  0.37996399080E+04 0.  0.
        2    1    3    3  502    0  0.17712820835E+03  0.18841310434E+04  0.20112300588E+03  0.19030960708E+04  0.25500000920E-02 0.  1.
       -2    1    3    3    0  502 -0.17712820835E+03 -0.18841310434E+04  0.54207804822E+03  0.19685458596E+04  0.25500000920E-02 0. -1.
</event>
<event>
 5   0  0.1327249E-08  0.3799681E+04  0.7818609E-02  0.8046223E-01
       -2   -1    0    0    0  501  0.00000000000E+00  0.00000000000E+00  0.18757732287E+04  0.18757732287E+04  0.25500000920E-02 0. -1.
        2   -1    0    0  501    0  0.00000000000E+00  0.00000000000E+00 -0.19242161951E+04  0.19242161951E+04  0.25500000920E-02 0.  1.
    10030    2    1    2    0    0  0.00000000000E+00  0.00000000000E+00 -0.48442966384E+02  0.37999894238E+04  0.37996806313E+04 0.  0.
        1    1    3    3  502    0  0.11747755628E+04 -0.10557280658E+04 -0.10801168591E+04  0.19134554610E+04  0.50400001928E-02 0. -1.
       -1    1    3    3    0  502 -0.11747755628E+04  0.10557280658E+04  0.10316738927E+04  0.18865339628E+04  0.50400001928E-02 0.  1.
</event>
<event>
 5   0  0.4071750E-09  0.3800890E+04  0.7818609E-02  0.8045964E-01
        1   -1    0    0  501    0  0.00000000000E+00  0.00000000000E+00  0.21124731467E+04  0.21124731467E+04  0.50400001928E-02 0.  1.
       -1   -1    0    0    0  501  0.00000000000E+00  0.00000000000E+00 -0.17096978667E+04  0.17096978667E+04  0.50400001928E-02 0. -1.
    10030    2    1    2    0    0  0.00000000000E+00  0.00000000000E+00  0.40277527998E+03  0.38221710134E+04  0.38008898076E+04 0.  0.
        4    1    3    3  502    0 -0.10245300697E+03  0.96551824393E+03  0.18442320994E+04  0.20842062631E+04  0.12699999809E+01 0.  1.
       -4    1    3    3    0  502  0.10245300697E+03 -0.96551824393E+03 -0.14414568194E+04  0.17379647503E+04  0.12699999809E+01 0. -1.
</event>
<event>
 5   0  0.1305088E-08  0.3798506E+04  0.7818609E-02  0.8046475E-01
        2   -1    0    0  501    0  0.00000000000E+00  0.00000000000E+00  0.20071564580E+04  0.20071564580E+04  0.25500000920E-02 0.  1.
       -2   -1    0    0    0  501  0.00000000000E+00  0.00000000000E+00 -0.17971507410E+04  0.17971507410E+04  0.25500000920E-02 0. -1.
    10030    2    1    2    0    0  0.00000000000E+00  0.00000000000E+00  0.21000571692E+03  0.38043071990E+04  0.37985063990E+04 0.  0.
        3    1    3    3  502    0  0.18629297212E+04  0.12188586591E+03 -0.24452780600E+03  0.18828587755E+04  0.10100000352E+00 0.  1.
       -3    1    3    3    0  502 -0.18629297212E+04 -0.12188586591E+03  0.45453352293E+03  0.19214484235E+04  0.10100000352E+00 0. -1.
</event>
<event>
 5   0  0.4071750E-09  0.3799470E+04  0.7818609E-02  0.8046269E-01
        1   -1    0    0  501    0  0.00000000000E+00  0.00000000000E+00  0.22409941390E+04  0.22409941390E+04  0.50400001928E-02 0.  1.
       -1   -1    0    0    0  501  0.00000000000E+00  0.00000000000E+00 -0.16104431295E+04  0.16104431295E+04  0.50400001928E-02 0. -1.
    10030    2    1    2    0    0  0.00000000000E+00  0.00000000000E+00  0.63055100955E+03  0.38514372685E+04  0.37994702865E+04 0.  0.
        4    1    3    3  502    0  0.14135506393E+04  0.36051697857E+03  0.15488397630E+04  0.21276757568E+04  0.12699999809E+01 0.  1.
       -4    1    3    3    0  502 -0.14135506393E+04 -0.36051697857E+03 -0.91828875342E+03  0.17237615117E+04  0.12699999809E+01 0. -1.
</event>
<event>
 5   0  0.1305088E-08  0.3801660E+04  0.7818609E-02  0.8045799E-01
        2   -1    0    0  501    0  0.00000000000E+00  0.00000000000E+00  0.27620249539E+04  0.27620249539E+04  0.25500000920E-02 0.  1.
       -2   -1    0    0    0  501  0.00000000000E+00  0.00000000000E+00 -0.13081543874E+04  0.13081543874E+04  0.25500000920E-02 0. -1.
    10030    2    1    2    0    0  0.00000000000E+00  0.00000000000E+00  0.14538705665E+04  0.40701793414E+04  0.38016601961E+04 0.  0.
        3    1    3    3  502    0  0.12364593080E+04 -0.55305610371E+03  0.21547155329E+04  0.25450936548E+04  0.10100000352E+00 0.  1.
       -3    1    3    3    0  502 -0.12364593080E+04  0.55305610371E+03 -0.70084496635E+03  0.15250856865E+04  0.10100000352E+00 0. -1.
</event>
<event>
 5   0  0.1264013E-08  0.3800107E+04  0.7818609E-02  0.8046132E-01
       -2   -1    0    0    0  501  0.00000000000E+00  0.00000000000E+00  0.21819958324E+04  0.21819958325E+04  0.25500000920E-02 0.  1.
        2   -1    0    0  501    0  0.00000000000E+00  0.00000000000E+00 -0.16545420526E+04  0.16545420526E+04  0.25500000920E-02 0. -1.
    10030    2    1    2    0    0  0.00000000000E+00  0.00000000000E+00  0.52745377990E+03  0.38365378850E+04  0.38001072950E+04 0.  0.
        4    1    3    3  502    0 -0.13138870685E+04 -0.27472801982E+03 -0.10939430044E+04  0.17316141670E+04  0.12699999809E+01 0. -1.
       -4    1    3    3    0  502  0.13138870685E+04  0.27472801982E+03  0.16213967843E+04  0.21049237180E+04  0.12699999809E+01 0.  1.
</event>
<event>
 5   0  0.1261152E-08  0.3800665E+04  0.7818609E-02  0.8046012E-01
       -2   -1    0    0    0  501  0.00000000000E+00  0.00000000000E+00  0.22280076091E+04  0.22280076091E+04  0.25500000920E-02 0. -1.
        2   -1    0    0  501    0  0.00000000000E+00  0.00000000000E+00 -0.16208490508E+04  0.16208490508E+04  0.25500000920E-02 0.  1.
    10030    2    1    2    0    0  0.00000000000E+00  0.00000000000E+00  0.60715855828E+03  0.38488566600E+04  0.38006652147E+04 0.  0.
        2    1    3    3  502    0 -0.49480429635E+03 -0.72743832913E+02 -0.15530085154E+04  0.16315509203E+04  0.25500000920E-02 0.  1.
       -2    1    3    3    0  502  0.49480429635E+03  0.72743832913E+02  0.21601670736E+04  0.22173057396E+04  0.25500000920E-02 0. -1.
</event>
<event>
 5   0  0.1261152E-08  0.3806034E+04  0.7818609E-02  0.8044861E-01
        2   -1    0    0  501    0  0.00000000000E+00  0.00000000000E+00  0.14396329394E+04  0.14396329394E+04  0.25500000920E-02 0.  1.
       -2   -1    0    0    0  501  0.00000000000E+00  0.00000000000E+00 -0.25155538281E+04  0.25155538281E+04  0.25500000920E-02 0. -1.
    10030    2    1    2    0    0  0.00000000000E+00  0.00000000000E+00 -0.10759208886E+04  0.39551867675E+04  0.38060342362E+04 0.  0.
        2    1    3    3  502    0  0.13919819030E+04 -0.53771136897E+03  0.68930614805E+03  0.16437427112E+04  0.25500000920E-02 0.  1.
       -2    1    3    3    0  502 -0.13919819030E+04  0.53771136897E+03 -0.17652270367E+04  0.23114440564E+04  0.25500000920E-02 0. -1.
</event>
<event>
 5   0  0.4071750E-09  0.3800885E+04  0.7818609E-02  0.8045965E-01
        1   -1    0    0  501    0  0.00000000000E+00  0.00000000000E+00  0.20766475100E+04  0.20766475101E+04  0.50400001928E-02 0.  1.
       -1   -1    0    0    0  501  0.00000000000E+00  0.00000000000E+00 -0.17391883217E+04  0.17391883217E+04  0.50400001928E-02 0. -1.
    10030    2    1    2    0    0  0.00000000000E+00  0.00000000000E+00  0.33745918833E+03  0.38158358318E+04  0.38008846853E+04 0.  0.
        4    1    3    3  502    0 -0.19448840601E+03  0.17024763787E+03 -0.17214588909E+04  0.17407562506E+04  0.12699999809E+01 0. -1.
       -4    1    3    3    0  502  0.19448840601E+03 -0.17024763787E+03  0.20589180792E+04  0.20750795811E+04  0.12699999809E+01 0.  1.
</event>
<event>
 5   0  0.1261152E-08  0.3799725E+04  0.7818609E-02  0.8046214E-01
       -2   -1    0    0    0  501  0.00000000000E+00  0.00000000000E+00  0.21173871625E+04  0.21173871625E+04  0.25500000920E-02 0.  1.
        2   -1    0    0  501    0  0.00000000000E+00  0.00000000000E+00 -0.17046849905E+04  0.17046849905E+04  0.25500000920E-02 0. -1.
    10030    2    1    2    0    0  0.00000000000E+00  0.00000000000E+00  0.41270217203E+03  0.38220721530E+04  0.37997253137E+04 0.  0.
        2    1    3    3  502    0  0.14625331873E+04  0.12112057138E+04  0.14722178527E+03  0.19046513747E+04  0.25500000920E-02 0. -1.
       -2    1    3    3    0  502 -0.14625331873E+04 -0.12112057138E+04  0.26548038675E+03  0.19174207783E+04  0.25500000920E-02 0.  1.
</event>
<event>
 5   0  0.1293993E-08  0.3798769E+04  0.7818609E-02  0.8046419E-01
        2   -1    0    0  501    0  0.00000000000E+00  0.00000000000E+00  0.20762630884E+04  0.20762630884E+04  0.25500000920E-02 0. -1.
       -2   -1    0    0    0  501  0.00000000000E+00  0.00000000000E+00 -0.17375744298E+04  0.17375744298E+04  0.25500000920E-02 0.  1.
    10030    2    1    2    0    0  0.00000000000E+00  0.00000000000E+00  0.33868865862E+03  0.38138375183E+04  0.37987690912E+04 0.  0.
        5    1    3    3  502    0  0.98212447099E+03  0.16670213245E+03  0.17929423404E+04  0.20511027287E+04  0.46999998093E+01 0. -1.
       -5    1    3    3    0  502 -0.98212447099E+03 -0.16670213245E+03 -0.14542536818E+04  0.17627347896E+04  0.46999998093E+01 0.  1.
</event>
<event>
 5   0  0.1293993E-08  0.3799853E+04  0.7818609E-02  0.8046186E-01
        2   -1    0    0  501    0  0.00000000000E+00  0.00000000000E+00  0.14031377079E+04  0.14031377079E+04  0.25500000920E-02 0.  1.
       -2   -1    0    0    0  501  0.00000000000E+00  0.00000000000E+00 -0.25726063570E+04  0.25726063570E+04  0.25500000920E-02 0. -1.
    10030    2    1    2    0    0  0.00000000000E+00  0.00000000000E+00 -0.11694686491E+04  0.39757440649E+04  0.37998531483E+04 0.  0.
        5    1    3    3  502    0 -0.90015991176E+03  0.44147623661E+03  0.11038183041E+04  0.14911827765E+04  0.46999998093E+01 0.  1.
       -5    1    3    3    0  502  0.90015991176E+03 -0.44147623661E+03 -0.22732869533E+04  0.24845612885E+04  0.46999998093E+01 0. -1.
</event>
<event>
 5   0  0.1305088E-08  0.3800773E+04  0.7818609E-02  0.8045989E-01
       -2   -1    0    0    0  501  0.00000000000E+00  0.00000000000E+00  0.16910547925E+04  0.16910547925E+04  0.25500000920E-02 0. -1.
        2   -1    0    0  501    0  0.00000000000E+00  0.00000000000E+00 -0.21356310567E+04  0.21356310567E+04  0.25500000920E-02 0.  1.
    10030    2    1    2    0    0  0.00000000000E+00  0.00000000000E+00 -0.44457626413E+03  0.38266858492E+04  0.38007731495E+04 0.  0.
        3    1    3    3  502    0  0.15461625442E+04  0.92394349281E+03 -0.83237227661E+03  0.19842212095E+04  0.10100000352E+00 0.  1.
       -3    1    3    3    0  502 -0.15461625442E+04 -0.92394349281E+03  0.38779601248E+03  0.18424646397E+04  0.10100000352E+00 0. -1.
</event>
<event>
 5   0  0.4071750E-09  0.3799589E+04  0.7818609E-02  0.8046243E-01
        1   -1    0    0  501    0  0.00000000000E+00  0.00000000000E+00  0.17506801491E+04  0.17506801491E+04  0.50400001928E-02 0.  1.
       -1   -1    0    0    0  501  0.00000000000E+00  0.00000000000E+00 -0.20616094224E+04  0.20616094224E+04  0.50400001928E-02 0. -1.
    10030    2    1    2    0    0  0.00000000000E+00  0.00000000000E+00 -0.31092927328E+03  0.38122895715E+04  0.37995887625E+04 0.  0.
        5    1    3    3  502    0 -0.28744321965E+03 -0.18480713513E+04 -0.49005388727E+03  0.19334337916E+04  0.46999998093E+01 0. -1.
       -5    1    3    3    0  502  0.28744321965E+03  0.18480713513E+04  0.17912461399E+03  0.18788557799E+04  0.46999998093E+01 0.  1.
</event>
<event>
 5   0  0.4071750E-09  0.3796641E+04  0.7818609E-02  0.8046876E-01
       -1   -1    0    0    0  501  0.00000000000E+00  0.00000000000E+00  0.20792195970E+04  0.20792195970E+04  0.50400001928E-02 0. -1.
        1   -1    0    0  501    0  0.00000000000E+00  0.00000000000E+00 -0.17331603485E+04  0.17331603485E+04  0.50400001928E-02 0.  1.
    10030    2    1    2    0    0  0.00000000000E+00  0.00000000000E+00  0.34605924845E+03  0.38123799455E+04  0.37966411268E+04 0.  0.
        1    1    3    3  502    0  0.91897652349E+02  0.13802898745E+03 -0.17258738970E+04  0.17338217579E+04  0.50400001928E-02 0.  1.
       -1    1    3    3    0  502 -0.91897652349E+02 -0.13802898745E+03  0.20719331454E+04  0.20785581876E+04  0.50400001928E-02 0. -1.
</event>
<event>
 5   0  0.1305088E-08  0.3800504E+04  0.7818609E-02  0.8046047E-01
       -2   -1    0    0    0  501  0.00000000000E+00  0.00000000000E+00  0.13994265544E+04  0.13994265544E+04  0.25500000920E-02 0.  1.
        2   -1    0    0  501    0  0.00000000000E+00  0.00000000000E+00 -0.25803118429E+04  0.25803118429E+04  0.25500000920E-02 0. -1.
    10030    2    1    2    0    0  0.00000000000E+00  0.00000000000E+00 -0.11808852886E+04  0.39797383973E+04  0.38005036043E+04 0.  0.
        3    1    3    3  502    0 -0.17735137986E+04  0.68172015277E+03 -0.62121101875E+03  0.19989989246E+04  0.10100000352E+00 0.  1.
       -3    1    3    3    0  502  0.17735137986E+04 -0.68172015277E+03 -0.55967426983E+03  0.19807394727E+04  0.10100000352E+00 0. -1.
</event>
<event>
 5   0  0.4071750E-09  0.3801207E+04  0.7818609E-02  0.8045896E-01
        1   -1    0    0  501    0  0.00000000000E+00  0.00000000000E+00  0.32093120569E+04  0.32093120569E+04  0.50400001928E-02 0. -1.
       -1   -1    0    0    0  501  0.00000000000E+00  0.00000000000E+00 -0.11255664029E+04  0.11255664029E+04  0.50400001928E-02 0.  1.
    10030    2    1    2    0    0  0.00000000000E+00  0.00000000000E+00  0.20837456540E+04  0.43348784598E+04  0.38012070860E+04 0.  0.
        2    1    3    3  502    0 -0.15736707202E+04  0.10657449464E+04  0.10344821270E+04  0.21638865723E+04  0.25500000920E-02 0. -1.
       -2    1    3    3    0  502  0.15736707202E+04 -0.10657449464E+04  0.10492635270E+04  0.21709918875E+04  0.25500000920E-02 0.  1.
</event>
<event>
 5   0  0.1264013E-08  0.3800514E+04  0.7818609E-02  0.8046045E-01
        2   -1    0    0  501    0  0.00000000000E+00  0.00000000000E+00  0.15919415546E+04  0.15919415546E+04  0.25500000920E-02 0. -1.
       -2   -1    0    0    0  501  0.00000000000E+00  0.00000000000E+00 -0.22682843102E+04  0.22682843102E+04  0.25500000920E-02 0.  1.
    10030    2    1    2    0    0  0.00000000000E+00  0.00000000000E+00 -0.67634275565E+03  0.38602258648E+04  0.38005136764E+04 0.  0.
        4    1    3    3  502    0 -0.14066421613E+03  0.64206576220E+03  0.14727998607E+04  0.16128161418E+04  0.12699999809E+01 0. -1.
       -4    1    3    3    0  502  0.14066421613E+03 -0.64206576220E+03 -0.21491426164E+04  0.22474097230E+04  0.12699999809E+01 0.  1.
</event>
<event>
 5   0  0.4071750E-09  0.3810332E+04  0.7818609E-02  0.8043941E-01
       -1   -1    0    0    0  501  0.00000000000E+00  0.00000000000E+00  0.16562601444E+04  0.16562601444E+04  0.50400001928E-02 0.  1.
        1   -1    0    0  501    0  0.00000000000E+00  0.00000000000E+00 -0.21914774271E+04  0.21914774271E+04  0.50400001928E-02 0. -1.
    10030    2    1    2    0    0  0.00000000000E+00  0.00000000000E+00 -0.53521728272E+03  0.38477375715E+04  0.38103315971E+04 0.  0.
        4    1    3    3  502    0  0.13018582010E+04  0.13202766444E+04  0.17451353865E+03  0.18623699368E+04  0.12699999809E+01 0.  1.
       -4    1    3    3    0  502 -0.13018582010E+04 -0.13202766444E+04 -0.70973082137E+03  0.19853676347E+04  0.12699999809E+01 0. -1.
</event>
<event>
 5   0  0.1264013E-08  0.3810935E+04  0.7818609E-02  0.8043812E-01
       -2   -1    0    0    0  501  0.00000000000E+00  0.00000000000E+00  0.12763529212E+04  0.12763529212E+04  0.25500000920E-02 0.  1.
        2   -1    0    0  501    0  0.00000000000E+00  0.00000000000E+00 -0.28446730323E+04  0.28446730323E+04  0.25500000920E-02 0. -1.
    10030    2    1    2    0    0  0.00000000000E+00  0.00000000000E+00 -0.15683201111E+04  0.41210259534E+04  0.38109351789E+04 0.  0.
        4    1    3    3  502    0 -0.84608034362E+03 -0.32112478276E+02  0.10617593958E+04  0.13580198035E+04  0.12699999809E+01 0.  1.
       -4    1    3    3    0  502  0.84608034362E+03  0.32112478276E+02 -0.26300795069E+04  0.27630061499E+04  0.12699999809E+01 0. -1.
</event>
<event>
 5   0  0.1327249E-08  0.3797810E+04  0.7818609E-02  0.8046625E-01
        2   -1    0    0  501    0  0.00000000000E+00  0.00000000000E+00  0.24208619949E+04  0.24208619949E+04  0.25500000920E-02 0. -1.
       -2   -1    0    0    0  501  0.00000000000E+00  0.00000000000E+00 -0.14894862989E+04  0.14894862989E+04  0.25500000920E-02 0.  1.
    10030    2    1    2    0    0  0.00000000000E+00  0.00000000000E+00  0.93137569602E+03  0.39103482938E+04  0.37978103022E+04 0.  0.
        1    1    3    3  502    0 -0.15446043820E+04  0.10281434706E+04  0.50043905809E+02  0.18561751225E+04  0.50400001928E-02 0.  1.
       -1    1    3    3    0  502  0.15446043820E+04 -0.10281434706E+04  0.88133179022E+03  0.20541731712E+04  0.50400001928E-02 0. -1.
</event>
<event>
 5   0  0.1261152E-08  0.3800457E+04  0.7818609E-02  0.8046057E-01
       -2   -1    0    0    0  501  0.00000000000E+00  0.00000000000E+00  0.14551765265E+04  0.14551765265E+04  0.25500000920E-02 0. -1.
        2   -1    0    0  501    0  0.00000000000E+00  0.00000000000E+00 -0.24813959951E+04  0.24813959951E+04  0.25500000920E-02 0.  1.
    10030    2    1    2    0    0  0.00000000000E+00  0.00000000000E+00 -0.10262194685E+04  0.39365725216E+04  0.38004574488E+04 0.  0.
        2    1    3    3  502    0  0.10808249679E+04 -0.14451197462E+04 -0.11296727439E+04  0.21290171912E+04  0.25500000920E-02 0.  1.
       -2    1    3    3    0  502 -0.10808249679E+04  0.14451197462E+04  0.10345327539E+03  0.18075553304E+04  0.25500000920E-02 0. -1.
</event>
<event>
 5   0  0.4071750E-09  0.3799764E+04  0.7818609E-02  0.8046205E-01
       -1   -1    0    0    0  501  0.00000000000E+00  0.00000000000E+00  0.27271598317E+04  0.27271598317E+04  0.50400001928E-02 0.  1.
        1   -1    0    0  501    0  0.00000000000E+00  0.00000000000E+00 -0.13235571691E+04  0.13235571691E+04  0.50400001928E-02 0. -1.
    10030    2    1    2    0    0  0.00000000000E+00  0.00000000000E+00  0.14036026626E+04  0.40507170008E+04  0.37997641751E+04 0.  0.
        3    1    3    3  502    0 -0.22410231591E+03  0.17604889381E+04 -0.21232007206E+02  0.17748222327E+04  0.10100000352E+00 0.  1.
       -3    1    3    3    0  502  0.22410231591E+03 -0.17604889381E+04  0.14248346699E+04  0.22758947682E+04  0.10100000352E+00 0. -1.
</event>
<event>
 5   0  0.4071750E-09  0.3800667E+04  0.7818609E-02  0.8046012E-01
        1   -1    0    0  501    0  0.00000000000E+00  0.00000000000E+00  0.25118123347E+04  0.25118123347E+04  0.50400001928E-02 0. -1.
       -1   -1    0    0    0  501  0.00000000000E+00  0.00000000000E+00 -0.14377141942E+04  0.14377141942E+04  0.50400001928E-02 0.  1.
    10030    2    1    2    0    0  0.00000000000E+00  0.00000000000E+00  0.10740981405E+04  0.39495265289E+04  0.38006674397E+04 0.  0.
        1    1    3    3  502    0  0.14981690522E+04  0.10556709216E+04  0.10590341796E+04  0.21167203399E+04  0.50400001928E-02 0. -1.
       -1    1    3    3    0  502 -0.14981690522E+04 -0.10556709216E+04  0.15063960855E+02  0.18328061890E+04  0.50400001928E-02 0.  1.
</event>
<event>
 5   0  0.4071750E-09  0.3800702E+04  0.7818609E-02  0.8046004E-01
       -1   -1    0    0    0  501  0.00000000000E+00  0.00000000000E+00  0.28199841592E+04  0.28199841592E+04  0.50400001928E-02 0. -1.
        1   -1    0    0  501    0  0.00000000000E+00  0.00000000000E+00 -0.12806220118E+04  0.12806220119E+04  0.50400001928E-02 0.  1.
    10030    2    1    2    0    0  0.00000000000E+00  0.00000000000E+00  0.15393621473E+04  0.41006061710E+04  0.38007019285E+04 0.  0.
        2    1    3    3  502    0  0.35235051427E+03  0.11945108144E+04 -0.77896546902E+03  0.14689432163E+04  0.25500000920E-02 0.  1.
       -2    1    3    3    0  502 -0.35235051427E+03 -0.11945108144E+04  0.23183276163E+04  0.26316629548E+04  0.25500000920E-02 0. -1.
</event>
<event>
 5   0  0.1261152E-08  0.3784570E+04  0.7818609E-02  0.8049474E-01
       -2   -1    0    0    0  501  0.00000000000E+00  0.00000000000E+00  0.18483036398E+04  0.18483036398E+04  0.25500000920E-02 0.  1.
        2   -1    0    0  501    0  0.00000000000E+00  0.00000000000E+00 -0.19373134001E+04  0.19373134001E+04  0.25500000920E-02 0. -1.
    10030    2    1    2    0    0  0.00000000000E+00  0.00000000000E+00 -0.89009760255E+02  0.37856170399E+04  0.37845704690E+04 0.  0.
        2    1    3    3  502    0 -0.52789001897E+03  0.13577197150E+04 -0.12525941050E+04  0.19212138581E+04  0.25500000920E-02 0. -1.
       -2    1    3    3    0  502  0.52789001897E+03 -0.13577197150E+04  0.11635843448E+04  0.18644031817E+04  0.25500000920E-02 0.  1.
</event>
<event>
 5   0  0.1293993E-08  0.3800074E+04  0.7818609E-02  0.8046139E-01
        2   -1    0    0  501    0  0.00000000000E+00  0.00000000000E+00  0.21981141723E+04  0.21981141723E+04  0.25500000920E-02 0.  1.
       -2   -1    0    0    0  501  0.00000000000E+00  0.00000000000E+00 -0.16423808066E+04  0.16423808066E+04  0.25500000920E-02 0. -1.
    10030    2    1    2    0    0  0.00000000000E+00  0.00000000000E+00  0.55573336573E+03  0.38404949789E+04  0.38000739611E+04 0.  0.
        5    1    3    3  502    0  0.46913330579E+03 -0.72869531008E+03 -0.14309871940E+04  0.16729702188E+04  0.46999998093E+01 0. -1.
       -5    1    3    3    0  502 -0.46913330579E+03  0.72869531008E+03  0.19867205597E+04  0.21675247602E+04  0.46999998093E+01 0.  1.
</event>
<event>
 5   0  0.4071750E-09  0.3802030E+04  0.7818609E-02  0.8045719E-01
       -1   -1    0    0    0  501  0.00000000000E+00  0.00000000000E+00  0.14210640641E+04  0.14210640641E+04  0.50400001928E-02 0.  1.
        1   -1    0    0  501    0  0.00000000000E+00  0.00000000000E+00 -0.25430645423E+04  0.25430645423E+04  0.50400001928E-02 0. -1.
    10030    2    1    2    0    0  0.00000000000E+00  0.00000000000E+00 -0.11220004782E+04  0.39641286064E+04  0.38020297915E+04 0.  0.
        1    1    3    3  502    0  0.27528120107E+03  0.36754252419E+03 -0.24843691030E+04  0.25264514812E+04  0.50400001928E-02 0. -1.
       -1    1    3    3    0  502 -0.27528120107E+03 -0.36754252419E+03  0.13623686248E+04  0.14376771253E+04  0.50400001928E-02 0.  1.
</event>
<event>
 5   0  0.1327249E-08  0.3801297E+04  0.7818609E-02  0.8045877E-01
        2   -1    0    0  501    0  0.00000000000E+00  0.00000000000E+00  0.13658049681E+04  0.13658049682E+04  0.25500000920E-02 0.  1.
       -2   -1    0    0    0  501  0.00000000000E+00  0.00000000000E+00 -0.26449350047E+04  0.26449350047E+04  0.25500000920E-02 0. -1.
    10030    2    1    2    0    0  0.00000000000E+00  0.00000000000E+00 -0.12791300366E+04  0.40107399729E+04  0.38012973417E+04 0.  0.
        1    1    3    3  502    0  0.12644709661E+04  0.48220942224E+03  0.76852700945E+03  0.15562925546E+04  0.50400001928E-02 0.  1.
       -1    1    3    3    0  502 -0.12644709661E+04 -0.48220942224E+03 -0.20476570460E+04  0.24544474183E+04  0.50400001928E-02 0. -1.
</event>
<event>
 5   0  0.4071750E-09  0.3805974E+04  0.7818609E-02  0.8044874E-01
       -1   -1    0    0    0  501  0.00000000000E+00  0.00000000000E+00  0.15820251584E+04  0.15820251584E+04  0.50400001928E-02 0. -1.
        1   -1    0    0  501    0  0.00000000000E+00  0.00000000000E+00 -0.22890651001E+04  0.22890651001E+04  0.50400001928E-02 0.  1.
    10030    2    1    2    0    0  0.00000000000E+00  0.00000000000E+00 -0.70703994170E+03  0.38710902586E+04  0.38059735037E+04 0.  0.
        1    1    3    3  502    0  0.15633275973E+04  0.16248297824E+02  0.74998545776E+03  0.17339940515E+04  0.50400001928E-02 0. -1.
       -1    1    3    3    0  502 -0.15633275973E+04 -0.16248297824E+02 -0.14570253995E+04  0.21370962071E+04  0.50400001928E-02 0.  1.
</event>
<event>
 5   0  0.1293993E-08  0.3798105E+04  0.7818609E-02  0.8046562E-01
       -2   -1    0    0    0  501  0.00000000000E+00  0.00000000000E+00  0.13670016320E+04  0.13670016321E+04  0.25500000920E-02 0. -1.
        2   -1    0    0  501    0  0.00000000000E+00  0.00000000000E+00 -0.26381829778E+04  0.26381829778E+04  0.25500000920E-02 0.  1.
    10030    2    1    2    0    0  0.00000000000E+00  0.00000000000E+00 -0.12711813457E+04  0.40051846098E+04  0.37981050203E+04 0.  0.
        5    1    3    3  502    0 -0.64485246502E+01  0.18770556805E+04 -0.33178819860E+03  0.19061702730E+04  0.46999998093E+01 0.  1.
       -5    1    3    3    0  502  0.64485246502E+01 -0.18770556805E+04 -0.93939314711E+03  0.20990143368E+04  0.46999998093E+01 0. -1.
</event>
<event>
 5   0  0.1264013E-08  0.3799005E+04  0.7818609E-02  0.8046368E-01
        2   -1    0    0  501    0  0.00000000000E+00  0.00000000000E+00  0.22150036744E+04  0.22150036744E+04  0.25500000920E-02 0. -1.
       -2   -1    0    0    0  501  0.00000000000E+00  0.00000000000E+00 -0.16289408361E+04  0.16289408361E+04  0.25500000920E-02 0.  1.
    10030    2    1    2    0    0  0.00000000000E+00  0.00000000000E+00  0.58606283837E+03  0.38439445105E+04  0.37990050999E+04 0.  0.
        4    1    3    3  502    0  0.34114524753E+03 -0.70932464617E+03  0.20422342419E+04  0.21886625699E+04  0.12699999809E+01 0. -1.
       -4    1    3    3    0  502 -0.34114524753E+03  0.70932464617E+03 -0.14561714035E+04  0.16552819406E+04  0.12699999809E+01 0.  1.
</event>
<event>
 5   0  0.1293993E-08  0.3800232E+04  0.7818609E-02  0.8046105E-01
        2   -1    0    0  501    0  0.00000000000E+00  0.00000000000E+00  0.22897419814E+04  0.22897419814E+04  0.25500000920E-02 0.  1.
       -2   -1    0    0    0  501  0.00000000000E+00  0.00000000000E+00 -0.15767890274E+04  0.15767890274E+04  0.25500000920E-02 0. -1.
    10030    2    1    2    0    0  0.00000000000E+00  0.00000000000E+00  0.71295295395E+03  0.38665310088E+04  0.38002315887E+04 0.  0.
        5    1    3    3  502    0  0.70284842129E+03  0.73917793266E+03 -0.12746258531E+04  0.16325051531E+04  0.46999998093E+01 0. -1.
       -5    1    3    3    0  502 -0.70284842129E+03 -0.73917793266E+03  0.19875788071E+04  0.22340258557E+04  0.46999998093E+01 0.  1.
</event>
<event>
 5   0  0.1293993E-08  0.3801345E+04  0.7818609E-02  0.8045866E-01
       -2   -1    0    0    0  501  0.00000000000E+00  0.00000000000E+00  0.17368543941E+04  0.17368543941E+04  0.25500000920E-02 0. -1.
        2   -1    0    0  501    0  0.00000000000E+00  0.00000000000E+00 -0.20799419199E+04  0.20799419199E+04  0.25500000920E-02 0.  1.
    10030    2    1    2    0    0  0.00000000000E+00  0.00000000000E+00 -0.34308752587E+03  0.38167963140E+04  0.38013451635E+04 0.  0.
        5    1    3    3  502    0 -0.30853945561E+03 -0.15629945030E+04  0.86919516813E+03  0.18148473056E+04  0.46999998093E+01 0. -1.
       -5    1    3    3    0  502  0.30853945561E+03  0.15629945030E+04 -0.12122826940E+04  0.20019490084E+04  0.46999998093E+01 0.  1.
</event>
<event>
 5   0  0.4071750E-09  0.3803125E+04  0.7818609E-02  0.8045485E-01
       -1   -1    0    0    0  501  0.00000000000E+00  0.00000000000E+00  0.16959681987E+04  0.16959681987E+04  0.50400001928E-02 0. -1.
        1   -1    0    0  501    0  0.00000000000E+00  0.00000000000E+00 -0.21320802351E+04  0.21320802351E+04  0.50400001928E-02 0.  1.
    10030    2    1    2    0    0  0.00000000000E+00  0.00000000000E+00 -0.43611203636E+03  0.38280484338E+04  0.38031251759E+04 0.  0.
        2    1    3    3  502    0 -0.24190485057E+03 -0.13537600555E+04  0.11038501837E+04  0.17634254939E+04  0.25500000920E-02 0. -1.
       -2    1    3    3    0  502  0.24190485057E+03  0.13537600555E+04 -0.15399622201E+04  0.20646229399E+04  0.25500000920E-02 0.  1.
</event>
<event>
 5   0  0.1327249E-08  0.3799986E+04  0.7818609E-02  0.8046158E-01
        2   -1    0    0  501    0  0.00000000000E+00  0.00000000000E+00  0.12250180495E+04  0.12250180495E+04  0.25500000920E-02 0. -1.
       -2   -1    0    0    0  501  0.00000000000E+00  0.00000000000E+00 -0.29468743383E+04  0.29468743383E+04  0.25500000920E-02 0.  1.
    10030    2    1    2    0    0  0.00000000000E+00  0.00000000000E+00 -0.17218562888E+04  0.41718923878E+04  0.37999864495E+04 0.  0.
        1    1    3    3  502    0  0.12001977111E+04  0.66880628696E+03 -0.23016912275E+04  0.26805892826E+04  0.50400001928E-02 0.  1.
       -1    1    3    3    0  502 -0.12001977111E+04 -0.66880628696E+03  0.57983493875E+03  0.14913031052E+04  0.50400001928E-02 0. -1.
</event>
<event>
 5   0  0.4071750E-09  0.3801499E+04  0.7818609E-02  0.8045833E-01
        1   -1    0    0  501    0  0.00000000000E+00  0.00000000000E+00  0.27293996707E+04  0.27293996707E+04  0.50400001928E-02 0.  1.
       -1   -1    0    0    0  501  0.00000000000E+00  0.00000000000E+00 -0.13236788466E+04  0.13236788466E+04  0.50400001928E-02 0. -1.
    10030    2    1    2    0    0  0.00000000000E+00  0.00000000000E+00  0.14057208241E+04  0.40530785173E+04  0.38014989717E+04 0.  0.
        2    1    3    3  502    0 -0.88974913406E+03  0.10293529254E+03  0.24902927681E+04  0.26464707191E+04  0.25500000920E-02 0.  1.
       -2    1    3    3    0  502  0.88974913406E+03 -0.10293529254E+03 -0.10845719441E+04  0.14066077982E+04  0.25500000920E-02 0. -1.
</event>
<event>
 5   0  0.1264013E-08  0.3799554E+04  0.7818609E-02  0.8046251E-01
        2   -1    0    0  501    0  0.00000000000E+00  0.00000000000E+00  0.18523008889E+04  0.18523008889E+04  0.25500000920E-02 0. -1.
       -2   -1    0    0    0  501  0.00000000000E+00  0.00000000000E+00 -0.19484697600E+04  0.19484697600E+04  0.25500000920E-02 0.  1.
    10030    2    1    2    0    0  0.00000000000E+00  0.00000000000E+00 -0.96168871115E+02  0.38007706489E+04  0.37995537993E+04 0.  0.
        4    1    3    3  502    0  0.17481784038E+04  0.73052209348E+03 -0.18727063367E+03  0.19039070785E+04  0.12699999809E+01 0. -1.
       -4    1    3    3    0  502 -0.17481784038E+04 -0.73052209348E+03  0.91101762552E+02  0.18968635704E+04  0.12699999809E+01 0.  1.
</event>
<event>
 5   0  0.4071750E-09  0.3800746E+04  0.7818609E-02  0.8045995E-01
       -1   -1    0    0    0  501  0.00000000000E+00  0.00000000000E+00  0.25010611634E+04  0.25010611634E+04  0.50400001928E-02 0.  1.
        1   -1    0    0  501    0  0.00000000000E+00  0.00000000000E+00 -0.14439541831E+04  0.14439541832E+04  0.50400001928E-02 0. -1.
    10030    2    1    2    0    0  0.00000000000E+00  0.00000000000E+00  0.10571069802E+04  0.39450153465E+04  0.38007461000E+04 0.  0.
        3    1    3    3  502    0  0.10327353093E+04 -0.90839308976E+03  0.18897031146E+04  0.23372415571E+04  0.10100000352E+00 0.  1.
       -3    1    3    3    0  502 -0.10327353093E+04  0.90839308976E+03 -0.83259613443E+03  0.16077737894E+04  0.10100000352E+00 0. -1.
</event>
<event>
 5   0  0.1305088E-08  0.3800143E+04  0.7818609E-02  0.8046124E-01
        2   -1    0    0  501    0  0.00000000000E+00  0.00000000000E+00  0.30754039797E+04  0.30754039797E+04  0.25500000920E-02 0. -1.
       -2   -1    0    0    0  501  0.00000000000E+00  0.00000000000E+00 -0.11739177817E+04  0.11739177817E+04  0.25500000920E-02 0.  1.
    10030    2    1    2    0    0  0.00000000000E+00  0.00000000000E+00  0.19014861980E+04  0.42493217614E+04  0.38001428487E+04 0.  0.
        3    1    3    3  502    0 -0.57074982962E+03 -0.15328267469E+04 -0.13048119025E+03  0.16408347130E+04  0.10100000352E+00 0.  1.
       -3    1    3    3    0  502  0.57074982962E+03  0.15328267469E+04  0.20319673883E+04  0.26084870484E+04  0.10100000352E+00 0. -1.
</event>
<event>
 5   0  0.4071750E-09  0.3801449E+04  0.7818609E-02  0.8045844E-01
       -1   -1    0    0    0  501  0.00000000000E+00  0.00000000000E+00  0.14874807244E+04  0.14874807244E+04  0.50400001928E-02 0.  1.
        1   -1    0    0  501    0  0.00000000000E+00  0.00000000000E+00 -0.24287732940E+04  0.24287732940E+04  0.50400001928E-02 0. -1.
    10030    2    1    2    0    0  0.00000000000E+00  0.00000000000E+00 -0.94129256957E+03  0.39162540184E+04  0.38014489126E+04 0.  0.
        4    1    3    3  502    0 -0.91881632036E+02  0.15557111196E+04 -0.15916597955E+04  0.22275685937E+04  0.12699999809E+01 0.  1.
       -4    1    3    3    0  502  0.91881632036E+02 -0.15557111196E+04  0.65036722593E+03  0.16886854247E+04  0.12699999809E+01 0. -1.
</event>
<event>
 5   0  0.1327249E-08  0.3797209E+04  0.7818609E-02  0.8046754E-01
        2   -1    0    0  501    0  0.00000000000E+00  0.00000000000E+00  0.15712378512E+04  0.15712378512E+04  0.25500000920E-02 0.  1.
       -2   -1    0    0    0  501  0.00000000000E+00  0.00000000000E+00 -0.22941773108E+04  0.22941773108E+04  0.25500000920E-02 0. -1.
    10030    2    1    2    0    0  0.00000000000E+00  0.00000000000E+00 -0.72293945959E+03  0.38654151620E+04  0.37972085685E+04 0.  0.
        1    1    3    3  502    0 -0.10062944208E+04 -0.79482345111E+02  0.12754416030E+04  0.16265599242E+04  0.50400001928E-02 0.  1.
       -1    1    3    3    0  502  0.10062944208E+04  0.79482345111E+02 -0.19983810626E+04  0.22388552378E+04  0.50400001928E-02 0. -1.
</event>
<event>
 5   0  0.4071750E-09  0.3801315E+04  0.7818609E-02  0.8045873E-01
       -1   -1    0    0    0  501  0.00000000000E+00  0.00000000000E+00  0.15835755178E+04  0.15835755178E+04  0.50400001928E-02 0.  1.
        1   -1    0    0  501    0  0.00000000000E+00  0.00000000000E+00 -0.22812292760E+04  0.22812292760E+04  0.50400001928E-02 0. -1.
    10030    2    1    2    0    0  0.00000000000E+00  0.00000000000E+00 -0.69765375825E+03  0.38648047938E+04  0.38013149472E+04 0.  0.
        5    1    3    3  502    0 -0.98333742498E+03 -0.10715332603E+04  0.89526950517E+03  0.17078248142E+04  0.46999998093E+01 0.  1.
       -5    1    3    3    0  502  0.98333742498E+03  0.10715332603E+04 -0.15929232634E+04  0.21569799796E+04  0.46999998093E+01 0. -1.
</event>
<event>
 5   0  0.4071750E-09  0.3794347E+04  0.7818609E-02  0.8047369E-01
       -1   -1    0    0    0  501  0.00000000000E+00  0.00000000000E+00  0.15776529695E+04  0.15776529695E+04  0.50400001928E-02 0. -1.
        1   -1    0    0  501    0  0.00000000000E+00  0.00000000000E+00 -0.22814065684E+04  0.22814065684E+04  0.50400001928E-02 0.  1.
    10030    2    1    2    0    0  0.00000000000E+00  0.00000000000E+00 -0.70375359890E+03  0.38590595379E+04  0.37943472942E+04 0.  0.
        4    1    3    3  502    0 -0.15086613117E+04  0.10350615526E+04  0.15853366614E+03  0.18364492662E+04  0.12699999809E+01 0.  1.
       -4    1    3    3    0  502  0.15086613117E+04 -0.10350615526E+04 -0.86228726504E+03  0.20226102718E+04  0.12699999809E+01 0. -1.
</event>
<event>
 5   0  0.1305088E-08  0.3799163E+04  0.7818609E-02  0.8046335E-01
       -2   -1    0    0    0  501  0.00000000000E+00  0.00000000000E+00  0.14353379548E+04  0.14353379548E+04  0.25500000920E-02 0. -1.
        2   -1    0    0  501    0  0.00000000000E+00  0.00000000000E+00 -0.25139791233E+04  0.25139791233E+04  0.25500000920E-02 0.  1.
    10030    2    1    2    0    0  0.00000000000E+00  0.00000000000E+00 -0.10786411685E+04  0.39493170782E+04  0.37991628833E+04 0.  0.
        3    1    3    3  502    0 -0.12895891460E+04  0.13605346812E+04 -0.85856561743E+03  0.20618510407E+04  0.10100000352E+00 0.  1.
       -3    1    3    3    0  502  0.12895891460E+04 -0.13605346812E+04 -0.22007555108E+03  0.18874660375E+04  0.10100000352E+00 0. -1.
</event>
<event>
 5   0  0.4071750E-09  0.3804944E+04  0.7818609E-02  0.8045095E-01
        3   -1    0    0  501    0  0.00000000000E+00  0.00000000000E+00  0.29837125961E+04  0.29837125978E+04  0.10100000352E+00 0.  1.
       -3   -1    0    0    0  501  0.00000000000E+00  0.00000000000E+00 -0.12130522079E+04  0.12130522122E+04  0.10100000352E+00 0. -1.
    10030    2    1    2    0    0  0.00000000000E+00  0.00000000000E+00  0.17706603882E+04  0.41967648100E+04  0.38049437131E+04 0.  0.
        2    1    3    3  502    0 -0.18367772259E+04 -0.47619031091E+03  0.73373054989E+03  0.20344208782E+04  0.25500000920E-02 0. -1.
       -2    1    3    3    0  502  0.18367772259E+04  0.47619031091E+03  0.10369298383E+04  0.21623439318E+04  0.25500000920E-02 0.  1.
</event>
<event>
 5   0  0.4071750E-09  0.3800354E+04  0.7818609E-02  0.8046079E-01
        1   -1    0    0  501    0  0.00000000000E+00  0.00000000000E+00  0.29496939916E+04  0.29496939916E+04  0.50400001928E-02 0.  1.
       -1   -1    0    0    0  501  0.00000000000E+00  0.00000000000E+00 -0.12240835887E+04  0.12240835887E+04  0.50400001928E-02 0. -1.
    10030    2    1    2    0    0  0.00000000000E+00  0.00000000000E+00  0.17256104028E+04  0.41737775803E+04  0.38003536714E+04 0.  0.
        3    1    3    3  502    0  0.17159516842E+04 -0.74448561673E+03  0.49538340122E+03  0.19349815866E+04  0.10100000352E+00 0. -1.
       -3    1    3    3    0  502 -0.17159516842E+04  0.74448561673E+03  0.12302270016E+04  0.22387959937E+04  0.10100000352E+00 0.  1.
</event>
<event>
 5   0  0.4071750E-09  0.3801397E+04  0.7818609E-02  0.8045855E-01
       -1   -1    0    0    0  501  0.00000000000E+00  0.00000000000E+00  0.19292244534E+04  0.19292244534E+04  0.50400001928E-02 0.  1.
        1   -1    0    0  501    0  0.00000000000E+00  0.00000000000E+00 -0.18725941569E+04  0.18725941569E+04  0.50400001928E-02 0. -1.
    10030    2    1    2    0    0  0.00000000000E+00  0.00000000000E+00  0.56630296472E+02  0.38018186103E+04  0.38013968163E+04 0.  0.
        2    1    3    3  502    0 -0.10824355093E+04 -0.14693911222E+03 -0.15272984397E+04  0.18777375372E+04  0.25500000920E-02 0. -1.
       -2    1    3    3    0  502  0.10824355093E+04  0.14693911222E+03  0.15839287362E+04  0.19240810731E+04  0.25500000920E-02 0.  1.
</event>
<event>
 5   0  0.1261152E-08  0.3806238E+04  0.7818609E-02  0.8044818E-01
       -2   -1    0    0    0  501  0.00000000000E+00  0.00000000000E+00  0.21525955906E+04  0.21525955906E+04  0.25500000920E-02 0. -1.
        2   -1    0    0  501    0  0.00000000000E+00  0.00000000000E+00 -0.16825557687E+04  0.16825557687E+04  0.25500000920E-02 0.  1.
    10030    2    1    2    0    0  0.00000000000E+00  0.00000000000E+00  0.47003982190E+03  0.38351513594E+04  0.38062381054E+04 0.  0.
        2    1    3    3  502    0 -0.15926805622E+04 -0.64757207014E+03  0.10572340156E+04  0.20183470274E+04  0.25500000920E-02 0.  1.
       -2    1    3    3    0  502  0.15926805622E+04  0.64757207014E+03 -0.58719419374E+03  0.18168043319E+04  0.25500000920E-02 0. -1.
</event>
<event>
 5   0  0.4071750E-09  0.3798974E+04  0.7818609E-02  0.8046375E-01
        1   -1    0    0  501    0  0.00000000000E+00  0.00000000000E+00  0.19320141777E+04  0.19320141777E+04  0.50400001928E-02 0. -1.
       -1   -1    0    0    0  501  0.00000000000E+00  0.00000000000E+00 -0.18675076419E+04  0.18675076419E+04  0.50400001928E-02 0.  1.
    10030    2    1    2    0    0  0.00000000000E+00  0.00000000000E+00  0.64506535830E+02  0.37995218196E+04  0.37989741990E+04 0.  0.
        4    1    3    3  502    0 -0.17892346315E+04 -0.19753313481E+03  0.63869842509E+03  0.19100568570E+04  0.12699999809E+01 0. -1.
       -4    1    3    3    0  502  0.17892346315E+04  0.19753313481E+03 -0.57419188926E+03  0.18894649625E+04  0.12699999809E+01 0.  1.
</event>
<event>
 5   0  0.4071750E-09  0.3799821E+04  0.7818609E-02  0.8046193E-01
        1   -1    0    0  501    0  0.00000000000E+00  0.00000000000E+00  0.27233703717E+04  0.27233703717E+04  0.50400001928E-02 0.  1.
       -1   -1    0    0    0  501  0.00000000000E+00  0.00000000000E+00 -0.13254382479E+04  0.13254382479E+04  0.50400001928E-02 0. -1.
    10030    2    1    2    0    0  0.00000000000E+00  0.00000000000E+00  0.13979321237E+04  0.40488086196E+04  0.37998206557E+04 0.  0.
        2    1    3    3  502    0  0.10793137499E+04  0.11754416594E+04 -0.39965194408E+03  0.16450844786E+04  0.25500000920E-02 0. -1.
       -2    1    3    3    0  502 -0.10793137499E+04 -0.11754416594E+04  0.17975840678E+04  0.24037241410E+04  0.25500000920E-02 0.  1.
</event>
<event>
 5   0  0.4071750E-09  0.3801520E+04  0.7818609E-02  0.8045829E-01
       -1   -1    0    0    0  501  0.00000000000E+00  0.00000000000E+00  0.22752690761E+04  0.22752690761E+04  0.50400001928E-02 0. -1.
        1   -1    0    0  501    0  0.00000000000E+00  0.00000000000E+00 -0.15878953382E+04  0.15878953382E+04  0.50400001928E-02 0.  1.
    10030    2    1    2    0    0  0.00000000000E+00  0.00000000000E+00  0.68737373787E+03  0.38631644143E+04  0.38015203059E+04 0.  0.
        3    1    3    3  502    0  0.11958766144E+04  0.14479940354E+04  0.64184105070E+03  0.19846328497E+04  0.10100000352E+00 0. -1.
       -3    1    3    3    0  502 -0.11958766144E+04 -0.14479940354E+04  0.45532687172E+02  0.18785315646E+04  0.10100000352E+00 0.  1.
</event>
<event>
 5   0  0.1327249E-08  0.3798545E+04  0.7818609E-02  0.8046467E-01
        2   -1    0    0  501    0  0.00000000000E+00  0.00000000000E+00  0.29596189732E+04  0.29596189732E+04  0.25500000920E-02 0. -1.
       -2   -1    0    0    0  501  0.00000000000E+00  0.00000000000E+00 -0.12188178564E+04  0.12188178564E+04  0.25500000920E-02 0.  1.
    10030    2    1    2    0    0  0.00000000000E+00  0.00000000000E+00  0.17408011168E+04  0.41784368295E+04  0.37985452229E+04 0.  0.
        1    1    3    3  502    0  0.18388756423E+04  0.45550946527E+03  0.72165925856E+03  0.20272504992E+04  0.50400001928E-02 0. -1.
       -1    1    3    3    0  502 -0.18388756423E+04 -0.45550946527E+03  0.10191418582E+04  0.21511863304E+04  0.50400001928E-02 0.  1.
</event>
<event>
 5   0  0.1264013E-08  0.3796817E+04  0.7818609E-02  0.8046838E-01
       -2   -1    0    0    0  501  0.00000000000E+00  0.00000000000E+00  0.14309108310E+04  0.14309108310E+04  0.25500000920E-02 0. -1.
        2   -1    0    0  501    0  0.00000000000E+00  0.00000000000E+00 -0.25186441338E+04  0.25186441338E+04  0.25500000920E-02 0.  1.
    10030    2    1    2    0    0  0.00000000000E+00  0.00000000000E+00 -0.10877333028E+04  0.39495549649E+04  0.37968171779E+04 0.  0.
        4    1    3    3  502    0 -0.26153964766E+03 -0.18279926302E+04 -0.85701469912E+02  0.18485957909E+04  0.12699999809E+01 0. -1.
       -4    1    3    3    0  502  0.26153964766E+03  0.18279926302E+04 -0.10020318329E+04  0.21009591739E+04  0.12699999809E+01 0.  1.
</event>
<event>
 5   0  0.4071750E-09  0.3804198E+04  0.7818609E-02  0.8045255E-01
        1   -1    0    0  501    0  0.00000000000E+00  0.00000000000E+00  0.27496645070E+04  0.27496645070E+04  0.50400001928E-02 0.  1.
       -1   -1    0    0    0  501  0.00000000000E+00  0.00000000000E+00 -0.13157901587E+04  0.13157901587E+04  0.50400001928E-02 0. -1.
    10030    2    1    2    0    0  0.00000000000E+00  0.00000000000E+00  0.14338743483E+04  0.40654546657E+04  0.38041984691E+04 0.  0.
        1    1    3    3  502    0  0.49424568375E+02 -0.12379988730E+04  0.22592764054E+04  0.25767060122E+04  0.50400001928E-02 0.  1.
       -1    1    3    3    0  502 -0.49424568375E+02  0.12379988730E+04 -0.82540205712E+03  0.14887486535E+04  0.50400001928E-02 0. -1.
</event>
<event>
 5   0  0.1327249E-08  0.3800252E+04  0.7818609E-02  0.8046101E-01
       -2   -1    0    0    0  501  0.00000000000E+00  0.00000000000E+00  0.14125121162E+04  0.14125121162E+04  0.25500000920E-02 0.  1.
        2   -1    0    0  501    0  0.00000000000E+00  0.00000000000E+00 -0.25560690494E+04  0.25560690494E+04  0.25500000920E-02 0. -1.
    10030    2    1    2    0    0  0.00000000000E+00  0.00000000000E+00 -0.11435569332E+04  0.39685811655E+04  0.38002518348E+04 0.  0.
        1    1    3    3  502    0  0.83780039448E+03 -0.37372851516E+03  0.11659271761E+04  0.14835662048E+04  0.50400001928E-02 0.  1.
       -1    1    3    3    0  502 -0.83780039448E+03  0.37372851516E+03 -0.23094841093E+04  0.24850149607E+04  0.50400001928E-02 0. -1.
</event>
<event>
 5   0  0.1264013E-08  0.3798741E+04  0.7818609E-02  0.8046425E-01
        2   -1    0    0  501    0  0.00000000000E+00  0.00000000000E+00  0.22242007140E+04  0.22242007140E+04  0.25500000920E-02 0.  1.
       -2   -1    0    0    0  501  0.00000000000E+00  0.00000000000E+00 -0.16219799669E+04  0.16219799669E+04  0.25500000920E-02 0. -1.
    10030    2    1    2    0    0  0.00000000000E+00  0.00000000000E+00  0.60222074706E+03  0.38461806809E+04  0.37987413708E+04 0.  0.
        4    1    3    3  502    0  0.10361443746E+04 -0.97343588353E+03 -0.97415647487E+03  0.17234137735E+04  0.12699999809E+01 0. -1.
       -4    1    3    3    0  502 -0.10361443746E+04  0.97343588353E+03  0.15763772219E+04  0.21227669074E+04  0.12699999809E+01 0.  1.
</event>
<event>
 5   0  0.1293993E-08  0.3801770E+04  0.7818609E-02  0.8045775E-01
       -2   -1    0    0    0  501  0.00000000000E+00  0.00000000000E+00  0.16045039395E+04  0.16045039395E+04  0.25500000920E-02 0. -1.
        2   -1    0    0  501    0  0.00000000000E+00  0.00000000000E+00 -0.22520130726E+04  0.22520130726E+04  0.25500000920E-02 0.  1.
    10030    2    1    2    0    0  0.00000000000E+00  0.00000000000E+00 -0.64750913308E+03  0.38565170120E+04  0.38017700334E+04 0.  0.
        5    1    3    3  502    0  0.61177618325E+03 -0.71615886705E+03  0.13511394074E+04  0.16470438396E+04  0.46999998093E+01 0. -1.
       -5    1    3    3    0  502 -0.61177618325E+03  0.71615886705E+03 -0.19986485405E+04  0.22094731724E+04  0.46999998093E+01 0.  1.
</event>
<event>
 5   0  0.1327249E-08  0.3799823E+04  0.7818609E-02  0.8046193E-01
        2   -1    0    0  501    0  0.00000000000E+00  0.00000000000E+00  0.15423310491E+04  0.15423310491E+04  0.25500000920E-02 0. -1.
       -2   -1    0    0    0  501  0.00000000000E+00  0.00000000000E+00 -0.23403949473E+04  0.23403949473E+04  0.25500000920E-02 0.  1.
    10030    2    1    2    0    0  0.00000000000E+00  0.00000000000E+00 -0.79806389826E+03  0.38827259964E+04  0.37998230455E+04 0.  0.
        1    1    3    3  502    0  0.62590101693E+03  0.22315873047E+03 -0.22177845484E+04  0.23151933408E+04  0.50400001928E-02 0.  1.
       -1    1    3    3    0  502 -0.62590101693E+03 -0.22315873047E+03  0.14197206501E+04  0.15675326556E+04  0.50400001928E-02 0. -1.
</event>
<event>
 5   0  0.1293993E-08  0.3797484E+04  0.7818609E-02  0.8046695E-01
       -2   -1    0    0    0  501  0.00000000000E+00  0.00000000000E+00  0.15235905108E+04  0.15235905108E+04  0.25500000920E-02 0.  1.
        2   -1    0    0  501    0  0.00000000000E+00  0.00000000000E+00 -0.23662665382E+04  0.23662665382E+04  0.25500000920E-02 0. -1.
    10030    2    1    2    0    0  0.00000000000E+00  0.00000000000E+00 -0.84267602739E+03  0.38898570490E+04  0.37974840322E+04 0.  0.
        5    1    3    3  502    0  0.27612949974E+03 -0.23723683690E+03  0.14875017075E+04  0.15314085795E+04  0.46999998093E+01 0.  1.
       -5    1    3    3    0  502 -0.27612949974E+03  0.23723683690E+03 -0.23301777349E+04  0.23584484696E+04  0.46999998093E+01 0. -1.
</event>
<event>
 5   0  0.1327249E-08  0.3800536E+04  0.7818609E-02  0.8046040E-01
       -2   -1    0    0    0  501  0.00000000000E+00  0.00000000000E+00  0.19925321041E+04  0.19925321041E+04  0.25500000920E-02 0. -1.
        2   -1    0    0  501    0  0.00000000000E+00  0.00000000000E+00 -0.18122760874E+04  0.18122760874E+04  0.25500000920E-02 0.  1.
    10030    2    1    2    0    0  0.00000000000E+00  0.00000000000E+00  0.18025601671E+03  0.38048081916E+04  0.38005359021E+04 0.  0.
        1    1    3    3  502    0 -0.57875993818E+02  0.14970417556E+04  0.12604308257E+04  0.19578481848E+04  0.50400001928E-02 0. -1.
       -1    1    3    3    0  502  0.57875993818E+02 -0.14970417556E+04 -0.10801748089E+04  0.18469600067E+04  0.50400001928E-02 0.  1.
</event>
<event>
 5   0  0.4071750E-09  0.3797137E+04  0.7818609E-02  0.8046770E-01
        1   -1    0    0  501    0  0.00000000000E+00  0.00000000000E+00  0.30855274753E+04  0.30855274753E+04  0.50400001928E-02 0. -1.
       -1   -1    0    0    0  501  0.00000000000E+00  0.00000000000E+00 -0.11682160543E+04  0.11682160543E+04  0.50400001928E-02 0.  1.
    10030    2    1    2    0    0  0.00000000000E+00  0.00000000000E+00  0.19173114210E+04  0.42537435297E+04  0.37971372020E+04 0.  0.
        4    1    3    3  502    0  0.12012405429E+04  0.14236756499E+04  0.54746145340E+03  0.19415320894E+04  0.12699999809E+01 0.  1.
       -4    1    3    3    0  502 -0.12012405429E+04 -0.14236756499E+04  0.13698499676E+04  0.23122114403E+04  0.12699999809E+01 0. -1.
</event>
<event>
 5   0  0.4071750E-09  0.3799774E+04  0.7818609E-02  0.8046203E-01
        1   -1    0    0  501    0  0.00000000000E+00  0.00000000000E+00  0.10949201911E+04  0.10949201912E+04  0.50400001928E-02 0. -1.
       -1   -1    0    0    0  501  0.00000000000E+00  0.00000000000E+00 -0.32966525891E+04  0.32966525891E+04  0.50400001928E-02 0.  1.
    10030    2    1    2    0    0  0.00000000000E+00  0.00000000000E+00 -0.22017323979E+04  0.43915727802E+04  0.37997744580E+04 0.  0.
        3    1    3    3  502    0  0.12379234168E+04  0.12499200832E+04 -0.27161014376E+03  0.17800355841E+04  0.10100000352E+00 0. -1.
       -3    1    3    3    0  502 -0.12379234168E+04 -0.12499200832E+04 -0.19301222541E+04  0.26115371961E+04  0.10100000352E+00 0.  1.
</event>
<event>
 5   0  0.1327249E-08  0.3802268E+04  0.7818609E-02  0.8045668E-01
        2   -1    0    0  501    0  0.00000000000E+00  0.00000000000E+00  0.20923543757E+04  0.20923543757E+04  0.25500000920E-02 0. -1.
       -2   -1    0    0    0  501  0.00000000000E+00  0.00000000000E+00 -0.17273895918E+04  0.17273895918E+04  0.25500000920E-02 0.  1.
    10030    2    1    2    0    0  0.00000000000E+00  0.00000000000E+00  0.36496478388E+03  0.38197439675E+04  0.38022683604E+04 0.  0.
        1    1    3    3  502    0 -0.17093658791E+04  0.58468654743E+03  0.77725173252E+03  0.19667003643E+04  0.50400001928E-02 0. -1.
       -1    1    3    3    0  502  0.17093658791E+04 -0.58468654743E+03 -0.41228694864E+03  0.18530436032E+04  0.50400001928E-02 0.  1.
</event>
<event>
 5   0  0.4071750E-09  0.3800852E+04  0.7818609E-02  0.8045972E-01
       -1   -1    0    0    0  501  0.00000000000E+00  0.00000000000E+00  0.19249562030E+04  0.19249562030E+04  0.50400001928E-02 0. -1.
        1   -1    0    0  501    0  0.00000000000E+00  0.00000000000E+00 -0.18762084148E+04  0.18762084148E+04  0.50400001928E-02 0.  1.
    10030    2    1    2    0    0  0.00000000000E+00  0.00000000000E+00  0.48747788138E+02  0.38011646178E+04  0.38008520235E+04 0.  0.
        2    1    3    3  502    0 -0.84361466856E+03 -0.10129774918E+04  0.13933582429E+04  0.19181387595E+04  0.25500000920E-02 0. -1.
       -2    1    3    3    0  502  0.84361466856E+03  0.10129774918E+04 -0.13446104547E+04  0.18830258583E+04  0.25500000920E-02 0.  1.
</event>
<event>
 5   0  0.1261152E-08  0.3800650E+04  0.7818609E-02  0.8046015E-01
       -2   -1    0    0    0  501  0.00000000000E+00  0.00000000000E+00  0.12695954567E+04  0.12695954567E+04  0.25500000920E-02 0.  1.
        2   -1    0    0  501    0  0.00000000000E+00  0.00000000000E+00 -0.28443983573E+04  0.28443983573E+04  0.25500000920E-02 0. -1.
    10030    2    1    2    0    0  0.00000000000E+00  0.00000000000E+00 -0.15748029005E+04  0.41139938140E+04  0.38006500662E+04 0.  0.
        2    1    3    3  502    0  0.48759290786E+03 -0.14868149458E+04  0.37986842496E+03  0.16101756262E+04  0.25500000920E-02 0. -1.
       -2    1    3    3    0  502 -0.48759290786E+03  0.14868149458E+04 -0.19546713255E+04  0.25038181878E+04  0.25500000920E-02 0.  1.
</event>
<event>
 5   0  0.4071750E-09  0.3799321E+04  0.7818609E-02  0.8046301E-01
        1   -1    0    0  501    0  0.00000000000E+00  0.00000000000E+00  0.19941769037E+04  0.19941769037E+04  0.50400001928E-02 0. -1.
       -1   -1    0    0    0  501  0.00000000000E+00  0.00000000000E+00 -0.18096235221E+04  0.18096235221E+04  0.50400001928E-02 0.  1.
    10030    2    1    2    0    0  0.00000000000E+00  0.00000000000E+00  0.18455338161E+03  0.38038004259E+04  0.37993206931E+04 0.  0.
        4    1    3    3  502    0 -0.13063159128E+04 -0.12165131555E+04 -0.55836825256E+03  0.18703321202E+04  0.12699999809E+01 0.  1.
       -4    1    3    3    0  502  0.13063159128E+04  0.12165131555E+04  0.74292163417E+03  0.19334683057E+04  0.12699999809E+01 0. -1.
</event>
<event>
 5   0  0.1293993E-08  0.3799590E+04  0.7818609E-02  0.8046243E-01
        2   -1    0    0  501    0  0.00000000000E+00  0.00000000000E+00  0.22167118237E+04  0.22167118237E+04  0.25500000920E-02 0.  1.
       -2   -1    0    0    0  501  0.00000000000E+00  0.00000000000E+00 -0.16281870306E+04  0.16281870306E+04  0.25500000920E-02 0. -1.
    10030    2    1    2    0    0  0.00000000000E+00  0.00000000000E+00  0.58852479310E+03  0.38448988544E+04  0.37995902106E+04 0.  0.
        5    1    3    3  502    0  0.89744730879E+03 -0.66072962281E+03  0.18511879307E+04  0.21607624004E+04  0.46999998093E+01 0.  1.
       -5    1    3    3    0  502 -0.89744730879E+03  0.66072962281E+03 -0.12626631376E+04  0.16841364539E+04  0.46999998093E+01 0. -1.
</event>
<event>
 5   0  0.4071750E-09  0.3800628E+04  0.7818609E-02  0.8046020E-01
        1   -1    0    0  501    0  0.00000000000E+00  0.00000000000E+00  0.21370890876E+04  0.21370890876E+04  0.50400001928E-02 0.  1.
       -1   -1    0    0    0  501  0.00000000000E+00  0.00000000000E+00 -0.16897721070E+04  0.16897721070E+04  0.50400001928E-02 0. -1.
    10030    2    1    2    0    0  0.00000000000E+00  0.00000000000E+00  0.44731698059E+03  0.38268611946E+04  0.38006281220E+04 0.  0.
        1    1    3    3  502    0 -0.10811476585E+04  0.76346554707E+03 -0.11493640699E+04  0.17529397212E+04  0.50400001928E-02 0. -1.
       -1    1    3    3    0  502  0.10811476585E+04 -0.76346554707E+03  0.15966810504E+04  0.20739214734E+04  0.50400001928E-02 0.  1.
</event>
<event>
 5   0  0.1327249E-08  0.3803227E+04  0.7818609E-02  0.8045463E-01
        2   -1    0    0  501    0  0.00000000000E+00  0.00000000000E+00  0.13736259746E+04  0.13736259746E+04  0.25500000920E-02 0.  1.
       -2   -1    0    0    0  501  0.00000000000E+00  0.00000000000E+00 -0.26325467288E+04  0.26325467288E+04  0.25500000920E-02 0. -1.
    10030    2    1    2    0    0  0.00000000000E+00  0.00000000000E+00 -0.12589207543E+04  0.40061727034E+04  0.38032273484E+04 0.  0.
        1    1    3    3  502    0  0.86896224702E+03 -0.62814889804E+03 -0.22837636739E+04  0.25229433095E+04  0.50400001928E-02 0. -1.
       -1    1    3    3    0  502 -0.86896224702E+03  0.62814889804E+03  0.10248429196E+04  0.14832293939E+04  0.50400001928E-02 0.  1.
</event>
<event>
 5   0  0.4071750E-09  0.3799588E+04  0.7818609E-02  0.8046243E-01
        1   -1    0    0  501    0  0.00000000000E+00  0.00000000000E+00  0.24266824889E+04  0.24266824889E+04  0.50400001928E-02 0.  1.
       -1   -1    0    0    0  501  0.00000000000E+00  0.00000000000E+00 -0.14873053875E+04  0.14873053875E+04  0.50400001928E-02 0. -1.
    10030    2    1    2    0    0  0.00000000000E+00  0.00000000000E+00  0.93937710134E+03  0.39139878764E+04  0.37995883669E+04 0.  0.
        2    1    3    3  502    0 -0.28065849132E+02  0.13786535985E+04  0.18158414000E+04  0.22800775045E+04  0.25500000920E-02 0.  1.
       -2    1    3    3    0  502  0.28065849132E+02 -0.13786535985E+04 -0.87646429866E+03  0.16339103719E+04  0.25500000920E-02 0. -1.
</event>
<event>
 5   0  0.4071750E-09  0.3799951E+04  0.7818609E-02  0.8046165E-01
       -1   -1    0    0    0  501  0.00000000000E+00  0.00000000000E+00  0.20664497896E+04  0.20664497896E+04  0.50400001928E-02 0.  1.
        1   -1    0    0  501    0  0.00000000000E+00  0.00000000000E+00 -0.17469126572E+04  0.17469126572E+04  0.50400001928E-02 0. -1.
    10030    2    1    2    0    0  0.00000000000E+00  0.00000000000E+00  0.31953713238E+03  0.38133624468E+04  0.37999512065E+04 0.  0.
        2    1    3    3  502    0 -0.55291590571E+03 -0.14634375448E+04 -0.92224912754E+03  0.18160145648E+04  0.25500000920E-02 0. -1.
       -2    1    3    3    0  502  0.55291590571E+03  0.14634375448E+04  0.12417862599E+04  0.19973478820E+04  0.25500000920E-02 0.  1.
</event>
<event>
 5   0  0.4071750E-09  0.3802789E+04  0.7818609E-02  0.8045557E-01
        1   -1    0    0  501    0  0.00000000000E+00  0.00000000000E+00  0.21922377992E+04  0.21922377992E+04  0.50400001928E-02 0.  1.
       -1   -1    0    0    0  501  0.00000000000E+00  0.00000000000E+00 -0.16491374573E+04  0.16491374573E+04  0.50400001928E-02 0. -1.
    10030    2    1    2    0    0  0.00000000000E+00  0.00000000000E+00  0.54310034186E+03  0.38413752566E+04  0.38027892238E+04 0.  0.
        5    1    3    3  502    0  0.69970884641E+03  0.39101172621E+03 -0.14701247092E+04  0.16744465923E+04  0.46999998093E+01 0. -1.
       -5    1    3    3    0  502 -0.69970884641E+03 -0.39101172621E+03  0.20132250511E+04  0.21669286643E+04  0.46999998093E+01 0.  1.
</event>
<event>
 5   0  0.4071750E-09  0.3798654E+04  0.7818609E-02  0.8046444E-01
        1   -1    0    0  501    0  0.00000000000E+00  0.00000000000E+00  0.15752463870E+04  0.15752463870E+04  0.50400001928E-02 0.  1.
       -1   -1    0    0    0  501  0.00000000000E+00  0.00000000000E+00 -0.22900815960E+04  0.22900815960E+04  0.50400001928E-02 0. -1.
    10030    2    1    2    0    0  0.00000000000E+00  0.00000000000E+00 -0.71483520899E+03  0.38653279830E+04  0.37986538458E+04 0.  0.
        5    1    3    3  502    0 -0.33068686192E+03  0.10756039585E+04  0.11995178234E+04  0.16447318246E+04  0.46999998093E+01 0.  1.
       -5    1    3    3    0  502  0.33068686192E+03 -0.10756039585E+04 -0.19143530324E+04  0.22205961584E+04  0.46999998093E+01 0. -1.
</event>
<event>
 5   0  0.4071750E-09  0.3797714E+04  0.7818609E-02  0.8046646E-01
        1   -1    0    0  501    0  0.00000000000E+00  0.00000000000E+00  0.18071143143E+04  0.18071143143E+04  0.50400001928E-02 0. -1.
       -1   -1    0    0    0  501  0.00000000000E+00  0.00000000000E+00 -0.19952567312E+04  0.19952567313E+04  0.50400001928E-02 0.  1.
    10030    2    1    2    0    0  0.00000000000E+00  0.00000000000E+00 -0.18814241696E+03  0.38023710456E+04  0.37977135225E+04 0.  0.
        4    1    3    3  502    0 -0.62767807735E+03 -0.16833985345E+04 -0.70951603954E+03  0.19316379107E+04  0.12699999809E+01 0.  1.
       -4    1    3    3    0  502  0.62767807735E+03  0.16833985345E+04  0.52137362258E+03  0.18707331349E+04  0.12699999809E+01 0. -1.
</event>
<event>
 5   0  0.1264013E-08  0.3798859E+04  0.7818609E-02  0.8046400E-01
       -2   -1    0    0    0  501  0.00000000000E+00  0.00000000000E+00  0.33368960084E+04  0.33368960084E+04  0.25500000920E-02 0.  1.
        2   -1    0    0  501    0  0.00000000000E+00  0.00000000000E+00 -0.10811939534E+04  0.10811939534E+04  0.25500000920E-02 0. -1.
    10030    2    1    2    0    0  0.00000000000E+00  0.00000000000E+00  0.22557020550E+04  0.44180899618E+04  0.37988586641E+04 0.  0.
        4    1    3    3  502    0  0.57560581519E+03 -0.18060830616E+04  0.98745901106E+03  0.21373663680E+04  0.12699999809E+01 0. -1.
       -4    1    3    3    0  502 -0.57560581519E+03  0.18060830616E+04  0.12682430440E+04  0.22807235938E+04  0.12699999809E+01 0.  1.
</event>
<event>
 5   0  0.1327249E-08  0.3799465E+04  0.7818609E-02  0.8046270E-01
       -2   -1    0    0    0  501  0.00000000000E+00  0.00000000000E+00  0.19400709917E+04  0.19400709917E+04  0.25500000920E-02 0.  1.
        2   -1    0    0  501    0  0.00000000000E+00  0.00000000000E+00 -0.18602332061E+04  0.18602332061E+04  0.25500000920E-02 0. -1.
    10030    2    1    2    0    0  0.00000000000E+00  0.00000000000E+00  0.79837785656E+02  0.38003041978E+04  0.37994654787E+04 0.  0.
        1    1    3    3  502    0  0.26913810873E+03 -0.11582153173E+04  0.15218283573E+04  0.19312844410E+04  0.50400001928E-02 0.  1.
       -1    1    3    3    0  502 -0.26913810873E+03  0.11582153173E+04 -0.14419905716E+04  0.18690197569E+04  0.50400001928E-02 0. -1.
</event>
<event>
 5   0  0.1293993E-08  0.3800109E+04  0.7818609E-02  0.8046132E-01
       -2   -1    0    0    0  501  0.00000000000E+00  0.00000000000E+00  0.21483265190E+04  0.21483265190E+04  0.25500000920E-02 0. -1.
        2   -1    0    0  501    0  0.00000000000E+00  0.00000000000E+00 -0.16804737429E+04  0.16804737429E+04  0.25500000920E-02 0.  1.
    10030    2    1    2    0    0  0.00000000000E+00  0.00000000000E+00  0.46785277608E+03  0.38288002619E+04  0.38001085807E+04 0.  0.
        5    1    3    3  502    0  0.18124393383E+04  0.32040389576E+03 -0.24142936495E+03  0.18563149624E+04  0.46999998093E+01 0.  1.
       -5    1    3    3    0  502 -0.18124393383E+04 -0.32040389576E+03  0.70928214103E+03  0.19724852995E+04  0.46999998093E+01 0. -1.
</event>
<event>
 5   0  0.1261152E-08  0.3798833E+04  0.7818609E-02  0.8046405E-01
       -2   -1    0    0    0  501  0.00000000000E+00  0.00000000000E+00  0.13609198250E+04  0.13609198250E+04  0.25500000920E-02 0. -1.
        2   -1    0    0  501    0  0.00000000000E+00  0.00000000000E+00 -0.26509881056E+04  0.26509881056E+04  0.25500000920E-02 0.  1.
    10030    2    1    2    0    0  0.00000000000E+00  0.00000000000E+00 -0.12900682807E+04  0.40119079306E+04  0.37988325937E+04 0.  0.
        2    1    3    3  502    0 -0.11312845318E+04  0.15255392249E+04 -0.61694036358E+03  0.19969201363E+04  0.25500000920E-02 0. -1.
       -2    1    3    3    0  502  0.11312845318E+04 -0.15255392249E+04 -0.67312791708E+03  0.20149877943E+04  0.25500000920E-02 0.  1.
</event>
<event>
 5   0  0.4071750E-09  0.3788680E+04  0.7818609E-02  0.8048588E-01
       -1   -1    0    0    0  501  0.00000000000E+00  0.00000000000E+00  0.18376165095E+04  0.18376165095E+04  0.50400001928E-02 0. -1.
        1   -1    0    0  501    0  0.00000000000E+00  0.00000000000E+00 -0.19528144741E+04  0.19528144741E+04  0.50400001928E-02 0.  1.
    10030    2    1    2    0    0  0.00000000000E+00  0.00000000000E+00 -0.11519796458E+03  0.37904309836E+04  0.37886800433E+04 0.  0.
        2    1    3    3  502    0 -0.59673156940E+03  0.15916297892E+04 -0.89413740962E+03  0.19206393881E+04  0.25500000920E-02 0.  1.
       -2    1    3    3    0  502  0.59673156940E+03 -0.15916297892E+04  0.77893944504E+03  0.18697915955E+04  0.25500000920E-02 0. -1.
</event>
<event>
 5   0  0.4071750E-09  0.3799922E+04  0.7818609E-02  0.8046172E-01
        1   -1    0    0  501    0  0.00000000000E+00  0.00000000000E+00  0.26327508100E+04  0.26327508100E+04  0.50400001928E-02 0.  1.
       -1   -1    0    0    0  501  0.00000000000E+00  0.00000000000E+00 -0.13711334096E+04  0.13711334096E+04  0.50400001928E-02 0. -1.
    10030    2    1    2    0    0  0.00000000000E+00  0.00000000000E+00  0.12616174004E+04  0.40038842196E+04  0.37999224175E+04 0.  0.
        1    1    3    3  502    0 -0.41930359479E+03 -0.18442601171E+04  0.44014963333E+03  0.19418657482E+04  0.50400001928E-02 0.  1.
       -1    1    3    3    0  502  0.41930359479E+03  0.18442601171E+04  0.82146776709E+03  0.20620184714E+04  0.50400001928E-02 0. -1.
</event>
<event>
 5   0  0.1293993E-08  0.3799389E+04  0.7818609E-02  0.8046286E-01
       -2   -1    0    0    0  501  0.00000000000E+00  0.00000000000E+00  0.16307014040E+04  0.16307014040E+04  0.25500000920E-02 0.  1.
        2   -1    0    0  501    0  0.00000000000E+00  0.00000000000E+00 -0.22130592856E+04  0.22130592856E+04  0.25500000920E-02 0. -1.
    10030    2    1    2    0    0  0.00000000000E+00  0.00000000000E+00 -0.58235788160E+03  0.38437606895E+04  0.37993888372E+04 0.  0.
        5    1    3    3  502    0  0.12856251914E+03 -0.18728811325E+04  0.30869579475E+01  0.18772969070E+04  0.46999998093E+01 0.  1.
       -5    1    3    3    0  502 -0.12856251914E+03  0.18728811325E+04 -0.58544483955E+03  0.19664637825E+04  0.46999998093E+01 0. -1.
</event>
<event>
 5   0  0.1327249E-08  0.3799849E+04  0.7818609E-02  0.8046187E-01
        2   -1    0    0  501    0  0.00000000000E+00  0.00000000000E+00  0.14828840105E+04  0.14828840105E+04  0.25500000920E-02 0. -1.
       -2   -1    0    0    0  501  0.00000000000E+00  0.00000000000E+00 -0.24342515075E+04  0.24342515075E+04  0.25500000920E-02 0.  1.
    10030    2    1    2    0    0  0.00000000000E+00  0.00000000000E+00 -0.95136749706E+03  0.39171355180E+04  0.37998487538E+04 0.  0.
        1    1    3    3  502    0 -0.18893851213E+04 -0.18479383480E+03 -0.55410915684E+03  0.19776151941E+04  0.50400001928E-02 0. -1.
       -1    1    3    3    0  502  0.18893851213E+04  0.18479383480E+03 -0.39725834022E+03  0.19395203239E+04  0.50400001928E-02 0.  1.
</event>
<event>
 5   0  0.4071750E-09  0.3797080E+04  0.7818609E-02  0.8046782E-01
        3   -1    0    0  501    0  0.00000000000E+00  0.00000000000E+00  0.15462326032E+04  0.15462326065E+04  0.10100000352E+00 0.  1.
       -3   -1    0    0    0  501  0.00000000000E+00  0.00000000000E+00 -0.23311200131E+04  0.23311200153E+04  0.10100000352E+00 0. -1.
    10030    2    1    2    0    0  0.00000000000E+00  0.00000000000E+00 -0.78488740988E+03  0.38773526219E+04  0.37970798132E+04 0.  0.
        4    1    3    3  502    0  0.47267669215E+03  0.10256611241E+04 -0.19508288814E+04  0.22541381799E+04  0.12699999809E+01 0. -1.
       -4    1    3    3    0  502 -0.47267669215E+03 -0.10256611241E+04  0.11659414715E+04  0.16232144420E+04  0.12699999809E+01 0.  1.
</event>
<event>
 5   0  0.4071750E-09  0.3800238E+04  0.7818609E-02  0.8046104E-01
        1   -1    0    0  501    0  0.00000000000E+00  0.00000000000E+00  0.27263220243E+04  0.27263220243E+04  0.50400001928E-02 0.  1.
       -1   -1    0    0    0  501  0.00000000000E+00  0.00000000000E+00 -0.13242944618E+04  0.13242944618E+04  0.50400001928E-02 0. -1.
    10030    2    1    2    0    0  0.00000000000E+00  0.00000000000E+00  0.14020275625E+04  0.40506164861E+04  0.38002384967E+04 0.  0.
        3    1    3    3  502    0 -0.77517931651E+03  0.77685674639E+03 -0.95232569264E+03  0.14530428804E+04  0.10100000352E+00 0. -1.
       -3    1    3    3    0  502  0.77517931651E+03 -0.77685674639E+03  0.23543532551E+04  0.25975736057E+04  0.10100000352E+00 0.  1.
</event>
<event>
 5   0  0.1293993E-08  0.3800326E+04  0.7818609E-02  0.8046085E-01
       -2   -1    0    0    0  501  0.00000000000E+00  0.00000000000E+00  0.14308731521E+04  0.14308731521E+04  0.25500000920E-02 0. -1.
        2   -1    0    0  501    0  0.00000000000E+00  0.00000000000E+00 -0.25233682124E+04  0.25233682124E+04  0.25500000920E-02 0.  1.
    10030    2    1    2    0    0  0.00000000000E+00  0.00000000000E+00 -0.10924950602E+04  0.39542413645E+04  0.38003262113E+04 0.  0.
        5    1    3    3  502    0  0.67602299063E+03  0.12234972423E+04  0.79298825313E+03  0.16071107757E+04  0.46999998093E+01 0. -1.
       -5    1    3    3    0  502 -0.67602299063E+03 -0.12234972423E+04 -0.18854833134E+04  0.23471305888E+04  0.46999998093E+01 0.  1.
</event>
<event>
 5   0  0.4071750E-09  0.3801894E+04  0.7818609E-02  0.8045748E-01
       -1   -1    0    0    0  501  0.00000000000E+00  0.00000000000E+00  0.17766830440E+04  0.17766830440E+04  0.50400001928E-02 0. -1.
        1   -1    0    0  501    0  0.00000000000E+00  0.00000000000E+00 -0.20339026129E+04  0.20339026129E+04  0.50400001928E-02 0.  1.
    10030    2    1    2    0    0  0.00000000000E+00  0.00000000000E+00 -0.25721956884E+03  0.38105856569E+04  0.38018944149E+04 0.  0.
        3    1    3    3  502    0  0.16659306851E+03 -0.38156841016E+03 -0.19876416798E+04  0.20307799387E+04  0.10100000352E+00 0.  1.
       -3    1    3    3    0  502 -0.16659306851E+03  0.38156841016E+03  0.17304221110E+04  0.17798057182E+04  0.10100000352E+00 0. -1.
</event>
<event>
 5   0  0.1293993E-08  0.3799654E+04  0.7818609E-02  0.8046229E-01
       -2   -1    0    0    0  501  0.00000000000E+00  0.00000000000E+00  0.18504126264E+04  0.18504126264E+04  0.25500000920E-02 0. -1.
        2   -1    0    0  501    0  0.00000000000E+00  0.00000000000E+00 -0.19505609061E+04  0.19505609061E+04  0.25500000920E-02 0.  1.
    10030    2    1    2    0    0  0.00000000000E+00  0.00000000000E+00 -0.10014827969E+03  0.38009735326E+04  0.37996539470E+04 0.  0.
        5    1    3    3  502    0 -0.18510413871E+04  0.42276136278E+03 -0.11520475811E+03  0.19022028317E+04  0.46999998093E+01 0.  1.
       -5    1    3    3    0  502  0.18510413871E+04 -0.42276136278E+03  0.15056478428E+02  0.18987707008E+04  0.46999998093E+01 0. -1.
</event>
<event>
 5   0  0.4071750E-09  0.3799589E+04  0.7818609E-02  0.8046243E-01
        1   -1    0    0  501    0  0.00000000000E+00  0.00000000000E+00  0.29282415600E+04  0.29282415600E+04  0.50400001928E-02 0. -1.
       -1   -1    0    0    0  501  0.00000000000E+00  0.00000000000E+00 -0.12325551725E+04  0.12325551726E+04  0.50400001928E-02 0.  1.
    10030    2    1    2    0    0  0.00000000000E+00  0.00000000000E+00  0.16956863874E+04  0.41607967325E+04  0.37995890732E+04 0.  0.
        2    1    3    3  502    0 -0.22408409113E+02 -0.21595549884E+03  0.29146111833E+04  0.29226866517E+04  0.25500000920E-02 0. -1.
       -2    1    3    3    0  502  0.22408409113E+02  0.21595549884E+03 -0.12189247959E+04  0.12381100808E+04  0.25500000920E-02 0.  1.
</event>
<event>
 5   0  0.1327249E-08  0.3799097E+04  0.7818609E-02  0.8046349E-01
        2   -1    0    0  501    0  0.00000000000E+00  0.00000000000E+00  0.16361213540E+04  0.16361213540E+04  0.25500000920E-02 0. -1.
       -2   -1    0    0    0  501  0.00000000000E+00  0.00000000000E+00 -0.22053887988E+04  0.22053887988E+04  0.25500000920E-02 0.  1.
    10030    2    1    2    0    0  0.00000000000E+00  0.00000000000E+00 -0.56926744477E+03  0.38415101529E+04  0.37990965809E+04 0.  0.
        1    1    3    3  502    0 -0.14251011950E+04 -0.12277373308E+04 -0.17044964726E+02  0.18811015125E+04  0.50400001928E-02 0. -1.
       -1    1    3    3    0  502  0.14251011950E+04  0.12277373308E+04 -0.55222248005E+03  0.19604086403E+04  0.50400001928E-02 0.  1.
</event>
<event>
 5   0  0.4071750E-09  0.3800128E+04  0.7818609E-02  0.8046127E-01
        1   -1    0    0  501    0  0.00000000000E+00  0.00000000000E+00  0.22927088687E+04  0.22927088687E+04  0.50400001928E-02 0.  1.
       -1   -1    0    0    0  501  0.00000000000E+00  0.00000000000E+00 -0.15746628763E+04  0.15746628763E+04  0.50400001928E-02 0. -1.
    10030    2    1    2    0    0  0.00000000000E+00  0.00000000000E+00  0.71804599238E+03  0.38673717450E+04  0.38001281777E+04 0.  0.
        2    1    3    3  502    0  0.10901735529E+04 -0.10458107189E+04 -0.81377735502E+03  0.17159347362E+04  0.25500000920E-02 0. -1.
       -2    1    3    3    0  502 -0.10901735529E+04  0.10458107189E+04  0.15318233474E+04  0.21514370088E+04  0.25500000920E-02 0.  1.
</event>
<event>
 5   0  0.1264013E-08  0.3802798E+04  0.7818609E-02  0.8045555E-01
        2   -1    0    0  501    0  0.00000000000E+00  0.00000000000E+00  0.20147644655E+04  0.20147644655E+04  0.25500000920E-02 0. -1.
       -2   -1    0    0    0  501  0.00000000000E+00  0.00000000000E+00 -0.17944127385E+04  0.17944127385E+04  0.25500000920E-02 0.  1.
    10030    2    1    2    0    0  0.00000000000E+00  0.00000000000E+00  0.22035172701E+03  0.38091772039E+04  0.38027984548E+04 0.  0.
        4    1    3    3  502    0  0.12521443460E+02 -0.94496834420E+03  0.17628511003E+04  0.20001918840E+04  0.12699999809E+01 0. -1.
       -4    1    3    3    0  502 -0.12521443460E+02  0.94496834420E+03 -0.15424993733E+04  0.18089853199E+04  0.12699999809E+01 0.  1.
</event>
<event>
 5   0  0.4071750E-09  0.3801588E+04  0.7818609E-02  0.8045814E-01
        1   -1    0    0  501    0  0.00000000000E+00  0.00000000000E+00  0.26134328612E+04  0.26134328612E+04  0.50400001928E-02 0. -1.
       -1   -1    0    0    0  501  0.00000000000E+00  0.00000000000E+00 -0.13824793284E+04  0.13824793284E+04  0.50400001928E-02 0.  1.
    10030    2    1    2    0    0  0.00000000000E+00  0.00000000000E+00  0.12309535328E+04  0.39959121896E+04  0.38015875141E+04 0.  0.
        4    1    3    3  502    0 -0.86799133513E+03  0.59995686452E+03 -0.10463710409E+04  0.14860185616E+04  0.12699999809E+01 0.  1.
       -4    1    3    3    0  502  0.86799133513E+03 -0.59995686452E+03  0.22773245737E+04  0.25098936280E+04  0.12699999809E+01 0. -1.
</event>
<event>
 5   0  0.4071750E-09  0.3800816E+04  0.7818609E-02  0.8045980E-01
       -1   -1    0    0    0  501  0.00000000000E+00  0.00000000000E+00  0.19493216262E+04  0.19493216262E+04  0.50400001928E-02 0. -1.
        1   -1    0    0  501    0  0.00000000000E+00  0.00000000000E+00 -0.18527220325E+04  0.18527220325E+04  0.50400001928E-02 0.  1.
    10030    2    1    2    0    0  0.00000000000E+00  0.00000000000E+00  0.96599593694E+02  0.38020436588E+04  0.38008162941E+04 0.  0.
        2    1    3    3  502    0 -0.86123452665E+03  0.14394101850E+04  0.94185446881E+03  0.19237246245E+04  0.25500000920E-02 0. -1.
       -2    1    3    3    0  502  0.86123452665E+03 -0.14394101850E+04 -0.84525487512E+03  0.18783190342E+04  0.25500000920E-02 0.  1.
</event>
<event>
 5   0  0.4071750E-09  0.3800217E+04  0.7818609E-02  0.8046108E-01
        1   -1    0    0  501    0  0.00000000000E+00  0.00000000000E+00  0.15822256075E+04  0.15822256076E+04  0.50400001928E-02 0. -1.
       -1   -1    0    0    0  501  0.00000000000E+00  0.00000000000E+00 -0.22818564879E+04  0.22818564879E+04  0.50400001928E-02 0.  1.
    10030    2    1    2    0    0  0.00000000000E+00  0.00000000000E+00 -0.69963088040E+03  0.38640820955E+04  0.38002167138E+04 0.  0.
        5    1    3    3  502    0  0.13264523431E+03  0.19980992857E+03 -0.22663987209E+04  0.22790577039E+04  0.46999998093E+01 0.  1.
       -5    1    3    3    0  502 -0.13264523431E+03 -0.19980992857E+03  0.15667678405E+04  0.15850243916E+04  0.46999998093E+01 0. -1.
</event>
<event>
 5   0  0.4071750E-09  0.3801594E+04  0.7818609E-02  0.8045813E-01
        1   -1    0    0  501    0  0.00000000000E+00  0.00000000000E+00  0.22308181182E+04  0.22308181182E+04  0.50400001928E-02 0.  1.
       -1   -1    0    0    0  501  0.00000000000E+00  0.00000000000E+00 -0.16195983653E+04  0.16195983653E+04  0.50400001928E-02 0. -1.
    10030    2    1    2    0    0  0.00000000000E+00  0.00000000000E+00  0.61121975291E+03  0.38504164835E+04  0.38015940748E+04 0.  0.
        2    1    3    3  502    0  0.32278246056E+03 -0.78144128165E+03 -0.14186607161E+04  0.16514954499E+04  0.25500000920E-02 0. -1.
       -2    1    3    3    0  502 -0.32278246056E+03  0.78144128165E+03  0.20298804690E+04  0.21989210336E+04  0.25500000920E-02 0.  1.
</event>
<event>
 5   0  0.4071750E-09  0.3801096E+04  0.7818609E-02  0.8045920E-01
        1   -1    0    0  501    0  0.00000000000E+00  0.00000000000E+00  0.16430607383E+04  0.16430607383E+04  0.50400001928E-02 0. -1.
       -1   -1    0    0    0  501  0.00000000000E+00  0.00000000000E+00 -0.21983862474E+04  0.21983862474E+04  0.50400001928E-02 0.  1.
    10030    2    1    2    0    0  0.00000000000E+00  0.00000000000E+00 -0.55532550910E+03  0.38414469857E+04  0.38010957003E+04 0.  0.
        3    1    3    3  502    0  0.13844092046E+04 -0.97003878455E+03  0.60018833291E+03  0.17938199839E+04  0.10100000352E+00 0.  1.
       -3    1    3    3    0  502 -0.13844092046E+04  0.97003878455E+03 -0.11555138420E+04  0.20476270018E+04  0.10100000352E+00 0. -1.
</event>
<event>
 5   0  0.4071750E-09  0.3794991E+04  0.7818609E-02  0.8047231E-01
       -1   -1    0    0    0  501  0.00000000000E+00  0.00000000000E+00  0.15849791977E+04  0.15849791977E+04  0.50400001928E-02 0. -1.
        1   -1    0    0  501    0  0.00000000000E+00  0.00000000000E+00 -0.22716317212E+04  0.22716317212E+04  0.50400001928E-02 0.  1.
    10030    2    1    2    0    0  0.00000000000E+00  0.00000000000E+00 -0.68665252354E+03  0.38566109189E+04  0.37949909211E+04 0.  0.
        5    1    3    3  502    0  0.98665177025E+03 -0.13894257808E+04  0.50477906229E+03  0.17773040561E+04  0.46999998093E+01 0. -1.
       -5    1    3    3    0  502 -0.98665177025E+03  0.13894257808E+04 -0.11914315858E+04  0.20793068628E+04  0.46999998093E+01 0.  1.
</event>
<event>
 5   0  0.4071750E-09  0.3798548E+04  0.7818609E-02  0.8046467E-01
        1   -1    0    0  501    0  0.00000000000E+00  0.00000000000E+00  0.27323721948E+04  0.27323721948E+04  0.50400001928E-02 0.  1.
       -1   -1    0    0    0  501  0.00000000000E+00  0.00000000000E+00 -0.13201864762E+04  0.13201864762E+04  0.50400001928E-02 0. -1.
    10030    2    1    2    0    0  0.00000000000E+00  0.00000000000E+00  0.14121857186E+04  0.40525586710E+04  0.37985475222E+04 0.  0.
        5    1    3    3  502    0 -0.46835203859E+03 -0.14963349712E+04  0.18496103119E+04  0.24247582094E+04  0.46999998093E+01 0.  1.
       -5    1    3    3    0  502  0.46835203859E+03  0.14963349712E+04 -0.43742459328E+03  0.16278004616E+04  0.46999998093E+01 0. -1.
</event>
<event>
 5   0  0.4071750E-09  0.3800461E+04  0.7818609E-02  0.8046056E-01
        1   -1    0    0  501    0  0.00000000000E+00  0.00000000000E+00  0.16021796604E+04  0.16021796605E+04  0.50400001928E-02 0. -1.
       -1   -1    0    0    0  501  0.00000000000E+00  0.00000000000E+00 -0.22537278031E+04  0.22537278031E+04  0.50400001928E-02 0.  1.
    10030    2    1    2    0    0  0.00000000000E+00  0.00000000000E+00 -0.65154814268E+03  0.38559074636E+04  0.38004614701E+04 0.  0.
        5    1    3    3  502    0 -0.97290479149E+03  0.82068267848E+03  0.11057646493E+04  0.16860608950E+04  0.46999998093E+01 0. -1.
       -5    1    3    3    0  502  0.97290479149E+03 -0.82068267848E+03 -0.17573127920E+04  0.21698465686E+04  0.46999998093E+01 0.  1.
</event>
<event>
 5   0  0.1264013E-08  0.3801429E+04  0.7818609E-02  0.8045848E-01
       -2   -1    0    0    0  501  0.00000000000E+00  0.00000000000E+00  0.23982815356E+04  0.23982815356E+04  0.25500000920E-02 0. -1.
        2   -1    0    0  501    0  0.00000000000E+00  0.00000000000E+00 -0.15063770491E+04  0.15063770491E+04  0.25500000920E-02 0.  1.
    10030    2    1    2    0    0  0.00000000000E+00  0.00000000000E+00  0.89190448646E+03  0.39046585847E+04  0.38014293430E+04 0.  0.
        4    1    3    3  502    0 -0.13862035218E+04 -0.27945129993E+03 -0.85860035775E+03  0.16543425946E+04  0.12699999809E+01 0.  1.
       -4    1    3    3    0  502  0.13862035218E+04  0.27945129993E+03  0.17505048442E+04  0.22503159901E+04  0.12699999809E+01 0. -1.
</event>
<event>
 5   0  0.4071750E-09  0.3799277E+04  0.7818609E-02  0.8046310E-01
       -1   -1    0    0    0  501  0.00000000000E+00  0.00000000000E+00  0.14167776415E+04  0.14167776415E+04  0.50400001928E-02 0.  1.
        1   -1    0    0  501    0  0.00000000000E+00  0.00000000000E+00 -0.25470664294E+04  0.25470664294E+04  0.50400001928E-02 0. -1.
    10030    2    1    2    0    0  0.00000000000E+00  0.00000000000E+00 -0.11302887879E+04  0.39638440708E+04  0.37992771778E+04 0.  0.
        4    1    3    3  502    0 -0.36817971675E+02  0.40393985119E+03  0.13710706827E+04  0.14298109652E+04  0.12699999809E+01 0.  1.
       -4    1    3    3    0  502  0.36817971675E+02 -0.40393985119E+03 -0.25013594706E+04  0.25340331056E+04  0.12699999809E+01 0. -1.
</event>
<event>
 5   0  0.1305088E-08  0.3799246E+04  0.7818609E-02  0.8046317E-01
        2   -1    0    0  501    0  0.00000000000E+00  0.00000000000E+00  0.14341410448E+04  0.14341410449E+04  0.25500000920E-02 0. -1.
       -2   -1    0    0    0  501  0.00000000000E+00  0.00000000000E+00 -0.25161868751E+04  0.25161868751E+04  0.25500000920E-02 0.  1.
    10030    2    1    2    0    0  0.00000000000E+00  0.00000000000E+00 -0.10820458303E+04  0.39503279200E+04  0.37992456484E+04 0.  0.
        3    1    3    3  502    0 -0.36903281090E+03  0.67440060061E+03 -0.23472157907E+04  0.24699035131E+04  0.10100000352E+00 0.  1.
       -3    1    3    3    0  502  0.36903281090E+03 -0.67440060061E+03  0.12651699604E+04  0.14804244069E+04  0.10100000352E+00 0. -1.
</event>
<event>
 5   0  0.1327249E-08  0.3799474E+04  0.7818609E-02  0.8046268E-01
       -2   -1    0    0    0  501  0.00000000000E+00  0.00000000000E+00  0.15649767500E+04  0.15649767500E+04  0.25500000920E-02 0.  1.
        2   -1    0    0  501    0  0.00000000000E+00  0.00000000000E+00 -0.23061045454E+04  0.23061045454E+04  0.25500000920E-02 0. -1.
    10030    2    1    2    0    0  0.00000000000E+00  0.00000000000E+00 -0.74112779540E+03  0.38710812954E+04  0.37994736460E+04 0.  0.
        1    1    3    3  502    0  0.14203183755E+04 -0.22893777508E+02  0.91462617585E+03  0.16894879267E+04  0.50400001928E-02 0.  1.
       -1    1    3    3    0  502 -0.14203183755E+04  0.22893777508E+02 -0.16557539713E+04  0.21815933687E+04  0.50400001928E-02 0. -1.
</event>
<event>
 5   0  0.4071750E-09  0.3799889E+04  0.7818609E-02  0.8046179E-01
       -1   -1    0    0    0  501  0.00000000000E+00  0.00000000000E+00  0.26137529789E+04  0.26137529789E+04  0.50400001928E-02 0.  1.
        1   -1    0    0  501    0  0.00000000000E+00  0.00000000000E+00 -0.13810751607E+04  0.13810751607E+04  0.50400001928E-02 0. -1.
    10030    2    1    2    0    0  0.00000000000E+00  0.00000000000E+00  0.12326778182E+04  0.39948281395E+04  0.37998891117E+04 0.  0.
        4    1    3    3  502    0 -0.13129826400E+04  0.19074022363E+03 -0.81338534670E+03  0.15562463112E+04  0.12699999809E+01 0. -1.
       -4    1    3    3    0  502  0.13129826400E+04 -0.19074022363E+03  0.20460631649E+04  0.24385818283E+04  0.12699999809E+01 0.  1.
</event>
<event>
 5   0  0.1327249E-08  0.3797579E+04  0.7818609E-02  0.8046675E-01
        2   -1    0    0  501    0  0.00000000000E+00  0.00000000000E+00  0.22981367561E+04  0.22981367561E+04  0.25500000920E-02 0. -1.
       -2   -1    0    0    0  501  0.00000000000E+00  0.00000000000E+00 -0.15688366175E+04  0.15688366175E+04  0.25500000920E-02 0.  1.
    10030    2    1    2    0    0  0.00000000000E+00  0.00000000000E+00  0.72930013863E+03  0.38669733736E+04  0.37975787523E+04 0.  0.
        1    1    3    3  502    0  0.47266125743E+02 -0.18592438247E+04 -0.24936868211E+02  0.18600117026E+04  0.50400001928E-02 0. -1.
       -1    1    3    3    0  502 -0.47266125743E+02  0.18592438247E+04  0.75423700684E+03  0.20069616710E+04  0.50400001928E-02 0.  1.
</event>
<event>
 5   0  0.1327249E-08  0.3800259E+04  0.7818609E-02  0.8046099E-01
        2   -1    0    0  501    0  0.00000000000E+00  0.00000000000E+00  0.21517559624E+04  0.21517559624E+04  0.25500000920E-02 0.  1.
       -2   -1    0    0    0  501  0.00000000000E+00  0.00000000000E+00 -0.16779280266E+04  0.16779280266E+04  0.25500000920E-02 0. -1.
    10030    2    1    2    0    0  0.00000000000E+00  0.00000000000E+00  0.47382793581E+03  0.38296839890E+04  0.38002587468E+04 0.  0.
        1    1    3    3  502    0 -0.13030880584E+04 -0.38662635394E+03  0.15749648488E+04  0.20803924390E+04  0.50400001928E-02 0.  1.
       -1    1    3    3    0  502  0.13030880584E+04  0.38662635394E+03 -0.11011369130E+04  0.17492915499E+04  0.50400001928E-02 0. -1.
</event>
<event>
 5   0  0.4071750E-09  0.3800838E+04  0.7818609E-02  0.8045975E-01
       -1   -1    0    0    0  501  0.00000000000E+00  0.00000000000E+00  0.17881894296E+04  0.17881894296E+04  0.50400001928E-02 0.  1.
        1   -1    0    0  501    0  0.00000000000E+00  0.00000000000E+00 -0.20196918112E+04  0.20196918112E+04  0.50400001928E-02 0. -1.
    10030    2    1    2    0    0  0.00000000000E+00  0.00000000000E+00 -0.23150238161E+03  0.38078812407E+04  0.38008375644E+04 0.  0.
        2    1    3    3  502    0 -0.18138354281E+04  0.35860836354E+03  0.32437219648E+03  0.18771830600E+04  0.25500000920E-02 0. -1.
       -2    1    3    3    0  502  0.18138354281E+04 -0.35860836354E+03 -0.55587457810E+03  0.19306981808E+04  0.25500000920E-02 0.  1.
</event>
<event>
 5   0  0.1327249E-08  0.3800782E+04  0.7818609E-02  0.8045987E-01
        2   -1    0    0  501    0  0.00000000000E+00  0.00000000000E+00  0.14923072208E+04  0.14923072208E+04  0.25500000920E-02 0. -1.
       -2   -1    0    0    0  501  0.00000000000E+00  0.00000000000E+00 -0.24200680538E+04  0.24200680538E+04  0.25500000920E-02 0.  1.
    10030    2    1    2    0    0  0.00000000000E+00  0.00000000000E+00 -0.92776083302E+03  0.39123752746E+04  0.38007815151E+04 0.  0.
        1    1    3    3  502    0 -0.18632152385E+04 -0.31654731189E+03 -0.25875124908E+03  0.19075443467E+04  0.50400001928E-02 0. -1.
       -1    1    3    3    0  502  0.18632152385E+04  0.31654731189E+03 -0.66900958394E+03  0.20048309278E+04  0.50400001928E-02 0.  1.
</event>
<event>
 5   0  0.4071750E-09  0.3799472E+04  0.7818609E-02  0.8046268E-01
        1   -1    0    0  501    0  0.00000000000E+00  0.00000000000E+00  0.17781139903E+04  0.17781139903E+04  0.50400001928E-02 0.  1.
       -1   -1    0    0    0  501  0.00000000000E+00  0.00000000000E+00 -0.20296771575E+04  0.20296771575E+04  0.50400001928E-02 0. -1.
    10030    2    1    2    0    0  0.00000000000E+00  0.00000000000E+00 -0.25156316715E+03  0.38077911478E+04  0.37994722526E+04 0.  0.
        1    1    3    3  502    0  0.65969770772E+03 -0.90256851234E+03  0.14135391765E+04  0.18021997637E+04  0.50400001928E-02 0.  1.
       -1    1    3    3    0  502 -0.65969770772E+03  0.90256851234E+03 -0.16651023436E+04  0.20055913840E+04  0.50400001928E-02 0. -1.
</event>
<event>
 5   0  0.4071750E-09  0.3804588E+04  0.7818609E-02  0.8045171E-01
       -1   -1    0    0    0  501  0.00000000000E+00  0.00000000000E+00  0.19249682491E+04  0.19249682491E+04  0.50400001928E-02 0.  1.
        1   -1    0    0  501    0  0.00000000000E+00  0.00000000000E+00 -0.18798869556E+04  0.18798869556E+04  0.50400001928E-02 0. -1.
    10030    2    1    2    0    0  0.00000000000E+00  0.00000000000E+00  0.45081293518E+02  0.38048552048E+04  0.38045881257E+04 0.  0.
        2    1    3    3  502    0  0.81161626278E+03  0.12640372184E+04 -0.11446795181E+04  0.18885979579E+04  0.25500000920E-02 0. -1.
       -2    1    3    3    0  502 -0.81161626278E+03 -0.12640372184E+04  0.11897608116E+04  0.19162572469E+04  0.25500000920E-02 0.  1.
</event>
<event>
 5   0  0.4071750E-09  0.3806004E+04  0.7818609E-02  0.8044868E-01
        1   -1    0    0  501    0  0.00000000000E+00  0.00000000000E+00  0.17703018228E+04  0.17703018228E+04  0.50400001928E-02 0.  1.
       -1   -1    0    0    0  501  0.00000000000E+00  0.00000000000E+00 -0.20456489912E+04  0.20456489912E+04  0.50400001928E-02 0. -1.
    10030    2    1    2    0    0  0.00000000000E+00  0.00000000000E+00 -0.27534716837E+03  0.38159508141E+04  0.38060037509E+04 0.  0.
        1    1    3    3  502    0 -0.92141344531E+03  0.11058034772E+04  0.11104139674E+04  0.18179172826E+04  0.50400001928E-02 0.  1.
       -1    1    3    3    0  502  0.92141344531E+03 -0.11058034772E+04 -0.13857611358E+04  0.19980335315E+04  0.50400001928E-02 0. -1.
</event>
<event>
 5   0  0.1327249E-08  0.3796214E+04  0.7818609E-02  0.8046968E-01
        2   -1    0    0  501    0  0.00000000000E+00  0.00000000000E+00  0.34079979355E+04  0.34079979355E+04  0.25500000920E-02 0.  1.
       -2   -1    0    0    0  501  0.00000000000E+00  0.00000000000E+00 -0.10571630179E+04  0.10571630179E+04  0.25500000920E-02 0. -1.
    10030    2    1    2    0    0  0.00000000000E+00  0.00000000000E+00  0.23508349176E+04  0.44651609533E+04  0.37962135780E+04 0.  0.
        1    1    3    3  502    0  0.55735892807E+03 -0.17824900010E+04  0.77673491180E+03  0.20226805733E+04  0.50400001928E-02 0. -1.
       -1    1    3    3    0  502 -0.55735892807E+03  0.17824900010E+04  0.15741000058E+04  0.24424803800E+04  0.50400001928E-02 0.  1.
</event>
<event>
 5   0  0.4071750E-09  0.3798898E+04  0.7818609E-02  0.8046391E-01
        1   -1    0    0  501    0  0.00000000000E+00  0.00000000000E+00  0.26157727945E+04  0.26157727945E+04  0.50400001928E-02 0.  1.
       -1   -1    0    0    0  501  0.00000000000E+00  0.00000000000E+00 -0.13792890716E+04  0.13792890716E+04  0.50400001928E-02 0. -1.
    10030    2    1    2    0    0  0.00000000000E+00  0.00000000000E+00  0.12364837229E+04  0.39950618662E+04  0.37988981715E+04 0.  0.
        1    1    3    3  502    0  0.93526045090E+02 -0.93425963615E+03  0.23546593968E+04  0.25349574087E+04  0.50400001928E-02 0.  1.
       -1    1    3    3    0  502 -0.93526045090E+02  0.93425963615E+03 -0.11181756740E+04  0.14601044575E+04  0.50400001928E-02 0. -1.
</event>
<event>
 5   0  0.4071750E-09  0.3799592E+04  0.7818609E-02  0.8046242E-01
       -1   -1    0    0    0  501  0.00000000000E+00  0.00000000000E+00  0.10897584463E+04  0.10897584463E+04  0.50400001928E-02 0. -1.
        1   -1    0    0  501    0  0.00000000000E+00  0.00000000000E+00 -0.33119501165E+04  0.33119501165E+04  0.50400001928E-02 0.  1.
    10030    2    1    2    0    0  0.00000000000E+00  0.00000000000E+00 -0.22221916702E+04  0.44017085628E+04  0.37995924061E+04 0.  0.
        4    1    3    3  502    0 -0.10928027140E+03 -0.15141502986E+04  0.21211201824E+03  0.15328360726E+04  0.12699999809E+01 0. -1.
       -4    1    3    3    0  502  0.10928027140E+03  0.15141502986E+04 -0.24343036885E+04  0.28688724902E+04  0.12699999809E+01 0.  1.
</event>
<event>
 5   0  0.1261152E-08  0.3800278E+04  0.7818609E-02  0.8046095E-01
       -2   -1    0    0    0  501  0.00000000000E+00  0.00000000000E+00  0.12574556200E+04  0.12574556200E+04  0.25500000920E-02 0. -1.
        2   -1    0    0  501    0  0.00000000000E+00  0.00000000000E+00 -0.28712967143E+04  0.28712967143E+04  0.25500000920E-02 0.  1.
    10030    2    1    2    0    0  0.00000000000E+00  0.00000000000E+00 -0.16138410943E+04  0.41287523343E+04  0.38002779846E+04 0.  0.
        2    1    3    3  502    0 -0.94788327742E+03 -0.98403841855E+03  0.62771331662E+03  0.15036084346E+04  0.25500000920E-02 0.  1.
       -2    1    3    3    0  502  0.94788327742E+03  0.98403841855E+03 -0.22415544110E+04  0.26251438997E+04  0.25500000920E-02 0. -1.
</event>
<event>
 5   0  0.1261152E-08  0.3798796E+04  0.7818609E-02  0.8046413E-01
        2   -1    0    0  501    0  0.00000000000E+00  0.00000000000E+00  0.22896823670E+04  0.22896823670E+04  0.25500000920E-02 0.  1.
       -2   -1    0    0    0  501  0.00000000000E+00  0.00000000000E+00 -0.15756388539E+04  0.15756388539E+04  0.25500000920E-02 0. -1.
    10030    2    1    2    0    0  0.00000000000E+00  0.00000000000E+00  0.71404351302E+03  0.38653212209E+04  0.37987958621E+04 0.  0.
        2    1    3    3  502    0 -0.14203869862E+04 -0.24247732664E+03 -0.90215447260E+03  0.17000520983E+04  0.25500000920E-02 0. -1.
       -2    1    3    3    0  502  0.14203869862E+04  0.24247732664E+03  0.16161979856E+04  0.21652691226E+04  0.25500000920E-02 0.  1.
</event>
<event>
 5   0  0.1293993E-08  0.3798902E+04  0.7818609E-02  0.8046391E-01
       -2   -1    0    0    0  501  0.00000000000E+00  0.00000000000E+00  0.17742016679E+04  0.17742016680E+04  0.25500000920E-02 0. -1.
        2   -1    0    0  501    0  0.00000000000E+00  0.00000000000E+00 -0.20335417561E+04  0.20335417561E+04  0.25500000920E-02 0.  1.
    10030    2    1    2    0    0  0.00000000000E+00  0.00000000000E+00 -0.25934008815E+03  0.38077434241E+04  0.37989015126E+04 0.  0.
        5    1    3    3  502    0  0.11573322681E+04  0.61920782821E+03 -0.15058385956E+04  0.19976006306E+04  0.46999998093E+01 0.  1.
       -5    1    3    3    0  502 -0.11573322681E+04 -0.61920782821E+03  0.12464985075E+04  0.18101427934E+04  0.46999998093E+01 0. -1.
</event>
<event>
 5   0  0.1327249E-08  0.3801554E+04  0.7818609E-02  0.8045822E-01
        2   -1    0    0  501    0  0.00000000000E+00  0.00000000000E+00  0.19300200137E+04  0.19300200137E+04  0.25500000920E-02 0. -1.
       -2   -1    0    0    0  501  0.00000000000E+00  0.00000000000E+00 -0.18719769677E+04  0.18719769677E+04  0.25500000920E-02 0.  1.
    10030    2    1    2    0    0  0.00000000000E+00  0.00000000000E+00  0.58043045942E+02  0.38019969814E+04  0.38015538996E+04 0.  0.
        1    1    3    3  502    0  0.54690411869E+03  0.16728184918E+04 -0.68906438450E+03  0.18900358588E+04  0.50400001928E-02 0.  1.
       -1    1    3    3    0  502 -0.54690411869E+03 -0.16728184918E+04  0.74710743044E+03  0.19119611226E+04  0.50400001928E-02 0. -1.
</event>
<event>
 5   0  0.4071750E-09  0.3798966E+04  0.7818609E-02  0.8046377E-01
       -1   -1    0    0    0  501  0.00000000000E+00  0.00000000000E+00  0.32611258700E+04  0.32611258700E+04  0.50400001928E-02 0.  1.
        1   -1    0    0  501    0  0.00000000000E+00  0.00000000000E+00 -0.11063775436E+04  0.11063775436E+04  0.50400001928E-02 0. -1.
    10030    2    1    2    0    0  0.00000000000E+00  0.00000000000E+00  0.21547483264E+04  0.43675034136E+04  0.37989664013E+04 0.  0.
        3    1    3    3  502    0 -0.15776257658E+03  0.85127110573E+03 -0.86635500194E+03  0.12247948912E+04  0.10100000352E+00 0. -1.
       -3    1    3    3    0  502  0.15776257658E+03 -0.85127110573E+03  0.30211033283E+04  0.31427085224E+04  0.10100000352E+00 0.  1.
</event>
<event>
 5   0  0.1264013E-08  0.3804867E+04  0.7818609E-02  0.8045111E-01
        2   -1    0    0  501    0  0.00000000000E+00  0.00000000000E+00  0.20082762363E+04  0.20082762363E+04  0.25500000920E-02 0.  1.
       -2   -1    0    0    0  501  0.00000000000E+00  0.00000000000E+00 -0.18021691781E+04  0.18021691781E+04  0.25500000920E-02 0. -1.
    10030    2    1    2    0    0  0.00000000000E+00  0.00000000000E+00  0.20610705822E+03  0.38104454144E+04  0.38048671641E+04 0.  0.
        4    1    3    3  502    0  0.61010208080E+03  0.14933320982E+04 -0.90688249655E+03  0.18505952501E+04  0.12699999809E+01 0. -1.
       -4    1    3    3    0  502 -0.61010208080E+03 -0.14933320982E+04  0.11129895548E+04  0.19598501643E+04  0.12699999809E+01 0.  1.
</event>
<event>
 5   0  0.1293993E-08  0.3801362E+04  0.7818609E-02  0.8045863E-01
        2   -1    0    0  501    0  0.00000000000E+00  0.00000000000E+00  0.13716970677E+04  0.13716970677E+04  0.25500000920E-02 0. -1.
       -2   -1    0    0    0  501  0.00000000000E+00  0.00000000000E+00 -0.26336634706E+04  0.26336634706E+04  0.25500000920E-02 0.  1.
    10030    2    1    2    0    0  0.00000000000E+00  0.00000000000E+00 -0.12619664029E+04  0.40053605383E+04  0.38013621032E+04 0.  0.
        5    1    3    3  502    0 -0.94635274789E+03  0.20623609651E+03 -0.23541192828E+04  0.25455876608E+04  0.46999998093E+01 0.  1.
       -5    1    3    3    0  502  0.94635274789E+03 -0.20623609651E+03  0.10921528799E+04  0.14597728775E+04  0.46999998093E+01 0. -1.
</event>
<event>
 5   0  0.1327249E-08  0.3801778E+04  0.7818609E-02  0.8045774E-01
        2   -1    0    0  501    0  0.00000000000E+00  0.00000000000E+00  0.18925299225E+04  0.18925299225E+04  0.25500000920E-02 0.  1.
       -2   -1    0    0    0  501  0.00000000000E+00  0.00000000000E+00 -0.19092846931E+04  0.19092846931E+04  0.25500000920E-02 0. -1.
    10030    2    1    2    0    0  0.00000000000E+00  0.00000000000E+00 -0.16754770654E+02  0.38018146156E+04  0.38017776959E+04 0.  0.
        1    1    3    3  502    0  0.12737349368E+03  0.13848660562E+04 -0.13042682093E+04  0.19066183578E+04  0.50400001928E-02 0. -1.
       -1    1    3    3    0  502 -0.12737349368E+03 -0.13848660562E+04  0.12875134387E+04  0.18951962577E+04  0.50400001928E-02 0.  1.
</event>
<event>
 5   0  0.4071750E-09  0.3798771E+04  0.7818609E-02  0.8046419E-01
        1   -1    0    0  501    0  0.00000000000E+00  0.00000000000E+00  0.20590827503E+04  0.20590827503E+04  0.50400001928E-02 0. -1.
       -1   -1    0    0    0  501  0.00000000000E+00  0.00000000000E+00 -0.17520743519E+04  0.17520743519E+04  0.50400001928E-02 0.  1.
    10030    2    1    2    0    0  0.00000000000E+00  0.00000000000E+00  0.30700839841E+03  0.38111571022E+04  0.37987714199E+04 0.  0.
        1    1    3    3  502    0  0.46810799656E+03  0.11764639369E+04 -0.12669062488E+04  0.17911571496E+04  0.50400001928E-02 0.  1.
       -1    1    3    3    0  502 -0.46810799656E+03 -0.11764639369E+04  0.15739146473E+04  0.20199999525E+04  0.50400001928E-02 0. -1.
</event>
<event>
 5   0  0.4071750E-09  0.3799919E+04  0.7818609E-02  0.8046172E-01
       -1   -1    0    0    0  501  0.00000000000E+00  0.00000000000E+00  0.27931872315E+04  0.27931872315E+04  0.50400001928E-02 0.  1.
        1   -1    0    0  501    0  0.00000000000E+00  0.00000000000E+00 -0.12923753421E+04  0.12923753421E+04  0.50400001928E-02 0. -1.
    10030    2    1    2    0    0  0.00000000000E+00  0.00000000000E+00  0.15008118894E+04  0.40855625736E+04  0.37999191064E+04 0.  0.
        2    1    3    3  502    0  0.11690129212E+04 -0.10607500618E+04 -0.38646436542E+03  0.16251574106E+04  0.25500000920E-02 0. -1.
       -2    1    3    3    0  502 -0.11690129212E+04  0.10607500618E+04  0.18872762549E+04  0.24604051629E+04  0.25500000920E-02 0.  1.
</event>
<event>
 5   0  0.4071750E-09  0.3799967E+04  0.7818609E-02  0.8046162E-01
       -1   -1    0    0    0  501  0.00000000000E+00  0.00000000000E+00  0.19005379368E+04  0.19005379368E+04  0.50400001928E-02 0. -1.
        1   -1    0    0  501    0  0.00000000000E+00  0.00000000000E+00 -0.18994290175E+04  0.18994290175E+04  0.50400001928E-02 0.  1.
    10030    2    1    2    0    0  0.00000000000E+00  0.00000000000E+00  0.11089193240E+01  0.37999669543E+04  0.37999667925E+04 0.  0.
        2    1    3    3  502    0  0.54298662872E+03  0.15337007694E+04  0.98181103104E+03  0.19002698308E+04  0.25500000920E-02 0.  1.
       -2    1    3    3    0  502 -0.54298662872E+03 -0.15337007694E+04 -0.98070211172E+03  0.18996971235E+04  0.25500000920E-02 0. -1.
</event>
<event>
 5   0  0.1261152E-08  0.3799827E+04  0.7818609E-02  0.8046192E-01
        2   -1    0    0  501    0  0.00000000000E+00  0.00000000000E+00  0.16821679041E+04  0.16821679041E+04  0.25500000920E-02 0. -1.
       -2   -1    0    0    0  501  0.00000000000E+00  0.00000000000E+00 -0.21458445719E+04  0.21458445719E+04  0.25500000920E-02 0.  1.
    10030    2    1    2    0    0  0.00000000000E+00  0.00000000000E+00 -0.46367666782E+03  0.38280124760E+04  0.37998267677E+04 0.  0.
        2    1    3    3  502    0  0.45118799294E+03 -0.30812159967E+03 -0.20649955730E+04  0.21360515541E+04  0.25500000920E-02 0.  1.
       -2    1    3    3    0  502 -0.45118799294E+03  0.30812159967E+03  0.16013189052E+04  0.16919609219E+04  0.25500000920E-02 0. -1.
</event>
<event>
 5   0  0.1264013E-08  0.3797164E+04  0.7818609E-02  0.8046764E-01
        2   -1    0    0  501    0  0.00000000000E+00  0.00000000000E+00  0.19605281749E+04  0.19605281749E+04  0.25500000920E-02 0. -1.
       -2   -1    0    0    0  501  0.00000000000E+00  0.00000000000E+00 -0.18385926948E+04  0.18385926948E+04  0.25500000920E-02 0.  1.
    10030    2    1    2    0    0  0.00000000000E+00  0.00000000000E+00  0.12193548011E+03  0.37991208698E+04  0.37971635627E+04 0.  0.
        4    1    3    3  502    0 -0.18776833022E+04  0.28083167610E+03  0.68053336278E+02  0.18997878521E+04  0.12699999809E+01 0.  1.
       -4    1    3    3    0  502  0.18776833022E+04 -0.28083167610E+03  0.53882143831E+02  0.18993330176E+04  0.12699999809E+01 0. -1.
</event>
<event>
 5   0  0.1293993E-08  0.3801658E+04  0.7818609E-02  0.8045799E-01
        2   -1    0    0  501    0  0.00000000000E+00  0.00000000000E+00  0.25365550562E+04  0.25365550562E+04  0.25500000920E-02 0. -1.
       -2   -1    0    0    0  501  0.00000000000E+00  0.00000000000E+00 -0.14244321214E+04  0.14244321214E+04  0.25500000920E-02 0.  1.
    10030    2    1    2    0    0  0.00000000000E+00  0.00000000000E+00  0.11121229348E+04  0.39609871777E+04  0.38016577962E+04 0.  0.
        5    1    3    3  502    0 -0.17284256035E+04 -0.30941111968E+02  0.13795768697E+04  0.22117112942E+04  0.46999998093E+01 0.  1.
       -5    1    3    3    0  502  0.17284256035E+04  0.30941111968E+02 -0.26745393493E+03  0.17492758835E+04  0.46999998093E+01 0. -1.
</event>
<event>
 5   0  0.4071750E-09  0.3797230E+04  0.7818609E-02  0.8046750E-01
       -1   -1    0    0    0  501  0.00000000000E+00  0.00000000000E+00  0.20149788549E+04  0.20149788549E+04  0.50400001928E-02 0. -1.
        1   -1    0    0  501    0  0.00000000000E+00  0.00000000000E+00 -0.17889706547E+04  0.17889706547E+04  0.50400001928E-02 0.  1.
    10030    2    1    2    0    0  0.00000000000E+00  0.00000000000E+00  0.22600820019E+03  0.38039495095E+04  0.37972295380E+04 0.  0.
        1    1    3    3  502    0 -0.22867383450E+02 -0.15252768851E+04 -0.10193704013E+04  0.18346957537E+04  0.50400001928E-02 0.  1.
       -1    1    3    3    0  502  0.22867383450E+02  0.15252768851E+04  0.12453786015E+04  0.19692537558E+04  0.50400001928E-02 0. -1.
</event>
<event>
 5   0  0.4071750E-09  0.3801107E+04  0.7818609E-02  0.8045917E-01
       -1   -1    0    0    0  501  0.00000000000E+00  0.00000000000E+00  0.20000751690E+04  0.20000751690E+04  0.50400001928E-02 0.  1.
        1   -1    0    0  501    0  0.00000000000E+00  0.00000000000E+00 -0.18059841571E+04  0.18059841571E+04  0.50400001928E-02 0. -1.
    10030    2    1    2    0    0  0.00000000000E+00  0.00000000000E+00  0.19409101194E+03  0.38060593261E+04  0.38011072430E+04 0.  0.
        4    1    3    3  502    0 -0.63682143337E+01  0.57778699701E+03 -0.17158999960E+04  0.18105780229E+04  0.12699999809E+01 0. -1.
       -4    1    3    3    0  502  0.63682143337E+01 -0.57778699701E+03  0.19099910079E+04  0.19954813032E+04  0.12699999809E+01 0.  1.
</event>
<event>
 5   0  0.1261152E-08  0.3800897E+04  0.7818609E-02  0.8045962E-01
       -2   -1    0    0    0  501  0.00000000000E+00  0.00000000000E+00  0.19279240768E+04  0.19279240768E+04  0.25500000920E-02 0.  1.
        2   -1    0    0  501    0  0.00000000000E+00  0.00000000000E+00 -0.18733642206E+04  0.18733642206E+04  0.25500000920E-02 0. -1.
    10030    2    1    2    0    0  0.00000000000E+00  0.00000000000E+00  0.54559856232E+02  0.38012882974E+04  0.38008967287E+04 0.  0.
        2    1    3    3  502    0 -0.42098867098E+03 -0.26414825933E+03 -0.18072204181E+04  0.18743135820E+04  0.25500000920E-02 0. -1.
       -2    1    3    3    0  502  0.42098867098E+03  0.26414825933E+03  0.18617802743E+04  0.19269747154E+04  0.25500000920E-02 0.  1.
</event>
<event>
 5   0  0.1327249E-08  0.3801337E+04  0.7818609E-02  0.8045868E-01
       -2   -1    0    0    0  501  0.00000000000E+00  0.00000000000E+00  0.26371713994E+04  0.26371713994E+04  0.25500000920E-02 0. -1.
        2   -1    0    0  501    0  0.00000000000E+00  0.00000000000E+00 -0.13698542810E+04  0.13698542810E+04  0.25500000920E-02 0.  1.
    10030    2    1    2    0    0  0.00000000000E+00  0.00000000000E+00  0.12673171184E+04  0.40070256804E+04  0.38013368865E+04 0.  0.
        1    1    3    3  502    0 -0.11013584001E+04 -0.96391523643E+03 -0.64456293254E+03  0.15992449101E+04  0.50400001928E-02 0.  1.
       -1    1    3    3    0  502  0.11013584001E+04  0.96391523643E+03  0.19118800510E+04  0.24077807703E+04  0.50400001928E-02 0. -1.
</event>
<event>
 5   0  0.1264013E-08  0.3798696E+04  0.7818609E-02  0.8046435E-01
       -2   -1    0    0    0  501  0.00000000000E+00  0.00000000000E+00  0.14758033604E+04  0.14758033604E+04  0.25500000920E-02 0.  1.
        2   -1    0    0  501    0  0.00000000000E+00  0.00000000000E+00 -0.24444473266E+04  0.24444473266E+04  0.25500000920E-02 0. -1.
    10030    2    1    2    0    0  0.00000000000E+00  0.00000000000E+00 -0.96864396616E+03  0.39202506869E+04  0.37986963968E+04 0.  0.
        4    1    3    3  502    0 -0.17863170989E+04  0.29776136707E+03 -0.10752991851E+04  0.21061482758E+04  0.12699999809E+01 0. -1.
       -4    1    3    3    0  502  0.17863170989E+04 -0.29776136707E+03  0.10665521896E+03  0.18141024111E+04  0.12699999809E+01 0.  1.
</event>
<event>
 5   0  0.4071750E-09  0.3777063E+04  0.7818609E-02  0.8051095E-01
       -1   -1    0    0    0  501  0.00000000000E+00  0.00000000000E+00  0.32386822018E+04  0.32386822018E+04  0.50400001928E-02 0. -1.
        1   -1    0    0  501    0  0.00000000000E+00  0.00000000000E+00 -0.11012353006E+04  0.11012353006E+04  0.50400001928E-02 0.  1.
    10030    2    1    2    0    0  0.00000000000E+00  0.00000000000E+00  0.21374469012E+04  0.43399175025E+04  0.37770629691E+04 0.  0.
        2    1    3    3  502    0 -0.63785827778E+03 -0.11200851754E+04  0.26546600315E+04  0.29510462324E+04  0.25500000920E-02 0. -1.
       -2    1    3    3    0  502  0.63785827778E+03  0.11200851754E+04 -0.51721313032E+03  0.13888712701E+04  0.25500000920E-02 0.  1.
</event>
<event>
 5   0  0.1293993E-08  0.3800980E+04  0.7818609E-02  0.8045945E-01
        2   -1    0    0  501    0  0.00000000000E+00  0.00000000000E+00  0.23242991692E+04  0.23242991692E+04  0.25500000920E-02 0.  1.
       -2   -1    0    0    0  501  0.00000000000E+00  0.00000000000E+00 -0.15539575113E+04  0.15539575113E+04  0.25500000920E-02 0. -1.
    10030    2    1    2    0    0  0.00000000000E+00  0.00000000000E+00  0.77034165786E+03  0.38782566805E+04  0.38009799539E+04 0.  0.
        5    1    3    3  502    0 -0.16475935604E+04  0.86290353037E+03  0.78384868812E+03  0.20183180867E+04  0.46999998093E+01 0.  1.
       -5    1    3    3    0  502  0.16475935604E+04 -0.86290353037E+03 -0.13507030254E+02  0.18599385939E+04  0.46999998093E+01 0. -1.
</event>
<event>
 5   0  0.4071750E-09  0.3797985E+04  0.7818609E-02  0.8046587E-01
       -1   -1    0    0    0  501  0.00000000000E+00  0.00000000000E+00  0.18708501856E+04  0.18708501856E+04  0.50400001928E-02 0. -1.
        1   -1    0    0  501    0  0.00000000000E+00  0.00000000000E+00 -0.19275584434E+04  0.19275584434E+04  0.50400001928E-02 0.  1.
    10030    2    1    2    0    0  0.00000000000E+00  0.00000000000E+00 -0.56708257789E+02  0.37984086291E+04  0.37979852931E+04 0.  0.
        4    1    3    3  502    0  0.18507359180E+04 -0.18307220144E+03 -0.41236644420E+03  0.19049374179E+04  0.12699999809E+01 0.  1.
       -4    1    3    3    0  502 -0.18507359180E+04  0.18307220144E+03  0.35565818641E+03  0.18934712111E+04  0.12699999809E+01 0. -1.
</event>
<event>
 5   0  0.4071750E-09  0.3798697E+04  0.7818609E-02  0.8046435E-01
       -1   -1    0    0    0  501  0.00000000000E+00  0.00000000000E+00  0.20798985133E+04  0.20798985133E+04  0.50400001928E-02 0. -1.
        1   -1    0    0  501    0  0.00000000000E+00  0.00000000000E+00 -0.17344711496E+04  0.17344711496E+04  0.50400001928E-02 0.  1.
    10030    2    1    2    0    0  0.00000000000E+00  0.00000000000E+00  0.34542736371E+03  0.38143696629E+04  0.37986966004E+04 0.  0.
        1    1    3    3  502    0  0.15859648460E+04 -0.92371309367E+03  0.66360042176E+03  0.19516392833E+04  0.50400001928E-02 0.  1.
       -1    1    3    3    0  502 -0.15859648460E+04  0.92371309367E+03 -0.31817305805E+03  0.18627303796E+04  0.50400001928E-02 0. -1.
</event>
<event>
 5   0  0.4071750E-09  0.3799286E+04  0.7818609E-02  0.8046308E-01
        1   -1    0    0  501    0  0.00000000000E+00  0.00000000000E+00  0.22539562700E+04  0.22539562700E+04  0.50400001928E-02 0. -1.
       -1   -1    0    0    0  501  0.00000000000E+00  0.00000000000E+00 -0.16010264439E+04  0.16010264439E+04  0.50400001928E-02 0.  1.
    10030    2    1    2    0    0  0.00000000000E+00  0.00000000000E+00  0.65292982612E+03  0.38549827139E+04  0.37992860338E+04 0.  0.
        1    1    3    3  502    0  0.86983173740E+03 -0.12962913923E+04 -0.77183807724E+03  0.17414685305E+04  0.50400001928E-02 0.  1.
       -1    1    3    3    0  502 -0.86983173740E+03  0.12962913923E+04  0.14247679034E+04  0.21135141835E+04  0.50400001928E-02 0. -1.
</event>
<event>
 5   0  0.4071750E-09  0.3795912E+04  0.7818609E-02  0.8047033E-01
       -1   -1    0    0    0  501  0.00000000000E+00  0.00000000000E+00  0.19064665652E+04  0.19064665652E+04  0.50400001928E-02 0. -1.
        1   -1    0    0  501    0  0.00000000000E+00  0.00000000000E+00 -0.18894832301E+04  0.18894832301E+04  0.50400001928E-02 0.  1.
    10030    2    1    2    0    0  0.00000000000E+00  0.00000000000E+00  0.16983335120E+02  0.37959497953E+04  0.37959118028E+04 0.  0.
        2    1    3    3  502    0 -0.10104698856E+04 -0.92330932578E+03  0.13233002876E+04  0.19038574400E+04  0.25500000920E-02 0. -1.
       -2    1    3    3    0  502  0.10104698856E+04  0.92330932578E+03 -0.13063169524E+04  0.18920923553E+04  0.25500000920E-02 0.  1.
</event>
<event>
 5   0  0.4071750E-09  0.3799414E+04  0.7818609E-02  0.8046281E-01
       -1   -1    0    0    0  501  0.00000000000E+00  0.00000000000E+00  0.17134146387E+04  0.17134146387E+04  0.50400001928E-02 0. -1.
        1   -1    0    0  501    0  0.00000000000E+00  0.00000000000E+00 -0.21062542257E+04  0.21062542257E+04  0.50400001928E-02 0.  1.
    10030    2    1    2    0    0  0.00000000000E+00  0.00000000000E+00 -0.39283958706E+03  0.38196688644E+04  0.37994140723E+04 0.  0.
        3    1    3    3  502    0 -0.18894901669E+04  0.18063698959E+03 -0.11800397221E+03  0.19017696392E+04  0.10100000352E+00 0. -1.
       -3    1    3    3    0  502  0.18894901669E+04 -0.18063698959E+03 -0.27483561485E+03  0.19178992252E+04  0.10100000352E+00 0.  1.
</event>
<event>
 5   0  0.1305088E-08  0.3805632E+04  0.7818609E-02  0.8044947E-01
        2   -1    0    0  501    0  0.00000000000E+00  0.00000000000E+00  0.22951491407E+04  0.22951491407E+04  0.25500000920E-02 0.  1.
       -2   -1    0    0    0  501  0.00000000000E+00  0.00000000000E+00 -0.15775482365E+04  0.15775482365E+04  0.25500000920E-02 0. -1.
    10030    2    1    2    0    0  0.00000000000E+00  0.00000000000E+00  0.71760090425E+03  0.38726973772E+04  0.38056318684E+04 0.  0.
        3    1    3    3  502    0 -0.88929455741E+02  0.11927612042E+04 -0.11471851305E+04  0.16572934177E+04  0.10100000352E+00 0. -1.
       -3    1    3    3    0  502  0.88929455741E+02 -0.11927612042E+04  0.18647860348E+04  0.22154039595E+04  0.10100000352E+00 0.  1.
</event>
<event>
 5   0  0.4071750E-09  0.3800170E+04  0.7818609E-02  0.8046118E-01
       -1   -1    0    0    0  501  0.00000000000E+00  0.00000000000E+00  0.14725152775E+04  0.14725152775E+04  0.50400001928E-02 0. -1.
        1   -1    0    0  501    0  0.00000000000E+00  0.00000000000E+00 -0.24518071407E+04  0.24518071407E+04  0.50400001928E-02 0.  1.
    10030    2    1    2    0    0  0.00000000000E+00  0.00000000000E+00 -0.97929186316E+03  0.39243224182E+04  0.38001702447E+04 0.  0.
        3    1    3    3  502    0 -0.13359220979E+04  0.49703167597E+02  0.90471318391E+03  0.16142069916E+04  0.10100000352E+00 0. -1.
       -3    1    3    3    0  502  0.13359220979E+04 -0.49703167597E+02 -0.18840050471E+04  0.23101154266E+04  0.10100000352E+00 0.  1.
</event>
<event>
 5   0  0.1264013E-08  0.3799002E+04  0.7818609E-02  0.8046369E-01
        2   -1    0    0  501    0  0.00000000000E+00  0.00000000000E+00  0.26262601646E+04  0.26262601646E+04  0.25500000920E-02 0. -1.
       -2   -1    0    0    0  501  0.00000000000E+00  0.00000000000E+00 -0.13738561563E+04  0.13738561563E+04  0.25500000920E-02 0.  1.
    10030    2    1    2    0    0  0.00000000000E+00  0.00000000000E+00  0.12524040083E+04  0.40001163209E+04  0.37990018137E+04 0.  0.
        4    1    3    3  502    0  0.76466855716E+03  0.12403623615E+04 -0.65686569655E+03  0.15983400597E+04  0.12699999809E+01 0.  1.
       -4    1    3    3    0  502 -0.76466855716E+03 -0.12403623615E+04  0.19092697049E+04  0.24017762612E+04  0.12699999809E+01 0. -1.
</event>
<event>
 5   0  0.1305088E-08  0.3801158E+04  0.7818609E-02  0.8045906E-01
        2   -1    0    0  501    0  0.00000000000E+00  0.00000000000E+00  0.12051783244E+04  0.12051783244E+04  0.25500000920E-02 0.  1.
       -2   -1    0    0    0  501  0.00000000000E+00  0.00000000000E+00 -0.29972336354E+04  0.29972336354E+04  0.25500000920E-02 0. -1.
    10030    2    1    2    0    0  0.00000000000E+00  0.00000000000E+00 -0.17920553110E+04  0.42024119598E+04  0.38011582501E+04 0.  0.
        3    1    3    3  502    0  0.26783768205E+03 -0.32286378974E+03  0.11533563397E+04  0.12272770295E+04  0.10100000352E+00 0.  1.
       -3    1    3    3    0  502 -0.26783768205E+03  0.32286378974E+03 -0.29454116508E+04  0.29751349303E+04  0.10100000352E+00 0. -1.
</event>
<event>
 5   0  0.1261152E-08  0.3800373E+04  0.7818609E-02  0.8046075E-01
       -2   -1    0    0    0  501  0.00000000000E+00  0.00000000000E+00  0.13433177528E+04  0.13433177528E+04  0.25500000920E-02 0.  1.
        2   -1    0    0  501    0  0.00000000000E+00  0.00000000000E+00 -0.26879035842E+04  0.26879035842E+04  0.25500000920E-02 0. -1.
    10030    2    1    2    0    0  0.00000000000E+00  0.00000000000E+00 -0.13445858315E+04  0.40312213370E+04  0.38003729303E+04 0.  0.
        2    1    3    3  502    0 -0.68098485773E+03  0.12523935987E+04  0.66039900063E+03  0.15711005514E+04  0.25500000920E-02 0.  1.
       -2    1    3    3    0  502  0.68098485773E+03 -0.12523935987E+04 -0.20049848321E+04  0.24601207856E+04  0.25500000920E-02 0. -1.
</event>
<event>
 5   0  0.4071750E-09  0.3798599E+04  0.7818609E-02  0.8046455E-01
       -1   -1    0    0    0  501  0.00000000000E+00  0.00000000000E+00  0.16634326559E+04  0.16634326559E+04  0.50400001928E-02 0.  1.
        1   -1    0    0  501    0  0.00000000000E+00  0.00000000000E+00 -0.21686116780E+04  0.21686116780E+04  0.50400001928E-02 0. -1.
    10030    2    1    2    0    0  0.00000000000E+00  0.00000000000E+00 -0.50517902212E+03  0.38320443339E+04  0.37985994698E+04 0.  0.
        5    1    3    3  502    0 -0.12716787367E+04  0.68695292963E+03 -0.14956095529E+04  0.20798896994E+04  0.46999998093E+01 0. -1.
       -5    1    3    3    0  502  0.12716787367E+04 -0.68695292963E+03  0.99043053076E+03  0.17521546345E+04  0.46999998093E+01 0.  1.
</event>
<event>
 5   0  0.4071750E-09  0.3797660E+04  0.7818609E-02  0.8046657E-01
        1   -1    0    0  501    0  0.00000000000E+00  0.00000000000E+00  0.11414060314E+04  0.11414060314E+04  0.50400001928E-02 0. -1.
       -1   -1    0    0    0  501  0.00000000000E+00  0.00000000000E+00 -0.31588722885E+04  0.31588722886E+04  0.50400001928E-02 0.  1.
    10030    2    1    2    0    0  0.00000000000E+00  0.00000000000E+00 -0.20174662571E+04  0.43002783200E+04  0.37976602706E+04 0.  0.
        1    1    3    3  502    0 -0.50435247207E+03 -0.56163093383E+03 -0.29816728855E+04  0.30757395725E+04  0.50400001928E-02 0.  1.
       -1    1    3    3    0  502  0.50435247207E+03  0.56163093383E+03  0.96420662833E+03  0.12245387475E+04  0.50400001928E-02 0. -1.
</event>
<event>
 5   0  0.1264013E-08  0.3798575E+04  0.7818609E-02  0.8046461E-01
        2   -1    0    0  501    0  0.00000000000E+00  0.00000000000E+00  0.18233303439E+04  0.18233303439E+04  0.25500000920E-02 0.  1.
       -2   -1    0    0    0  501  0.00000000000E+00  0.00000000000E+00 -0.19784089959E+04  0.19784089959E+04  0.25500000920E-02 0. -1.
    10030    2    1    2    0    0  0.00000000000E+00  0.00000000000E+00 -0.15507865194E+03  0.38017393398E+04  0.37985750775E+04 0.  0.
        4    1    3    3  502    0  0.16123608108E+04  0.96619140360E+03 -0.34990261985E+03  0.19119797773E+04  0.12699999809E+01 0. -1.
       -4    1    3    3    0  502 -0.16123608108E+04 -0.96619140360E+03  0.19482396792E+03  0.18897595625E+04  0.12699999809E+01 0.  1.
</event>
<event>
 5   0  0.1264013E-08  0.3797705E+04  0.7818609E-02  0.8046648E-01
        2   -1    0    0  501    0  0.00000000000E+00  0.00000000000E+00  0.22857815639E+04  0.22857815639E+04  0.25500000920E-02 0.  1.
       -2   -1    0    0    0  501  0.00000000000E+00  0.00000000000E+00 -0.15774215879E+04  0.15774215879E+04  0.25500000920E-02 0. -1.
    10030    2    1    2    0    0  0.00000000000E+00  0.00000000000E+00  0.70835997593E+03  0.38632031518E+04  0.37977051935E+04 0.  0.
        4    1    3    3  502    0 -0.13438122575E+04 -0.52643433419E+03  0.16094290867E+04  0.21617650404E+04  0.12699999809E+01 0.  1.
       -4    1    3    3    0  502  0.13438122575E+04  0.52643433419E+03 -0.90106911081E+03  0.17014381114E+04  0.12699999809E+01 0. -1.
</event>
<event>
 5   0  0.1293993E-08  0.3799472E+04  0.7818609E-02  0.8046268E-01
       -2   -1    0    0    0  501  0.00000000000E+00  0.00000000000E+00  0.19936825474E+04  0.19936825474E+04  0.25500000920E-02 0. -1.
        2   -1    0    0  501    0  0.00000000000E+00  0.00000000000E+00 -0.18102159558E+04  0.18102159558E+04  0.25500000920E-02 0.  1.
    10030    2    1    2    0    0  0.00000000000E+00  0.00000000000E+00  0.18346659157E+03  0.38038985032E+04  0.37994715202E+04 0.  0.
        5    1    3    3  502    0  0.41860675350E+03  0.14082318767E+04 -0.11140890871E+04  0.18437909905E+04  0.46999998093E+01 0.  1.
       -5    1    3    3    0  502 -0.41860675350E+03 -0.14082318767E+04  0.12975556786E+04  0.19601075128E+04  0.46999998093E+01 0. -1.
</event>
<event>
 5   0  0.1305088E-08  0.3800673E+04  0.7818609E-02  0.8046010E-01
       -2   -1    0    0    0  501  0.00000000000E+00  0.00000000000E+00  0.15925627172E+04  0.15925627172E+04  0.25500000920E-02 0. -1.
        2   -1    0    0  501    0  0.00000000000E+00  0.00000000000E+00 -0.22675901369E+04  0.22675901369E+04  0.25500000920E-02 0.  1.
    10030    2    1    2    0    0  0.00000000000E+00  0.00000000000E+00 -0.67502741977E+03  0.38601528541E+04  0.38006733666E+04 0.  0.
        3    1    3    3  502    0  0.53250301449E+03 -0.10574639908E+04  0.11721839075E+04  0.16660746308E+04  0.10100000352E+00 0. -1.
       -3    1    3    3    0  502 -0.53250301449E+03  0.10574639908E+04 -0.18472113273E+04  0.21940782233E+04  0.10100000352E+00 0.  1.
</event>
<event>
 5   0  0.1264013E-08  0.3800799E+04  0.7818609E-02  0.8045984E-01
        2   -1    0    0  501    0  0.00000000000E+00  0.00000000000E+00  0.19424988273E+04  0.19424988273E+04  0.25500000920E-02 0.  1.
       -2   -1    0    0    0  501  0.00000000000E+00  0.00000000000E+00 -0.18592122861E+04  0.18592122861E+04  0.25500000920E-02 0. -1.
    10030    2    1    2    0    0  0.00000000000E+00  0.00000000000E+00  0.83286541178E+02  0.38017111135E+04  0.38007986979E+04 0.  0.
        4    1    3    3  502    0  0.23067854833E+03  0.18757788562E+04 -0.15779657772E+03  0.18964862991E+04  0.12699999809E+01 0. -1.
       -4    1    3    3    0  502 -0.23067854833E+03 -0.18757788562E+04  0.24108311889E+03  0.19052248143E+04  0.12699999809E+01 0.  1.
</event>
<event>
 5   0  0.4071750E-09  0.3798521E+04  0.7818609E-02  0.8046472E-01
        1   -1    0    0  501    0  0.00000000000E+00  0.00000000000E+00  0.20979726770E+04  0.20979726770E+04  0.50400001928E-02 0. -1.
       -1   -1    0    0    0  501  0.00000000000E+00  0.00000000000E+00 -0.17193698844E+04  0.17193698844E+04  0.50400001928E-02 0.  1.
    10030    2    1    2    0    0  0.00000000000E+00  0.00000000000E+00  0.37860279265E+03  0.38173425614E+04  0.37985213118E+04 0.  0.
        5    1    3    3  502    0 -0.16282323793E+04 -0.15046093713E+03  0.11602094118E+04  0.20049656216E+04  0.46999998093E+01 0. -1.
       -5    1    3    3    0  502  0.16282323793E+04  0.15046093713E+03 -0.78160661919E+03  0.18123769398E+04  0.46999998093E+01 0.  1.
</event>
<event>
 5   0  0.4071750E-09  0.3801271E+04  0.7818609E-02  0.8045882E-01
       -1   -1    0    0    0  501  0.00000000000E+00  0.00000000000E+00  0.26175388718E+04  0.26175388718E+04  0.50400001928E-02 0. -1.
        1   -1    0    0  501    0  0.00000000000E+00  0.00000000000E+00 -0.13800807356E+04  0.13800807356E+04  0.50400001928E-02 0.  1.
    10030    2    1    2    0    0  0.00000000000E+00  0.00000000000E+00  0.12374581362E+04  0.39976196075E+04  0.38012708253E+04 0.  0.
        2    1    3    3  502    0 -0.23005950583E+03  0.17205385187E+04  0.14328167210E+04  0.22508096158E+04  0.25500000920E-02 0.  1.
       -2    1    3    3    0  502  0.23005950583E+03 -0.17205385187E+04 -0.19535858475E+03  0.17468099917E+04  0.25500000920E-02 0. -1.
</event>
<event>
 5   0  0.1264013E-08  0.3802277E+04  0.7818609E-02  0.8045666E-01
        2   -1    0    0  501    0  0.00000000000E+00  0.00000000000E+00  0.31024292634E+04  0.31024292634E+04  0.25500000920E-02 0. -1.
       -2   -1    0    0    0  501  0.00000000000E+00  0.00000000000E+00 -0.11649994860E+04  0.11649994860E+04  0.25500000920E-02 0.  1.
    10030    2    1    2    0    0  0.00000000000E+00  0.00000000000E+00  0.19374297773E+04  0.42674287494E+04  0.38022774740E+04 0.  0.
        4    1    3    3  502    0  0.44044355251E+03  0.18476115531E+04  0.10603616974E+04  0.21753223936E+04  0.12699999809E+01 0.  1.
       -4    1    3    3    0  502 -0.44044355251E+03 -0.18476115531E+04  0.87706807999E+03  0.20921063558E+04  0.12699999809E+01 0. -1.
</event>
<event>
 5   0  0.1305088E-08  0.3799949E+04  0.7818609E-02  0.8046166E-01
       -2   -1    0    0    0  501  0.00000000000E+00  0.00000000000E+00  0.13884237426E+04  0.13884237426E+04  0.25500000920E-02 0.  1.
        2   -1    0    0  501    0  0.00000000000E+00  0.00000000000E+00 -0.26000012018E+04  0.26000012018E+04  0.25500000920E-02 0. -1.
    10030    2    1    2    0    0  0.00000000000E+00  0.00000000000E+00 -0.12115774591E+04  0.39884249444E+04  0.37999491572E+04 0.  0.
        3    1    3    3  502    0  0.24932637618E+03 -0.99612513533E+03 -0.22836629851E+04  0.25039060619E+04  0.10100000352E+00 0. -1.
       -3    1    3    3    0  502 -0.24932637618E+03  0.99612513533E+03  0.10720855260E+04  0.14845188824E+04  0.10100000352E+00 0.  1.
</event>
<event>
 5   0  0.1261152E-08  0.3796172E+04  0.7818609E-02  0.8046977E-01
       -2   -1    0    0    0  501  0.00000000000E+00  0.00000000000E+00  0.11819348450E+04  0.11819348450E+04  0.25500000920E-02 0.  1.
        2   -1    0    0  501    0  0.00000000000E+00  0.00000000000E+00 -0.30481634392E+04  0.30481634392E+04  0.25500000920E-02 0. -1.
    10030    2    1    2    0    0  0.00000000000E+00  0.00000000000E+00 -0.18662285942E+04  0.42300982842E+04  0.37961720625E+04 0.  0.
        2    1    3    3  502    0  0.16410774804E+04 -0.70613011775E+03 -0.21876181514E+03  0.17998921555E+04  0.25500000920E-02 0.  1.
       -2    1    3    3    0  502 -0.16410774804E+04  0.70613011775E+03 -0.16474667791E+04  0.24302061287E+04  0.25500000920E-02 0. -1.
</event>
<event>
 5   0  0.1264013E-08  0.3799851E+04  0.7818609E-02  0.8046187E-01
        2   -1    0    0  501    0  0.00000000000E+00  0.00000000000E+00  0.20238611996E+04  0.20238611996E+04  0.25500000920E-02 0.  1.
       -2   -1    0    0    0  501  0.00000000000E+00  0.00000000000E+00 -0.17835791797E+04  0.17835791797E+04  0.25500000920E-02 0. -1.
    10030    2    1    2    0    0  0.00000000000E+00  0.00000000000E+00  0.24028201997E+03  0.38074403793E+04  0.37998508909E+04 0.  0.
        4    1    3    3  502    0  0.58999008416E+03 -0.31799418626E+03  0.19014731316E+04  0.20161374668E+04  0.12699999809E+01 0.  1.
       -4    1    3    3    0  502 -0.58999008416E+03  0.31799418626E+03 -0.16611911117E+04  0.17913029125E+04  0.12699999809E+01 0. -1.
</event>
<event>
 5   0  0.4071750E-09  0.3799087E+04  0.7818609E-02  0.8046351E-01
        1   -1    0    0  501    0  0.00000000000E+00  0.00000000000E+00  0.25889687082E+04  0.25889687082E+04  0.50400001928E-02 0. -1.
       -1   -1    0    0    0  501  0.00000000000E+00  0.00000000000E+00 -0.13937076244E+04  0.13937076244E+04  0.50400001928E-02 0.  1.
    10030    2    1    2    0    0  0.00000000000E+00  0.00000000000E+00  0.11952610838E+04  0.39826763325E+04  0.37990869576E+04 0.  0.
        1    1    3    3  502    0  0.18689873340E+04 -0.33678040548E+03  0.55401807685E+03  0.19782494094E+04  0.50400001928E-02 0.  1.
       -1    1    3    3    0  502 -0.18689873340E+04  0.33678040548E+03  0.64124300696E+03  0.20044269232E+04  0.50400001928E-02 0. -1.
</event>
<event>
 5   0  0.1261152E-08  0.3799891E+04  0.7818609E-02  0.8046178E-01
       -2   -1    0    0    0  501  0.00000000000E+00  0.00000000000E+00  0.21521228951E+04  0.21521228951E+04  0.25500000920E-02 0.  1.
        2   -1    0    0  501    0  0.00000000000E+00  0.00000000000E+00 -0.16773177017E+04  0.16773177017E+04  0.25500000920E-02 0. -1.
    10030    2    1    2    0    0  0.00000000000E+00  0.00000000000E+00  0.47480519335E+03  0.38294405968E+04  0.37998914870E+04 0.  0.
        2    1    3    3  502    0 -0.14150738170E+04  0.57335420972E+03  0.13769587123E+04  0.20560117346E+04  0.25500000920E-02 0. -1.
       -2    1    3    3    0  502  0.14150738170E+04 -0.57335420972E+03 -0.90215351899E+03  0.17734288622E+04  0.25500000920E-02 0.  1.
</event>
<event>
 5   0  0.4071750E-09  0.3799878E+04  0.7818609E-02  0.8046181E-01
        1   -1    0    0  501    0  0.00000000000E+00  0.00000000000E+00  0.16384834088E+04  0.16384834088E+04  0.50400001928E-02 0. -1.
       -1   -1    0    0    0  501  0.00000000000E+00  0.00000000000E+00 -0.22031155014E+04  0.22031155014E+04  0.50400001928E-02 0.  1.
    10030    2    1    2    0    0  0.00000000000E+00  0.00000000000E+00 -0.56463209258E+03  0.38415989102E+04  0.37998779964E+04 0.  0.
        5    1    3    3  502    0 -0.12301755502E+04  0.29647410173E+03 -0.17150981829E+04  0.21313874928E+04  0.46999998093E+01 0.  1.
       -5    1    3    3    0  502  0.12301755502E+04 -0.29647410173E+03  0.11504660903E+04  0.17102114175E+04  0.46999998093E+01 0. -1.
</event>
<event>
 5   0  0.4071750E-09  0.3799485E+04  0.7818609E-02  0.8046265E-01
       -1   -1    0    0    0  501  0.00000000000E+00  0.00000000000E+00  0.12670237497E+04  0.12670237497E+04  0.50400001928E-02 0.  1.
        1   -1    0    0  501    0  0.00000000000E+00  0.00000000000E+00 -0.28484248632E+04  0.28484248632E+04  0.50400001928E-02 0. -1.
    10030    2    1    2    0    0  0.00000000000E+00  0.00000000000E+00 -0.15814011135E+04  0.41154486129E+04  0.37994852024E+04 0.  0.
        3    1    3    3  502    0 -0.85165612490E+03 -0.10059052519E+04  0.69123365193E+03  0.14882766889E+04  0.10100000352E+00 0. -1.
       -3    1    3    3    0  502  0.85165612490E+03  0.10059052519E+04 -0.22726347654E+04  0.26271719240E+04  0.10100000352E+00 0.  1.
</event>
<event>
 5   0  0.1293993E-08  0.3800864E+04  0.7818609E-02  0.8045970E-01
        2   -1    0    0  501    0  0.00000000000E+00  0.00000000000E+00  0.20380986062E+04  0.20380986062E+04  0.25500000920E-02 0.  1.
       -2   -1    0    0    0  501  0.00000000000E+00  0.00000000000E+00 -0.17720639948E+04  0.17720639948E+04  0.25500000920E-02 0. -1.
    10030    2    1    2    0    0  0.00000000000E+00  0.00000000000E+00  0.26603461135E+03  0.38101626010E+04  0.38008636692E+04 0.  0.
        5    1    3    3  502    0 -0.12452603042E+04 -0.13028749976E+04  0.73737084792E+03  0.19472787017E+04  0.46999998093E+01 0.  1.
       -5    1    3    3    0  502  0.12452603042E+04  0.13028749976E+04 -0.47133623656E+03  0.18628838994E+04  0.46999998093E+01 0. -1.
</event>
<event>
 5   0  0.4071750E-09  0.3799675E+04  0.7818609E-02  0.8046225E-01
       -1   -1    0    0    0  501  0.00000000000E+00  0.00000000000E+00  0.11429313371E+04  0.11429313371E+04  0.50400001928E-02 0.  1.
        1   -1    0    0  501    0  0.00000000000E+00  0.00000000000E+00 -0.31580049432E+04  0.31580049432E+04  0.50400001928E-02 0. -1.
    10030    2    1    2    0    0  0.00000000000E+00  0.00000000000E+00 -0.20150736061E+04  0.43009362803E+04  0.37996751505E+04 0.  0.
        5    1    3    3  502    0 -0.61837049510E+03  0.17636580209E+04 -0.62120623718E+03  0.19694646387E+04  0.46999998093E+01 0.  1.
       -5    1    3    3    0  502  0.61837049510E+03 -0.17636580209E+04 -0.13938673689E+04  0.23314716416E+04  0.46999998093E+01 0. -1.
</event>
<event>
 5   0  0.1305088E-08  0.3791938E+04  0.7818609E-02  0.8047887E-01
       -2   -1    0    0    0  501  0.00000000000E+00  0.00000000000E+00  0.24558083712E+04  0.24558083712E+04  0.25500000920E-02 0. -1.
        2   -1    0    0  501    0  0.00000000000E+00  0.00000000000E+00 -0.14637536436E+04  0.14637536436E+04  0.25500000920E-02 0.  1.
    10030    2    1    2    0    0  0.00000000000E+00  0.00000000000E+00  0.99205472758E+03  0.39195620148E+04  0.37919380013E+04 0.  0.
        3    1    3    3  502    0 -0.12948490889E+04 -0.11084955029E+04  0.13542126832E+04  0.21769906854E+04  0.10100000352E+00 0. -1.
       -3    1    3    3    0  502  0.12948490889E+04  0.11084955029E+04 -0.36215795563E+03  0.17425713294E+04  0.10100000352E+00 0.  1.
</event>
<event>
 5   0  0.4071750E-09  0.3800788E+04  0.7818609E-02  0.8045986E-01
       -1   -1    0    0    0  501  0.00000000000E+00  0.00000000000E+00  0.13944096516E+04  0.13944096516E+04  0.50400001928E-02 0. -1.
        1   -1    0    0  501    0  0.00000000000E+00  0.00000000000E+00 -0.25899830805E+04  0.25899830805E+04  0.50400001928E-02 0.  1.
    10030    2    1    2    0    0  0.00000000000E+00  0.00000000000E+00 -0.11955734290E+04  0.39843927321E+04  0.38007880261E+04 0.  0.
        1    1    3    3  502    0 -0.85930808483E+02 -0.34163931276E+03  0.13598816156E+04  0.14047702774E+04  0.50400001928E-02 0. -1.
       -1    1    3    3    0  502  0.85930808483E+02  0.34163931276E+03 -0.25554550446E+04  0.25796224547E+04  0.50400001928E-02 0.  1.
</event>
<event>
 5   0  0.4071750E-09  0.3799438E+04  0.7818609E-02  0.8046275E-01
        1   -1    0    0  501    0  0.00000000000E+00  0.00000000000E+00  0.18854038522E+04  0.18854038523E+04  0.50400001928E-02 0. -1.
       -1   -1    0    0    0  501  0.00000000000E+00  0.00000000000E+00 -0.19141433295E+04  0.19141433295E+04  0.50400001928E-02 0.  1.
    10030    2    1    2    0    0  0.00000000000E+00  0.00000000000E+00 -0.28739477223E+02  0.37995471817E+04  0.37994384886E+04 0.  0.
        5    1    3    3  502    0  0.44725065471E+03 -0.64855816080E+03  0.17143353425E+04  0.18866978011E+04  0.46999998093E+01 0. -1.
       -5    1    3    3    0  502 -0.44725065471E+03  0.64855816080E+03 -0.17430748197E+04  0.19128493807E+04  0.46999998093E+01 0.  1.
</event>
<event>
 5   0  0.1305088E-08  0.3797404E+04  0.7818609E-02  0.8046712E-01
        2   -1    0    0  501    0  0.00000000000E+00  0.00000000000E+00  0.20603873414E+04  0.20603873414E+04  0.25500000920E-02 0. -1.
       -2   -1    0    0    0  501  0.00000000000E+00  0.00000000000E+00 -0.17497045742E+04  0.17497045742E+04  0.25500000920E-02 0.  1.
    10030    2    1    2    0    0  0.00000000000E+00  0.00000000000E+00  0.31068276726E+03  0.38100919156E+04  0.37974039321E+04 0.  0.
        3    1    3    3  502    0 -0.28796349639E+03  0.15293511281E+04  0.12467402073E+04  0.19940408730E+04  0.10100000352E+00 0. -1.
       -3    1    3    3    0  502  0.28796349639E+03 -0.15293511281E+04 -0.93605744005E+03  0.18160510427E+04  0.10100000352E+00 0.  1.
</event>
<event>
 5   0  0.1293993E-08  0.3800916E+04  0.7818609E-02  0.8045958E-01
        2   -1    0    0  501    0  0.00000000000E+00  0.00000000000E+00  0.13448308374E+04  0.13448308374E+04  0.25500000920E-02 0.  1.
       -2   -1    0    0    0  501  0.00000000000E+00  0.00000000000E+00 -0.26856466031E+04  0.26856466031E+04  0.25500000920E-02 0. -1.
    10030    2    1    2    0    0  0.00000000000E+00  0.00000000000E+00 -0.13408157657E+04  0.40304774404E+04  0.38009158739E+04 0.  0.
        5    1    3    3  502    0 -0.32134606531E+03 -0.11999090238E+04 -0.21955636243E+04  0.25226110833E+04  0.46999998093E+01 0. -1.
       -5    1    3    3    0  502  0.32134606531E+03  0.11999090238E+04  0.85474785861E+03  0.15078663571E+04  0.46999998093E+01 0.  1.
</event>
<event>
 5   0  0.1293993E-08  0.3799702E+04  0.7818609E-02  0.8046219E-01
       -2   -1    0    0    0  501  0.00000000000E+00  0.00000000000E+00  0.16763988755E+04  0.16763988755E+04  0.25500000920E-02 0. -1.
        2   -1    0    0  501    0  0.00000000000E+00  0.00000000000E+00 -0.21530877663E+04  0.21530877663E+04  0.25500000920E-02 0.  1.
    10030    2    1    2    0    0  0.00000000000E+00  0.00000000000E+00 -0.47668889086E+03  0.38294866418E+04  0.37997020463E+04 0.  0.
        5    1    3    3  502    0  0.57350745986E+03 -0.12106008939E+04  0.11194153003E+04  0.17457313755E+04  0.46999998093E+01 0. -1.
       -5    1    3    3    0  502 -0.57350745986E+03  0.12106008939E+04 -0.15961041912E+04  0.20837552663E+04  0.46999998093E+01 0.  1.
</event>
<event>
 5   0  0.4071750E-09  0.3799824E+04  0.7818609E-02  0.8046193E-01
       -1   -1    0    0    0  501  0.00000000000E+00  0.00000000000E+00  0.15251587090E+04  0.15251587090E+04  0.50400001928E-02 0.  1.
        1   -1    0    0  501    0  0.00000000000E+00  0.00000000000E+00 -0.23667480888E+04  0.23667480888E+04  0.50400001928E-02 0. -1.
    10030    2    1    2    0    0  0.00000000000E+00  0.00000000000E+00 -0.84158937978E+03  0.38919067978E+04  0.37998244484E+04 0.  0.
        4    1    3    3  502    0 -0.16392865703E+04 -0.74420682279E+03  0.20100907486E+03  0.18114940010E+04  0.12699999809E+01 0. -1.
       -4    1    3    3    0  502  0.16392865703E+04  0.74420682279E+03 -0.10425984546E+04  0.20804127968E+04  0.12699999809E+01 0.  1.
</event>
<event>
 5   0  0.4071750E-09  0.3800769E+04  0.7818609E-02  0.8045990E-01
       -3   -1    0    0    0  501  0.00000000000E+00  0.00000000000E+00  0.18483555079E+04  0.18483555107E+04  0.10100000352E+00 0.  1.
        3   -1    0    0  501    0  0.00000000000E+00  0.00000000000E+00 -0.19538776076E+04  0.19538776102E+04  0.10100000352E+00 0. -1.
    10030    2    1    2    0    0  0.00000000000E+00  0.00000000000E+00 -0.10552209967E+03  0.38022331209E+04  0.38007685792E+04 0.  0.
        5    1    3    3  502    0  0.14573980479E+04  0.10179268937E+04  0.61925230995E+03  0.18824663992E+04  0.46999998093E+01 0.  1.
       -5    1    3    3    0  502 -0.14573980479E+04 -0.10179268937E+04 -0.72477440962E+03  0.19197667217E+04  0.46999998093E+01 0. -1.
</event>
<event>
 5   0  0.4071750E-09  0.3803526E+04  0.7818609E-02  0.8045399E-01
        1   -1    0    0  501    0  0.00000000000E+00  0.00000000000E+00  0.23293980675E+04  0.23293980675E+04  0.50400001928E-02 0. -1.
       -1   -1    0    0    0  501  0.00000000000E+00  0.00000000000E+00 -0.15526340031E+04  0.15526340031E+04  0.50400001928E-02 0.  1.
    10030    2    1    2    0    0  0.00000000000E+00  0.00000000000E+00  0.77676406437E+03  0.38820320706E+04  0.38035260727E+04 0.  0.
        4    1    3    3  502    0 -0.26094027437E+03 -0.14868196143E+04  0.15689671698E+04  0.21772418297E+04  0.12699999809E+01 0. -1.
       -4    1    3    3    0  502  0.26094027437E+03  0.14868196143E+04 -0.79220310547E+03  0.17047902409E+04  0.12699999809E+01 0.  1.
</event>
<event>
 5   0  0.4071750E-09  0.3786694E+04  0.7818609E-02  0.8049016E-01
        1   -1    0    0  501    0  0.00000000000E+00  0.00000000000E+00  0.24423410654E+04  0.24423410654E+04  0.50400001928E-02 0. -1.
       -1   -1    0    0    0  501  0.00000000000E+00  0.00000000000E+00 -0.14677566221E+04  0.14677566221E+04  0.50400001928E-02 0.  1.
    10030    2    1    2    0    0  0.00000000000E+00  0.00000000000E+00  0.97458444334E+03  0.39100976875E+04  0.37866936882E+04 0.  0.
        3    1    3    3  502    0 -0.49323693744E+03 -0.23231682508E+03 -0.13849449894E+04  0.14883972647E+04  0.10100000352E+00 0.  1.
       -3    1    3    3    0  502  0.49323693744E+03  0.23231682508E+03  0.23595294327E+04  0.24217004228E+04  0.10100000352E+00 0. -1.
</event>
<event>
 5   0  0.4071750E-09  0.3799339E+04  0.7818609E-02  0.8046297E-01
       -1   -1    0    0    0  501  0.00000000000E+00  0.00000000000E+00  0.17144693470E+04  0.17144693470E+04  0.50400001928E-02 0.  1.
        1   -1    0    0  501    0  0.00000000000E+00  0.00000000000E+00 -0.21048749960E+04  0.21048749960E+04  0.50400001928E-02 0. -1.
    10030    2    1    2    0    0  0.00000000000E+00  0.00000000000E+00 -0.39040564900E+03  0.38193443431E+04  0.37993387109E+04 0.  0.
        1    1    3    3  502    0 -0.15990482995E+04  0.25515262162E+03  0.80334791885E+03  0.18076023355E+04  0.50400001928E-02 0.  1.
       -1    1    3    3    0  502  0.15990482995E+04 -0.25515262162E+03 -0.11937535678E+04  0.20117420076E+04  0.50400001928E-02 0. -1.
</event>
<event>
 5   0  0.1305088E-08  0.3807340E+04  0.7818609E-02  0.8044582E-01
       -2   -1    0    0    0  501  0.00000000000E+00  0.00000000000E+00  0.17286131612E+04  0.17286131612E+04  0.25500000920E-02 0.  1.
        2   -1    0    0  501    0  0.00000000000E+00  0.00000000000E+00 -0.20964544834E+04  0.20964544834E+04  0.25500000920E-02 0. -1.
    10030    2    1    2    0    0  0.00000000000E+00  0.00000000000E+00 -0.36784132220E+03  0.38250676446E+04  0.38073396548E+04 0.  0.
        3    1    3    3  502    0 -0.79839078172E+03  0.20906509955E+03  0.15395327571E+04  0.17467962608E+04  0.10100000352E+00 0.  1.
       -3    1    3    3    0  502  0.79839078172E+03 -0.20906509955E+03 -0.19073740793E+04  0.20782713838E+04  0.10100000352E+00 0. -1.
</event>
<event>
 5   0  0.1293993E-08  0.3798370E+04  0.7818609E-02  0.8046505E-01
       -2   -1    0    0    0  501  0.00000000000E+00  0.00000000000E+00  0.17394746573E+04  0.17394746573E+04  0.25500000920E-02 0. -1.
        2   -1    0    0  501    0  0.00000000000E+00  0.00000000000E+00 -0.20735587491E+04  0.20735587491E+04  0.25500000920E-02 0.  1.
    10030    2    1    2    0    0  0.00000000000E+00  0.00000000000E+00 -0.33408409175E+03  0.38130334064E+04  0.37983695947E+04 0.  0.
        5    1    3    3  502    0 -0.68778184400E+03  0.15672166641E+04  0.65934244214E+03  0.18341119058E+04  0.46999998093E+01 0.  1.
       -5    1    3    3    0  502  0.68778184400E+03 -0.15672166641E+04 -0.99342653389E+03  0.19789215006E+04  0.46999998093E+01 0. -1.
</event>
<event>
 5   0  0.1293993E-08  0.3806239E+04  0.7818609E-02  0.8044817E-01
       -2   -1    0    0    0  501  0.00000000000E+00  0.00000000000E+00  0.21429712969E+04  0.21429712969E+04  0.25500000920E-02 0.  1.
        2   -1    0    0  501    0  0.00000000000E+00  0.00000000000E+00 -0.16901134320E+04  0.16901134320E+04  0.25500000920E-02 0. -1.
    10030    2    1    2    0    0  0.00000000000E+00  0.00000000000E+00  0.45285786495E+03  0.38330847289E+04  0.38062393898E+04 0.  0.
        5    1    3    3  502    0  0.98202130482E+03 -0.75218296072E+03 -0.12300417655E+04  0.17444683673E+04  0.46999998093E+01 0. -1.
       -5    1    3    3    0  502 -0.98202130482E+03  0.75218296072E+03  0.16828996305E+04  0.20886163616E+04  0.46999998093E+01 0.  1.
</event>
<event>
 5   0  0.4071750E-09  0.3799611E+04  0.7818609E-02  0.8046238E-01
        1   -1    0    0  501    0  0.00000000000E+00  0.00000000000E+00  0.21632836983E+04  0.21632836983E+04  0.50400001928E-02 0.  1.
       -1   -1    0    0    0  501  0.00000000000E+00  0.00000000000E+00 -0.16684177813E+04  0.16684177813E+04  0.50400001928E-02 0. -1.
    10030    2    1    2    0    0  0.00000000000E+00  0.00000000000E+00  0.49486591702E+03  0.38317014796E+04  0.37996110265E+04 0.  0.
        1    1    3    3  502    0 -0.11955878557E+04  0.12201644645E+04  0.10857354814E+04  0.20241178762E+04  0.50400001928E-02 0.  1.
       -1    1    3    3    0  502  0.11955878557E+04 -0.12201644645E+04 -0.59086956434E+03  0.18075836034E+04  0.50400001928E-02 0. -1.
</event>
<event>
 5   0  0.1327249E-08  0.3796868E+04  0.7818609E-02  0.8046827E-01
       -2   -1    0    0    0  501  0.00000000000E+00  0.00000000000E+00  0.14397365124E+04  0.14397365124E+04  0.25500000920E-02 0.  1.
        2   -1    0    0  501    0  0.00000000000E+00  0.00000000000E+00 -0.25032719978E+04  0.25032719978E+04  0.25500000920E-02 0. -1.
    10030    2    1    2    0    0  0.00000000000E+00  0.00000000000E+00 -0.10635354854E+04  0.39430085102E+04  0.37968682335E+04 0.  0.
        1    1    3    3  502    0 -0.10426895006E+04  0.12542706687E+04 -0.15405768479E+04  0.22436072137E+04  0.50400001928E-02 0. -1.
       -1    1    3    3    0  502  0.10426895006E+04 -0.12542706687E+04  0.47704136249E+03  0.16994012965E+04  0.50400001928E-02 0.  1.
</event>
<event>
 5   0  0.1327249E-08  0.3794595E+04  0.7818609E-02  0.8047316E-01
       -2   -1    0    0    0  501  0.00000000000E+00  0.00000000000E+00  0.20923015174E+04  0.20923015174E+04  0.25500000920E-02 0.  1.
        2   -1    0    0  501    0  0.00000000000E+00  0.00000000000E+00 -0.17204677851E+04  0.17204677851E+04  0.25500000920E-02 0. -1.
    10030    2    1    2    0    0  0.00000000000E+00  0.00000000000E+00  0.37183373224E+03  0.38127693025E+04  0.37945947648E+04 0.  0.
        1    1    3    3  502    0 -0.10695628094E+04  0.12485649624E+04 -0.76564501954E+03  0.18135852240E+04  0.50400001928E-02 0.  1.
       -1    1    3    3    0  502  0.10695628094E+04 -0.12485649624E+04  0.11374787518E+04  0.19991840785E+04  0.50400001928E-02 0. -1.
</event>
<event>
 5   0  0.4071750E-09  0.3799362E+04  0.7818609E-02  0.8046292E-01
        1   -1    0    0  501    0  0.00000000000E+00  0.00000000000E+00  0.13000925871E+04  0.13000925871E+04  0.50400001928E-02 0. -1.
       -1   -1    0    0    0  501  0.00000000000E+00  0.00000000000E+00 -0.27757925099E+04  0.27757925099E+04  0.50400001928E-02 0.  1.
    10030    2    1    2    0    0  0.00000000000E+00  0.00000000000E+00 -0.14756999228E+04  0.40758850970E+04  0.37993616651E+04 0.  0.
        3    1    3    3  502    0  0.12204816762E+04  0.13354229695E+04 -0.11613882889E+03  0.18128481093E+04  0.10100000352E+00 0. -1.
       -3    1    3    3    0  502 -0.12204816762E+04 -0.13354229695E+04 -0.13595610939E+04  0.22630369878E+04  0.10100000352E+00 0.  1.
</event>
<event>
 5   0  0.1264013E-08  0.3801219E+04  0.7818609E-02  0.8045893E-01
       -2   -1    0    0    0  501  0.00000000000E+00  0.00000000000E+00  0.18973436923E+04  0.18973436923E+04  0.25500000920E-02 0.  1.
        2   -1    0    0  501    0  0.00000000000E+00  0.00000000000E+00 -0.19038807698E+04  0.19038807698E+04  0.25500000920E-02 0. -1.
    10030    2    1    2    0    0  0.00000000000E+00  0.00000000000E+00 -0.65370775390E+01  0.38012244621E+04  0.38012188411E+04 0.  0.
        4    1    3    3  502    0  0.25983669974E+03 -0.65114804347E+03  0.17633142929E+04  0.18975741866E+04  0.12699999809E+01 0.  1.
       -4    1    3    3    0  502 -0.25983669974E+03  0.65114804347E+03 -0.17698513705E+04  0.19036502755E+04  0.12699999809E+01 0. -1.
</event>
<event>
 5   0  0.4071750E-09  0.3800204E+04  0.7818609E-02  0.8046111E-01
        1   -1    0    0  501    0  0.00000000000E+00  0.00000000000E+00  0.18371513739E+04  0.18371513739E+04  0.50400001928E-02 0. -1.
       -1   -1    0    0    0  501  0.00000000000E+00  0.00000000000E+00 -0.19652095280E+04  0.19652095280E+04  0.50400001928E-02 0.  1.
    10030    2    1    2    0    0  0.00000000000E+00  0.00000000000E+00 -0.12805815411E+03  0.38023609020E+04  0.38002038811E+04 0.  0.
        2    1    3    3  502    0  0.37788973668E+03 -0.18593537735E+04 -0.16601964038E+03  0.19046153493E+04  0.25500000920E-02 0.  1.
       -2    1    3    3    0  502 -0.37788973668E+03  0.18593537735E+04  0.37961486268E+02  0.18977455526E+04  0.25500000920E-02 0. -1.
</event>
<event>
 5   0  0.1261152E-08  0.3800253E+04  0.7818609E-02  0.8046101E-01
       -2   -1    0    0    0  501  0.00000000000E+00  0.00000000000E+00  0.13095927683E+04  0.13095927683E+04  0.25500000920E-02 0. -1.
        2   -1    0    0  501    0  0.00000000000E+00  0.00000000000E+00 -0.27569496442E+04  0.27569496442E+04  0.25500000920E-02 0.  1.
    10030    2    1    2    0    0  0.00000000000E+00  0.00000000000E+00 -0.14473568759E+04  0.40665424126E+04  0.38002533162E+04 0.  0.
        2    1    3    3  502    0 -0.10596578642E+04  0.14195202833E+04  0.11927511211E+02  0.17714555849E+04  0.25500000920E-02 0. -1.
       -2    1    3    3    0  502  0.10596578642E+04 -0.14195202833E+04 -0.14592843871E+04  0.22950868276E+04  0.25500000920E-02 0.  1.
</event>
<event>
 5   0  0.4071750E-09  0.3799481E+04  0.7818609E-02  0.8046266E-01
       -1   -1    0    0    0  501  0.00000000000E+00  0.00000000000E+00  0.17683262322E+04  0.17683262323E+04  0.50400001928E-02 0.  1.
        1   -1    0    0  501    0  0.00000000000E+00  0.00000000000E+00 -0.20409208103E+04  0.20409208103E+04  0.50400001928E-02 0. -1.
    10030    2    1    2    0    0  0.00000000000E+00  0.00000000000E+00 -0.27259457805E+03  0.38092470426E+04  0.37994809155E+04 0.  0.
        1    1    3    3  502    0 -0.59180294068E+03  0.17073305874E+04  0.45155902571E+03  0.18625557734E+04  0.50400001928E-02 0.  1.
       -1    1    3    3    0  502  0.59180294068E+03 -0.17073305874E+04 -0.72415360376E+03  0.19466912691E+04  0.50400001928E-02 0. -1.
</event>
<event>
 5   0  0.1261152E-08  0.3798857E+04  0.7818609E-02  0.8046400E-01
       -2   -1    0    0    0  501  0.00000000000E+00  0.00000000000E+00  0.15761784613E+04  0.15761784613E+04  0.25500000920E-02 0.  1.
        2   -1    0    0  501    0  0.00000000000E+00  0.00000000000E+00 -0.22889722581E+04  0.22889722581E+04  0.25500000920E-02 0. -1.
    10030    2    1    2    0    0  0.00000000000E+00  0.00000000000E+00 -0.71279379683E+03  0.38651507194E+04  0.37988570764E+04 0.  0.
        2    1    3    3  502    0 -0.46416213125E+03 -0.30085012768E+03  0.14924185536E+04  0.15916250886E+04  0.25500000920E-02 0.  1.
       -2    1    3    3    0  502  0.46416213125E+03  0.30085012768E+03 -0.22052123504E+04  0.22735256308E+04  0.25500000920E-02 0. -1.
</event>
<event>
 5   0  0.1293993E-08  0.3799304E+04  0.7818609E-02  0.8046304E-01
        2   -1    0    0  501    0  0.00000000000E+00  0.00000000000E+00  0.19454492284E+04  0.19454492284E+04  0.25500000920E-02 0. -1.
       -2   -1    0    0    0  501  0.00000000000E+00  0.00000000000E+00 -0.18549323975E+04  0.18549323975E+04  0.25500000920E-02 0.  1.
    10030    2    1    2    0    0  0.00000000000E+00  0.00000000000E+00  0.90516830871E+02  0.38003816259E+04  0.37993035159E+04 0.  0.
        5    1    3    3  502    0  0.13595433154E+04 -0.11941241087E+04 -0.53314809097E+03  0.18864144270E+04  0.46999998093E+01 0.  1.
       -5    1    3    3    0  502 -0.13595433154E+04  0.11941241087E+04  0.62366492184E+03  0.19139671989E+04  0.46999998093E+01 0. -1.
</event>
<event>
 5   0  0.1293993E-08  0.3799410E+04  0.7818609E-02  0.8046282E-01
       -2   -1    0    0    0  501  0.00000000000E+00  0.00000000000E+00  0.19180285790E+04  0.19180285790E+04  0.25500000920E-02 0.  1.
        2   -1    0    0  501    0  0.00000000000E+00  0.00000000000E+00 -0.18815560943E+04  0.18815560943E+04  0.25500000920E-02 0. -1.
    10030    2    1    2    0    0  0.00000000000E+00  0.00000000000E+00  0.36472484673E+02  0.37995846733E+04  0.37994096183E+04 0.  0.
        5    1    3    3  502    0 -0.53047276839E+03  0.91107361294E+03  0.15986254105E+04  0.19149626052E+04  0.46999998093E+01 0.  1.
       -5    1    3    3    0  502  0.53047276839E+03 -0.91107361294E+03 -0.15621529258E+04  0.18846220681E+04  0.46999998093E+01 0. -1.
</event>
<event>
 5   0  0.1293993E-08  0.3802514E+04  0.7818609E-02  0.8045616E-01
        2   -1    0    0  501    0  0.00000000000E+00  0.00000000000E+00  0.13109108211E+04  0.13109108211E+04  0.25500000920E-02 0. -1.
       -2   -1    0    0    0  501  0.00000000000E+00  0.00000000000E+00 -0.27574558194E+04  0.27574558194E+04  0.25500000920E-02 0.  1.
    10030    2    1    2    0    0  0.00000000000E+00  0.00000000000E+00 -0.14465449982E+04  0.40683666405E+04  0.38025142590E+04 0.  0.
        5    1    3    3  502    0 -0.44494721506E+03  0.62034379609E+03  0.11397169854E+04  0.13717803564E+04  0.46999998093E+01 0. -1.
       -5    1    3    3    0  502  0.44494721506E+03 -0.62034379609E+03 -0.25862619836E+04  0.26965862841E+04  0.46999998093E+01 0.  1.
</event>
<event>
 5   0  0.4071750E-09  0.3798536E+04  0.7818609E-02  0.8046469E-01
       -1   -1    0    0    0  501  0.00000000000E+00  0.00000000000E+00  0.11691845984E+04  0.11691845984E+04  0.50400001928E-02 0. -1.
        1   -1    0    0  501    0  0.00000000000E+00  0.00000000000E+00 -0.30852435953E+04  0.30852435954E+04  0.50400001928E-02 0.  1.
    10030    2    1    2    0    0  0.00000000000E+00  0.00000000000E+00 -0.19160589970E+04  0.42544281937E+04  0.37985361885E+04 0.  0.
        3    1    3    3  502    0  0.66963484214E+03  0.25459929011E+03 -0.29281111156E+04  0.30144761296E+04  0.10100000352E+00 0.  1.
       -3    1    3    3    0  502 -0.66963484214E+03 -0.25459929011E+03  0.10120521186E+04  0.12399520641E+04  0.10100000352E+00 0. -1.
</event>
<event>
 5   0  0.4071750E-09  0.3808185E+04  0.7818609E-02  0.8044401E-01
       -1   -1    0    0    0  501  0.00000000000E+00  0.00000000000E+00  0.17149439226E+04  0.17149439226E+04  0.50400001928E-02 0.  1.
        1   -1    0    0  501    0  0.00000000000E+00  0.00000000000E+00 -0.21141032796E+04  0.21141032796E+04  0.50400001928E-02 0. -1.
    10030    2    1    2    0    0  0.00000000000E+00  0.00000000000E+00 -0.39915935701E+03  0.38290472022E+04  0.38081851694E+04 0.  0.
        3    1    3    3  502    0  0.66502490198E+03  0.60163486991E+03  0.14893082508E+04  0.17384653327E+04  0.10100000352E+00 0.  1.
       -3    1    3    3    0  502 -0.66502490198E+03 -0.60163486991E+03 -0.18884676079E+04  0.20905818695E+04  0.10100000352E+00 0. -1.
</event>
<event>
 5   0  0.4071750E-09  0.3798336E+04  0.7818609E-02  0.8046512E-01
        1   -1    0    0  501    0  0.00000000000E+00  0.00000000000E+00  0.23228507535E+04  0.23228507535E+04  0.50400001928E-02 0.  1.
       -1   -1    0    0    0  501  0.00000000000E+00  0.00000000000E+00 -0.15527639715E+04  0.15527639715E+04  0.50400001928E-02 0. -1.
    10030    2    1    2    0    0  0.00000000000E+00  0.00000000000E+00  0.77008678200E+03  0.38756147250E+04  0.37983359310E+04 0.  0.
        5    1    3    3  502    0  0.65680126944E+03 -0.14244178155E+04  0.14775579139E+04  0.21548906004E+04  0.46999998093E+01 0.  1.
       -5    1    3    3    0  502 -0.65680126944E+03  0.14244178155E+04 -0.70747113191E+03  0.17207241246E+04  0.46999998093E+01 0. -1.
</event>
<event>
 5   0  0.1327249E-08  0.3792295E+04  0.7818609E-02  0.8047810E-01
       -2   -1    0    0    0  501  0.00000000000E+00  0.00000000000E+00  0.22037121184E+04  0.22037121184E+04  0.25500000920E-02 0. -1.
        2   -1    0    0  501    0  0.00000000000E+00  0.00000000000E+00 -0.16315084969E+04  0.16315084969E+04  0.25500000920E-02 0.  1.
    10030    2    1    2    0    0  0.00000000000E+00  0.00000000000E+00  0.57220362154E+03  0.38352206153E+04  0.37922948439E+04 0.  0.
        1    1    3    3  502    0 -0.22701564267E+02 -0.21896694651E+03  0.21907445851E+04  0.22017774006E+04  0.50400001928E-02 0. -1.
       -1    1    3    3    0  502  0.22701564267E+02  0.21896694651E+03 -0.16185409636E+04  0.16334432146E+04  0.50400001928E-02 0.  1.
</event>
<event>
 5   0  0.4071750E-09  0.3804550E+04  0.7818609E-02  0.8045179E-01
        1   -1    0    0  501    0  0.00000000000E+00  0.00000000000E+00  0.21222143627E+04  0.21222143627E+04  0.50400001928E-02 0. -1.
       -1   -1    0    0    0  501  0.00000000000E+00  0.00000000000E+00 -0.17051297726E+04  0.17051297726E+04  0.50400001928E-02 0.  1.
    10030    2    1    2    0    0  0.00000000000E+00  0.00000000000E+00  0.41708459017E+03  0.38273441353E+04  0.38045503775E+04 0.  0.
        5    1    3    3  502    0  0.65158828586E+02  0.15936262767E+04 -0.83436465531E+03  0.18000213473E+04  0.46999998093E+01 0.  1.
       -5    1    3    3    0  502 -0.65158828586E+02 -0.15936262767E+04  0.12514492455E+04  0.20273227880E+04  0.46999998093E+01 0. -1.
</event>
<event>
 5   0  0.1327249E-08  0.3803022E+04  0.7818609E-02  0.8045507E-01
        2   -1    0    0  501    0  0.00000000000E+00  0.00000000000E+00  0.23789428907E+04  0.23789428907E+04  0.25500000920E-02 0.  1.
       -2   -1    0    0    0  501  0.00000000000E+00  0.00000000000E+00 -0.15198950285E+04  0.15198950285E+04  0.25500000920E-02 0. -1.
    10030    2    1    2    0    0  0.00000000000E+00  0.00000000000E+00  0.85904786221E+03  0.38988379193E+04  0.38030216790E+04 0.  0.
        1    1    3    3  502    0 -0.14988254644E+04  0.11565523665E+04  0.61191735553E+03  0.19896064936E+04  0.50400001928E-02 0. -1.
       -1    1    3    3    0  502  0.14988254644E+04 -0.11565523665E+04  0.24713050668E+03  0.19092314257E+04  0.50400001928E-02 0.  1.
</event>
<event>
 5   0  0.1305088E-08  0.3798678E+04  0.7818609E-02  0.8046439E-01
       -2   -1    0    0    0  501  0.00000000000E+00  0.00000000000E+00  0.18891088719E+04  0.18891088719E+04  0.25500000920E-02 0. -1.
        2   -1    0    0  501    0  0.00000000000E+00  0.00000000000E+00 -0.19096244264E+04  0.19096244264E+04  0.25500000920E-02 0.  1.
    10030    2    1    2    0    0  0.00000000000E+00  0.00000000000E+00 -0.20515554464E+02  0.37987332983E+04  0.37986778994E+04 0.  0.
        3    1    3    3  502    0  0.10492101134E+04  0.49853083140E+03  0.14924662319E+04  0.18912509922E+04  0.10100000352E+00 0. -1.
       -3    1    3    3    0  502 -0.10492101134E+04 -0.49853083140E+03 -0.15129817864E+04  0.19074823061E+04  0.10100000352E+00 0.  1.
</event>
<event>
 5   0  0.1261152E-08  0.3799705E+04  0.7818609E-02  0.8046218E-01
        2   -1    0    0  501    0  0.00000000000E+00  0.00000000000E+00  0.16283886238E+04  0.16283886238E+04  0.25500000920E-02 0.  1.
       -2   -1    0    0    0  501  0.00000000000E+00  0.00000000000E+00 -0.22165715948E+04  0.22165715948E+04  0.25500000920E-02 0. -1.
    10030    2    1    2    0    0  0.00000000000E+00  0.00000000000E+00 -0.58818297094E+03  0.38449602186E+04  0.37997052353E+04 0.  0.
        2    1    3    3  502    0  0.15827494580E+04 -0.87383932000E+03  0.29659796731E+03  0.18321193624E+04  0.25500000920E-02 0.  1.
       -2    1    3    3    0  502 -0.15827494580E+04  0.87383932000E+03 -0.88478093825E+03  0.20128408562E+04  0.25500000920E-02 0. -1.
</event>
<event>
 5   0  0.4071750E-09  0.3799691E+04  0.7818609E-02  0.8046221E-01
       -1   -1    0    0    0  501  0.00000000000E+00  0.00000000000E+00  0.16483407186E+04  0.16483407186E+04  0.50400001928E-02 0. -1.
        1   -1    0    0  501    0  0.00000000000E+00  0.00000000000E+00 -0.21897245383E+04  0.21897245383E+04  0.50400001928E-02 0.  1.
    10030    2    1    2    0    0  0.00000000000E+00  0.00000000000E+00 -0.54138381963E+03  0.38380652569E+04  0.37996905764E+04 0.  0.
        2    1    3    3  502    0  0.23686682278E+03 -0.43024576279E+02  0.16328712352E+04  0.16505227889E+04  0.25500000920E-02 0. -1.
       -2    1    3    3    0  502 -0.23686682278E+03  0.43024576279E+02 -0.21742550548E+04  0.21875424680E+04  0.25500000920E-02 0.  1.
</event>
<event>
 5   0  0.1293993E-08  0.3798568E+04  0.7818609E-02  0.8046462E-01
        2   -1    0    0  501    0  0.00000000000E+00  0.00000000000E+00  0.14274530977E+04  0.14274530977E+04  0.25500000920E-02 0.  1.
       -2   -1    0    0    0  501  0.00000000000E+00  0.00000000000E+00 -0.25270737533E+04  0.25270737533E+04  0.25500000920E-02 0. -1.
    10030    2    1    2    0    0  0.00000000000E+00  0.00000000000E+00 -0.10996206556E+04  0.39545268510E+04  0.37985677603E+04 0.  0.
        5    1    3    3  502    0  0.88418623454E+03  0.69270471718E+03 -0.21442371581E+04  0.24206197972E+04  0.46999998093E+01 0. -1.
       -5    1    3    3    0  502 -0.88418623454E+03 -0.69270471718E+03  0.10446165025E+04  0.15339070538E+04  0.46999998093E+01 0.  1.
</event>
<event>
 5   0  0.1293993E-08  0.3797799E+04  0.7818609E-02  0.8046627E-01
       -2   -1    0    0    0  501  0.00000000000E+00  0.00000000000E+00  0.16687085426E+04  0.16687085427E+04  0.25500000920E-02 0.  1.
        2   -1    0    0  501    0  0.00000000000E+00  0.00000000000E+00 -0.21608439524E+04  0.21608439524E+04  0.25500000920E-02 0. -1.
    10030    2    1    2    0    0  0.00000000000E+00  0.00000000000E+00 -0.49213540976E+03  0.38295524951E+04  0.37977987112E+04 0.  0.
        5    1    3    3  502    0  0.39512207087E+03 -0.10967005255E+04 -0.17575748225E+04  0.21090198767E+04  0.46999998093E+01 0. -1.
       -5    1    3    3    0  502 -0.39512207087E+03  0.10967005255E+04  0.12654394128E+04  0.17205326184E+04  0.46999998093E+01 0.  1.
</event>
<event>
 5   0  0.1327249E-08  0.3799502E+04  0.7818609E-02  0.8046262E-01
        2   -1    0    0  501    0  0.00000000000E+00  0.00000000000E+00  0.10774080800E+04  0.10774080800E+04  0.25500000920E-02 0. -1.
       -2   -1    0    0    0  501  0.00000000000E+00  0.00000000000E+00 -0.33497548413E+04  0.33497548413E+04  0.25500000920E-02 0.  1.
    10030    2    1    2    0    0  0.00000000000E+00  0.00000000000E+00 -0.22723467614E+04  0.44271629213E+04  0.37995015104E+04 0.  0.
        1    1    3    3  502    0  0.71816298890E+03 -0.17563347827E+04 -0.10282245240E+04  0.21581741401E+04  0.50400001928E-02 0. -1.
       -1    1    3    3    0  502 -0.71816298890E+03  0.17563347827E+04 -0.12441222374E+04  0.22689887812E+04  0.50400001928E-02 0.  1.
</event>
<event>
 5   0  0.1264013E-08  0.3797708E+04  0.7818609E-02  0.8046647E-01
        2   -1    0    0  501    0  0.00000000000E+00  0.00000000000E+00  0.21215320773E+04  0.21215320773E+04  0.25500000920E-02 0. -1.
       -2   -1    0    0    0  501  0.00000000000E+00  0.00000000000E+00 -0.16995487040E+04  0.16995487040E+04  0.25500000920E-02 0.  1.
    10030    2    1    2    0    0  0.00000000000E+00  0.00000000000E+00  0.42198337334E+03  0.38210807813E+04  0.37977083050E+04 0.  0.
        4    1    3    3  502    0  0.59238422668E+03 -0.51444554097E+03  0.19508162255E+04  0.21026789687E+04  0.12699999809E+01 0. -1.
       -4    1    3    3    0  502 -0.59238422668E+03  0.51444554097E+03 -0.15288328522E+04  0.17184018126E+04  0.12699999809E+01 0.  1.
</event>
<event>
 5   0  0.4071750E-09  0.3800010E+04  0.7818609E-02  0.8046153E-01
        1   -1    0    0  501    0  0.00000000000E+00  0.00000000000E+00  0.17430229129E+04  0.17430229129E+04  0.50400001928E-02 0.  1.
       -1   -1    0    0    0  501  0.00000000000E+00  0.00000000000E+00 -0.20711250102E+04  0.20711250102E+04  0.50400001928E-02 0. -1.
    10030    2    1    2    0    0  0.00000000000E+00  0.00000000000E+00 -0.32810209730E+03  0.38141479230E+04  0.38000096569E+04 0.  0.
        2    1    3    3  502    0 -0.96473796203E+03 -0.70576497962E+03  0.13183307003E+04  0.17795559495E+04  0.25500000920E-02 0.  1.
       -2    1    3    3    0  502  0.96473796203E+03  0.70576497962E+03 -0.16464327976E+04  0.20345919736E+04  0.25500000920E-02 0. -1.
</event>
<event>
 5   0  0.4071750E-09  0.3800098E+04  0.7818609E-02  0.8046134E-01
        1   -1    0    0  501    0  0.00000000000E+00  0.00000000000E+00  0.16859411956E+04  0.16859411956E+04  0.50400001928E-02 0. -1.
       -1   -1    0    0    0  501  0.00000000000E+00  0.00000000000E+00 -0.21413481269E+04  0.21413481269E+04  0.50400001928E-02 0.  1.
    10030    2    1    2    0    0  0.00000000000E+00  0.00000000000E+00 -0.45540693126E+03  0.38272893225E+04  0.38000984310E+04 0.  0.
        2    1    3    3  502    0 -0.14537099316E+04 -0.75054287347E+03 -0.12008468504E+04  0.20294384268E+04  0.25500000920E-02 0.  1.
       -2    1    3    3    0  502  0.14537099316E+04  0.75054287347E+03  0.74543991914E+03  0.17978508957E+04  0.25500000920E-02 0. -1.
</event>
<event>
 5   0  0.1293993E-08  0.3800889E+04  0.7818609E-02  0.8045964E-01
        2   -1    0    0  501    0  0.00000000000E+00  0.00000000000E+00  0.12006231802E+04  0.12006231802E+04  0.25500000920E-02 0.  1.
       -2   -1    0    0    0  501  0.00000000000E+00  0.00000000000E+00 -0.30081786410E+04  0.30081786410E+04  0.25500000920E-02 0. -1.
    10030    2    1    2    0    0  0.00000000000E+00  0.00000000000E+00 -0.18075554609E+04  0.42088018212E+04  0.38008888469E+04 0.  0.
        5    1    3    3  502    0  0.15306927389E+04 -0.10072481997E+03  0.33844685012E+03  0.15709023237E+04  0.46999998093E+01 0.  1.
       -5    1    3    3    0  502 -0.15306927389E+04  0.10072481997E+03 -0.21460023110E+04  0.26378994975E+04  0.46999998093E+01 0. -1.
</event>
<event>
 5   0  0.1305088E-08  0.3799831E+04  0.7818609E-02  0.8046191E-01
        2   -1    0    0  501    0  0.00000000000E+00  0.00000000000E+00  0.20327037274E+04  0.20327037274E+04  0.25500000920E-02 0.  1.
       -2   -1    0    0    0  501  0.00000000000E+00  0.00000000000E+00 -0.17758017929E+04  0.17758017929E+04  0.25500000920E-02 0. -1.
    10030    2    1    2    0    0  0.00000000000E+00  0.00000000000E+00  0.25690193455E+03  0.38085055203E+04  0.37998310086E+04 0.  0.
        3    1    3    3  502    0 -0.17043427131E+04 -0.19736560159E+03 -0.68946445192E+03  0.18490804485E+04  0.10100000352E+00 0. -1.
       -3    1    3    3    0  502  0.17043427131E+04  0.19736560159E+03  0.94636638647E+03  0.19594250718E+04  0.10100000352E+00 0.  1.
</event>
<event>
 5   0  0.4071750E-09  0.3798887E+04  0.7818609E-02  0.8046394E-01
        1   -1    0    0  501    0  0.00000000000E+00  0.00000000000E+00  0.18533375159E+04  0.18533375159E+04  0.50400001928E-02 0.  1.
       -1   -1    0    0    0  501  0.00000000000E+00  0.00000000000E+00 -0.19466964425E+04  0.19466964425E+04  0.50400001928E-02 0. -1.
    10030    2    1    2    0    0  0.00000000000E+00  0.00000000000E+00 -0.93358926585E+02  0.38000339585E+04  0.37988869681E+04 0.  0.
        2    1    3    3  502    0 -0.77774365313E+03 -0.17299946606E+04 -0.14730224688E+03  0.19024890716E+04  0.25500000920E-02 0.  1.
       -2    1    3    3    0  502  0.77774365313E+03  0.17299946606E+04  0.53943320299E+02  0.18975448868E+04  0.25500000920E-02 0. -1.
</event>
<event>
 5   0  0.1261152E-08  0.3800922E+04  0.7818609E-02  0.8045957E-01
        2   -1    0    0  501    0  0.00000000000E+00  0.00000000000E+00  0.19814770493E+04  0.19814770493E+04  0.25500000920E-02 0. -1.
       -2   -1    0    0    0  501  0.00000000000E+00  0.00000000000E+00 -0.18227573689E+04  0.18227573689E+04  0.25500000920E-02 0.  1.
    10030    2    1    2    0    0  0.00000000000E+00  0.00000000000E+00  0.15871968048E+03  0.38042344182E+04  0.38009219371E+04 0.  0.
        2    1    3    3  502    0  0.11630781492E+04  0.63617703171E+03 -0.12835463534E+04  0.18452542475E+04  0.25500000920E-02 0.  1.
       -2    1    3    3    0  502 -0.11630781492E+04 -0.63617703171E+03  0.14422660338E+04  0.19589801707E+04  0.25500000920E-02 0. -1.
</event>
<event>
 5   0  0.4071750E-09  0.3798579E+04  0.7818609E-02  0.8046460E-01
       -1   -1    0    0    0  501  0.00000000000E+00  0.00000000000E+00  0.15493727190E+04  0.15493727190E+04  0.50400001928E-02 0. -1.
        1   -1    0    0  501    0  0.00000000000E+00  0.00000000000E+00 -0.23282328054E+04  0.23282328054E+04  0.50400001928E-02 0.  1.
    10030    2    1    2    0    0  0.00000000000E+00  0.00000000000E+00 -0.77886008637E+03  0.38776055244E+04  0.37985788881E+04 0.  0.
        4    1    3    3  502    0  0.20678471573E+02 -0.25503374204E+03 -0.23105578949E+04  0.23246826035E+04  0.12699999809E+01 0.  1.
       -4    1    3    3    0  502 -0.20678471573E+02  0.25503374204E+03  0.15316978085E+04  0.15529229209E+04  0.12699999809E+01 0. -1.
</event>
<event>
 5   0  0.4071750E-09  0.3801242E+04  0.7818609E-02  0.8045888E-01
       -1   -1    0    0    0  501  0.00000000000E+00  0.00000000000E+00  0.15690867234E+04  0.15690867234E+04  0.50400001928E-02 0. -1.
        1   -1    0    0  501    0  0.00000000000E+00  0.00000000000E+00 -0.23022061443E+04  0.23022061444E+04  0.50400001928E-02 0.  1.
    10030    2    1    2    0    0  0.00000000000E+00  0.00000000000E+00 -0.73311942097E+03  0.38712928677E+04  0.38012424788E+04 0.  0.
        3    1    3    3  502    0  0.18389430111E+04  0.35865747962E+03 -0.69184273938E+03  0.19972463474E+04  0.10100000352E+00 0. -1.
       -3    1    3    3    0  502 -0.18389430111E+04 -0.35865747962E+03 -0.41276681593E+02  0.18740465204E+04  0.10100000352E+00 0.  1.
</event>
<event>
 5   0  0.1327249E-08  0.3798367E+04  0.7818609E-02  0.8046505E-01
       -2   -1    0    0    0  501  0.00000000000E+00  0.00000000000E+00  0.29738484960E+04  0.29738484960E+04  0.25500000920E-02 0. -1.
        2   -1    0    0  501    0  0.00000000000E+00  0.00000000000E+00 -0.12128722707E+04  0.12128722707E+04  0.25500000920E-02 0.  1.
    10030    2    1    2    0    0  0.00000000000E+00  0.00000000000E+00  0.17609762253E+04  0.41867207667E+04  0.37983672166E+04 0.  0.
        1    1    3    3  502    0  0.10902258033E+04 -0.14634253787E+04  0.30069168548E+03  0.18494922630E+04  0.50400001928E-02 0.  1.
       -1    1    3    3    0  502 -0.10902258033E+04  0.14634253787E+04  0.14602845398E+04  0.23372285037E+04  0.50400001928E-02 0. -1.
</event>
<event>
 5   0  0.4071750E-09  0.3798880E+04  0.7818609E-02  0.8046395E-01
       -1   -1    0    0    0  501  0.00000000000E+00  0.00000000000E+00  0.21830704275E+04  0.21830704275E+04  0.50400001928E-02 0. -1.
        1   -1    0    0  501    0  0.00000000000E+00  0.00000000000E+00 -0.16526595658E+04  0.16526595658E+04  0.50400001928E-02 0.  1.
    10030    2    1    2    0    0  0.00000000000E+00  0.00000000000E+00  0.53041086167E+03  0.38357299932E+04  0.37988799532E+04 0.  0.
        2    1    3    3  502    0  0.29047852604E+03  0.10486152761E+04 -0.13067848211E+04  0.17004876772E+04  0.25500000920E-02 0.  1.
       -2    1    3    3    0  502 -0.29047852604E+03 -0.10486152761E+04  0.18371956828E+04  0.21352423161E+04  0.25500000920E-02 0. -1.
</event>
<event>
 5   0  0.1327249E-08  0.3798153E+04  0.7818609E-02  0.8046551E-01
        2   -1    0    0  501    0  0.00000000000E+00  0.00000000000E+00  0.16033658366E+04  0.16033658366E+04  0.25500000920E-02 0. -1.
       -2   -1    0    0    0  501  0.00000000000E+00  0.00000000000E+00 -0.22493252463E+04  0.22493252463E+04  0.25500000920E-02 0.  1.
    10030    2    1    2    0    0  0.00000000000E+00  0.00000000000E+00 -0.64595940971E+03  0.38526910829E+04  0.37981528433E+04 0.  0.
        1    1    3    3  502    0 -0.85706231859E+03  0.95450159854E+03 -0.17433948048E+04  0.21644986868E+04  0.50400001928E-02 0.  1.
       -1    1    3    3    0  502  0.85706231859E+03 -0.95450159854E+03  0.10974353951E+04  0.16881923961E+04  0.50400001928E-02 0. -1.
</event>
<event>
 5   0  0.1305088E-08  0.3798184E+04  0.7818609E-02  0.8046545E-01
       -2   -1    0    0    0  501  0.00000000000E+00  0.00000000000E+00  0.12852444137E+04  0.12852444137E+04  0.25500000920E-02 0.  1.
        2   -1    0    0  501    0  0.00000000000E+00  0.00000000000E+00 -0.28061208664E+04  0.28061208664E+04  0.25500000920E-02 0. -1.
    10030    2    1    2    0    0  0.00000000000E+00  0.00000000000E+00 -0.15208764527E+04  0.40913652801E+04  0.37981843914E+04 0.  0.
        3    1    3    3  502    0 -0.13731749585E+03  0.14031106818E+04  0.61016688140E+03  0.15361898689E+04  0.10100000352E+00 0.  1.
       -3    1    3    3    0  502  0.13731749585E+03 -0.14031106818E+04 -0.21310433341E+04  0.25551754112E+04  0.10100000352E+00 0. -1.
</event>
<event>
 5   0  0.4071750E-09  0.3796959E+04  0.7818609E-02  0.8046808E-01
        1   -1    0    0  501    0  0.00000000000E+00  0.00000000000E+00  0.20076218050E+04  0.20076218050E+04  0.50400001928E-02 0. -1.
       -1   -1    0    0    0  501  0.00000000000E+00  0.00000000000E+00 -0.17952708039E+04  0.17952708039E+04  0.50400001928E-02 0.  1.
    10030    2    1    2    0    0  0.00000000000E+00  0.00000000000E+00  0.21235100110E+03  0.38028926090E+04  0.37969592107E+04 0.  0.
        1    1    3    3  502    0  0.11994553178E+03 -0.55666995792E+03  0.19200706008E+04  0.20027330039E+04  0.50400001928E-02 0. -1.
       -1    1    3    3    0  502 -0.11994553178E+03  0.55666995792E+03 -0.17077195997E+04  0.18001596051E+04  0.50400001928E-02 0.  1.
</event>
<event>
 5   0  0.4071750E-09  0.3800612E+04  0.7818609E-02  0.8046024E-01
        1   -1    0    0  501    0  0.00000000000E+00  0.00000000000E+00  0.22156150281E+04  0.22156150281E+04  0.50400001928E-02 0.  1.
       -1   -1    0    0    0  501  0.00000000000E+00  0.00000000000E+00 -0.16298691890E+04  0.16298691890E+04  0.50400001928E-02 0. -1.
    10030    2    1    2    0    0  0.00000000000E+00  0.00000000000E+00  0.58574583904E+03  0.38454842171E+04  0.38006118818E+04 0.  0.
        1    1    3    3  502    0  0.22772111632E+03  0.59703412756E+03  0.21036551289E+04  0.21985612472E+04  0.50400001928E-02 0.  1.
       -1    1    3    3    0  502 -0.22772111632E+03 -0.59703412756E+03 -0.15179092899E+04  0.16469229699E+04  0.50400001928E-02 0. -1.
</event>
<event>
 5   0  0.1327249E-08  0.3800454E+04  0.7818609E-02  0.8046057E-01
       -2   -1    0    0    0  501  0.00000000000E+00  0.00000000000E+00  0.14983823304E+04  0.14983823304E+04  0.25500000920E-02 0.  1.
        2   -1    0    0  501    0  0.00000000000E+00  0.00000000000E+00 -0.24098411955E+04  0.24098411956E+04  0.25500000920E-02 0. -1.
    10030    2    1    2    0    0  0.00000000000E+00  0.00000000000E+00 -0.91145886510E+03  0.39082235260E+04  0.38004544289E+04 0.  0.
        1    1    3    3  502    0 -0.17415287803E+03  0.14999293132E+04 -0.16420211510E+04  0.22307735497E+04  0.50400001928E-02 0. -1.
       -1    1    3    3    0  502  0.17415287803E+03 -0.14999293132E+04  0.73056228588E+03  0.16774499763E+04  0.50400001928E-02 0.  1.
</event>
<event>
 5   0  0.4071750E-09  0.3799976E+04  0.7818609E-02  0.8046160E-01
       -1   -1    0    0    0  501  0.00000000000E+00  0.00000000000E+00  0.15100633155E+04  0.15100633155E+04  0.50400001928E-02 0.  1.
        1   -1    0    0  501    0  0.00000000000E+00  0.00000000000E+00 -0.23905984487E+04  0.23905984487E+04  0.50400001928E-02 0. -1.
    10030    2    1    2    0    0  0.00000000000E+00  0.00000000000E+00 -0.88053513326E+03  0.39006617642E+04  0.37999763260E+04 0.  0.
        2    1    3    3  502    0 -0.71522418242E+03  0.59831193575E+03 -0.21395553472E+04  0.23339279953E+04  0.25500000920E-02 0. -1.
       -2    1    3    3    0  502  0.71522418242E+03 -0.59831193575E+03  0.12590202139E+04  0.15667337689E+04  0.25500000920E-02 0.  1.
</event>
<event>
 5   0  0.4071750E-09  0.3799959E+04  0.7818609E-02  0.8046164E-01
        1   -1    0    0  501    0  0.00000000000E+00  0.00000000000E+00  0.22816828976E+04  0.22816828976E+04  0.50400001928E-02 0. -1.
       -1   -1    0    0    0  501  0.00000000000E+00  0.00000000000E+00 -0.15821311263E+04  0.15821311263E+04  0.50400001928E-02 0.  1.
    10030    2    1    2    0    0  0.00000000000E+00  0.00000000000E+00  0.69955177127E+03  0.38638140239E+04  0.37999587012E+04 0.  0.
        1    1    3    3  502    0  0.31734741381E+03 -0.14124576112E+04 -0.90142045767E+03  0.17053752450E+04  0.50400001928E-02 0.  1.
       -1    1    3    3    0  502 -0.31734741381E+03  0.14124576112E+04  0.16009722289E+04  0.21584387790E+04  0.50400001928E-02 0. -1.
</event>
<event>
 5   0  0.1305088E-08  0.3798666E+04  0.7818609E-02  0.8046441E-01
        2   -1    0    0  501    0  0.00000000000E+00  0.00000000000E+00  0.13963575542E+04  0.13963575542E+04  0.25500000920E-02 0. -1.
       -2   -1    0    0    0  501  0.00000000000E+00  0.00000000000E+00 -0.25834831558E+04  0.25834831558E+04  0.25500000920E-02 0.  1.
    10030    2    1    2    0    0  0.00000000000E+00  0.00000000000E+00 -0.11871256016E+04  0.39798407100E+04  0.37986661979E+04 0.  0.
        3    1    3    3  502    0 -0.14502117841E+03 -0.69281683524E+03  0.12530083058E+04  0.14391164421E+04  0.10100000352E+00 0. -1.
       -3    1    3    3    0  502  0.14502117841E+03  0.69281683524E+03 -0.24401339074E+04  0.25407242679E+04  0.10100000352E+00 0.  1.
</event>
<event>
 5   0  0.4071750E-09  0.3797464E+04  0.7818609E-02  0.8046699E-01
       -1   -1    0    0    0  501  0.00000000000E+00  0.00000000000E+00  0.14448220354E+04  0.14448220354E+04  0.50400001928E-02 0. -1.
        1   -1    0    0  501    0  0.00000000000E+00  0.00000000000E+00 -0.24952432112E+04  0.24952432112E+04  0.50400001928E-02 0.  1.
    10030    2    1    2    0    0  0.00000000000E+00  0.00000000000E+00 -0.10504211758E+04  0.39400652466E+04  0.37974635615E+04 0.  0.
        4    1    3    3  502    0 -0.94420313863E+03 -0.13751055836E+04 -0.14663254745E+04  0.22209337998E+04  0.12699999809E+01 0.  1.
       -4    1    3    3    0  502  0.94420313863E+03  0.13751055836E+04  0.41590429867E+03  0.17191314468E+04  0.12699999809E+01 0. -1.
</event>
<event>
 5   0  0.4071750E-09  0.3800241E+04  0.7818609E-02  0.8046103E-01
       -1   -1    0    0    0  501  0.00000000000E+00  0.00000000000E+00  0.19087962002E+04  0.19087962003E+04  0.50400001928E-02 0. -1.
        1   -1    0    0  501    0  0.00000000000E+00  0.00000000000E+00 -0.18914846188E+04  0.18914846188E+04  0.50400001928E-02 0.  1.
    10030    2    1    2    0    0  0.00000000000E+00  0.00000000000E+00  0.17311581474E+02  0.38002808190E+04  0.38002413887E+04 0.  0.
        1    1    3    3  502    0 -0.52945140882E+02 -0.45225000616E+03 -0.18361195390E+04  0.18917368257E+04  0.50400001928E-02 0.  1.
       -1    1    3    3    0  502  0.52945140882E+02  0.45225000616E+03  0.18534311205E+04  0.19085439933E+04  0.50400001928E-02 0. -1.
</event>
<event>
 5   0  0.4071750E-09  0.3802520E+04  0.7818609E-02  0.8045614E-01
        1   -1    0    0  501    0  0.00000000000E+00  0.00000000000E+00  0.25044491860E+04  0.25044491860E+04  0.50400001928E-02 0. -1.
       -1   -1    0    0    0  501  0.00000000000E+00  0.00000000000E+00 -0.14433471780E+04  0.14433471780E+04  0.50400001928E-02 0.  1.
    10030    2    1    2    0    0  0.00000000000E+00  0.00000000000E+00  0.10611020080E+04  0.39477963641E+04  0.38025200408E+04 0.  0.
        1    1    3    3  502    0  0.21561728764E+03 -0.12727305145E+04  0.19797516538E+04  0.23634192154E+04  0.50400001928E-02 0. -1.
       -1    1    3    3    0  502 -0.21561728764E+03  0.12727305145E+04 -0.91864964578E+03  0.15843771486E+04  0.50400001928E-02 0.  1.
</event>
<event>
 5   0  0.1261152E-08  0.3798463E+04  0.7818609E-02  0.8046485E-01
        2   -1    0    0  501    0  0.00000000000E+00  0.00000000000E+00  0.19251920301E+04  0.19251920301E+04  0.25500000920E-02 0.  1.
       -2   -1    0    0    0  501  0.00000000000E+00  0.00000000000E+00 -0.18736209617E+04  0.18736209617E+04  0.25500000920E-02 0. -1.
    10030    2    1    2    0    0  0.00000000000E+00  0.00000000000E+00  0.51571068398E+02  0.37988129918E+04  0.37984629223E+04 0.  0.
        2    1    3    3  502    0  0.11993128462E+04 -0.13210253471E+04  0.67670715648E+03  0.19082431308E+04  0.25500000920E-02 0.  1.
       -2    1    3    3    0  502 -0.11993128462E+04  0.13210253471E+04 -0.62513608808E+03  0.18905698610E+04  0.25500000920E-02 0. -1.
</event>
<event>
 5   0  0.1264013E-08  0.3799434E+04  0.7818609E-02  0.8046276E-01
        2   -1    0    0  501    0  0.00000000000E+00  0.00000000000E+00  0.13112504117E+04  0.13112504117E+04  0.25500000920E-02 0. -1.
       -2   -1    0    0    0  501  0.00000000000E+00  0.00000000000E+00 -0.27522774183E+04  0.27522774183E+04  0.25500000920E-02 0.  1.
    10030    2    1    2    0    0  0.00000000000E+00  0.00000000000E+00 -0.14410270066E+04  0.40635278300E+04  0.37994341146E+04 0.  0.
        4    1    3    3  502    0 -0.10960653768E+03 -0.59307245056E+03 -0.26471658924E+04  0.27150022835E+04  0.12699999809E+01 0.  1.
       -4    1    3    3    0  502  0.10960653768E+03  0.59307245056E+03  0.12061388858E+04  0.13485255464E+04  0.12699999809E+01 0. -1.
</event>
<event>
 5   0  0.1305088E-08  0.3799739E+04  0.7818609E-02  0.8046211E-01
       -2   -1    0    0    0  501  0.00000000000E+00  0.00000000000E+00  0.33033251272E+04  0.33033251272E+04  0.25500000920E-02 0. -1.
        2   -1    0    0  501    0  0.00000000000E+00  0.00000000000E+00 -0.10926883500E+04  0.10926883500E+04  0.25500000920E-02 0.  1.
    10030    2    1    2    0    0  0.00000000000E+00  0.00000000000E+00  0.22106367772E+04  0.43960134773E+04  0.37997394031E+04 0.  0.
        3    1    3    3  502    0 -0.89997002467E+02  0.60231306290E+03 -0.97670447124E+03  0.11510135188E+04  0.10100000352E+00 0.  1.
       -3    1    3    3    0  502  0.89997002467E+02 -0.60231306290E+03  0.31873412484E+04  0.32449999585E+04  0.10100000352E+00 0. -1.
</event>
<event>
 5   0  0.4071750E-09  0.3799623E+04  0.7818609E-02  0.8046236E-01
        1   -1    0    0  501    0  0.00000000000E+00  0.00000000000E+00  0.22712145213E+04  0.22712145213E+04  0.50400001928E-02 0. -1.
       -1   -1    0    0    0  501  0.00000000000E+00  0.00000000000E+00 -0.15891423859E+04  0.15891423859E+04  0.50400001928E-02 0.  1.
    10030    2    1    2    0    0  0.00000000000E+00  0.00000000000E+00  0.68207213540E+03  0.38603569072E+04  0.37996227514E+04 0.  0.
        3    1    3    3  502    0 -0.58020054062E+03 -0.56393075104E+03  0.20874159872E+04  0.22387398404E+04  0.10100000352E+00 0. -1.
       -3    1    3    3    0  502  0.58020054062E+03  0.56393075104E+03 -0.14053438518E+04  0.16216170668E+04  0.10100000352E+00 0.  1.
</event>
<event>
 5   0  0.1305088E-08  0.3797414E+04  0.7818609E-02  0.8046710E-01
       -2   -1    0    0    0  501  0.00000000000E+00  0.00000000000E+00  0.14546250249E+04  0.14546250249E+04  0.25500000920E-02 0. -1.
        2   -1    0    0  501    0  0.00000000000E+00  0.00000000000E+00 -0.24783630886E+04  0.24783630886E+04  0.25500000920E-02 0.  1.
    10030    2    1    2    0    0  0.00000000000E+00  0.00000000000E+00 -0.10237380636E+04  0.39329881135E+04  0.37974143675E+04 0.  0.
        3    1    3    3  502    0  0.76503377769E+03 -0.12289925932E+04  0.76056508398E+03  0.16352855201E+04  0.10100000352E+00 0. -1.
       -3    1    3    3    0  502 -0.76503377769E+03  0.12289925932E+04 -0.17843031476E+04  0.22977025934E+04  0.10100000352E+00 0.  1.
</event>
<event>
 5   0  0.1261152E-08  0.3806746E+04  0.7818609E-02  0.8044709E-01
       -2   -1    0    0    0  501  0.00000000000E+00  0.00000000000E+00  0.19547981998E+04  0.19547981998E+04  0.25500000920E-02 0.  1.
        2   -1    0    0  501    0  0.00000000000E+00  0.00000000000E+00 -0.18533005450E+04  0.18533005450E+04  0.25500000920E-02 0. -1.
    10030    2    1    2    0    0  0.00000000000E+00  0.00000000000E+00  0.10149765479E+03  0.38080987448E+04  0.38067458907E+04 0.  0.
        2    1    3    3  502    0 -0.15785254185E+04  0.80137601758E+03  0.75019867823E+03  0.19226918825E+04  0.25500000920E-02 0.  1.
       -2    1    3    3    0  502  0.15785254185E+04 -0.80137601758E+03 -0.64870102345E+03  0.18854068622E+04  0.25500000920E-02 0. -1.
</event>
<event>
 5   0  0.4071750E-09  0.3799736E+04  0.7818609E-02  0.8046212E-01
        1   -1    0    0  501    0  0.00000000000E+00  0.00000000000E+00  0.12112107149E+04  0.12112107149E+04  0.50400001928E-02 0. -1.
       -1   -1    0    0    0  501  0.00000000000E+00  0.00000000000E+00 -0.29800739832E+04  0.29800739832E+04  0.50400001928E-02 0.  1.
    10030    2    1    2    0    0  0.00000000000E+00  0.00000000000E+00 -0.17688632684E+04  0.41912846981E+04  0.37997355380E+04 0.  0.
        3    1    3    3  502    0 -0.90536293688E+03  0.16604583024E+04 -0.10838778864E+04  0.21798153831E+04  0.10100000352E+00 0. -1.
       -3    1    3    3    0  502  0.90536293688E+03 -0.16604583024E+04 -0.68498538200E+03  0.20114693150E+04  0.10100000352E+00 0.  1.
</event>
<event>
 5   0  0.1293993E-08  0.3801387E+04  0.7818609E-02  0.8045857E-01
        2   -1    0    0  501    0  0.00000000000E+00  0.00000000000E+00  0.14809414010E+04  0.14809414010E+04  0.25500000920E-02 0. -1.
       -2   -1    0    0    0  501  0.00000000000E+00  0.00000000000E+00 -0.24394186584E+04  0.24394186584E+04  0.25500000920E-02 0.  1.
    10030    2    1    2    0    0  0.00000000000E+00  0.00000000000E+00 -0.95847725741E+03  0.39203600593E+04  0.38013871602E+04 0.  0.
        5    1    3    3  502    0  0.65614354674E+03 -0.17065511325E+04 -0.10148909503E+04  0.20911400844E+04  0.46999998093E+01 0.  1.
       -5    1    3    3    0  502 -0.65614354674E+03  0.17065511325E+04  0.56413692871E+02  0.18292199749E+04  0.46999998093E+01 0. -1.
</event>
<event>
 5   0  0.1293993E-08  0.3799830E+04  0.7818609E-02  0.8046191E-01
       -2   -1    0    0    0  501  0.00000000000E+00  0.00000000000E+00  0.18341395132E+04  0.18341395132E+04  0.25500000920E-02 0. -1.
        2   -1    0    0  501    0  0.00000000000E+00  0.00000000000E+00 -0.19680489609E+04  0.19680489609E+04  0.25500000920E-02 0.  1.
    10030    2    1    2    0    0  0.00000000000E+00  0.00000000000E+00 -0.13390944770E+03  0.38021884741E+04  0.37998296610E+04 0.  0.
        5    1    3    3  502    0  0.97660275764E+03 -0.14117704424E+04  0.74767936417E+03  0.18724036023E+04  0.46999998093E+01 0. -1.
       -5    1    3    3    0  502 -0.97660275764E+03  0.14117704424E+04 -0.88158881187E+03  0.19297848718E+04  0.46999998093E+01 0.  1.
</event>
<event>
 5   0  0.1327249E-08  0.3800377E+04  0.7818609E-02  0.8046074E-01
        2   -1    0    0  501    0  0.00000000000E+00  0.00000000000E+00  0.19314004975E+04  0.19314004975E+04  0.25500000920E-02 0.  1.
       -2   -1    0    0    0  501  0.00000000000E+00  0.00000000000E+00 -0.18694805043E+04  0.18694805043E+04  0.25500000920E-02 0. -1.
    10030    2    1    2    0    0  0.00000000000E+00  0.00000000000E+00  0.61919993169E+02  0.38008810018E+04  0.38003766003E+04 0.  0.
        1    1    3    3  502    0 -0.17486004052E+03  0.18660248594E+04  0.34419601977E+03  0.19055434158E+04  0.50400001928E-02 0.  1.
       -1    1    3    3    0  502  0.17486004052E+03 -0.18660248594E+04 -0.28227602660E+03  0.18953375860E+04  0.50400001928E-02 0. -1.
</event>
<event>
 5   0  0.1264013E-08  0.3798293E+04  0.7818609E-02  0.8046521E-01
       -2   -1    0    0    0  501  0.00000000000E+00  0.00000000000E+00  0.22043618959E+04  0.22043618959E+04  0.25500000920E-02 0. -1.
        2   -1    0    0  501    0  0.00000000000E+00  0.00000000000E+00 -0.16361914979E+04  0.16361914979E+04  0.25500000920E-02 0.  1.
    10030    2    1    2    0    0  0.00000000000E+00  0.00000000000E+00  0.56817039805E+03  0.38405533938E+04  0.37982934022E+04 0.  0.
        4    1    3    3  502    0  0.32315935510E+03 -0.91675844537E+03  0.19337640913E+04  0.21643297322E+04  0.12699999809E+01 0. -1.
       -4    1    3    3    0  502 -0.32315935510E+03  0.91675844537E+03 -0.13655936932E+04  0.16762236616E+04  0.12699999809E+01 0.  1.
</event>
<event>
 5   0  0.4071750E-09  0.3801105E+04  0.7818609E-02  0.8045918E-01
        1   -1    0    0  501    0  0.00000000000E+00  0.00000000000E+00  0.23118237819E+04  0.23118237819E+04  0.50400001928E-02 0.  1.
       -1   -1    0    0    0  501  0.00000000000E+00  0.00000000000E+00 -0.15624459841E+04  0.15624459841E+04  0.50400001928E-02 0. -1.
    10030    2    1    2    0    0  0.00000000000E+00  0.00000000000E+00  0.74937779780E+03  0.38742697660E+04  0.38011049888E+04 0.  0.
        3    1    3    3  502    0  0.10875929588E+04 -0.12590267552E+04 -0.56174069696E+03  0.17560066729E+04  0.10100000352E+00 0.  1.
       -3    1    3    3    0  502 -0.10875929588E+04  0.12590267552E+04  0.13111184948E+04  0.21182630932E+04  0.10100000352E+00 0. -1.
</event>
<event>
 5   0  0.4071750E-09  0.3801224E+04  0.7818609E-02  0.8045892E-01
        1   -1    0    0  501    0  0.00000000000E+00  0.00000000000E+00  0.19840122745E+04  0.19840122745E+04  0.50400001928E-02 0.  1.
       -1   -1    0    0    0  501  0.00000000000E+00  0.00000000000E+00 -0.18207174067E+04  0.18207174067E+04  0.50400001928E-02 0. -1.
    10030    2    1    2    0    0  0.00000000000E+00  0.00000000000E+00  0.16329486779E+03  0.38047296812E+04  0.38012238467E+04 0.  0.
        4    1    3    3  502    0  0.47827056540E+03  0.21243534319E+03 -0.17471810027E+04  0.18238735093E+04  0.12699999809E+01 0. -1.
       -4    1    3    3    0  502 -0.47827056540E+03 -0.21243534319E+03  0.19104758705E+04  0.19808561718E+04  0.12699999809E+01 0.  1.
</event>
<event>
 5   0  0.1327249E-08  0.3799205E+04  0.7818609E-02  0.8046326E-01
        2   -1    0    0  501    0  0.00000000000E+00  0.00000000000E+00  0.25986857498E+04  0.25986857498E+04  0.25500000920E-02 0.  1.
       -2   -1    0    0    0  501  0.00000000000E+00  0.00000000000E+00 -0.13885823215E+04  0.13885823215E+04  0.25500000920E-02 0. -1.
    10030    2    1    2    0    0  0.00000000000E+00  0.00000000000E+00  0.12101034283E+04  0.39872680714E+04  0.37992047017E+04 0.  0.
        1    1    3    3  502    0  0.11161798823E+04 -0.88303454188E+03 -0.71535264932E+03  0.15929020512E+04  0.50400001928E-02 0. -1.
       -1    1    3    3    0  502 -0.11161798823E+04  0.88303454188E+03  0.19254560776E+04  0.23943660202E+04  0.50400001928E-02 0.  1.
</event>
<event>
 5   0  0.4071750E-09  0.3800172E+04  0.7818609E-02  0.8046118E-01
       -1   -1    0    0    0  501  0.00000000000E+00  0.00000000000E+00  0.23879320480E+04  0.23879320480E+04  0.50400001928E-02 0.  1.
        1   -1    0    0  501    0  0.00000000000E+00  0.00000000000E+00 -0.15119048563E+04  0.15119048563E+04  0.50400001928E-02 0. -1.
    10030    2    1    2    0    0  0.00000000000E+00  0.00000000000E+00  0.87602719174E+03  0.38998369043E+04  0.38001716066E+04 0.  0.
        1    1    3    3  502    0 -0.12627246834E+04 -0.52540517332E+03  0.17916222695E+04  0.22539819384E+04  0.50400001928E-02 0.  1.
       -1    1    3    3    0  502  0.12627246834E+04  0.52540517332E+03 -0.91559507774E+03  0.16458549659E+04  0.50400001928E-02 0. -1.
</event>
<event>
 5   0  0.1264013E-08  0.3801214E+04  0.7818609E-02  0.8045894E-01
       -2   -1    0    0    0  501  0.00000000000E+00  0.00000000000E+00  0.19952828897E+04  0.19952828897E+04  0.25500000920E-02 0.  1.
        2   -1    0    0  501    0  0.00000000000E+00  0.00000000000E+00 -0.18104230967E+04  0.18104230967E+04  0.25500000920E-02 0. -1.
    10030    2    1    2    0    0  0.00000000000E+00  0.00000000000E+00  0.18485979304E+03  0.38057059865E+04  0.38012136104E+04 0.  0.
        4    1    3    3  502    0  0.47739540313E+03  0.71548758888E+03  0.17892708743E+04  0.19852759847E+04  0.12699999809E+01 0.  1.
       -4    1    3    3    0  502 -0.47739540313E+03 -0.71548758888E+03 -0.16044110813E+04  0.18204300018E+04  0.12699999809E+01 0. -1.
</event>
<event>
 5   0  0.1293993E-08  0.3800122E+04  0.7818609E-02  0.8046129E-01
        2   -1    0    0  501    0  0.00000000000E+00  0.00000000000E+00  0.20399520179E+04  0.20399520179E+04  0.25500000920E-02 0. -1.
       -2   -1    0    0    0  501  0.00000000000E+00  0.00000000000E+00 -0.17697629168E+04  0.17697629168E+04  0.25500000920E-02 0.  1.
    10030    2    1    2    0    0  0.00000000000E+00  0.00000000000E+00  0.27018910116E+03  0.38097149347E+04  0.38001218051E+04 0.  0.
        5    1    3    3  502    0 -0.13216014134E+04  0.36075902189E+03 -0.11848277451E+04  0.18112471514E+04  0.46999998093E+01 0.  1.
       -5    1    3    3    0  502  0.13216014134E+04 -0.36075902189E+03  0.14550168463E+04  0.19984677833E+04  0.46999998093E+01 0. -1.
</event>
<event>
 5   0  0.1293993E-08  0.3799945E+04  0.7818609E-02  0.8046167E-01
        2   -1    0    0  501    0  0.00000000000E+00  0.00000000000E+00  0.23849432951E+04  0.23849432951E+04  0.25500000920E-02 0.  1.
       -2   -1    0    0    0  501  0.00000000000E+00  0.00000000000E+00 -0.15136187452E+04  0.15136187452E+04  0.25500000920E-02 0. -1.
    10030    2    1    2    0    0  0.00000000000E+00  0.00000000000E+00  0.87132454993E+03  0.38985620403E+04  0.37999446721E+04 0.  0.
        5    1    3    3  502    0 -0.10363706779E+04  0.12140895826E+04 -0.62151430418E+03  0.17130031573E+04  0.46999998093E+01 0. -1.
       -5    1    3    3    0  502  0.10363706779E+04 -0.12140895826E+04  0.14928388541E+04  0.21855588830E+04  0.46999998093E+01 0.  1.
</event>
<event>
 5   0  0.4071750E-09  0.3801437E+04  0.7818609E-02  0.8045847E-01
       -1   -1    0    0    0  501  0.00000000000E+00  0.00000000000E+00  0.13984227765E+04  0.13984227765E+04  0.50400001928E-02 0.  1.
        1   -1    0    0  501    0  0.00000000000E+00  0.00000000000E+00 -0.25834324763E+04  0.25834324763E+04  0.50400001928E-02 0. -1.
    10030    2    1    2    0    0  0.00000000000E+00  0.00000000000E+00 -0.11850096998E+04  0.39818552528E+04  0.38014370001E+04 0.  0.
        4    1    3    3  502    0 -0.16365031005E+04 -0.73574470543E+03 -0.12493774799E+04  0.21864145009E+04  0.12699999809E+01 0. -1.
       -4    1    3    3    0  502  0.16365031005E+04  0.73574470543E+03  0.64367780074E+02  0.17954407519E+04  0.12699999809E+01 0.  1.
</event>
<event>
 5   0  0.4071750E-09  0.3799535E+04  0.7818609E-02  0.8046255E-01
       -1   -1    0    0    0  501  0.00000000000E+00  0.00000000000E+00  0.16879503768E+04  0.16879503769E+04  0.50400001928E-02 0.  1.
        1   -1    0    0  501    0  0.00000000000E+00  0.00000000000E+00 -0.21381647182E+04  0.21381647182E+04  0.50400001928E-02 0. -1.
    10030    2    1    2    0    0  0.00000000000E+00  0.00000000000E+00 -0.45021434138E+03  0.38261150951E+04  0.37995346778E+04 0.  0.
        4    1    3    3  502    0  0.56511411324E+03  0.15404292749E+03 -0.20449663283E+04  0.21271981763E+04  0.12699999809E+01 0. -1.
       -4    1    3    3    0  502 -0.56511411324E+03 -0.15404292749E+03  0.15947519869E+04  0.16989169188E+04  0.12699999809E+01 0.  1.
</event>
<event>
 5   0  0.4071750E-09  0.3799715E+04  0.7818609E-02  0.8046216E-01
       -1   -1    0    0    0  501  0.00000000000E+00  0.00000000000E+00  0.18536697938E+04  0.18536697938E+04  0.50400001928E-02 0.  1.
        1   -1    0    0  501    0  0.00000000000E+00  0.00000000000E+00 -0.19471964345E+04  0.19471964345E+04  0.50400001928E-02 0. -1.
    10030    2    1    2    0    0  0.00000000000E+00  0.00000000000E+00 -0.93526640670E+02  0.38008662284E+04  0.37997153648E+04 0.  0.
        1    1    3    3  502    0 -0.70296933380E+03 -0.11819416240E+04  0.12644759298E+04  0.18681678897E+04  0.50400001928E-02 0.  1.
       -1    1    3    3    0  502  0.70296933380E+03  0.11819416240E+04 -0.13580025705E+04  0.19326983387E+04  0.50400001928E-02 0. -1.
</event>
<event>
 5   0  0.1293993E-08  0.3801326E+04  0.7818609E-02  0.8045870E-01
        2   -1    0    0  501    0  0.00000000000E+00  0.00000000000E+00  0.17731861884E+04  0.17731861884E+04  0.25500000920E-02 0. -1.
       -2   -1    0    0    0  501  0.00000000000E+00  0.00000000000E+00 -0.20373038248E+04  0.20373038248E+04  0.25500000920E-02 0.  1.
    10030    2    1    2    0    0  0.00000000000E+00  0.00000000000E+00 -0.26411763637E+03  0.38104900132E+04  0.38013255603E+04 0.  0.
        5    1    3    3  502    0  0.11505144940E+03 -0.75513047029E+03  0.16125502533E+04  0.17843203951E+04  0.46999998093E+01 0. -1.
       -5    1    3    3    0  502 -0.11505144940E+03  0.75513047029E+03 -0.18766678897E+04  0.20261696181E+04  0.46999998093E+01 0.  1.
</event>
<event>
 5   0  0.1264013E-08  0.3780188E+04  0.7818609E-02  0.8050420E-01
       -2   -1    0    0    0  501  0.00000000000E+00  0.00000000000E+00  0.18244929226E+04  0.18244929226E+04  0.25500000920E-02 0. -1.
        2   -1    0    0  501    0  0.00000000000E+00  0.00000000000E+00 -0.19580541441E+04  0.19580541441E+04  0.25500000920E-02 0.  1.
    10030    2    1    2    0    0  0.00000000000E+00  0.00000000000E+00 -0.13356122150E+03  0.37825470668E+04  0.37801883171E+04 0.  0.
        4    1    3    3  502    0  0.11924093836E+03  0.11810083675E+04 -0.15385672405E+04  0.19432421187E+04  0.12699999809E+01 0.  1.
       -4    1    3    3    0  502 -0.11924093836E+03 -0.11810083675E+04  0.14050060190E+04  0.18393049480E+04  0.12699999809E+01 0. -1.
</event>
<event>
 5   0  0.1327249E-08  0.3781842E+04  0.7818609E-02  0.8050063E-01
        2   -1    0    0  501    0  0.00000000000E+00  0.00000000000E+00  0.24991157426E+04  0.24991157426E+04  0.25500000920E-02 0. -1.
       -2   -1    0    0    0  501  0.00000000000E+00  0.00000000000E+00 -0.14307392515E+04  0.14307392515E+04  0.25500000920E-02 0.  1.
    10030    2    1    2    0    0  0.00000000000E+00  0.00000000000E+00  0.10683764911E+04  0.39298549941E+04  0.37818424012E+04 0.  0.
        1    1    3    3  502    0  0.89948177679E+02  0.12470818408E+04  0.20082552246E+04  0.23656696387E+04  0.50400001928E-02 0. -1.
       -1    1    3    3    0  502 -0.89948177679E+02 -0.12470818408E+04 -0.93987873349E+03  0.15641853554E+04  0.50400001928E-02 0.  1.
</event>
<event>
 5   0  0.1327249E-08  0.3800778E+04  0.7818609E-02  0.8045988E-01
        2   -1    0    0  501    0  0.00000000000E+00  0.00000000000E+00  0.24148303921E+04  0.24148303921E+04  0.25500000920E-02 0.  1.
       -2   -1    0    0    0  501  0.00000000000E+00  0.00000000000E+00 -0.14955409834E+04  0.14955409834E+04  0.25500000920E-02 0. -1.
    10030    2    1    2    0    0  0.00000000000E+00  0.00000000000E+00  0.91928940870E+03  0.39103713755E+04  0.38007777201E+04 0.  0.
        1    1    3    3  502    0  0.75928529659E+03  0.53014510647E+03  0.21669861824E+04  0.23565646840E+04  0.50400001928E-02 0.  1.
       -1    1    3    3    0  502 -0.75928529659E+03 -0.53014510647E+03 -0.12476967737E+04  0.15538066915E+04  0.50400001928E-02 0. -1.
</event>
<event>
 5   0  0.4071750E-09  0.3797735E+04  0.7818609E-02  0.8046641E-01
        1   -1    0    0  501    0  0.00000000000E+00  0.00000000000E+00  0.22134605958E+04  0.22134605958E+04  0.50400001928E-02 0.  1.
       -1   -1    0    0    0  501  0.00000000000E+00  0.00000000000E+00 -0.16289866316E+04  0.16289866316E+04  0.50400001928E-02 0. -1.
    10030    2    1    2    0    0  0.00000000000E+00  0.00000000000E+00  0.58447396417E+03  0.38424472274E+04  0.37977349672E+04 0.  0.
        2    1    3    3  502    0  0.37234194657E+03  0.96359437821E+03  0.19042765497E+04  0.21664306655E+04  0.25500000920E-02 0.  1.
       -2    1    3    3    0  502 -0.37234194657E+03 -0.96359437821E+03 -0.13198025855E+04  0.16760165619E+04  0.25500000920E-02 0. -1.
</event>
<event>
 5   0  0.4071750E-09  0.3817880E+04  0.7818609E-02  0.8042329E-01
       -1   -1    0    0    0  501  0.00000000000E+00  0.00000000000E+00  0.12912153771E+04  0.12912153771E+04  0.50400001928E-02 0.  1.
        1   -1    0    0  501    0  0.00000000000E+00  0.00000000000E+00 -0.28221872805E+04  0.28221872805E+04  0.50400001928E-02 0. -1.
    10030    2    1    2    0    0  0.00000000000E+00  0.00000000000E+00 -0.15309719034E+04  0.41134026575E+04  0.38178798376E+04 0.  0.
        5    1    3    3  502    0  0.35131087996E+03  0.17378947166E+04 -0.15275793000E+04  0.23403456984E+04  0.46999998093E+01 0. -1.
       -5    1    3    3    0  502 -0.35131087996E+03 -0.17378947166E+04 -0.33926034242E+01  0.17730569591E+04  0.46999998093E+01 0.  1.
</event>
<event>
 5   0  0.1293993E-08  0.3800127E+04  0.7818609E-02  0.8046128E-01
        2   -1    0    0  501    0  0.00000000000E+00  0.00000000000E+00  0.21731603476E+04  0.21731603476E+04  0.25500000920E-02 0. -1.
       -2   -1    0    0    0  501  0.00000000000E+00  0.00000000000E+00 -0.16612861747E+04  0.16612861747E+04  0.25500000920E-02 0.  1.
    10030    2    1    2    0    0  0.00000000000E+00  0.00000000000E+00  0.51187417293E+03  0.38344465223E+04  0.38001269667E+04 0.  0.
        5    1    3    3  502    0  0.60561048041E+03 -0.17418853144E+04  0.71755163690E+03  0.19788458616E+04  0.46999998093E+01 0. -1.
       -5    1    3    3    0  502 -0.60561048041E+03  0.17418853144E+04 -0.20567746396E+03  0.18556006606E+04  0.46999998093E+01 0.  1.
</event>
<event>
 5   0  0.4071750E-09  0.3801774E+04  0.7818609E-02  0.8045774E-01
       -1   -1    0    0    0  501  0.00000000000E+00  0.00000000000E+00  0.22957547507E+04  0.22957547507E+04  0.50400001928E-02 0.  1.
        1   -1    0    0  501    0  0.00000000000E+00  0.00000000000E+00 -0.15739359573E+04  0.15739359573E+04  0.50400001928E-02 0. -1.
    10030    2    1    2    0    0  0.00000000000E+00  0.00000000000E+00  0.72181879345E+03  0.38696907080E+04  0.38017737709E+04 0.  0.
        4    1    3    3  502    0  0.41283511886E+03 -0.45888772224E+03 -0.14690849572E+04  0.15934939603E+04  0.12699999809E+01 0. -1.
       -4    1    3    3    0  502 -0.41283511886E+03  0.45888772224E+03  0.21909037507E+04  0.22761967478E+04  0.12699999809E+01 0.  1.
</event>
<event>
 5   0  0.1261152E-08  0.3800189E+04  0.7818609E-02  0.8046114E-01
       -2   -1    0    0    0  501  0.00000000000E+00  0.00000000000E+00  0.13033074701E+04  0.13033074701E+04  0.25500000920E-02 0. -1.
        2   -1    0    0  501    0  0.00000000000E+00  0.00000000000E+00 -0.27701509272E+04  0.27701509272E+04  0.25500000920E-02 0.  1.
    10030    2    1    2    0    0  0.00000000000E+00  0.00000000000E+00 -0.14668434571E+04  0.40734583973E+04  0.38001886251E+04 0.  0.
        2    1    3    3  502    0  0.13307985040E+04  0.12202552769E+04 -0.13678534557E+04  0.22651866756E+04  0.25500000920E-02 0. -1.
       -2    1    3    3    0  502 -0.13307985040E+04 -0.12202552769E+04 -0.98990001416E+02  0.18082717217E+04  0.25500000920E-02 0.  1.
</event>
<event>
 5   0  0.4071750E-09  0.3800610E+04  0.7818609E-02  0.8046024E-01
        1   -1    0    0  501    0  0.00000000000E+00  0.00000000000E+00  0.14344607105E+04  0.14344607105E+04  0.50400001928E-02 0. -1.
       -1   -1    0    0    0  501  0.00000000000E+00  0.00000000000E+00 -0.25174332631E+04  0.25174332631E+04  0.50400001928E-02 0.  1.
    10030    2    1    2    0    0  0.00000000000E+00  0.00000000000E+00 -0.10829725526E+04  0.39518939736E+04  0.38006100075E+04 0.  0.
        1    1    3    3  502    0  0.13087417481E+04  0.44080620925E+03 -0.18988379498E+04  0.23479141034E+04  0.50400001928E-02 0.  1.
       -1    1    3    3    0  502 -0.13087417481E+04 -0.44080620925E+03  0.81586539721E+03  0.16039798702E+04  0.50400001928E-02 0. -1.
</event>
<event>
 5   0  0.1305088E-08  0.3799501E+04  0.7818609E-02  0.8046262E-01
       -2   -1    0    0    0  501  0.00000000000E+00  0.00000000000E+00  0.14864143709E+04  0.14864143709E+04  0.25500000920E-02 0.  1.
        2   -1    0    0  501    0  0.00000000000E+00  0.00000000000E+00 -0.24280248986E+04  0.24280248986E+04  0.25500000920E-02 0. -1.
    10030    2    1    2    0    0  0.00000000000E+00  0.00000000000E+00 -0.94161052770E+03  0.39144392695E+04  0.37995005473E+04 0.  0.
        3    1    3    3  502    0  0.17980044891E+04  0.61306844427E+03 -0.49083647611E+03  0.19620381027E+04  0.10100000352E+00 0.  1.
       -3    1    3    3    0  502 -0.17980044891E+04 -0.61306844427E+03 -0.45077405159E+03  0.19524011668E+04  0.10100000352E+00 0. -1.
</event>
<event>
 5   0  0.1293993E-08  0.3797613E+04  0.7818609E-02  0.8046667E-01
       -2   -1    0    0    0  501  0.00000000000E+00  0.00000000000E+00  0.14684064918E+04  0.14684064918E+04  0.25500000920E-02 0.  1.
        2   -1    0    0  501    0  0.00000000000E+00  0.00000000000E+00 -0.24553593172E+04  0.24553593172E+04  0.25500000920E-02 0. -1.
    10030    2    1    2    0    0  0.00000000000E+00  0.00000000000E+00 -0.98695282542E+03  0.39237658091E+04  0.37976127034E+04 0.  0.
        5    1    3    3  502    0  0.87160579878E+03  0.16781044906E+04 -0.67157449240E+03  0.20066802782E+04  0.46999998093E+01 0. -1.
       -5    1    3    3    0  502 -0.87160579878E+03 -0.16781044906E+04 -0.31537833302E+03  0.19170855309E+04  0.46999998093E+01 0.  1.
</event>
<event>
 5   0  0.4071750E-09  0.3801435E+04  0.7818609E-02  0.8045847E-01
       -1   -1    0    0    0  501  0.00000000000E+00  0.00000000000E+00  0.22805908154E+04  0.22805908154E+04  0.50400001928E-02 0. -1.
        1   -1    0    0  501    0  0.00000000000E+00  0.00000000000E+00 -0.15841188867E+04  0.15841188867E+04  0.50400001928E-02 0.  1.
    10030    2    1    2    0    0  0.00000000000E+00  0.00000000000E+00  0.69647192877E+03  0.38647097021E+04  0.38014349835E+04 0.  0.
        1    1    3    3  502    0  0.14719767288E+03 -0.42623653530E+03  0.22254213216E+04  0.22706485412E+04  0.50400001928E-02 0. -1.
       -1    1    3    3    0  502 -0.14719767288E+03  0.42623653530E+03 -0.15289493928E+04  0.15940611609E+04  0.50400001928E-02 0.  1.
</event>
<event>
 5   0  0.4071750E-09  0.3799889E+04  0.7818609E-02  0.8046179E-01
       -1   -1    0    0    0  501  0.00000000000E+00  0.00000000000E+00  0.28800930162E+04  0.28800930162E+04  0.50400001928E-02 0. -1.
        1   -1    0    0  501    0  0.00000000000E+00  0.00000000000E+00 -0.12533582428E+04  0.12533582428E+04  0.50400001928E-02 0.  1.
    10030    2    1    2    0    0  0.00000000000E+00  0.00000000000E+00  0.16267347734E+04  0.41334512590E+04  0.37998885888E+04 0.  0.
        4    1    3    3  502    0  0.12688465599E+04 -0.23967944334E+03 -0.70266267517E+03  0.14700864859E+04  0.12699999809E+01 0.  1.
       -4    1    3    3    0  502 -0.12688465599E+04  0.23967944334E+03  0.23293974486E+04  0.26633647731E+04  0.12699999809E+01 0. -1.
</event>
<event>
 5   0  0.4071750E-09  0.3797875E+04  0.7818609E-02  0.8046611E-01
       -3   -1    0    0    0  501  0.00000000000E+00  0.00000000000E+00  0.18481124724E+04  0.18481124751E+04  0.10100000352E+00 0. -1.
        3   -1    0    0  501    0  0.00000000000E+00  0.00000000000E+00 -0.19511607099E+04  0.19511607125E+04  0.10100000352E+00 0.  1.
    10030    2    1    2    0    0  0.00000000000E+00  0.00000000000E+00 -0.10304823751E+03  0.37992731876E+04  0.37978754343E+04 0.  0.
        5    1    3    3  502    0  0.56758661469E+03 -0.77910561426E+03 -0.16882137366E+04  0.19440287636E+04  0.46999998093E+01 0.  1.
       -5    1    3    3    0  502 -0.56758661469E+03  0.77910561426E+03  0.15851654991E+04  0.18552444240E+04  0.46999998093E+01 0. -1.
</event>
<event>
 5   0  0.4071750E-09  0.3800600E+04  0.7818609E-02  0.8046026E-01
        1   -1    0    0  501    0  0.00000000000E+00  0.00000000000E+00  0.20181800690E+04  0.20181800690E+04  0.50400001928E-02 0.  1.
       -1   -1    0    0    0  501  0.00000000000E+00  0.00000000000E+00 -0.17893051266E+04  0.17893051266E+04  0.50400001928E-02 0. -1.
    10030    2    1    2    0    0  0.00000000000E+00  0.00000000000E+00  0.22887494235E+03  0.38074851956E+04  0.38005999231E+04 0.  0.
        5    1    3    3  502    0  0.13367787256E+04  0.43765141581E+03  0.13944852915E+04  0.19806886281E+04  0.46999998093E+01 0.  1.
       -5    1    3    3    0  502 -0.13367787256E+04 -0.43765141581E+03 -0.11656103492E+04  0.18267965675E+04  0.46999998093E+01 0. -1.
</event>
<event>
 5   0  0.1293993E-08  0.3801796E+04  0.7818609E-02  0.8045770E-01
       -2   -1    0    0    0  501  0.00000000000E+00  0.00000000000E+00  0.20594222931E+04  0.20594222931E+04  0.25500000920E-02 0.  1.
        2   -1    0    0  501    0  0.00000000000E+00  0.00000000000E+00 -0.17545760736E+04  0.17545760736E+04  0.25500000920E-02 0. -1.
    10030    2    1    2    0    0  0.00000000000E+00  0.00000000000E+00  0.30484621955E+03  0.38139983667E+04  0.38017959339E+04 0.  0.
        5    1    3    3  502    0  0.10593785299E+04 -0.34244611400E+03 -0.13932487883E+04  0.17834563316E+04  0.46999998093E+01 0. -1.
       -5    1    3    3    0  502 -0.10593785299E+04  0.34244611400E+03  0.16980950078E+04  0.20305420351E+04  0.46999998093E+01 0.  1.
</event>
<event>
 5   0  0.1293993E-08  0.3796825E+04  0.7818609E-02  0.8046837E-01
       -2   -1    0    0    0  501  0.00000000000E+00  0.00000000000E+00  0.19724174177E+04  0.19724174177E+04  0.25500000920E-02 0. -1.
        2   -1    0    0  501    0  0.00000000000E+00  0.00000000000E+00 -0.18271841454E+04  0.18271841454E+04  0.25500000920E-02 0.  1.
    10030    2    1    2    0    0  0.00000000000E+00  0.00000000000E+00  0.14523327227E+03  0.37996015631E+04  0.37968249018E+04 0.  0.
        5    1    3    3  502    0 -0.11063412730E+04  0.62233906225E+02 -0.14699656979E+04  0.18408382097E+04  0.46999998093E+01 0.  1.
       -5    1    3    3    0  502  0.11063412730E+04 -0.62233906225E+02  0.16151989701E+04  0.19587633534E+04  0.46999998093E+01 0. -1.
</event>
<event>
 5   0  0.1305088E-08  0.3801042E+04  0.7818609E-02  0.8045931E-01
        2   -1    0    0  501    0  0.00000000000E+00  0.00000000000E+00  0.14088146639E+04  0.14088146639E+04  0.25500000920E-02 0.  1.
       -2   -1    0    0    0  501  0.00000000000E+00  0.00000000000E+00 -0.25638428996E+04  0.25638428996E+04  0.25500000920E-02 0. -1.
    10030    2    1    2    0    0  0.00000000000E+00  0.00000000000E+00 -0.11550282357E+04  0.39726575635E+04  0.38010416850E+04 0.  0.
        3    1    3    3  502    0  0.17675577544E+04  0.69509155938E+03 -0.50688510411E+03  0.19657937863E+04  0.10100000352E+00 0. -1.
       -3    1    3    3    0  502 -0.17675577544E+04 -0.69509155938E+03 -0.64814313162E+03  0.20068637772E+04  0.10100000352E+00 0.  1.
</event>
<event>
 5   0  0.1293993E-08  0.3800758E+04  0.7818609E-02  0.8045992E-01
        2   -1    0    0  501    0  0.00000000000E+00  0.00000000000E+00  0.10836532144E+04  0.10836532144E+04  0.25500000920E-02 0.  1.
       -2   -1    0    0    0  501  0.00000000000E+00  0.00000000000E+00 -0.33326533043E+04  0.33326533043E+04  0.25500000920E-02 0. -1.
    10030    2    1    2    0    0  0.00000000000E+00  0.00000000000E+00 -0.22490000899E+04  0.44163065188E+04  0.38007580643E+04 0.  0.
        5    1    3    3  502    0  0.75811737507E+03 -0.10747565837E+04  0.46935828337E+03  0.13964823510E+04  0.46999998093E+01 0.  1.
       -5    1    3    3    0  502 -0.75811737507E+03  0.10747565837E+04 -0.27183583733E+04  0.30198241678E+04  0.46999998093E+01 0. -1.
</event>
<event>
 5   0  0.4071750E-09  0.3799037E+04  0.7818609E-02  0.8046362E-01
       -1   -1    0    0    0  501  0.00000000000E+00  0.00000000000E+00  0.15884177160E+04  0.15884177160E+04  0.50400001928E-02 0. -1.
        1   -1    0    0  501    0  0.00000000000E+00  0.00000000000E+00 -0.22715496169E+04  0.22715496169E+04  0.50400001928E-02 0.  1.
    10030    2    1    2    0    0  0.00000000000E+00  0.00000000000E+00 -0.68313190097E+03  0.38599673329E+04  0.37990365380E+04 0.  0.
        2    1    3    3  502    0  0.13916794909E+04 -0.10811419537E+04  0.37869707819E+03  0.18025124706E+04  0.25500000920E-02 0. -1.
       -2    1    3    3    0  502 -0.13916794909E+04  0.10811419537E+04 -0.10618289792E+04  0.20574548623E+04  0.25500000920E-02 0.  1.
</event>
<event>
 5   0  0.1305088E-08  0.3799637E+04  0.7818609E-02  0.8046233E-01
       -2   -1    0    0    0  501  0.00000000000E+00  0.00000000000E+00  0.16417512296E+04  0.16417512296E+04  0.25500000920E-02 0. -1.
        2   -1    0    0  501    0  0.00000000000E+00  0.00000000000E+00 -0.21984516991E+04  0.21984516991E+04  0.25500000920E-02 0.  1.
    10030    2    1    2    0    0  0.00000000000E+00  0.00000000000E+00 -0.55670046959E+03  0.38402029287E+04  0.37996372354E+04 0.  0.
        3    1    3    3  502    0 -0.70020793366E+03  0.17535256098E+04 -0.49075473835E+03  0.19508929848E+04  0.10100000352E+00 0.  1.
       -3    1    3    3    0  502  0.70020793366E+03 -0.17535256098E+04 -0.65945731234E+02  0.18893099439E+04  0.10100000352E+00 0. -1.
</event>
<event>
 5   0  0.1261152E-08  0.3800711E+04  0.7818609E-02  0.8046002E-01
        2   -1    0    0  501    0  0.00000000000E+00  0.00000000000E+00  0.23032448974E+04  0.23032448974E+04  0.25500000920E-02 0. -1.
       -2   -1    0    0    0  501  0.00000000000E+00  0.00000000000E+00 -0.15679403495E+04  0.15679403495E+04  0.25500000920E-02 0.  1.
    10030    2    1    2    0    0  0.00000000000E+00  0.00000000000E+00  0.73530454791E+03  0.38711852470E+04  0.38007107806E+04 0.  0.
        2    1    3    3  502    0  0.47605976362E+03  0.48552927687E+03  0.21750928000E+04  0.22789033033E+04  0.25500000920E-02 0. -1.
       -2    1    3    3    0  502 -0.47605976362E+03 -0.48552927687E+03 -0.14397882521E+04  0.15922819436E+04  0.25500000920E-02 0.  1.
</event>
<event>
 5   0  0.1305088E-08  0.3799323E+04  0.7818609E-02  0.8046300E-01
       -2   -1    0    0    0  501  0.00000000000E+00  0.00000000000E+00  0.15978718147E+04  0.15978718147E+04  0.25500000920E-02 0.  1.
        2   -1    0    0  501    0  0.00000000000E+00  0.00000000000E+00 -0.22584495681E+04  0.22584495681E+04  0.25500000920E-02 0. -1.
    10030    2    1    2    0    0  0.00000000000E+00  0.00000000000E+00 -0.66057775342E+03  0.38563213828E+04  0.37993225237E+04 0.  0.
        3    1    3    3  502    0 -0.73010156949E+03 -0.16364314267E+04 -0.97043018878E+03  0.20378152217E+04  0.10100000352E+00 0. -1.
       -3    1    3    3    0  502  0.73010156949E+03  0.16364314267E+04  0.30985243536E+03  0.18185061611E+04  0.10100000352E+00 0.  1.
</event>
<event>
 5   0  0.4071750E-09  0.3828655E+04  0.7818609E-02  0.8040033E-01
       -1   -1    0    0    0  501  0.00000000000E+00  0.00000000000E+00  0.13166967853E+04  0.13166967854E+04  0.50400001928E-02 0.  1.
        1   -1    0    0  501    0  0.00000000000E+00  0.00000000000E+00 -0.27832143499E+04  0.27832143499E+04  0.50400001928E-02 0. -1.
    10030    2    1    2    0    0  0.00000000000E+00  0.00000000000E+00 -0.14665175645E+04  0.40999111353E+04  0.38286547964E+04 0.  0.
        2    1    3    3  502    0  0.72662786946E+03 -0.93062818752E+03 -0.23468660179E+04  0.26271347492E+04  0.25500000920E-02 0. -1.
       -2    1    3    3    0  502 -0.72662786946E+03  0.93062818752E+03  0.88034845338E+03  0.14727763861E+04  0.25500000920E-02 0.  1.
</event>
<event>
 5   0  0.1261152E-08  0.3800964E+04  0.7818609E-02  0.8045948E-01
        2   -1    0    0  501    0  0.00000000000E+00  0.00000000000E+00  0.19358121717E+04  0.19358121717E+04  0.25500000920E-02 0. -1.
       -2   -1    0    0    0  501  0.00000000000E+00  0.00000000000E+00 -0.18657969179E+04  0.18657969179E+04  0.25500000920E-02 0.  1.
    10030    2    1    2    0    0  0.00000000000E+00  0.00000000000E+00  0.70015253790E+02  0.38016090896E+04  0.38009642901E+04 0.  0.
        2    1    3    3  502    0 -0.10443983879E+04 -0.54790128181E+02  0.16221172131E+04  0.19300347675E+04  0.25500000920E-02 0. -1.
       -2    1    3    3    0  502  0.10443983879E+04  0.54790128181E+02 -0.15521019593E+04  0.18715743221E+04  0.25500000920E-02 0.  1.
</event>
<event>
 5   0  0.4071750E-09  0.3799959E+04  0.7818609E-02  0.8046164E-01
        1   -1    0    0  501    0  0.00000000000E+00  0.00000000000E+00  0.13916572254E+04  0.13916572254E+04  0.50400001928E-02 0. -1.
       -1   -1    0    0    0  501  0.00000000000E+00  0.00000000000E+00 -0.25939739527E+04  0.25939739527E+04  0.50400001928E-02 0.  1.
    10030    2    1    2    0    0  0.00000000000E+00  0.00000000000E+00 -0.12023167273E+04  0.39856311781E+04  0.37999592597E+04 0.  0.
        4    1    3    3  502    0  0.84102092278E+03 -0.20624583041E+03  0.11726483914E+04  0.14577240472E+04  0.12699999809E+01 0. -1.
       -4    1    3    3    0  502 -0.84102092278E+03  0.20624583041E+03 -0.23749651186E+04  0.25279071310E+04  0.12699999809E+01 0.  1.
</event>
<event>
 5   0  0.4071750E-09  0.3799797E+04  0.7818609E-02  0.8046198E-01
       -1   -1    0    0    0  501  0.00000000000E+00  0.00000000000E+00  0.24840858038E+04  0.24840858038E+04  0.50400001928E-02 0.  1.
        1   -1    0    0  501    0  0.00000000000E+00  0.00000000000E+00 -0.14530958293E+04  0.14530958293E+04  0.50400001928E-02 0. -1.
    10030    2    1    2    0    0  0.00000000000E+00  0.00000000000E+00  0.10309899745E+04  0.39371816331E+04  0.37997972162E+04 0.  0.
        4    1    3    3  502    0 -0.17348937940E+04  0.47236878559E+03  0.11513809454E+04  0.21351038477E+04  0.12699999809E+01 0.  1.
       -4    1    3    3    0  502  0.17348937940E+04 -0.47236878559E+03 -0.12039097086E+03  0.18020777854E+04  0.12699999809E+01 0. -1.
</event>
<event>
 5   0  0.1264013E-08  0.3801338E+04  0.7818609E-02  0.8045868E-01
       -2   -1    0    0    0  501  0.00000000000E+00  0.00000000000E+00  0.11415552781E+04  0.11415552781E+04  0.25500000920E-02 0.  1.
        2   -1    0    0  501    0  0.00000000000E+00  0.00000000000E+00 -0.31645790929E+04  0.31645790929E+04  0.25500000920E-02 0. -1.
    10030    2    1    2    0    0  0.00000000000E+00  0.00000000000E+00 -0.20230238148E+04  0.43061343709E+04  0.38013376416E+04 0.  0.
        4    1    3    3  502    0 -0.50177408864E+03 -0.88046766538E+03  0.80997790202E+03  0.12973304747E+04  0.12699999809E+01 0.  1.
       -4    1    3    3    0  502  0.50177408864E+03  0.88046766538E+03 -0.28330017168E+04  0.30088038963E+04  0.12699999809E+01 0. -1.
</event>
<event>
 5   0  0.4071750E-09  0.3800657E+04  0.7818609E-02  0.8046014E-01
        1   -1    0    0  501    0  0.00000000000E+00  0.00000000000E+00  0.23393615934E+04  0.23393615934E+04  0.50400001928E-02 0.  1.
       -1   -1    0    0    0  501  0.00000000000E+00  0.00000000000E+00 -0.15436893835E+04  0.15436893835E+04  0.50400001928E-02 0. -1.
    10030    2    1    2    0    0  0.00000000000E+00  0.00000000000E+00  0.79567220996E+03  0.38830509769E+04  0.38006566042E+04 0.  0.
        5    1    3    3  502    0 -0.85633605873E+03  0.69987487369E+03 -0.11810097802E+04  0.16180057093E+04  0.46999998093E+01 0. -1.
       -5    1    3    3    0  502  0.85633605873E+03 -0.69987487369E+03  0.19766819901E+04  0.22650452676E+04  0.46999998093E+01 0.  1.
</event>
<event>
 5   0  0.4071750E-09  0.3800460E+04  0.7818609E-02  0.8046056E-01
       -1   -1    0    0    0  501  0.00000000000E+00  0.00000000000E+00  0.14091346249E+04  0.14091346249E+04  0.50400001928E-02 0. -1.
        1   -1    0    0  501    0  0.00000000000E+00  0.00000000000E+00 -0.25624768786E+04  0.25624768786E+04  0.50400001928E-02 0.  1.
    10030    2    1    2    0    0  0.00000000000E+00  0.00000000000E+00 -0.11533422537E+04  0.39716115035E+04  0.38004604433E+04 0.  0.
        2    1    3    3  502    0 -0.42051835051E+03  0.79962109856E+03 -0.23236750950E+04  0.24931296660E+04  0.25500000920E-02 0.  1.
       -2    1    3    3    0  502  0.42051835051E+03 -0.79962109856E+03  0.11703328413E+04  0.14784818375E+04  0.25500000920E-02 0. -1.
</event>
<event>
 5   0  0.1327249E-08  0.3798344E+04  0.7818609E-02  0.8046510E-01
       -2   -1    0    0    0  501  0.00000000000E+00  0.00000000000E+00  0.18322959961E+04  0.18322959961E+04  0.25500000920E-02 0. -1.
        2   -1    0    0  501    0  0.00000000000E+00  0.00000000000E+00 -0.19684891279E+04  0.19684891279E+04  0.25500000920E-02 0.  1.
    10030    2    1    2    0    0  0.00000000000E+00  0.00000000000E+00 -0.13619313178E+03  0.38007851240E+04  0.37983442432E+04 0.  0.
        1    1    3    3  502    0  0.40618340382E+03  0.15741821040E+04 -0.10504710496E+04  0.19355938831E+04  0.50400001928E-02 0.  1.
       -1    1    3    3    0  502 -0.40618340382E+03 -0.15741821040E+04  0.91427791781E+03  0.18651912409E+04  0.50400001928E-02 0. -1.
</event>
<event>
 5   0  0.1305088E-08  0.3798473E+04  0.7818609E-02  0.8046483E-01
       -2   -1    0    0    0  501  0.00000000000E+00  0.00000000000E+00  0.12647283763E+04  0.12647283763E+04  0.25500000920E-02 0.  1.
        2   -1    0    0  501    0  0.00000000000E+00  0.00000000000E+00 -0.28520744914E+04  0.28520744914E+04  0.25500000920E-02 0. -1.
    10030    2    1    2    0    0  0.00000000000E+00  0.00000000000E+00 -0.15873461151E+04  0.41168028677E+04  0.37984731357E+04 0.  0.
        3    1    3    3  502    0  0.11785092239E+04 -0.58098644959E+03  0.69262990513E+03  0.14853166131E+04  0.10100000352E+00 0.  1.
       -3    1    3    3    0  502 -0.11785092239E+04  0.58098644959E+03 -0.22799760202E+04  0.26314862546E+04  0.10100000352E+00 0. -1.
</event>
<event>
 5   0  0.1261152E-08  0.3799407E+04  0.7818609E-02  0.8046282E-01
        2   -1    0    0  501    0  0.00000000000E+00  0.00000000000E+00  0.27581578790E+04  0.27581578790E+04  0.25500000920E-02 0. -1.
       -2   -1    0    0    0  501  0.00000000000E+00  0.00000000000E+00 -0.13084362871E+04  0.13084362871E+04  0.25500000920E-02 0.  1.
    10030    2    1    2    0    0  0.00000000000E+00  0.00000000000E+00  0.14497215919E+04  0.40665941661E+04  0.37994072455E+04 0.  0.
        2    1    3    3  502    0 -0.63103122807E+03 -0.11309372198E+02  0.26426656083E+04  0.27169854306E+04  0.25500000920E-02 0. -1.
       -2    1    3    3    0  502  0.63103122807E+03  0.11309372198E+02 -0.11929440164E+04  0.13496087355E+04  0.25500000920E-02 0.  1.
</event>
<event>
 5   0  0.4071750E-09  0.3800430E+04  0.7818609E-02  0.8046063E-01
       -1   -1    0    0    0  501  0.00000000000E+00  0.00000000000E+00  0.17412447825E+04  0.17412447825E+04  0.50400001928E-02 0. -1.
        1   -1    0    0  501    0  0.00000000000E+00  0.00000000000E+00 -0.20736988091E+04  0.20736988091E+04  0.50400001928E-02 0.  1.
    10030    2    1    2    0    0  0.00000000000E+00  0.00000000000E+00 -0.33245402664E+03  0.38149435916E+04  0.38004300976E+04 0.  0.
        1    1    3    3  502    0 -0.80445287286E+03 -0.35010519350E+03  0.15257660096E+04  0.17600227235E+04  0.50400001928E-02 0. -1.
       -1    1    3    3    0  502  0.80445287286E+03  0.35010519350E+03 -0.18582200362E+04  0.20549208681E+04  0.50400001928E-02 0.  1.
</event>
<event>
 5   0  0.1264013E-08  0.3799549E+04  0.7818609E-02  0.8046252E-01
        2   -1    0    0  501    0  0.00000000000E+00  0.00000000000E+00  0.24679015673E+04  0.24679015673E+04  0.25500000920E-02 0. -1.
       -2   -1    0    0    0  501  0.00000000000E+00  0.00000000000E+00 -0.14624338241E+04  0.14624338241E+04  0.25500000920E-02 0.  1.
    10030    2    1    2    0    0  0.00000000000E+00  0.00000000000E+00  0.10054677432E+04  0.39303353913E+04  0.37995487766E+04 0.  0.
        4    1    3    3  502    0  0.12393596848E+04  0.13188697137E+04 -0.94828284647E+02  0.18122979243E+04  0.12699999809E+01 0.  1.
       -4    1    3    3    0  502 -0.12393596848E+04 -0.13188697137E+04  0.11002960278E+04  0.21180374670E+04  0.12699999809E+01 0. -1.
</event>
<event>
 5   0  0.4071750E-09  0.3820546E+04  0.7818609E-02  0.8041760E-01
        1   -1    0    0  501    0  0.00000000000E+00  0.00000000000E+00  0.22657189747E+04  0.22657189747E+04  0.50400001928E-02 0.  1.
       -1   -1    0    0    0  501  0.00000000000E+00  0.00000000000E+00 -0.16105896805E+04  0.16105896805E+04  0.50400001928E-02 0. -1.
    10030    2    1    2    0    0  0.00000000000E+00  0.00000000000E+00  0.65512929415E+03  0.38763086552E+04  0.38205463481E+04 0.  0.
        3    1    3    3  502    0  0.58165969235E+03 -0.62102117500E+02 -0.15174816925E+04  0.16263257263E+04  0.10100000352E+00 0. -1.
       -3    1    3    3    0  502 -0.58165969235E+03  0.62102117500E+02  0.21726109867E+04  0.22499829289E+04  0.10100000352E+00 0.  1.
</event>
<event>
 5   0  0.1305088E-08  0.3799857E+04  0.7818609E-02  0.8046185E-01
        2   -1    0    0  501    0  0.00000000000E+00  0.00000000000E+00  0.13533072692E+04  0.13533072692E+04  0.25500000920E-02 0.  1.
       -2   -1    0    0    0  501  0.00000000000E+00  0.00000000000E+00 -0.26673387540E+04  0.26673387540E+04  0.25500000920E-02 0. -1.
    10030    2    1    2    0    0  0.00000000000E+00  0.00000000000E+00 -0.13140314849E+04  0.40206460232E+04  0.37998573264E+04 0.  0.
        3    1    3    3  502    0  0.84264993270E+03  0.58947265063E+03 -0.23473991483E+04  0.25627757776E+04  0.10100000352E+00 0. -1.
       -3    1    3    3    0  502 -0.84264993270E+03 -0.58947265063E+03  0.10333676634E+04  0.14578702456E+04  0.10100000352E+00 0.  1.
</event>
<event>
 5   0  0.1305088E-08  0.3799837E+04  0.7818609E-02  0.8046190E-01
        2   -1    0    0  501    0  0.00000000000E+00  0.00000000000E+00  0.21509982664E+04  0.21509982664E+04  0.25500000920E-02 0. -1.
       -2   -1    0    0    0  501  0.00000000000E+00  0.00000000000E+00 -0.16781465465E+04  0.16781465465E+04  0.25500000920E-02 0.  1.
    10030    2    1    2    0    0  0.00000000000E+00  0.00000000000E+00  0.47285171997E+03  0.38291448129E+04  0.37998370029E+04 0.  0.
        3    1    3    3  502    0  0.17059575931E+04  0.75579766388E+03 -0.12434223620E+03  0.18700220373E+04  0.10100000352E+00 0.  1.
       -3    1    3    3    0  502 -0.17059575931E+04 -0.75579766388E+03  0.59719395617E+03  0.19591227756E+04  0.10100000352E+00 0. -1.
</event>
<event>
 5   0  0.4071750E-09  0.3801964E+04  0.7818609E-02  0.8045734E-01
       -1   -1    0    0    0  501  0.00000000000E+00  0.00000000000E+00  0.17169299677E+04  0.17169299677E+04  0.50400001928E-02 0.  1.
        1   -1    0    0  501    0  0.00000000000E+00  0.00000000000E+00 -0.21047640063E+04  0.21047640063E+04  0.50400001928E-02 0. -1.
    10030    2    1    2    0    0  0.00000000000E+00  0.00000000000E+00 -0.38783403860E+03  0.38216939739E+04  0.38019639121E+04 0.  0.
        1    1    3    3  502    0  0.11345583628E+04 -0.11982425908E+04 -0.11425966915E+04  0.20071211186E+04  0.50400001928E-02 0. -1.
       -1    1    3    3    0  502 -0.11345583628E+04  0.11982425908E+04  0.75476265295E+03  0.18145728554E+04  0.50400001928E-02 0.  1.
</event>
<event>
 5   0  0.4071750E-09  0.3799475E+04  0.7818609E-02  0.8046268E-01
       -1   -1    0    0    0  501  0.00000000000E+00  0.00000000000E+00  0.14352896856E+04  0.14352896856E+04  0.50400001928E-02 0.  1.
        1   -1    0    0  501    0  0.00000000000E+00  0.00000000000E+00 -0.25144765112E+04  0.25144765112E+04  0.50400001928E-02 0. -1.
    10030    2    1    2    0    0  0.00000000000E+00  0.00000000000E+00 -0.10791868255E+04  0.39497661968E+04  0.37994748064E+04 0.  0.
        1    1    3    3  502    0 -0.51020396004E+03 -0.40085016968E+02  0.13622788308E+04  0.14552382974E+04  0.50400001928E-02 0.  1.
       -1    1    3    3    0  502  0.51020396004E+03  0.40085016968E+02 -0.24414656563E+04  0.24945278993E+04  0.50400001928E-02 0. -1.
</event>
<event>
 5   0  0.1327249E-08  0.3800501E+04  0.7818609E-02  0.8046047E-01
        2   -1    0    0  501    0  0.00000000000E+00  0.00000000000E+00  0.22531022059E+04  0.22531022059E+04  0.25500000920E-02 0.  1.
       -2   -1    0    0    0  501  0.00000000000E+00  0.00000000000E+00 -0.16026582314E+04  0.16026582314E+04  0.25500000920E-02 0. -1.
    10030    2    1    2    0    0  0.00000000000E+00  0.00000000000E+00  0.65044397447E+03  0.38557604374E+04  0.38005014388E+04 0.  0.
        1    1    3    3  502    0 -0.98836269846E+03  0.12595468316E+04  0.13636439919E+04  0.21030558674E+04  0.50400001928E-02 0.  1.
       -1    1    3    3    0  502  0.98836269846E+03 -0.12595468316E+04 -0.71320001743E+03  0.17527045700E+04  0.50400001928E-02 0. -1.
</event>
<event>
 5   0  0.4071750E-09  0.3800192E+04  0.7818609E-02  0.8046114E-01
        1   -1    0    0  501    0  0.00000000000E+00  0.00000000000E+00  0.33161421957E+04  0.33161421957E+04  0.50400001928E-02 0. -1.
       -1   -1    0    0    0  501  0.00000000000E+00  0.00000000000E+00 -0.10887245775E+04  0.10887245775E+04  0.50400001928E-02 0.  1.
    10030    2    1    2    0    0  0.00000000000E+00  0.00000000000E+00  0.22274176182E+04  0.44048667731E+04  0.38001923692E+04 0.  0.
        4    1    3    3  502    0 -0.65164287893E+03  0.10149374683E+04  0.28155304531E+04  0.30629968742E+04  0.12699999809E+01 0. -1.
       -4    1    3    3    0  502  0.65164287893E+03 -0.10149374683E+04 -0.58811283489E+03  0.13418698989E+04  0.12699999809E+01 0.  1.
</event>
<event>
 5   0  0.1293993E-08  0.3798219E+04  0.7818609E-02  0.8046537E-01
       -2   -1    0    0    0  501  0.00000000000E+00  0.00000000000E+00  0.17926113214E+04  0.17926113214E+04  0.25500000920E-02 0. -1.
        2   -1    0    0  501    0  0.00000000000E+00  0.00000000000E+00 -0.20119348689E+04  0.20119348689E+04  0.25500000920E-02 0.  1.
    10030    2    1    2    0    0  0.00000000000E+00  0.00000000000E+00 -0.21932354746E+03  0.38045461903E+04  0.37982191742E+04 0.  0.
        5    1    3    3  502    0  0.16671452744E+04 -0.39665079659E+03 -0.92949319386E+03  0.19495345362E+04  0.46999998093E+01 0.  1.
       -5    1    3    3    0  502 -0.16671452744E+04  0.39665079659E+03  0.71016964640E+03  0.18550116541E+04  0.46999998093E+01 0. -1.
</event>
<event>
 5   0  0.4071750E-09  0.3801424E+04  0.7818609E-02  0.8045849E-01
       -1   -1    0    0    0  501  0.00000000000E+00  0.00000000000E+00  0.32365349703E+04  0.32365349704E+04  0.50400001928E-02 0. -1.
        1   -1    0    0  501    0  0.00000000000E+00  0.00000000000E+00 -0.11162265699E+04  0.11162265700E+04  0.50400001928E-02 0.  1.
    10030    2    1    2    0    0  0.00000000000E+00  0.00000000000E+00  0.21203084004E+04  0.43527615403E+04  0.38014241166E+04 0.  0.
        2    1    3    3  502    0 -0.16466971872E+04  0.75577827187E+03  0.17178206639E+04  0.24967419282E+04  0.25500000920E-02 0. -1.
       -2    1    3    3    0  502  0.16466971872E+04 -0.75577827187E+03  0.40248773648E+03  0.18560196121E+04  0.25500000920E-02 0.  1.
</event>
<event>
 5   0  0.4071750E-09  0.3799819E+04  0.7818609E-02  0.8046194E-01
        1   -1    0    0  501    0  0.00000000000E+00  0.00000000000E+00  0.21451959741E+04  0.21451959741E+04  0.50400001928E-02 0.  1.
       -1   -1    0    0    0  501  0.00000000000E+00  0.00000000000E+00 -0.16826692812E+04  0.16826692812E+04  0.50400001928E-02 0. -1.
    10030    2    1    2    0    0  0.00000000000E+00  0.00000000000E+00  0.46252669282E+03  0.38278652553E+04  0.37998186103E+04 0.  0.
        5    1    3    3  502    0  0.76157017804E+03  0.71548227464E+03  0.18297105257E+04  0.21070753948E+04  0.46999998093E+01 0.  1.
       -5    1    3    3    0  502 -0.76157017804E+03 -0.71548227464E+03 -0.13671838328E+04  0.17207898606E+04  0.46999998093E+01 0. -1.
</event>
<event>
 5   0  0.4071750E-09  0.3822937E+04  0.7818609E-02  0.8041250E-01
        1   -1    0    0  501    0  0.00000000000E+00  0.00000000000E+00  0.25679588158E+04  0.25679588158E+04  0.50400001928E-02 0.  1.
       -1   -1    0    0    0  501  0.00000000000E+00  0.00000000000E+00 -0.14228079804E+04  0.14228079804E+04  0.50400001928E-02 0. -1.
    10030    2    1    2    0    0  0.00000000000E+00  0.00000000000E+00  0.11451508354E+04  0.39907667962E+04  0.38229372459E+04 0.  0.
        3    1    3    3  502    0  0.15848051190E+03 -0.10566750964E+04  0.22270950841E+04  0.24701479421E+04  0.10100000352E+00 0.  1.
       -3    1    3    3    0  502 -0.15848051190E+03  0.10566750964E+04 -0.10819442487E+04  0.15206188541E+04  0.10100000352E+00 0. -1.
</event>
<event>
 5   0  0.1293993E-08  0.3798832E+04  0.7818609E-02  0.8046406E-01
        2   -1    0    0  501    0  0.00000000000E+00  0.00000000000E+00  0.28155437591E+04  0.28155437591E+04  0.25500000920E-02 0.  1.
       -2   -1    0    0    0  501  0.00000000000E+00  0.00000000000E+00 -0.12813798588E+04  0.12813798588E+04  0.25500000920E-02 0. -1.
    10030    2    1    2    0    0  0.00000000000E+00  0.00000000000E+00  0.15341639003E+04  0.40969236180E+04  0.37988319598E+04 0.  0.
        5    1    3    3  502    0  0.69626346236E+03  0.15821732428E+04 -0.81902883813E+02  0.17305447557E+04  0.46999998093E+01 0. -1.
       -5    1    3    3    0  502 -0.69626346236E+03 -0.15821732428E+04  0.16160667841E+04  0.23663788623E+04  0.46999998093E+01 0.  1.
</event>
<event>
 5   0  0.4071750E-09  0.3802445E+04  0.7818609E-02  0.8045630E-01
        1   -1    0    0  501    0  0.00000000000E+00  0.00000000000E+00  0.18032537673E+04  0.18032537673E+04  0.50400001928E-02 0. -1.
       -1   -1    0    0    0  501  0.00000000000E+00  0.00000000000E+00 -0.20045139564E+04  0.20045139564E+04  0.50400001928E-02 0.  1.
    10030    2    1    2    0    0  0.00000000000E+00  0.00000000000E+00 -0.20126018904E+03  0.38077677237E+04  0.38024451835E+04 0.  0.
        2    1    3    3  502    0  0.12138802820E+04  0.10891136523E+04 -0.10792254195E+04  0.19556076786E+04  0.25500000920E-02 0.  1.
       -2    1    3    3    0  502 -0.12138802820E+04 -0.10891136523E+04  0.87796523041E+03  0.18521600451E+04  0.25500000920E-02 0. -1.
</event>
<event>
 5   0  0.4071750E-09  0.3795417E+04  0.7818609E-02  0.8047139E-01
       -1   -1    0    0    0  501  0.00000000000E+00  0.00000000000E+00  0.19433208287E+04  0.19433208287E+04  0.50400001928E-02 0.  1.
        1   -1    0    0  501    0  0.00000000000E+00  0.00000000000E+00 -0.18531668834E+04  0.18531668834E+04  0.50400001928E-02 0. -1.
    10030    2    1    2    0    0  0.00000000000E+00  0.00000000000E+00  0.90153945236E+02  0.37964877121E+04  0.37954171331E+04 0.  0.
        3    1    3    3  502    0 -0.17087036482E+04 -0.81367474700E+03 -0.94830425822E+02  0.18949215211E+04  0.10100000352E+00 0.  1.
       -3    1    3    3    0  502  0.17087036482E+04  0.81367474700E+03  0.18498437106E+03  0.19015661910E+04  0.10100000352E+00 0. -1.
</event>
<event>
 5   0  0.1305088E-08  0.3789477E+04  0.7818609E-02  0.8048417E-01
       -2   -1    0    0    0  501  0.00000000000E+00  0.00000000000E+00  0.16038167188E+04  0.16038167188E+04  0.25500000920E-02 0.  1.
        2   -1    0    0  501    0  0.00000000000E+00  0.00000000000E+00 -0.22384314635E+04  0.22384314635E+04  0.25500000920E-02 0. -1.
    10030    2    1    2    0    0  0.00000000000E+00  0.00000000000E+00 -0.63461474473E+03  0.38422481823E+04  0.37894769059E+04 0.  0.
        3    1    3    3  502    0  0.90619680442E+03 -0.78774701275E+03  0.11688102629E+04  0.16756656723E+04  0.10100000352E+00 0.  1.
       -3    1    3    3    0  502 -0.90619680442E+03  0.78774701275E+03 -0.18034250076E+04  0.21665825100E+04  0.10100000352E+00 0. -1.
</event>
<event>
 5   0  0.1293993E-08  0.3801187E+04  0.7818609E-02  0.8045900E-01
        2   -1    0    0  501    0  0.00000000000E+00  0.00000000000E+00  0.14259432732E+04  0.14259432732E+04  0.25500000920E-02 0. -1.
       -2   -1    0    0    0  501  0.00000000000E+00  0.00000000000E+00 -0.25332392478E+04  0.25332392478E+04  0.25500000920E-02 0.  1.
    10030    2    1    2    0    0  0.00000000000E+00  0.00000000000E+00 -0.11072959746E+04  0.39591825210E+04  0.38011869014E+04 0.  0.
        5    1    3    3  502    0  0.95069932947E+03 -0.37194847922E+03 -0.22234224046E+04  0.24465903142E+04  0.46999998093E+01 0.  1.
       -5    1    3    3    0  502 -0.95069932947E+03  0.37194847922E+03  0.11161264300E+04  0.15125922068E+04  0.46999998093E+01 0. -1.
</event>
<event>
 5   0  0.1327249E-08  0.3799894E+04  0.7818609E-02  0.8046178E-01
        2   -1    0    0  501    0  0.00000000000E+00  0.00000000000E+00  0.28506428522E+04  0.28506428522E+04  0.25500000920E-02 0.  1.
       -2   -1    0    0    0  501  0.00000000000E+00  0.00000000000E+00 -0.12663104936E+04  0.12663104936E+04  0.25500000920E-02 0. -1.
    10030    2    1    2    0    0  0.00000000000E+00  0.00000000000E+00  0.15843323585E+04  0.41169533458E+04  0.37998941866E+04 0.  0.
        1    1    3    3  502    0  0.17327060548E+04  0.63675401801E+03  0.30513295072E+03  0.18710510601E+04  0.50400001928E-02 0. -1.
       -1    1    3    3    0  502 -0.17327060548E+04 -0.63675401801E+03  0.12791994078E+04  0.22459022857E+04  0.50400001928E-02 0.  1.
</event>
<event>
 5   0  0.4071750E-09  0.3799797E+04  0.7818609E-02  0.8046199E-01
       -1   -1    0    0    0  501  0.00000000000E+00  0.00000000000E+00  0.21129162318E+04  0.21129162318E+04  0.50400001928E-02 0. -1.
        1   -1    0    0  501    0  0.00000000000E+00  0.00000000000E+00 -0.17083563228E+04  0.17083563228E+04  0.50400001928E-02 0.  1.
    10030    2    1    2    0    0  0.00000000000E+00  0.00000000000E+00  0.40455990898E+03  0.38212725546E+04  0.37997967335E+04 0.  0.
        4    1    3    3  502    0  0.17261032873E+03  0.18787573896E+04 -0.22789636838E+02  0.18868080546E+04  0.12699999809E+01 0. -1.
       -4    1    3    3    0  502 -0.17261032873E+03 -0.18787573896E+04  0.42734954582E+03  0.19344645000E+04  0.12699999809E+01 0.  1.
</event>
<event>
 5   0  0.4071750E-09  0.3800402E+04  0.7818609E-02  0.8046069E-01
       -1   -1    0    0    0  501  0.00000000000E+00  0.00000000000E+00  0.18073811778E+04  0.18073811778E+04  0.50400001928E-02 0. -1.
        1   -1    0    0  501    0  0.00000000000E+00  0.00000000000E+00 -0.19977877313E+04  0.19977877313E+04  0.50400001928E-02 0.  1.
    10030    2    1    2    0    0  0.00000000000E+00  0.00000000000E+00 -0.19040655346E+03  0.38051689091E+04  0.38004020539E+04 0.  0.
        5    1    3    3  502    0 -0.10281183710E+03 -0.18877405952E+04  0.96366330059E+02  0.18929985178E+04  0.46999998093E+01 0. -1.
       -5    1    3    3    0  502  0.10281183710E+03  0.18877405952E+04 -0.28677288351E+03  0.19121703913E+04  0.46999998093E+01 0.  1.
</event>
<event>
 5   0  0.4071750E-09  0.3799734E+04  0.7818609E-02  0.8046212E-01
        1   -1    0    0  501    0  0.00000000000E+00  0.00000000000E+00  0.12370344552E+04  0.12370344552E+04  0.50400001928E-02 0. -1.
       -1   -1    0    0    0  501  0.00000000000E+00  0.00000000000E+00 -0.29178610301E+04  0.29178610301E+04  0.50400001928E-02 0.  1.
    10030    2    1    2    0    0  0.00000000000E+00  0.00000000000E+00 -0.16808265749E+04  0.41548954853E+04  0.37997340064E+04 0.  0.
        3    1    3    3  502    0 -0.12590576714E+04  0.16381056070E+03  0.70499480290E+03  0.14522664363E+04  0.10100000352E+00 0. -1.
       -3    1    3    3    0  502  0.12590576714E+04 -0.16381056070E+03 -0.23858213778E+04  0.27026290490E+04  0.10100000352E+00 0.  1.
</event>
<event>
 5   0  0.1261152E-08  0.3799748E+04  0.7818609E-02  0.8046209E-01
        2   -1    0    0  501    0  0.00000000000E+00  0.00000000000E+00  0.15871876295E+04  0.15871876295E+04  0.25500000920E-02 0. -1.
       -2   -1    0    0    0  501  0.00000000000E+00  0.00000000000E+00 -0.22741616645E+04  0.22741616645E+04  0.25500000920E-02 0.  1.
    10030    2    1    2    0    0  0.00000000000E+00  0.00000000000E+00 -0.68697403496E+03  0.38613492940E+04  0.37997480239E+04 0.  0.
        2    1    3    3  502    0  0.56987473311E+03 -0.12668675205E+04 -0.16605740311E+04  0.21649980690E+04  0.25500000920E-02 0.  1.
       -2    1    3    3    0  502 -0.56987473311E+03  0.12668675205E+04  0.97359999615E+03  0.16963512250E+04  0.25500000920E-02 0. -1.
</event>
<event>
 5   0  0.4071750E-09  0.3799338E+04  0.7818609E-02  0.8046297E-01
        1   -1    0    0  501    0  0.00000000000E+00  0.00000000000E+00  0.10825016109E+04  0.10825016109E+04  0.50400001928E-02 0. -1.
       -1   -1    0    0    0  501  0.00000000000E+00  0.00000000000E+00 -0.33337058087E+04  0.33337058087E+04  0.50400001928E-02 0.  1.
    10030    2    1    2    0    0  0.00000000000E+00  0.00000000000E+00 -0.22512041978E+04  0.44162074196E+04  0.37993377886E+04 0.  0.
        3    1    3    3  502    0  0.16389814854E+04  0.89956438558E+03 -0.73440971785E+03  0.20086896319E+04  0.10100000352E+00 0. -1.
       -3    1    3    3    0  502 -0.16389814854E+04 -0.89956438558E+03 -0.15167944800E+04  0.24075177877E+04  0.10100000352E+00 0.  1.
</event>
<event>
 5   0  0.4071750E-09  0.3801920E+04  0.7818609E-02  0.8045743E-01
        1   -1    0    0  501    0  0.00000000000E+00  0.00000000000E+00  0.16025964494E+04  0.16025964494E+04  0.50400001928E-02 0. -1.
       -1   -1    0    0    0  501  0.00000000000E+00  0.00000000000E+00 -0.22548716163E+04  0.22548716163E+04  0.50400001928E-02 0.  1.
    10030    2    1    2    0    0  0.00000000000E+00  0.00000000000E+00 -0.65227516696E+03  0.38574680657E+04  0.38019201707E+04 0.  0.
        2    1    3    3  502    0 -0.18148669691E+04 -0.31928802789E+03 -0.79982300929E+03  0.20088314529E+04  0.25500000920E-02 0. -1.
       -2    1    3    3    0  502  0.18148669691E+04  0.31928802789E+03  0.14754784233E+03  0.18486366127E+04  0.25500000920E-02 0.  1.
</event>
<event>
 5   0  0.4071750E-09  0.3800159E+04  0.7818609E-02  0.8046121E-01
        1   -1    0    0  501    0  0.00000000000E+00  0.00000000000E+00  0.27876502536E+04  0.27876502536E+04  0.50400001928E-02 0. -1.
       -1   -1    0    0    0  501  0.00000000000E+00  0.00000000000E+00 -0.12951060025E+04  0.12951060025E+04  0.50400001928E-02 0.  1.
    10030    2    1    2    0    0  0.00000000000E+00  0.00000000000E+00  0.14925442511E+04  0.40827562562E+04  0.38001592474E+04 0.  0.
        4    1    3    3  502    0 -0.19510540924E+02 -0.12384101127E+04  0.22943492668E+04  0.26073128772E+04  0.12699999809E+01 0. -1.
       -4    1    3    3    0  502  0.19510540924E+02  0.12384101127E+04 -0.80180501572E+03  0.14754433790E+04  0.12699999809E+01 0.  1.
</event>
<event>
 5   0  0.1327249E-08  0.3797798E+04  0.7818609E-02  0.8046628E-01
       -2   -1    0    0    0  501  0.00000000000E+00  0.00000000000E+00  0.13861687949E+04  0.13861687949E+04  0.25500000920E-02 0.  1.
        2   -1    0    0  501    0  0.00000000000E+00  0.00000000000E+00 -0.26012829244E+04  0.26012829244E+04  0.25500000920E-02 0. -1.
    10030    2    1    2    0    0  0.00000000000E+00  0.00000000000E+00 -0.12151141295E+04  0.39874517193E+04  0.37977978970E+04 0.  0.
        1    1    3    3  502    0 -0.11680612231E+04 -0.14638845554E+04 -0.93706396691E+03  0.20941379827E+04  0.50400001928E-02 0. -1.
       -1    1    3    3    0  502  0.11680612231E+04  0.14638845554E+04 -0.27805016254E+03  0.18933137366E+04  0.50400001928E-02 0.  1.
</event>
<event>
 5   0  0.1305088E-08  0.3800199E+04  0.7818609E-02  0.8046112E-01
       -2   -1    0    0    0  501  0.00000000000E+00  0.00000000000E+00  0.14813396764E+04  0.14813396764E+04  0.25500000920E-02 0. -1.
        2   -1    0    0  501    0  0.00000000000E+00  0.00000000000E+00 -0.24372384499E+04  0.24372384499E+04  0.25500000920E-02 0.  1.
    10030    2    1    2    0    0  0.00000000000E+00  0.00000000000E+00 -0.95589877342E+03  0.39185781263E+04  0.38001989510E+04 0.  0.
        3    1    3    3  502    0  0.92334246438E+03  0.65845117191E+03  0.10940935871E+04  0.15758045690E+04  0.10100000352E+00 0. -1.
       -3    1    3    3    0  502 -0.92334246438E+03 -0.65845117191E+03 -0.20499923605E+04  0.23427735573E+04  0.10100000352E+00 0.  1.
</event>
<event>
 5   0  0.4071750E-09  0.3806607E+04  0.7818609E-02  0.8044739E-01
        1   -1    0    0  501    0  0.00000000000E+00  0.00000000000E+00  0.23040040361E+04  0.23040040361E+04  0.50400001928E-02 0.  1.
       -1   -1    0    0    0  501  0.00000000000E+00  0.00000000000E+00 -0.15722903707E+04  0.15722903708E+04  0.50400001928E-02 0. -1.
    10030    2    1    2    0    0  0.00000000000E+00  0.00000000000E+00  0.73171366538E+03  0.38762944069E+04  0.38066065519E+04 0.  0.
        2    1    3    3  502    0 -0.61074528312E+03 -0.16350434756E+04 -0.40710893804E+03  0.17922373323E+04  0.25500000920E-02 0. -1.
       -2    1    3    3    0  502  0.61074528312E+03  0.16350434756E+04  0.11388226034E+04  0.20840570746E+04  0.25500000920E-02 0.  1.
</event>
<event>
 5   0  0.4071750E-09  0.3798827E+04  0.7818609E-02  0.8046407E-01
        1   -1    0    0  501    0  0.00000000000E+00  0.00000000000E+00  0.25883537131E+04  0.25883537131E+04  0.50400001928E-02 0.  1.
       -1   -1    0    0    0  501  0.00000000000E+00  0.00000000000E+00 -0.13938483249E+04  0.13938483249E+04  0.50400001928E-02 0. -1.
    10030    2    1    2    0    0  0.00000000000E+00  0.00000000000E+00  0.11945053883E+04  0.39822020380E+04  0.37988274439E+04 0.  0.
        5    1    3    3  502    0  0.14238410819E+04  0.10892752334E+04 -0.60663024027E+02  0.17937519486E+04  0.46999998093E+01 0.  1.
       -5    1    3    3    0  502 -0.14238410819E+04 -0.10892752334E+04  0.12551684123E+04  0.21884500894E+04  0.46999998093E+01 0. -1.
</event>
<event>
 5   0  0.1293993E-08  0.3797614E+04  0.7818609E-02  0.8046667E-01
        2   -1    0    0  501    0  0.00000000000E+00  0.00000000000E+00  0.24166921335E+04  0.24166921335E+04  0.25500000920E-02 0. -1.
       -2   -1    0    0    0  501  0.00000000000E+00  0.00000000000E+00 -0.14919022638E+04  0.14919022638E+04  0.25500000920E-02 0.  1.
    10030    2    1    2    0    0  0.00000000000E+00  0.00000000000E+00  0.92478986976E+03  0.39085943973E+04  0.37976142326E+04 0.  0.
        5    1    3    3  502    0  0.10815082782E+04  0.63218716128E+03  0.19310237407E+04  0.23017809496E+04  0.46999998093E+01 0. -1.
       -5    1    3    3    0  502 -0.10815082782E+04 -0.63218716128E+03 -0.10062338710E+04  0.16068134477E+04  0.46999998093E+01 0.  1.
</event>
<event>
 5   0  0.1327249E-08  0.3799285E+04  0.7818609E-02  0.8046308E-01
       -2   -1    0    0    0  501  0.00000000000E+00  0.00000000000E+00  0.31779383104E+04  0.31779383104E+04  0.25500000920E-02 0. -1.
        2   -1    0    0  501    0  0.00000000000E+00  0.00000000000E+00 -0.11355291189E+04  0.11355291189E+04  0.25500000920E-02 0.  1.
    10030    2    1    2    0    0  0.00000000000E+00  0.00000000000E+00  0.20424091915E+04  0.43134674293E+04  0.37992849272E+04 0.  0.
        1    1    3    3  502    0  0.30756857953E+03 -0.41208420091E+03 -0.10550122296E+04  0.11736535368E+04  0.50400001928E-02 0.  1.
       -1    1    3    3    0  502 -0.30756857953E+03  0.41208420091E+03  0.30974214211E+04  0.31398138925E+04  0.50400001928E-02 0. -1.
</event>
<event>
 5   0  0.4071750E-09  0.3796070E+04  0.7818609E-02  0.8046999E-01
       -3   -1    0    0    0  501  0.00000000000E+00  0.00000000000E+00  0.16002982088E+04  0.16002982119E+04  0.10100000352E+00 0. -1.
        3   -1    0    0  501    0  0.00000000000E+00  0.00000000000E+00 -0.22511661025E+04  0.22511661047E+04  0.10100000352E+00 0.  1.
    10030    2    1    2    0    0  0.00000000000E+00  0.00000000000E+00 -0.65086789371E+03  0.38514643167E+04  0.37960701215E+04 0.  0.
        5    1    3    3  502    0 -0.12369614734E+03 -0.17264412831E+04  0.46478627538E+03  0.17921910090E+04  0.46999998093E+01 0. -1.
       -5    1    3    3    0  502  0.12369614734E+03  0.17264412831E+04 -0.11156541691E+04  0.20592733077E+04  0.46999998093E+01 0.  1.
</event>
<event>
 5   0  0.4071750E-09  0.3799550E+04  0.7818609E-02  0.8046251E-01
       -1   -1    0    0    0  501  0.00000000000E+00  0.00000000000E+00  0.11321383813E+04  0.11321383813E+04  0.50400001928E-02 0.  1.
        1   -1    0    0  501    0  0.00000000000E+00  0.00000000000E+00 -0.31879013749E+04  0.31879013749E+04  0.50400001928E-02 0. -1.
    10030    2    1    2    0    0  0.00000000000E+00  0.00000000000E+00 -0.20557629936E+04  0.43200397563E+04  0.37995502379E+04 0.  0.
        4    1    3    3  502    0 -0.48621742341E+03  0.81064383757E+03 -0.29015290432E+04  0.30516263230E+04  0.12699999809E+01 0. -1.
       -4    1    3    3    0  502  0.48621742341E+03 -0.81064383757E+03  0.84576604955E+03  0.12684134333E+04  0.12699999809E+01 0.  1.
</event>
<event>
 5   0  0.1264013E-08  0.3802404E+04  0.7818609E-02  0.8045639E-01
        2   -1    0    0  501    0  0.00000000000E+00  0.00000000000E+00  0.21794922146E+04  0.21794922146E+04  0.25500000920E-02 0.  1.
       -2   -1    0    0    0  501  0.00000000000E+00  0.00000000000E+00 -0.16584457680E+04  0.16584457680E+04  0.25500000920E-02 0. -1.
    10030    2    1    2    0    0  0.00000000000E+00  0.00000000000E+00  0.52104644666E+03  0.38379379826E+04  0.38024043129E+04 0.  0.
        4    1    3    3  502    0 -0.14755537396E+04  0.10231933269E+04  0.89116973754E+03  0.20045868743E+04  0.12699999809E+01 0.  1.
       -4    1    3    3    0  502  0.14755537396E+04 -0.10231933269E+04 -0.37012329088E+03  0.18333511082E+04  0.12699999809E+01 0. -1.
</event>
<event>
 5   0  0.1327249E-08  0.3798589E+04  0.7818609E-02  0.8046458E-01
        2   -1    0    0  501    0  0.00000000000E+00  0.00000000000E+00  0.20323989354E+04  0.20323989354E+04  0.25500000920E-02 0. -1.
       -2   -1    0    0    0  501  0.00000000000E+00  0.00000000000E+00 -0.17749068918E+04  0.17749068918E+04  0.25500000920E-02 0.  1.
    10030    2    1    2    0    0  0.00000000000E+00  0.00000000000E+00  0.25749204355E+03  0.38073058272E+04  0.37985886207E+04 0.  0.
        1    1    3    3  502    0 -0.13401092292E+04  0.11084233238E+04  0.89392699847E+03  0.19554028970E+04  0.50400001928E-02 0. -1.
       -1    1    3    3    0  502  0.13401092292E+04 -0.11084233238E+04 -0.63643495492E+03  0.18519029302E+04  0.50400001928E-02 0.  1.
</event>
<event>
 5   0  0.1293993E-08  0.3801264E+04  0.7818609E-02  0.8045884E-01
        2   -1    0    0  501    0  0.00000000000E+00  0.00000000000E+00  0.25246582448E+04  0.25246582449E+04  0.25500000920E-02 0. -1.
       -2   -1    0    0    0  501  0.00000000000E+00  0.00000000000E+00 -0.14308476612E+04  0.14308476612E+04  0.25500000920E-02 0.  1.
    10030    2    1    2    0    0  0.00000000000E+00  0.00000000000E+00  0.10938105837E+04  0.39555059060E+04  0.38012636557E+04 0.  0.
        5    1    3    3  502    0  0.12090420257E+04  0.30850878854E+03 -0.94494149561E+03  0.15652146219E+04  0.46999998093E+01 0.  1.
       -5    1    3    3    0  502 -0.12090420257E+04 -0.30850878854E+03  0.20387520793E+04  0.23902912842E+04  0.46999998093E+01 0. -1.
</event>
<event>
 5   0  0.1293993E-08  0.3785722E+04  0.7818609E-02  0.8049226E-01
       -2   -1    0    0    0  501  0.00000000000E+00  0.00000000000E+00  0.19804148230E+04  0.19804148230E+04  0.25500000920E-02 0.  1.
        2   -1    0    0  501    0  0.00000000000E+00  0.00000000000E+00 -0.18091783509E+04  0.18091783509E+04  0.25500000920E-02 0. -1.
    10030    2    1    2    0    0  0.00000000000E+00  0.00000000000E+00  0.17123647217E+03  0.37895931739E+04  0.37857224534E+04 0.  0.
        5    1    3    3  502    0  0.56101245944E+03  0.22682233914E+03 -0.17097367218E+04  0.18136717181E+04  0.46999998093E+01 0. -1.
       -5    1    3    3    0  502 -0.56101245944E+03 -0.22682233914E+03  0.18809731940E+04  0.19759214558E+04  0.46999998093E+01 0.  1.
</event>
<event>
 5   0  0.1293993E-08  0.3802442E+04  0.7818609E-02  0.8045631E-01
        2   -1    0    0  501    0  0.00000000000E+00  0.00000000000E+00  0.19140642558E+04  0.19140642558E+04  0.25500000920E-02 0. -1.
       -2   -1    0    0    0  501  0.00000000000E+00  0.00000000000E+00 -0.18884638156E+04  0.18884638156E+04  0.25500000920E-02 0.  1.
    10030    2    1    2    0    0  0.00000000000E+00  0.00000000000E+00  0.25600440166E+02  0.38025280714E+04  0.38024418932E+04 0.  0.
        5    1    3    3  502    0  0.32584687062E+03 -0.12043191889E+04  0.14474260927E+04  0.19109226242E+04  0.46999998093E+01 0. -1.
       -5    1    3    3    0  502 -0.32584687062E+03  0.12043191889E+04 -0.14218256525E+04  0.18916054472E+04  0.46999998093E+01 0.  1.
</event>
<event>
 5   0  0.4071750E-09  0.3792864E+04  0.7818609E-02  0.8047688E-01
        1   -1    0    0  501    0  0.00000000000E+00  0.00000000000E+00  0.12434160144E+04  0.12434160144E+04  0.50400001928E-02 0.  1.
       -1   -1    0    0    0  501  0.00000000000E+00  0.00000000000E+00 -0.28923982035E+04  0.28923982035E+04  0.50400001928E-02 0. -1.
    10030    2    1    2    0    0  0.00000000000E+00  0.00000000000E+00 -0.16489821891E+04  0.41358142179E+04  0.37928639555E+04 0.  0.
        5    1    3    3  502    0  0.65919541729E+03  0.33548998371E+03  0.10796392927E+04  0.13087151026E+04  0.46999998093E+01 0.  1.
       -5    1    3    3    0  502 -0.65919541729E+03 -0.33548998371E+03 -0.27286214818E+04  0.28270991154E+04  0.46999998093E+01 0. -1.
</event>
<event>
 5   0  0.1327249E-08  0.3801768E+04  0.7818609E-02  0.8045776E-01
       -2   -1    0    0    0  501  0.00000000000E+00  0.00000000000E+00  0.17010180726E+04  0.17010180726E+04  0.25500000920E-02 0. -1.
        2   -1    0    0  501    0  0.00000000000E+00  0.00000000000E+00 -0.21242339379E+04  0.21242339379E+04  0.25500000920E-02 0.  1.
    10030    2    1    2    0    0  0.00000000000E+00  0.00000000000E+00 -0.42321586524E+03  0.38252520105E+04  0.38017681774E+04 0.  0.
        1    1    3    3  502    0 -0.30385434321E+03  0.14861074141E+04 -0.13643363259E+04  0.20401608560E+04  0.50400001928E-02 0.  1.
       -1    1    3    3    0  502  0.30385434321E+03 -0.14861074141E+04  0.94112046064E+03  0.17850911545E+04  0.50400001928E-02 0. -1.
</event>
<event>
 5   0  0.4071750E-09  0.3801499E+04  0.7818609E-02  0.8045833E-01
       -1   -1    0    0    0  501  0.00000000000E+00  0.00000000000E+00  0.17888711214E+04  0.17888711215E+04  0.50400001928E-02 0. -1.
        1   -1    0    0  501    0  0.00000000000E+00  0.00000000000E+00 -0.20196244971E+04  0.20196244971E+04  0.50400001928E-02 0.  1.
    10030    2    1    2    0    0  0.00000000000E+00  0.00000000000E+00 -0.23075337562E+03  0.38084956185E+04  0.38014986198E+04 0.  0.
        2    1    3    3  502    0  0.18617462060E+04  0.36846565957E+03 -0.22036490195E+03  0.19106089521E+04  0.25500000920E-02 0.  1.
       -2    1    3    3    0  502 -0.18617462060E+04 -0.36846565957E+03 -0.10388473677E+02  0.18978866664E+04  0.25500000920E-02 0. -1.
</event>
<event>
 5   0  0.4071750E-09  0.3798635E+04  0.7818609E-02  0.8046448E-01
       -1   -1    0    0    0  501  0.00000000000E+00  0.00000000000E+00  0.12385550893E+04  0.12385550893E+04  0.50400001928E-02 0.  1.
        1   -1    0    0  501    0  0.00000000000E+00  0.00000000000E+00 -0.29125929268E+04  0.29125929268E+04  0.50400001928E-02 0. -1.
    10030    2    1    2    0    0  0.00000000000E+00  0.00000000000E+00 -0.16740378375E+04  0.41511480161E+04  0.37986349088E+04 0.  0.
        4    1    3    3  502    0 -0.58725427298E+03 -0.78674143892E+03 -0.26138106475E+04  0.27921026820E+04  0.12699999809E+01 0. -1.
       -4    1    3    3    0  502  0.58725427298E+03  0.78674143892E+03  0.93977281001E+03  0.13590453341E+04  0.12699999809E+01 0.  1.
</event>
<event>
 5   0  0.4071750E-09  0.3804498E+04  0.7818609E-02  0.8045190E-01
       -1   -1    0    0    0  501  0.00000000000E+00  0.00000000000E+00  0.11279262690E+04  0.11279262691E+04  0.50400001928E-02 0. -1.
        1   -1    0    0  501    0  0.00000000000E+00  0.00000000000E+00 -0.32081453888E+04  0.32081453888E+04  0.50400001928E-02 0.  1.
    10030    2    1    2    0    0  0.00000000000E+00  0.00000000000E+00 -0.20802191197E+04  0.43360716578E+04  0.38044981056E+04 0.  0.
        3    1    3    3  502    0  0.96739153880E+03 -0.13011560432E+04 -0.21739460434E+04  0.27119909380E+04  0.10100000352E+00 0.  1.
       -3    1    3    3    0  502 -0.96739153880E+03  0.13011560432E+04  0.93726923653E+02  0.16240807198E+04  0.10100000352E+00 0. -1.
</event>
<event>
 5   0  0.1327249E-08  0.3792652E+04  0.7818609E-02  0.8047734E-01
       -2   -1    0    0    0  501  0.00000000000E+00  0.00000000000E+00  0.14223691275E+04  0.14223691275E+04  0.25500000920E-02 0.  1.
        2   -1    0    0  501    0  0.00000000000E+00  0.00000000000E+00 -0.25282127492E+04  0.25282127492E+04  0.25500000920E-02 0. -1.
    10030    2    1    2    0    0  0.00000000000E+00  0.00000000000E+00 -0.11058436216E+04  0.39505818767E+04  0.37926517174E+04 0.  0.
        1    1    3    3  502    0  0.22951450126E+02  0.10703108194E+04 -0.21833346187E+04  0.24316747472E+04  0.50400001928E-02 0. -1.
       -1    1    3    3    0  502 -0.22951450126E+02 -0.10703108194E+04  0.10774909970E+04  0.15189071295E+04  0.50400001928E-02 0.  1.
</event>
<event>
 5   0  0.4071750E-09  0.3803070E+04  0.7818609E-02  0.8045496E-01
        1   -1    0    0  501    0  0.00000000000E+00  0.00000000000E+00  0.25601098281E+04  0.25601098281E+04  0.50400001928E-02 0.  1.
       -1   -1    0    0    0  501  0.00000000000E+00  0.00000000000E+00 -0.14123751719E+04  0.14123751719E+04  0.50400001928E-02 0. -1.
    10030    2    1    2    0    0  0.00000000000E+00  0.00000000000E+00  0.11477346562E+04  0.39724850000E+04  0.38030701064E+04 0.  0.
        4    1    3    3  502    0 -0.15120135579E+04 -0.10396185846E+04  0.10949299288E+04  0.21367884693E+04  0.12699999809E+01 0.  1.
       -4    1    3    3    0  502  0.15120135579E+04  0.10396185846E+04  0.52804727476E+02  0.18356965307E+04  0.12699999809E+01 0. -1.
</event>
<event>
 5   0  0.4071750E-09  0.3801286E+04  0.7818609E-02  0.8045879E-01
       -1   -1    0    0    0  501  0.00000000000E+00  0.00000000000E+00  0.28582369824E+04  0.28582369824E+04  0.50400001928E-02 0. -1.
        1   -1    0    0  501    0  0.00000000000E+00  0.00000000000E+00 -0.12638716284E+04  0.12638716284E+04  0.50400001928E-02 0.  1.
    10030    2    1    2    0    0  0.00000000000E+00  0.00000000000E+00  0.15943653540E+04  0.41221086108E+04  0.38012864292E+04 0.  0.
        4    1    3    3  502    0 -0.10077060990E+04 -0.16115011800E+04  0.79073246047E+03  0.20585594653E+04  0.12699999809E+01 0.  1.
       -4    1    3    3    0  502  0.10077060990E+04  0.16115011800E+04  0.80363289354E+03  0.20635491455E+04  0.12699999809E+01 0. -1.
</event>
<event>
 5   0  0.4071750E-09  0.3799656E+04  0.7818609E-02  0.8046229E-01
       -1   -1    0    0    0  501  0.00000000000E+00  0.00000000000E+00  0.19618144077E+04  0.19618144078E+04  0.50400001928E-02 0.  1.
        1   -1    0    0  501    0  0.00000000000E+00  0.00000000000E+00 -0.18397997066E+04  0.18397997066E+04  0.50400001928E-02 0. -1.
    10030    2    1    2    0    0  0.00000000000E+00  0.00000000000E+00  0.12201470117E+03  0.38016141143E+04  0.37996555485E+04 0.  0.
        5    1    3    3  502    0 -0.66046561278E+03  0.52361178793E+03 -0.16424974746E+04  0.18461322201E+04  0.46999998093E+01 0. -1.
       -5    1    3    3    0  502  0.66046561278E+03 -0.52361178793E+03  0.17645121758E+04  0.19554818942E+04  0.46999998093E+01 0.  1.
</event>
<event>
 5   0  0.1261152E-08  0.3800492E+04  0.7818609E-02  0.8046049E-01
        2   -1    0    0  501    0  0.00000000000E+00  0.00000000000E+00  0.26232643057E+04  0.26232643057E+04  0.25500000920E-02 0.  1.
       -2   -1    0    0    0  501  0.00000000000E+00  0.00000000000E+00 -0.13765042742E+04  0.13765042742E+04  0.25500000920E-02 0. -1.
    10030    2    1    2    0    0  0.00000000000E+00  0.00000000000E+00  0.12467600315E+04  0.39997685799E+04  0.38004918256E+04 0.  0.
        2    1    3    3  502    0 -0.13093353756E+04 -0.12961943499E+04  0.13373708879E+03  0.18472586520E+04  0.25500000920E-02 0. -1.
       -2    1    3    3    0  502  0.13093353756E+04  0.12961943499E+04  0.11130229428E+04  0.21525099279E+04  0.25500000920E-02 0.  1.
</event>
<event>
 5   0  0.1264013E-08  0.3802785E+04  0.7818609E-02  0.8045558E-01
       -2   -1    0    0    0  501  0.00000000000E+00  0.00000000000E+00  0.17566616872E+04  0.17566616872E+04  0.25500000920E-02 0. -1.
        2   -1    0    0  501    0  0.00000000000E+00  0.00000000000E+00 -0.20580473192E+04  0.20580473192E+04  0.25500000920E-02 0.  1.
    10030    2    1    2    0    0  0.00000000000E+00  0.00000000000E+00 -0.30138563204E+03  0.38147090064E+04  0.38027847039E+04 0.  0.
        4    1    3    3  502    0 -0.11680132281E+04 -0.14998073479E+04 -0.11038870749E+03  0.19041702291E+04  0.12699999809E+01 0.  1.
       -4    1    3    3    0  502  0.11680132281E+04  0.14998073479E+04 -0.19099692455E+03  0.19105387774E+04  0.12699999809E+01 0. -1.
</event>
<event>
 5   0  0.1293993E-08  0.3796642E+04  0.7818609E-02  0.8046876E-01
        2   -1    0    0  501    0  0.00000000000E+00  0.00000000000E+00  0.18618328614E+04  0.18618328614E+04  0.25500000920E-02 0.  1.
       -2   -1    0    0    0  501  0.00000000000E+00  0.00000000000E+00 -0.19355245023E+04  0.19355245023E+04  0.25500000920E-02 0. -1.
    10030    2    1    2    0    0  0.00000000000E+00  0.00000000000E+00 -0.73691640840E+02  0.37973573637E+04  0.37966422652E+04 0.  0.
        5    1    3    3  502    0 -0.15635773012E+04  0.78520722987E+03 -0.77337888615E+03  0.19129718665E+04  0.46999998093E+01 0. -1.
       -5    1    3    3    0  502  0.15635773012E+04 -0.78520722987E+03  0.69968724531E+03  0.18843854972E+04  0.46999998093E+01 0.  1.
</event>
<event>
 5   0  0.1305088E-08  0.3801826E+04  0.7818609E-02  0.8045763E-01
        2   -1    0    0  501    0  0.00000000000E+00  0.00000000000E+00  0.23497550493E+04  0.23497550493E+04  0.25500000920E-02 0. -1.
       -2   -1    0    0    0  501  0.00000000000E+00  0.00000000000E+00 -0.15378075562E+04  0.15378075562E+04  0.25500000920E-02 0.  1.
    10030    2    1    2    0    0  0.00000000000E+00  0.00000000000E+00  0.81194749311E+03  0.38875626055E+04  0.38018264401E+04 0.  0.
        3    1    3    3  502    0 -0.92083877584E+02  0.12576924553E+04  0.18604433778E+04  0.22475585254E+04  0.10100000352E+00 0. -1.
       -3    1    3    3    0  502  0.92083877584E+02 -0.12576924553E+04 -0.10484958847E+04  0.16400040802E+04  0.10100000352E+00 0.  1.
</event>
<event>
 5   0  0.1293993E-08  0.3801142E+04  0.7818609E-02  0.8045910E-01
        2   -1    0    0  501    0  0.00000000000E+00  0.00000000000E+00  0.28067369134E+04  0.28067369134E+04  0.25500000920E-02 0. -1.
       -2   -1    0    0    0  501  0.00000000000E+00  0.00000000000E+00 -0.12869641140E+04  0.12869641140E+04  0.25500000920E-02 0.  1.
    10030    2    1    2    0    0  0.00000000000E+00  0.00000000000E+00  0.15197727994E+04  0.40937010274E+04  0.38011417679E+04 0.  0.
        5    1    3    3  502    0  0.14510107003E+04  0.85763417743E+03 -0.18587088904E+03  0.16957412869E+04  0.46999998093E+01 0.  1.
       -5    1    3    3    0  502 -0.14510107003E+04 -0.85763417743E+03  0.17056436885E+04  0.23979597404E+04  0.46999998093E+01 0. -1.
</event>
<event>
 5   0  0.1261152E-08  0.3800339E+04  0.7818609E-02  0.8046082E-01
       -2   -1    0    0    0  501  0.00000000000E+00  0.00000000000E+00  0.16206475069E+04  0.16206475069E+04  0.25500000920E-02 0.  1.
        2   -1    0    0  501    0  0.00000000000E+00  0.00000000000E+00 -0.22279027063E+04  0.22279027063E+04  0.25500000920E-02 0. -1.
    10030    2    1    2    0    0  0.00000000000E+00  0.00000000000E+00 -0.60725519939E+03  0.38485502132E+04  0.38003394409E+04 0.  0.
        2    1    3    3  502    0 -0.14949024037E+03  0.24600332036E+03  0.15984381061E+04  0.16241518847E+04  0.25500000920E-02 0.  1.
       -2    1    3    3    0  502  0.14949024037E+03 -0.24600332036E+03 -0.22056933055E+04  0.22243983284E+04  0.25500000920E-02 0. -1.
</event>
<event>
 5   0  0.4071750E-09  0.3799646E+04  0.7818609E-02  0.8046231E-01
       -1   -1    0    0    0  501  0.00000000000E+00  0.00000000000E+00  0.24688845556E+04  0.24688845556E+04  0.50400001928E-02 0.  1.
        1   -1    0    0  501    0  0.00000000000E+00  0.00000000000E+00 -0.14619267191E+04  0.14619267191E+04  0.50400001928E-02 0. -1.
    10030    2    1    2    0    0  0.00000000000E+00  0.00000000000E+00  0.10069578365E+04  0.39308112747E+04  0.37996464563E+04 0.  0.
        1    1    3    3  502    0 -0.30520984323E+02 -0.91387700558E+03 -0.12193081508E+04  0.15240784358E+04  0.50400001928E-02 0. -1.
       -1    1    3    3    0  502  0.30520984323E+02  0.91387700558E+03  0.22262659873E+04  0.24067328389E+04  0.50400001928E-02 0.  1.
</event>
<event>
 5   0  0.4071750E-09  0.3800876E+04  0.7818609E-02  0.8045967E-01
        1   -1    0    0  501    0  0.00000000000E+00  0.00000000000E+00  0.18645134504E+04  0.18645134504E+04  0.50400001928E-02 0. -1.
       -1   -1    0    0    0  501  0.00000000000E+00  0.00000000000E+00 -0.19370549767E+04  0.19370549768E+04  0.50400001928E-02 0.  1.
    10030    2    1    2    0    0  0.00000000000E+00  0.00000000000E+00 -0.72541526397E+02  0.38015684271E+04  0.38008762454E+04 0.  0.
        4    1    3    3  502    0 -0.83858905103E+03  0.83931400861E+03  0.14485816391E+04  0.18724502609E+04  0.12699999809E+01 0. -1.
       -4    1    3    3    0  502  0.83858905103E+03 -0.83931400861E+03 -0.15211231655E+04  0.19291181662E+04  0.12699999809E+01 0.  1.
</event>
<event>
 5   0  0.1264013E-08  0.3802218E+04  0.7818609E-02  0.8045679E-01
       -2   -1    0    0    0  501  0.00000000000E+00  0.00000000000E+00  0.20731401387E+04  0.20731401387E+04  0.25500000920E-02 0.  1.
        2   -1    0    0  501    0  0.00000000000E+00  0.00000000000E+00 -0.17433531146E+04  0.17433531146E+04  0.25500000920E-02 0. -1.
    10030    2    1    2    0    0  0.00000000000E+00  0.00000000000E+00  0.32978702414E+03  0.38164932533E+04  0.38022179410E+04 0.  0.
        4    1    3    3  502    0  0.13511466966E+04  0.78311350464E+03  0.12530992575E+04  0.20022795806E+04  0.12699999809E+01 0.  1.
       -4    1    3    3    0  502 -0.13511466966E+04 -0.78311350464E+03 -0.92331223332E+03  0.18142136727E+04  0.12699999809E+01 0. -1.
</event>
<event>
 5   0  0.1264013E-08  0.3813531E+04  0.7818609E-02  0.8043257E-01
       -2   -1    0    0    0  501  0.00000000000E+00  0.00000000000E+00  0.17573931265E+04  0.17573931265E+04  0.25500000920E-02 0. -1.
        2   -1    0    0  501    0  0.00000000000E+00  0.00000000000E+00 -0.20688337388E+04  0.20688337388E+04  0.25500000920E-02 0.  1.
    10030    2    1    2    0    0  0.00000000000E+00  0.00000000000E+00 -0.31144061225E+03  0.38262268653E+04  0.38135307485E+04 0.  0.
        4    1    3    3  502    0 -0.11313779654E+03 -0.17381950340E+04 -0.93395101829E+03  0.19764585133E+04  0.12699999809E+01 0.  1.
       -4    1    3    3    0  502  0.11313779654E+03  0.17381950340E+04  0.62251040603E+03  0.18497683520E+04  0.12699999809E+01 0. -1.
</event>
<event>
 5   0  0.4071750E-09  0.3798516E+04  0.7818609E-02  0.8046473E-01
        1   -1    0    0  501    0  0.00000000000E+00  0.00000000000E+00  0.19502052133E+04  0.19502052133E+04  0.50400001928E-02 0.  1.
       -1   -1    0    0    0  501  0.00000000000E+00  0.00000000000E+00 -0.18496421124E+04  0.18496421124E+04  0.50400001928E-02 0. -1.
    10030    2    1    2    0    0  0.00000000000E+00  0.00000000000E+00  0.10056310085E+03  0.37998473257E+04  0.37985163895E+04 0.  0.
        2    1    3    3  502    0  0.74618321703E+03  0.12946702716E+04 -0.11224009988E+04  0.18688885755E+04  0.25500000920E-02 0. -1.
       -2    1    3    3    0  502 -0.74618321703E+03 -0.12946702716E+04  0.12229640997E+04  0.19309587501E+04  0.25500000920E-02 0.  1.
</event>
<event>
 5   0  0.4071750E-09  0.3809143E+04  0.7818609E-02  0.8044196E-01
       -1   -1    0    0    0  501  0.00000000000E+00  0.00000000000E+00  0.18503225973E+04  0.18503225973E+04  0.50400001928E-02 0. -1.
        1   -1    0    0  501    0  0.00000000000E+00  0.00000000000E+00 -0.19604106305E+04  0.19604106305E+04  0.50400001928E-02 0.  1.
    10030    2    1    2    0    0  0.00000000000E+00  0.00000000000E+00 -0.11008803313E+03  0.38107332278E+04  0.38091427328E+04 0.  0.
        2    1    3    3  502    0 -0.76045616777E+03  0.10691639759E+04  0.13261072816E+04  0.18654666207E+04  0.25500000920E-02 0. -1.
       -2    1    3    3    0  502  0.76045616777E+03 -0.10691639759E+04 -0.14361953148E+04  0.19452666071E+04  0.25500000920E-02 0.  1.
</event>
<event>
 5   0  0.1261152E-08  0.3797406E+04  0.7818609E-02  0.8046712E-01
       -2   -1    0    0    0  501  0.00000000000E+00  0.00000000000E+00  0.10922785869E+04  0.10922785869E+04  0.25500000920E-02 0.  1.
        2   -1    0    0  501    0  0.00000000000E+00  0.00000000000E+00 -0.33005073369E+04  0.33005073369E+04  0.25500000920E-02 0. -1.
    10030    2    1    2    0    0  0.00000000000E+00  0.00000000000E+00 -0.22082287500E+04  0.43927859238E+04  0.37974062147E+04 0.  0.
        2    1    3    3  502    0  0.14605971413E+04 -0.11952716889E+04 -0.13441441594E+04  0.23170545830E+04  0.25500000920E-02 0. -1.
       -2    1    3    3    0  502 -0.14605971413E+04  0.11952716889E+04 -0.86408459060E+03  0.20757313408E+04  0.25500000920E-02 0.  1.
</event>
<event>
 5   0  0.1305088E-08  0.3792518E+04  0.7818609E-02  0.8047762E-01
        2   -1    0    0  501    0  0.00000000000E+00  0.00000000000E+00  0.25639346061E+04  0.25639346061E+04  0.25500000920E-02 0. -1.
       -2   -1    0    0    0  501  0.00000000000E+00  0.00000000000E+00 -0.14024531834E+04  0.14024531834E+04  0.25500000920E-02 0.  1.
    10030    2    1    2    0    0  0.00000000000E+00  0.00000000000E+00  0.11614814226E+04  0.39663877895E+04  0.37925180292E+04 0.  0.
        3    1    3    3  502    0 -0.15801013656E+04 -0.51502266800E+03 -0.37426542826E+03  0.17035384630E+04  0.10100000352E+00 0.  1.
       -3    1    3    3    0  502  0.15801013656E+04  0.51502266800E+03  0.15357468509E+04  0.22628493265E+04  0.10100000352E+00 0. -1.
</event>
<event>
 5   0  0.1261152E-08  0.3800268E+04  0.7818609E-02  0.8046097E-01
        2   -1    0    0  501    0  0.00000000000E+00  0.00000000000E+00  0.20697169667E+04  0.20697169667E+04  0.25500000920E-02 0. -1.
       -2   -1    0    0    0  501  0.00000000000E+00  0.00000000000E+00 -0.17444456838E+04  0.17444456838E+04  0.25500000920E-02 0.  1.
    10030    2    1    2    0    0  0.00000000000E+00  0.00000000000E+00  0.32527128282E+03  0.38141626505E+04  0.38002677954E+04 0.  0.
        2    1    3    3  502    0 -0.14551548497E+03 -0.55599151208E+03 -0.16551206947E+04  0.17520633070E+04  0.25500000920E-02 0.  1.
       -2    1    3    3    0  502  0.14551548497E+03  0.55599151208E+03  0.19803919775E+04  0.20620993435E+04  0.25500000920E-02 0. -1.
</event>
<event>
 5   0  0.1327249E-08  0.3799904E+04  0.7818609E-02  0.8046175E-01
       -2   -1    0    0    0  501  0.00000000000E+00  0.00000000000E+00  0.19705199654E+04  0.19705199654E+04  0.25500000920E-02 0.  1.
        2   -1    0    0  501    0  0.00000000000E+00  0.00000000000E+00 -0.18319113148E+04  0.18319113148E+04  0.25500000920E-02 0. -1.
    10030    2    1    2    0    0  0.00000000000E+00  0.00000000000E+00  0.13860865056E+03  0.38024312802E+04  0.37999041150E+04 0.  0.
        1    1    3    3  502    0 -0.11694968031E+04  0.12636499317E+04  0.87313421344E+03  0.19305173600E+04  0.50400001928E-02 0.  1.
       -1    1    3    3    0  502  0.11694968031E+04 -0.12636499317E+04 -0.73452556288E+03  0.18719139203E+04  0.50400001928E-02 0. -1.
</event>
<event>
 5   0  0.4071750E-09  0.3798786E+04  0.7818609E-02  0.8046416E-01
       -1   -1    0    0    0  501  0.00000000000E+00  0.00000000000E+00  0.20322630240E+04  0.20322630240E+04  0.50400001928E-02 0. -1.
        1   -1    0    0  501    0  0.00000000000E+00  0.00000000000E+00 -0.17752096896E+04  0.17752096896E+04  0.50400001928E-02 0.  1.
    10030    2    1    2    0    0  0.00000000000E+00  0.00000000000E+00  0.25705333441E+03  0.38074727137E+04  0.37987856018E+04 0.  0.
        5    1    3    3  502    0  0.15265952450E+04  0.72003258436E+03 -0.74451690371E+03  0.18447946971E+04  0.46999998093E+01 0.  1.
       -5    1    3    3    0  502 -0.15265952450E+04 -0.72003258436E+03  0.10015702381E+04  0.19626780165E+04  0.46999998093E+01 0. -1.
</event>
<event>
 5   0  0.1293993E-08  0.3799197E+04  0.7818609E-02  0.8046327E-01
        2   -1    0    0  501    0  0.00000000000E+00  0.00000000000E+00  0.21245993054E+04  0.21245993054E+04  0.25500000920E-02 0. -1.
       -2   -1    0    0    0  501  0.00000000000E+00  0.00000000000E+00 -0.16984262760E+04  0.16984262760E+04  0.25500000920E-02 0.  1.
    10030    2    1    2    0    0  0.00000000000E+00  0.00000000000E+00  0.42617302946E+03  0.38230255814E+04  0.37991974343E+04 0.  0.
        5    1    3    3  502    0 -0.14757035521E+04  0.21745243428E+03 -0.97049913185E+03  0.17795721929E+04  0.46999998093E+01 0.  1.
       -5    1    3    3    0  502  0.14757035521E+04 -0.21745243428E+03  0.13966721613E+04  0.20434533885E+04  0.46999998093E+01 0. -1.
</event>
<event>
 5   0  0.1264013E-08  0.3800321E+04  0.7818609E-02  0.8046086E-01
       -2   -1    0    0    0  501  0.00000000000E+00  0.00000000000E+00  0.11345779699E+04  0.11345779699E+04  0.25500000920E-02 0. -1.
        2   -1    0    0  501    0  0.00000000000E+00  0.00000000000E+00 -0.31823380499E+04  0.31823380499E+04  0.25500000920E-02 0.  1.
    10030    2    1    2    0    0  0.00000000000E+00  0.00000000000E+00 -0.20477600800E+04  0.43169160199E+04  0.38003213782E+04 0.  0.
        4    1    3    3  502    0 -0.10531147126E+04  0.22514924257E+03 -0.28022130137E+04  0.30020230123E+04  0.12699999809E+01 0.  1.
       -4    1    3    3    0  502  0.10531147126E+04 -0.22514924257E+03  0.75445293372E+03  0.13148930076E+04  0.12699999809E+01 0. -1.
</event>
<event>
 5   0  0.1261152E-08  0.3802937E+04  0.7818609E-02  0.8045525E-01
       -2   -1    0    0    0  501  0.00000000000E+00  0.00000000000E+00  0.16592400171E+04  0.16592400171E+04  0.25500000920E-02 0. -1.
        2   -1    0    0  501    0  0.00000000000E+00  0.00000000000E+00 -0.21790590454E+04  0.21790590454E+04  0.25500000920E-02 0.  1.
    10030    2    1    2    0    0  0.00000000000E+00  0.00000000000E+00 -0.51981902829E+03  0.38382990625E+04  0.38029367430E+04 0.  0.
        2    1    3    3  502    0 -0.69905084630E+03 -0.14546813373E+04 -0.12746498457E+04  0.20565753348E+04  0.25500000920E-02 0.  1.
       -2    1    3    3    0  502  0.69905084630E+03  0.14546813373E+04  0.75483081738E+03  0.17817237277E+04  0.25500000920E-02 0. -1.
</event>
<event>
 5   0  0.4071750E-09  0.3801151E+04  0.7818609E-02  0.8045908E-01
        1   -1    0    0  501    0  0.00000000000E+00  0.00000000000E+00  0.17482156266E+04  0.17482156266E+04  0.50400001928E-02 0.  1.
       -1   -1    0    0    0  501  0.00000000000E+00  0.00000000000E+00 -0.20662138135E+04  0.20662138135E+04  0.50400001928E-02 0. -1.
    10030    2    1    2    0    0  0.00000000000E+00  0.00000000000E+00 -0.31799818695E+03  0.38144294401E+04  0.38011510240E+04 0.  0.
        5    1    3    3  502    0 -0.30921932590E+03  0.15904015775E+04 -0.11560348804E+04  0.19903347718E+04  0.46999998093E+01 0. -1.
       -5    1    3    3    0  502  0.30921932590E+03 -0.15904015775E+04  0.83803669343E+03  0.18240946683E+04  0.46999998093E+01 0.  1.
</event>
<event>
 5   0  0.4071750E-09  0.3799230E+04  0.7818609E-02  0.8046320E-01
        1   -1    0    0  501    0  0.00000000000E+00  0.00000000000E+00  0.19702603080E+04  0.19702603080E+04  0.50400001928E-02 0.  1.
       -1   -1    0    0    0  501  0.00000000000E+00  0.00000000000E+00 -0.18315027600E+04  0.18315027600E+04  0.50400001928E-02 0. -1.
    10030    2    1    2    0    0  0.00000000000E+00  0.00000000000E+00  0.13875754801E+03  0.38017630681E+04  0.37992300231E+04 0.  0.
        5    1    3    3  502    0 -0.23741674573E+03  0.16993267333E+04 -0.74629477250E+03  0.18711109094E+04  0.46999998093E+01 0. -1.
       -5    1    3    3    0  502  0.23741674573E+03 -0.16993267333E+04  0.88505232051E+03  0.19306521587E+04  0.46999998093E+01 0.  1.
</event>
<event>
 5   0  0.1327249E-08  0.3800055E+04  0.7818609E-02  0.8046143E-01
        2   -1    0    0  501    0  0.00000000000E+00  0.00000000000E+00  0.26266607848E+04  0.26266607848E+04  0.25500000920E-02 0. -1.
       -2   -1    0    0    0  501  0.00000000000E+00  0.00000000000E+00 -0.13744083454E+04  0.13744083454E+04  0.25500000920E-02 0.  1.
    10030    2    1    2    0    0  0.00000000000E+00  0.00000000000E+00  0.12522524394E+04  0.40010691302E+04  0.38000550012E+04 0.  0.
        1    1    3    3  502    0  0.17844652051E+04 -0.74663420500E+02  0.13086555710E+04  0.22141522301E+04  0.50400001928E-02 0. -1.
       -1    1    3    3    0  502 -0.17844652051E+04  0.74663420500E+02 -0.56403131576E+02  0.17869169001E+04  0.50400001928E-02 0.  1.
</event>
<event>
 5   0  0.1293993E-08  0.3800309E+04  0.7818609E-02  0.8046089E-01
        2   -1    0    0  501    0  0.00000000000E+00  0.00000000000E+00  0.20953072666E+04  0.20953072666E+04  0.25500000920E-02 0.  1.
       -2   -1    0    0    0  501  0.00000000000E+00  0.00000000000E+00 -0.17231777886E+04  0.17231777887E+04  0.25500000920E-02 0. -1.
    10030    2    1    2    0    0  0.00000000000E+00  0.00000000000E+00  0.37212947792E+03  0.38184850552E+04  0.38003089044E+04 0.  0.
        5    1    3    3  502    0  0.82663974322E+03  0.13628776426E+04 -0.85319165428E+03  0.18079620634E+04  0.46999998093E+01 0. -1.
       -5    1    3    3    0  502 -0.82663974322E+03 -0.13628776426E+04  0.12253211322E+04  0.20105229918E+04  0.46999998093E+01 0.  1.
</event>
<event>
 5   0  0.1293993E-08  0.3792124E+04  0.7818609E-02  0.8047847E-01
        2   -1    0    0  501    0  0.00000000000E+00  0.00000000000E+00  0.13417845345E+04  0.13417845345E+04  0.25500000920E-02 0.  1.
       -2   -1    0    0    0  501  0.00000000000E+00  0.00000000000E+00 -0.26793061462E+04  0.26793061462E+04  0.25500000920E-02 0. -1.
    10030    2    1    2    0    0  0.00000000000E+00  0.00000000000E+00 -0.13375216117E+04  0.40210906807E+04  0.37921242333E+04 0.  0.
        5    1    3    3  502    0 -0.15485206885E+04 -0.10737249556E+04 -0.44575854858E+03  0.19363688638E+04  0.46999998093E+01 0.  1.
       -5    1    3    3    0  502  0.15485206885E+04  0.10737249556E+04 -0.89176306307E+03  0.20847218169E+04  0.46999998093E+01 0. -1.
</event>
<event>
 5   0  0.4071750E-09  0.3799011E+04  0.7818609E-02  0.8046367E-01
       -1   -1    0    0    0  501  0.00000000000E+00  0.00000000000E+00  0.14242119705E+04  0.14242119705E+04  0.50400001928E-02 0.  1.
        1   -1    0    0  501    0  0.00000000000E+00  0.00000000000E+00 -0.25334153682E+04  0.25334153682E+04  0.50400001928E-02 0. -1.
    10030    2    1    2    0    0  0.00000000000E+00  0.00000000000E+00 -0.11092033977E+04  0.39576273387E+04  0.37990106573E+04 0.  0.
        4    1    3    3  502    0 -0.14278375329E+04 -0.11949712094E+04 -0.94639283526E+03  0.20886208903E+04  0.12699999809E+01 0. -1.
       -4    1    3    3    0  502  0.14278375329E+04  0.11949712094E+04 -0.16281056245E+03  0.18690064484E+04  0.12699999809E+01 0.  1.
</event>
<event>
 5   0  0.4071750E-09  0.3800566E+04  0.7818609E-02  0.8046033E-01
       -1   -1    0    0    0  501  0.00000000000E+00  0.00000000000E+00  0.23566665672E+04  0.23566665672E+04  0.50400001928E-02 0. -1.
        1   -1    0    0  501    0  0.00000000000E+00  0.00000000000E+00 -0.15322808178E+04  0.15322808178E+04  0.50400001928E-02 0.  1.
    10030    2    1    2    0    0  0.00000000000E+00  0.00000000000E+00  0.82438574937E+03  0.38889473850E+04  0.38005657341E+04 0.  0.
        4    1    3    3  502    0  0.41174969106E+02 -0.42763324090E+03  0.23063224317E+04  0.23459945308E+04  0.12699999809E+01 0. -1.
       -4    1    3    3    0  502 -0.41174969106E+02  0.42763324090E+03 -0.14819366823E+04  0.15429528542E+04  0.12699999809E+01 0.  1.
</event>
<event>
 5   0  0.4071750E-09  0.3803468E+04  0.7818609E-02  0.8045411E-01
        1   -1    0    0  501    0  0.00000000000E+00  0.00000000000E+00  0.20983759425E+04  0.20983759425E+04  0.50400001928E-02 0.  1.
       -1   -1    0    0    0  501  0.00000000000E+00  0.00000000000E+00 -0.17235200339E+04  0.17235200339E+04  0.50400001928E-02 0. -1.
    10030    2    1    2    0    0  0.00000000000E+00  0.00000000000E+00  0.37485590855E+03  0.38218959764E+04  0.38034684043E+04 0.  0.
        2    1    3    3  502    0  0.12056181052E+04  0.69883172791E+03 -0.11129486234E+04  0.17834055730E+04  0.25500000920E-02 0. -1.
       -2    1    3    3    0  502 -0.12056181052E+04 -0.69883172791E+03  0.14878045320E+04  0.20384904034E+04  0.25500000920E-02 0.  1.
</event>
<event>
 5   0  0.1327249E-08  0.3800335E+04  0.7818609E-02  0.8046083E-01
       -2   -1    0    0    0  501  0.00000000000E+00  0.00000000000E+00  0.14893609671E+04  0.14893609671E+04  0.25500000920E-02 0. -1.
        2   -1    0    0  501    0  0.00000000000E+00  0.00000000000E+00 -0.24242861542E+04  0.24242861542E+04  0.25500000920E-02 0.  1.
    10030    2    1    2    0    0  0.00000000000E+00  0.00000000000E+00 -0.93492518709E+03  0.39136471213E+04  0.38003353384E+04 0.  0.
        1    1    3    3  502    0  0.15285992346E+04  0.49911226669E+02 -0.16287056274E+04  0.22342311365E+04  0.50400001928E-02 0.  1.
       -1    1    3    3    0  502 -0.15285992346E+04 -0.49911226669E+02  0.69378044027E+03  0.16794159848E+04  0.50400001928E-02 0. -1.
</event>
<event>
 5   0  0.1293993E-08  0.3799206E+04  0.7818609E-02  0.8046325E-01
       -2   -1    0    0    0  501  0.00000000000E+00  0.00000000000E+00  0.13120555248E+04  0.13120555248E+04  0.25500000920E-02 0. -1.
        2   -1    0    0  501    0  0.00000000000E+00  0.00000000000E+00 -0.27502582268E+04  0.27502582268E+04  0.25500000920E-02 0.  1.
    10030    2    1    2    0    0  0.00000000000E+00  0.00000000000E+00 -0.14382027019E+04  0.40623137516E+04  0.37992059702E+04 0.  0.
        5    1    3    3  502    0  0.35908216345E+03 -0.17666689898E+04 -0.78967581498E+02  0.18045268878E+04  0.46999998093E+01 0. -1.
       -5    1    3    3    0  502 -0.35908216345E+03  0.17666689898E+04 -0.13592351204E+04  0.22577868638E+04  0.46999998093E+01 0.  1.
</event>
<event>
 5   0  0.1305088E-08  0.3784415E+04  0.7818609E-02  0.8049508E-01
        2   -1    0    0  501    0  0.00000000000E+00  0.00000000000E+00  0.15499258078E+04  0.15499258079E+04  0.25500000920E-02 0.  1.
       -2   -1    0    0    0  501  0.00000000000E+00  0.00000000000E+00 -0.23100775803E+04  0.23100775803E+04  0.25500000920E-02 0. -1.
    10030    2    1    2    0    0  0.00000000000E+00  0.00000000000E+00 -0.76015177244E+03  0.38600033881E+04  0.37844148080E+04 0.  0.
        3    1    3    3  502    0 -0.88209401292E+03  0.99088115583E+03 -0.17562896881E+04  0.22010199434E+04  0.10100000352E+00 0. -1.
       -3    1    3    3    0  502  0.88209401292E+03 -0.99088115583E+03  0.99613791566E+03  0.16589834447E+04  0.10100000352E+00 0.  1.
</event>
<event>
 5   0  0.4071750E-09  0.3798664E+04  0.7818609E-02  0.8046442E-01
       -1   -1    0    0    0  501  0.00000000000E+00  0.00000000000E+00  0.20573243417E+04  0.20573243417E+04  0.50400001928E-02 0.  1.
        1   -1    0    0  501    0  0.00000000000E+00  0.00000000000E+00 -0.17534727553E+04  0.17534727553E+04  0.50400001928E-02 0. -1.
    10030    2    1    2    0    0  0.00000000000E+00  0.00000000000E+00  0.30385158636E+03  0.38107970970E+04  0.37986640715E+04 0.  0.
        1    1    3    3  502    0  0.56164343161E+02 -0.13394230139E+04 -0.11978283308E+04  0.17977767252E+04  0.50400001928E-02 0. -1.
       -1    1    3    3    0  502 -0.56164343161E+02  0.13394230139E+04  0.15016799172E+04  0.20130203718E+04  0.50400001928E-02 0.  1.
</event>
<event>
 5   0  0.1327249E-08  0.3798268E+04  0.7818609E-02  0.8046527E-01
        2   -1    0    0  501    0  0.00000000000E+00  0.00000000000E+00  0.17143047623E+04  0.17143047623E+04  0.25500000920E-02 0. -1.
       -2   -1    0    0    0  501  0.00000000000E+00  0.00000000000E+00 -0.21038903685E+04  0.21038903685E+04  0.25500000920E-02 0.  1.
    10030    2    1    2    0    0  0.00000000000E+00  0.00000000000E+00 -0.38958560619E+03  0.38181951309E+04  0.37982676463E+04 0.  0.
        1    1    3    3  502    0 -0.12406166307E+04 -0.26675447885E+02  0.12504104610E+04  0.17616377394E+04  0.50400001928E-02 0. -1.
       -1    1    3    3    0  502  0.12406166307E+04  0.26675447885E+02 -0.16399960672E+04  0.20565573915E+04  0.50400001928E-02 0.  1.
</event>
<event>
 5   0  0.4071750E-09  0.3800170E+04  0.7818609E-02  0.8046118E-01
        1   -1    0    0  501    0  0.00000000000E+00  0.00000000000E+00  0.30447185666E+04  0.30447185666E+04  0.50400001928E-02 0.  1.
       -1   -1    0    0    0  501  0.00000000000E+00  0.00000000000E+00 -0.11857660218E+04  0.11857660218E+04  0.50400001928E-02 0. -1.
    10030    2    1    2    0    0  0.00000000000E+00  0.00000000000E+00  0.18589525448E+04  0.42304845884E+04  0.38001704290E+04 0.  0.
        4    1    3    3  502    0 -0.77380940665E+03  0.50122993546E+03 -0.92007320596E+03  0.13025163198E+04  0.12699999809E+01 0. -1.
       -4    1    3    3    0  502  0.77380940665E+03 -0.50122993546E+03  0.27790257508E+04  0.29279682687E+04  0.12699999809E+01 0.  1.
</event>
<event>
 5   0  0.1305088E-08  0.3799602E+04  0.7818609E-02  0.8046240E-01
       -2   -1    0    0    0  501  0.00000000000E+00  0.00000000000E+00  0.16259019180E+04  0.16259019180E+04  0.25500000920E-02 0.  1.
        2   -1    0    0  501    0  0.00000000000E+00  0.00000000000E+00 -0.22198415900E+04  0.22198415900E+04  0.25500000920E-02 0. -1.
    10030    2    1    2    0    0  0.00000000000E+00  0.00000000000E+00 -0.59393967205E+03  0.38457435080E+04  0.37996024523E+04 0.  0.
        3    1    3    3  502    0 -0.23396842635E+03  0.17016693636E+04  0.52456718579E+03  0.17959929259E+04  0.10100000352E+00 0.  1.
       -3    1    3    3    0  502  0.23396842635E+03 -0.17016693636E+04 -0.11185068578E+04  0.20497505821E+04  0.10100000352E+00 0. -1.
</event>
<event>
 5   0  0.1264013E-08  0.3803170E+04  0.7818609E-02  0.8045475E-01
        2   -1    0    0  501    0  0.00000000000E+00  0.00000000000E+00  0.13269452192E+04  0.13269452192E+04  0.25500000920E-02 0.  1.
       -2   -1    0    0    0  501  0.00000000000E+00  0.00000000000E+00 -0.27250750369E+04  0.27250750369E+04  0.25500000920E-02 0. -1.
    10030    2    1    2    0    0  0.00000000000E+00  0.00000000000E+00 -0.13981298177E+04  0.40520202561E+04  0.38031698842E+04 0.  0.
        4    1    3    3  502    0  0.60575182811E+03 -0.16885910405E+04 -0.13710045556E+04  0.22578596244E+04  0.12699999809E+01 0. -1.
       -4    1    3    3    0  502 -0.60575182811E+03  0.16885910405E+04 -0.27125262126E+02  0.17941606316E+04  0.12699999809E+01 0.  1.
</event>
<event>
 5   0  0.4071750E-09  0.3800325E+04  0.7818609E-02  0.8046085E-01
        1   -1    0    0  501    0  0.00000000000E+00  0.00000000000E+00  0.18510683365E+04  0.18510683365E+04  0.50400001928E-02 0. -1.
       -1   -1    0    0    0  501  0.00000000000E+00  0.00000000000E+00 -0.19505590650E+04  0.19505590650E+04  0.50400001928E-02 0.  1.
    10030    2    1    2    0    0  0.00000000000E+00  0.00000000000E+00 -0.99490728506E+02  0.38016274014E+04  0.38003253143E+04 0.  0.
        1    1    3    3  502    0 -0.87993155279E+03 -0.23895108491E+03  0.16179313931E+04  0.18571696615E+04  0.50400001928E-02 0. -1.
       -1    1    3    3    0  502  0.87993155279E+03  0.23895108491E+03 -0.17174221216E+04  0.19444577400E+04  0.50400001928E-02 0.  1.
</event>
<event>
 5   0  0.1327249E-08  0.3799928E+04  0.7818609E-02  0.8046170E-01
        2   -1    0    0  501    0  0.00000000000E+00  0.00000000000E+00  0.25059543395E+04  0.25059543395E+04  0.25500000920E-02 0.  1.
       -2   -1    0    0    0  501  0.00000000000E+00  0.00000000000E+00 -0.14405146267E+04  0.14405146267E+04  0.25500000920E-02 0. -1.
    10030    2    1    2    0    0  0.00000000000E+00  0.00000000000E+00  0.10654397128E+04  0.39464689662E+04  0.37999283571E+04 0.  0.
        1    1    3    3  502    0  0.79676637649E+03 -0.58912104320E+03  0.22163355200E+04  0.24277651039E+04  0.50400001928E-02 0.  1.
       -1    1    3    3    0  502 -0.79676637649E+03  0.58912104320E+03 -0.11508958072E+04  0.15187038623E+04  0.50400001928E-02 0. -1.
</event>
<event>
 5   0  0.4071750E-09  0.3800746E+04  0.7818609E-02  0.8045995E-01
        1   -1    0    0  501    0  0.00000000000E+00  0.00000000000E+00  0.15726555140E+04  0.15726555140E+04  0.50400001928E-02 0.  1.
       -1   -1    0    0    0  501  0.00000000000E+00  0.00000000000E+00 -0.22963814176E+04  0.22963814176E+04  0.50400001928E-02 0. -1.
    10030    2    1    2    0    0  0.00000000000E+00  0.00000000000E+00 -0.72372590359E+03  0.38690369315E+04  0.38007456629E+04 0.  0.
        5    1    3    3  502    0 -0.89745858833E+03  0.11986530434E+04  0.82928723782E+03  0.17117068818E+04  0.46999998093E+01 0.  1.
       -5    1    3    3    0  502  0.89745858833E+03 -0.11986530434E+04 -0.15530131414E+04  0.21573300498E+04  0.46999998093E+01 0. -1.
</event>
<event>
 5   0  0.4071750E-09  0.3803497E+04  0.7818609E-02  0.8045405E-01
        1   -1    0    0  501    0  0.00000000000E+00  0.00000000000E+00  0.19535938775E+04  0.19535938775E+04  0.50400001928E-02 0.  1.
       -1   -1    0    0    0  501  0.00000000000E+00  0.00000000000E+00 -0.18512791211E+04  0.18512791211E+04  0.50400001928E-02 0. -1.
    10030    2    1    2    0    0  0.00000000000E+00  0.00000000000E+00  0.10231475647E+03  0.38048729986E+04  0.38034971048E+04 0.  0.
        5    1    3    3  502    0  0.88262264567E+03 -0.12600683165E+04  0.11695200080E+04  0.19325097764E+04  0.46999998093E+01 0.  1.
       -5    1    3    3    0  502 -0.88262264567E+03  0.12600683165E+04 -0.10672052515E+04  0.18723632222E+04  0.46999998093E+01 0. -1.
</event>
<event>
 5   0  0.4071750E-09  0.3798310E+04  0.7818609E-02  0.8046518E-01
        1   -1    0    0  501    0  0.00000000000E+00  0.00000000000E+00  0.21586472006E+04  0.21586472006E+04  0.50400001928E-02 0. -1.
       -1   -1    0    0    0  501  0.00000000000E+00  0.00000000000E+00 -0.16708561627E+04  0.16708561627E+04  0.50400001928E-02 0.  1.
    10030    2    1    2    0    0  0.00000000000E+00  0.00000000000E+00  0.48779103786E+03  0.38295033633E+04  0.37983096125E+04 0.  0.
        1    1    3    3  502    0  0.14276838898E+04 -0.67648067804E+03  0.13065350689E+04  0.20501076272E+04  0.50400001928E-02 0. -1.
       -1    1    3    3    0  502 -0.14276838898E+04  0.67648067804E+03 -0.81874403101E+03  0.17793957360E+04  0.50400001928E-02 0.  1.
</event>
<event>
 5   0  0.4071750E-09  0.3802315E+04  0.7818609E-02  0.8045658E-01
       -1   -1    0    0    0  501  0.00000000000E+00  0.00000000000E+00  0.14567656733E+04  0.14567656733E+04  0.50400001928E-02 0. -1.
        1   -1    0    0  501    0  0.00000000000E+00  0.00000000000E+00 -0.24811129325E+04  0.24811129325E+04  0.50400001928E-02 0.  1.
    10030    2    1    2    0    0  0.00000000000E+00  0.00000000000E+00 -0.10243472591E+04  0.39378786058E+04  0.38023151641E+04 0.  0.
        3    1    3    3  502    0  0.15587617282E+04  0.10876160426E+04 -0.46880758903E+03  0.19576586391E+04  0.10100000352E+00 0. -1.
       -3    1    3    3    0  502 -0.15587617282E+04 -0.10876160426E+04 -0.55553967011E+03  0.19802199667E+04  0.10100000352E+00 0.  1.
</event>
<event>
 5   0  0.4071750E-09  0.3799140E+04  0.7818609E-02  0.8046339E-01
        1   -1    0    0  501    0  0.00000000000E+00  0.00000000000E+00  0.18665248857E+04  0.18665248858E+04  0.50400001928E-02 0. -1.
       -1   -1    0    0    0  501  0.00000000000E+00  0.00000000000E+00 -0.19332005735E+04  0.19332005735E+04  0.50400001928E-02 0.  1.
    10030    2    1    2    0    0  0.00000000000E+00  0.00000000000E+00 -0.66675687721E+02  0.37997254592E+04  0.37991404183E+04 0.  0.
        3    1    3    3  502    0  0.88334810214E+03 -0.10115967428E+04  0.13102733371E+04  0.18762857106E+04  0.10100000352E+00 0. -1.
       -3    1    3    3    0  502 -0.88334810214E+03  0.10115967428E+04 -0.13769490248E+04  0.19234397487E+04  0.10100000352E+00 0.  1.
</event>
<event>
 5   0  0.4071750E-09  0.3801214E+04  0.7818609E-02  0.8045895E-01
        1   -1    0    0  501    0  0.00000000000E+00  0.00000000000E+00  0.17591426568E+04  0.17591426568E+04  0.50400001928E-02 0. -1.
       -1   -1    0    0    0  501  0.00000000000E+00  0.00000000000E+00 -0.20534469323E+04  0.20534469323E+04  0.50400001928E-02 0.  1.
    10030    2    1    2    0    0  0.00000000000E+00  0.00000000000E+00 -0.29430427552E+03  0.38125895891E+04  0.38012135389E+04 0.  0.
        4    1    3    3  502    0 -0.22002701550E+03  0.86840926447E+03 -0.18284019306E+04  0.20360750897E+04  0.12699999809E+01 0.  1.
       -4    1    3    3    0  502  0.22002701550E+03 -0.86840926447E+03  0.15340976551E+04  0.17765144994E+04  0.12699999809E+01 0. -1.
</event>
<event>
 5   0  0.4071750E-09  0.3799265E+04  0.7818609E-02  0.8046313E-01
       -1   -1    0    0    0  501  0.00000000000E+00  0.00000000000E+00  0.24219981209E+04  0.24219981209E+04  0.50400001928E-02 0. -1.
        1   -1    0    0  501    0  0.00000000000E+00  0.00000000000E+00 -0.14899279723E+04  0.14899279723E+04  0.50400001928E-02 0.  1.
    10030    2    1    2    0    0  0.00000000000E+00  0.00000000000E+00  0.93207014855E+03  0.39119260932E+04  0.37992645337E+04 0.  0.
        3    1    3    3  502    0 -0.12814196299E+03  0.16711412416E+04 -0.45460952685E+03  0.17366068191E+04  0.10100000352E+00 0. -1.
       -3    1    3    3    0  502  0.12814196299E+03 -0.16711412416E+04  0.13866796754E+04  0.21753192741E+04  0.10100000352E+00 0.  1.
</event>
<event>
 5   0  0.4071750E-09  0.3799269E+04  0.7818609E-02  0.8046312E-01
        1   -1    0    0  501    0  0.00000000000E+00  0.00000000000E+00  0.27196712415E+04  0.27196712415E+04  0.50400001928E-02 0. -1.
       -1   -1    0    0    0  501  0.00000000000E+00  0.00000000000E+00 -0.13268557030E+04  0.13268557030E+04  0.50400001928E-02 0.  1.
    10030    2    1    2    0    0  0.00000000000E+00  0.00000000000E+00  0.13928155385E+04  0.40465269445E+04  0.37992690334E+04 0.  0.
        1    1    3    3  502    0 -0.47382718058E+03 -0.16020479952E+04 -0.26661652867E+03  0.16917902794E+04  0.50400001928E-02 0. -1.
       -1    1    3    3    0  502  0.47382718058E+03  0.16020479952E+04  0.16594320672E+04  0.23547366651E+04  0.50400001928E-02 0.  1.
</event>
<event>
 5   0  0.4071750E-09  0.3799602E+04  0.7818609E-02  0.8046240E-01
       -1   -1    0    0    0  501  0.00000000000E+00  0.00000000000E+00  0.17497435957E+04  0.17497435957E+04  0.50400001928E-02 0. -1.
        1   -1    0    0  501    0  0.00000000000E+00  0.00000000000E+00 -0.20627267703E+04  0.20627267703E+04  0.50400001928E-02 0.  1.
    10030    2    1    2    0    0  0.00000000000E+00  0.00000000000E+00 -0.31298317457E+03  0.38124703660E+04  0.37996015349E+04 0.  0.
        5    1    3    3  502    0  0.15242579395E+04  0.13084384397E+03 -0.12866894445E+04  0.19990183077E+04  0.46999998093E+01 0.  1.
       -5    1    3    3    0  502 -0.15242579395E+04 -0.13084384397E+03  0.97370626995E+03  0.18134520583E+04  0.46999998093E+01 0. -1.
</event>
<event>
 5   0  0.1305088E-08  0.3800796E+04  0.7818609E-02  0.8045984E-01
       -2   -1    0    0    0  501  0.00000000000E+00  0.00000000000E+00  0.15179592115E+04  0.15179592115E+04  0.25500000920E-02 0.  1.
        2   -1    0    0  501    0  0.00000000000E+00  0.00000000000E+00 -0.23791897353E+04  0.23791897353E+04  0.25500000920E-02 0. -1.
    10030    2    1    2    0    0  0.00000000000E+00  0.00000000000E+00 -0.86123052381E+03  0.38971489469E+04  0.38007962191E+04 0.  0.
        3    1    3    3  502    0  0.17621568767E+04  0.68458741462E+03 -0.62958660887E+03  0.19925451299E+04  0.10100000352E+00 0. -1.
       -3    1    3    3    0  502 -0.17621568767E+04 -0.68458741462E+03 -0.23164391494E+03  0.19046038170E+04  0.10100000352E+00 0.  1.
</event>
<event>
 5   0  0.1261152E-08  0.3800395E+04  0.7818609E-02  0.8046070E-01
        2   -1    0    0  501    0  0.00000000000E+00  0.00000000000E+00  0.28803613160E+04  0.28803613160E+04  0.25500000920E-02 0.  1.
       -2   -1    0    0    0  501  0.00000000000E+00  0.00000000000E+00 -0.12535755500E+04  0.12535755500E+04  0.25500000920E-02 0. -1.
    10030    2    1    2    0    0  0.00000000000E+00  0.00000000000E+00  0.16267857659E+04  0.41339368660E+04  0.38003949905E+04 0.  0.
        2    1    3    3  502    0  0.11051567833E+04  0.14270317929E+04  0.16714758318E+03  0.18126581498E+04  0.25500000920E-02 0.  1.
       -2    1    3    3    0  502 -0.11051567833E+04 -0.14270317929E+04  0.14596381828E+04  0.23212787162E+04  0.25500000920E-02 0. -1.
</event>
<event>
 5   0  0.4071750E-09  0.3799557E+04  0.7818609E-02  0.8046250E-01
       -1   -1    0    0    0  501  0.00000000000E+00  0.00000000000E+00  0.14097174658E+04  0.14097174658E+04  0.50400001928E-02 0. -1.
        1   -1    0    0  501    0  0.00000000000E+00  0.00000000000E+00 -0.25601996489E+04  0.25601996489E+04  0.50400001928E-02 0.  1.
    10030    2    1    2    0    0  0.00000000000E+00  0.00000000000E+00 -0.11504821830E+04  0.39699171147E+04  0.37995569010E+04 0.  0.
        5    1    3    3  502    0 -0.11684483530E+04 -0.73047090075E+03  0.79117096875E+03  0.15889722723E+04  0.46999998093E+01 0. -1.
       -5    1    3    3    0  502  0.11684483530E+04  0.73047090075E+03 -0.19416531518E+04  0.23809448424E+04  0.46999998093E+01 0.  1.
</event>
<event>
 5   0  0.1305088E-08  0.3802002E+04  0.7818609E-02  0.8045725E-01
       -2   -1    0    0    0  501  0.00000000000E+00  0.00000000000E+00  0.15137421846E+04  0.15137421846E+04  0.25500000920E-02 0. -1.
        2   -1    0    0  501    0  0.00000000000E+00  0.00000000000E+00 -0.23873314541E+04  0.23873314541E+04  0.25500000920E-02 0.  1.
    10030    2    1    2    0    0  0.00000000000E+00  0.00000000000E+00 -0.87358926951E+03  0.39010736386E+04  0.38020017520E+04 0.  0.
        3    1    3    3  502    0 -0.12286208034E+04  0.16549029008E+02  0.10515273915E+04  0.16172485320E+04  0.10100000352E+00 0. -1.
       -3    1    3    3    0  502  0.12286208034E+04 -0.16549029008E+02 -0.19251166610E+04  0.22838251066E+04  0.10100000352E+00 0.  1.
</event>
<event>
 5   0  0.1327249E-08  0.3798791E+04  0.7818609E-02  0.8046414E-01
        2   -1    0    0  501    0  0.00000000000E+00  0.00000000000E+00  0.19895626153E+04  0.19895626153E+04  0.25500000920E-02 0. -1.
       -2   -1    0    0    0  501  0.00000000000E+00  0.00000000000E+00 -0.18133150493E+04  0.18133150493E+04  0.25500000920E-02 0.  1.
    10030    2    1    2    0    0  0.00000000000E+00  0.00000000000E+00  0.17624756605E+03  0.38028776646E+04  0.37987912983E+04 0.  0.
        1    1    3    3  502    0  0.13412374541E+04  0.62008385538E+03 -0.11065928315E+04  0.18460686853E+04  0.50400001928E-02 0.  1.
       -1    1    3    3    0  502 -0.13412374541E+04 -0.62008385538E+03  0.12828403976E+04  0.19568089794E+04  0.50400001928E-02 0. -1.
</event>
<event>
 5   0  0.1264013E-08  0.3800502E+04  0.7818609E-02  0.8046047E-01
       -2   -1    0    0    0  501  0.00000000000E+00  0.00000000000E+00  0.17255663256E+04  0.17255663256E+04  0.25500000920E-02 0.  1.
        2   -1    0    0  501    0  0.00000000000E+00  0.00000000000E+00 -0.20926191856E+04  0.20926191856E+04  0.25500000920E-02 0. -1.
    10030    2    1    2    0    0  0.00000000000E+00  0.00000000000E+00 -0.36705285997E+03  0.38181855112E+04  0.38005016505E+04 0.  0.
        4    1    3    3  502    0 -0.63822615122E+03  0.31269912124E+03  0.15870126423E+04  0.17388858790E+04  0.12699999809E+01 0.  1.
       -4    1    3    3    0  502  0.63822615122E+03 -0.31269912124E+03 -0.19540655022E+04  0.20792996322E+04  0.12699999809E+01 0. -1.
</event>
<event>
 5   0  0.1261152E-08  0.3802859E+04  0.7818609E-02  0.8045542E-01
       -2   -1    0    0    0  501  0.00000000000E+00  0.00000000000E+00  0.12587490138E+04  0.12587490139E+04  0.25500000920E-02 0. -1.
        2   -1    0    0  501    0  0.00000000000E+00  0.00000000000E+00 -0.28722438649E+04  0.28722438649E+04  0.25500000920E-02 0.  1.
    10030    2    1    2    0    0  0.00000000000E+00  0.00000000000E+00 -0.16134948510E+04  0.41309928787E+04  0.38028589942E+04 0.  0.
        2    1    3    3  502    0 -0.17096923202E+04 -0.32470400497E+03  0.25487837453E+02  0.17404396428E+04  0.25500000920E-02 0. -1.
       -2    1    3    3    0  502  0.17096923202E+04  0.32470400497E+03 -0.16389826885E+04  0.23905532359E+04  0.25500000920E-02 0.  1.
</event>
<event>
 5   0  0.4071750E-09  0.3801083E+04  0.7818609E-02  0.8045922E-01
        1   -1    0    0  501    0  0.00000000000E+00  0.00000000000E+00  0.17357748179E+04  0.17357748179E+04  0.50400001928E-02 0. -1.
       -1   -1    0    0    0  501  0.00000000000E+00  0.00000000000E+00 -0.20809488926E+04  0.20809488926E+04  0.50400001928E-02 0.  1.
    10030    2    1    2    0    0  0.00000000000E+00  0.00000000000E+00 -0.34517407468E+03  0.38167237105E+04  0.38010833640E+04 0.  0.
        5    1    3    3  502    0  0.16788438627E+04  0.57746532630E+03  0.50847642405E+03  0.18467683347E+04  0.46999998093E+01 0.  1.
       -5    1    3    3    0  502 -0.16788438627E+04 -0.57746532630E+03 -0.85365049873E+03  0.19699553757E+04  0.46999998093E+01 0. -1.
</event>
<event>
 5   0  0.1261152E-08  0.3801951E+04  0.7818609E-02  0.8045736E-01
       -2   -1    0    0    0  501  0.00000000000E+00  0.00000000000E+00  0.15547845357E+04  0.15547845357E+04  0.25500000920E-02 0.  1.
        2   -1    0    0  501    0  0.00000000000E+00  0.00000000000E+00 -0.23242494353E+04  0.23242494353E+04  0.25500000920E-02 0. -1.
    10030    2    1    2    0    0  0.00000000000E+00  0.00000000000E+00 -0.76946489963E+03  0.38790339710E+04  0.38019505937E+04 0.  0.
        2    1    3    3  502    0  0.63448658840E+03 -0.91909602054E+02  0.14411563594E+04  0.15773243985E+04  0.25500000920E-02 0.  1.
       -2    1    3    3    0  502 -0.63448658840E+03  0.91909602054E+02 -0.22106212590E+04  0.23017095726E+04  0.25500000920E-02 0. -1.
</event>
<event>
 5   0  0.4071750E-09  0.3802084E+04  0.7818609E-02  0.8045708E-01
        1   -1    0    0  501    0  0.00000000000E+00  0.00000000000E+00  0.32305445820E+04  0.32305445820E+04  0.50400001928E-02 0. -1.
       -1   -1    0    0    0  501  0.00000000000E+00  0.00000000000E+00 -0.11186848842E+04  0.11186848842E+04  0.50400001928E-02 0.  1.
    10030    2    1    2    0    0  0.00000000000E+00  0.00000000000E+00  0.21118596978E+04  0.43492294662E+04  0.38020843713E+04 0.  0.
        5    1    3    3  502    0 -0.18552581434E+04  0.31729034800E+03  0.13613408288E+04  0.23229134478E+04  0.46999998093E+01 0. -1.
       -5    1    3    3    0  502  0.18552581434E+04 -0.31729034800E+03  0.75051886900E+03  0.20263160184E+04  0.46999998093E+01 0.  1.
</event>
<event>
 5   0  0.4071750E-09  0.3799501E+04  0.7818609E-02  0.8046262E-01
        1   -1    0    0  501    0  0.00000000000E+00  0.00000000000E+00  0.21228234065E+04  0.21228234065E+04  0.50400001928E-02 0.  1.
       -1   -1    0    0    0  501  0.00000000000E+00  0.00000000000E+00 -0.17001192365E+04  0.17001192365E+04  0.50400001928E-02 0. -1.
    10030    2    1    2    0    0  0.00000000000E+00  0.00000000000E+00  0.42270417003E+03  0.38229426430E+04  0.37995014984E+04 0.  0.
        4    1    3    3  502    0  0.12225487822E+03 -0.14051308694E+04 -0.10691789238E+04  0.17698825383E+04  0.12699999809E+01 0. -1.
       -4    1    3    3    0  502 -0.12225487822E+03  0.14051308694E+04  0.14918830938E+04  0.20530601048E+04  0.12699999809E+01 0.  1.
</event>
<event>
 5   0  0.4071750E-09  0.3798245E+04  0.7818609E-02  0.8046532E-01
       -1   -1    0    0    0  501  0.00000000000E+00  0.00000000000E+00  0.26854084733E+04  0.26854084733E+04  0.50400001928E-02 0.  1.
        1   -1    0    0  501    0  0.00000000000E+00  0.00000000000E+00 -0.13430606255E+04  0.13430606255E+04  0.50400001928E-02 0. -1.
    10030    2    1    2    0    0  0.00000000000E+00  0.00000000000E+00  0.13423478479E+04  0.40284690988E+04  0.37982450599E+04 0.  0.
        2    1    3    3  502    0  0.44625316828E+03  0.16169008636E+04  0.16157487932E+04  0.23289814202E+04  0.25500000920E-02 0.  1.
       -2    1    3    3    0  502 -0.44625316828E+03 -0.16169008636E+04 -0.27340094532E+03  0.16994876786E+04  0.25500000920E-02 0. -1.
</event>
<event>
 5   0  0.4071750E-09  0.3799378E+04  0.7818609E-02  0.8046288E-01
        1   -1    0    0  501    0  0.00000000000E+00  0.00000000000E+00  0.26281310661E+04  0.26281310661E+04  0.50400001928E-02 0. -1.
       -1   -1    0    0    0  501  0.00000000000E+00  0.00000000000E+00 -0.13731503536E+04  0.13731503536E+04  0.50400001928E-02 0.  1.
    10030    2    1    2    0    0  0.00000000000E+00  0.00000000000E+00  0.12549807124E+04  0.40012814197E+04  0.37993784243E+04 0.  0.
        4    1    3    3  502    0 -0.21082857808E+03 -0.11745466076E+04  0.21841486504E+04  0.24888783343E+04  0.12699999809E+01 0. -1.
       -4    1    3    3    0  502  0.21082857808E+03  0.11745466076E+04 -0.92916793800E+03  0.15124030854E+04  0.12699999809E+01 0.  1.
</event>
<event>
 5   0  0.1327249E-08  0.3797369E+04  0.7818609E-02  0.8046720E-01
        2   -1    0    0  501    0  0.00000000000E+00  0.00000000000E+00  0.18296063955E+04  0.18296063955E+04  0.25500000920E-02 0. -1.
       -2   -1    0    0    0  501  0.00000000000E+00  0.00000000000E+00 -0.19703704304E+04  0.19703704304E+04  0.25500000920E-02 0.  1.
    10030    2    1    2    0    0  0.00000000000E+00  0.00000000000E+00 -0.14076403487E+03  0.37999768259E+04  0.37973687421E+04 0.  0.
        1    1    3    3  502    0  0.14477706820E+03  0.42505316189E+03  0.17757079909E+04  0.18316029753E+04  0.50400001928E-02 0. -1.
       -1    1    3    3    0  502 -0.14477706820E+03 -0.42505316189E+03 -0.19164720258E+04  0.19683738506E+04  0.50400001928E-02 0.  1.
</event>
<event>
 5   0  0.1264013E-08  0.3794454E+04  0.7818609E-02  0.8047346E-01
       -2   -1    0    0    0  501  0.00000000000E+00  0.00000000000E+00  0.12707720051E+04  0.12707720051E+04  0.25500000920E-02 0.  1.
        2   -1    0    0  501    0  0.00000000000E+00  0.00000000000E+00 -0.28325074411E+04  0.28325074411E+04  0.25500000920E-02 0. -1.
    10030    2    1    2    0    0  0.00000000000E+00  0.00000000000E+00 -0.15617354360E+04  0.41032794462E+04  0.37944544590E+04 0.  0.
        4    1    3    3  502    0 -0.38427593836E+03  0.15591535545E+04  0.31173168892E+03  0.16357891252E+04  0.12699999809E+01 0.  1.
       -4    1    3    3    0  502  0.38427593836E+03 -0.15591535545E+04 -0.18734671250E+04  0.24674903211E+04  0.12699999809E+01 0. -1.
</event>
<event>
 5   0  0.4071750E-09  0.3800271E+04  0.7818609E-02  0.8046097E-01
        1   -1    0    0  501    0  0.00000000000E+00  0.00000000000E+00  0.16043585680E+04  0.16043585680E+04  0.50400001928E-02 0.  1.
       -1   -1    0    0    0  501  0.00000000000E+00  0.00000000000E+00 -0.22504415390E+04  0.22504415390E+04  0.50400001928E-02 0. -1.
    10030    2    1    2    0    0  0.00000000000E+00  0.00000000000E+00 -0.64608297093E+03  0.38548001070E+04  0.38002711298E+04 0.  0.
        3    1    3    3  502    0  0.82030187692E+03  0.60617256256E+03  0.13031384991E+04  0.16548444951E+04  0.10100000352E+00 0.  1.
       -3    1    3    3    0  502 -0.82030187692E+03 -0.60617256256E+03 -0.19492214700E+04  0.21999556119E+04  0.10100000352E+00 0. -1.
</event>
<event>
 5   0  0.1305088E-08  0.3800475E+04  0.7818609E-02  0.8046053E-01
        2   -1    0    0  501    0  0.00000000000E+00  0.00000000000E+00  0.12535737244E+04  0.12535737244E+04  0.25500000920E-02 0. -1.
       -2   -1    0    0    0  501  0.00000000000E+00  0.00000000000E+00 -0.28804864201E+04  0.28804864201E+04  0.25500000920E-02 0.  1.
    10030    2    1    2    0    0  0.00000000000E+00  0.00000000000E+00 -0.16269126957E+04  0.41340601445E+04  0.38004747544E+04 0.  0.
        3    1    3    3  502    0 -0.37492590794E+03 -0.40621487196E+03  0.11641772597E+04  0.12887546938E+04  0.10100000352E+00 0. -1.
       -3    1    3    3    0  502  0.37492590794E+03  0.40621487196E+03 -0.27910899554E+04  0.28453054507E+04  0.10100000352E+00 0.  1.
</event>
<event>
 5   0  0.4071750E-09  0.3799905E+04  0.7818609E-02  0.8046175E-01
       -1   -1    0    0    0  501  0.00000000000E+00  0.00000000000E+00  0.14625472197E+04  0.14625472197E+04  0.50400001928E-02 0.  1.
        1   -1    0    0  501    0  0.00000000000E+00  0.00000000000E+00 -0.24681733853E+04  0.24681733853E+04  0.50400001928E-02 0. -1.
    10030    2    1    2    0    0  0.00000000000E+00  0.00000000000E+00 -0.10056261656E+04  0.39307206051E+04  0.37999053265E+04 0.  0.
        3    1    3    3  502    0 -0.12493993109E+04  0.74404201114E+03  0.76207580580E+03  0.16417541522E+04  0.10100000352E+00 0.  1.
       -3    1    3    3    0  502  0.12493993109E+04 -0.74404201114E+03 -0.17677019714E+04  0.22889664529E+04  0.10100000352E+00 0. -1.
</event>
<event>
 5   0  0.4071750E-09  0.3799533E+04  0.7818609E-02  0.8046255E-01
        1   -1    0    0  501    0  0.00000000000E+00  0.00000000000E+00  0.16459500677E+04  0.16459500677E+04  0.50400001928E-02 0. -1.
       -1   -1    0    0    0  501  0.00000000000E+00  0.00000000000E+00 -0.21927233405E+04  0.21927233405E+04  0.50400001928E-02 0.  1.
    10030    2    1    2    0    0  0.00000000000E+00  0.00000000000E+00 -0.54677327276E+03  0.38386734083E+04  0.37995331981E+04 0.  0.
        2    1    3    3  502    0 -0.95812538056E+03 -0.13823510943E+04  0.61900991710E+03  0.17922254518E+04  0.25500000920E-02 0. -1.
       -2    1    3    3    0  502  0.95812538056E+03  0.13823510943E+04 -0.11657831899E+04  0.20464479564E+04  0.25500000920E-02 0.  1.
</event>
<event>
 5   0  0.1261152E-08  0.3802051E+04  0.7818609E-02  0.8045715E-01
        2   -1    0    0  501    0  0.00000000000E+00  0.00000000000E+00  0.20037532578E+04  0.20037532578E+04  0.25500000920E-02 0.  1.
       -2   -1    0    0    0  501  0.00000000000E+00  0.00000000000E+00 -0.18035645021E+04  0.18035645021E+04  0.25500000920E-02 0. -1.
    10030    2    1    2    0    0  0.00000000000E+00  0.00000000000E+00  0.20018875567E+03  0.38073177599E+04  0.38020511552E+04 0.  0.
        2    1    3    3  502    0 -0.72260449810E+03  0.61057598973E+03  0.17512987003E+04  0.19904791980E+04  0.25500000920E-02 0.  1.
       -2    1    3    3    0  502  0.72260449810E+03 -0.61057598973E+03 -0.15511099446E+04  0.18168385620E+04  0.25500000920E-02 0. -1.
</event>
<event>
 5   0  0.4071750E-09  0.3801387E+04  0.7818609E-02  0.8045857E-01
       -3   -1    0    0    0  501  0.00000000000E+00  0.00000000000E+00  0.22712769672E+04  0.22712769695E+04  0.10100000352E+00 0.  1.
        3   -1    0    0  501    0  0.00000000000E+00  0.00000000000E+00 -0.15905747838E+04  0.15905747870E+04  0.10100000352E+00 0. -1.
    10030    2    1    2    0    0  0.00000000000E+00  0.00000000000E+00  0.68070218344E+03  0.38618517564E+04  0.38013870529E+04 0.  0.
        3    1    3    3  502    0 -0.14561620100E+04 -0.23603325372E+03 -0.87726056717E+03  0.17163058029E+04  0.10100000352E+00 0. -1.
       -3    1    3    3    0  502  0.14561620100E+04  0.23603325372E+03  0.15579627506E+04  0.21455459535E+04  0.10100000352E+00 0.  1.
</event>
<event>
 5   0  0.4071750E-09  0.3799224E+04  0.7818609E-02  0.8046321E-01
        1   -1    0    0  501    0  0.00000000000E+00  0.00000000000E+00  0.20386639351E+04  0.20386639351E+04  0.50400001928E-02 0.  1.
       -1   -1    0    0    0  501  0.00000000000E+00  0.00000000000E+00 -0.17700447519E+04  0.17700447519E+04  0.50400001928E-02 0. -1.
    10030    2    1    2    0    0  0.00000000000E+00  0.00000000000E+00  0.26861918329E+03  0.38087086870E+04  0.37992243415E+04 0.  0.
        1    1    3    3  502    0 -0.14756742504E+04 -0.91626222765E+03 -0.63661954179E+03  0.18499825416E+04  0.50400001928E-02 0. -1.
       -1    1    3    3    0  502  0.14756742504E+04  0.91626222765E+03  0.90523872508E+03  0.19587261454E+04  0.50400001928E-02 0.  1.
</event>
<event>
 5   0  0.1264013E-08  0.3798664E+04  0.7818609E-02  0.8046442E-01
       -2   -1    0    0    0  501  0.00000000000E+00  0.00000000000E+00  0.17817711966E+04  0.17817711966E+04  0.25500000920E-02 0. -1.
        2   -1    0    0  501    0  0.00000000000E+00  0.00000000000E+00 -0.20246498700E+04  0.20246498700E+04  0.25500000920E-02 0.  1.
    10030    2    1    2    0    0  0.00000000000E+00  0.00000000000E+00 -0.24287867348E+03  0.38064210666E+04  0.37986644082E+04 0.  0.
        4    1    3    3  502    0  0.31614036345E+03  0.14401797032E+04 -0.13211304294E+04  0.19797599681E+04  0.12699999809E+01 0.  1.
       -4    1    3    3    0  502 -0.31614036345E+03 -0.14401797032E+04  0.10782517559E+04  0.18266610985E+04  0.12699999809E+01 0. -1.
</event>
<event>
 5   0  0.4071750E-09  0.3799908E+04  0.7818609E-02  0.8046175E-01
        1   -1    0    0  501    0  0.00000000000E+00  0.00000000000E+00  0.19953784605E+04  0.19953784605E+04  0.50400001928E-02 0.  1.
       -1   -1    0    0    0  501  0.00000000000E+00  0.00000000000E+00 -0.18090929755E+04  0.18090929755E+04  0.50400001928E-02 0. -1.
    10030    2    1    2    0    0  0.00000000000E+00  0.00000000000E+00  0.18628548496E+03  0.38044714360E+04  0.37999079759E+04 0.  0.
        1    1    3    3  502    0  0.94099354711E+03 -0.13837455404E+04  0.99400361970E+03  0.19463462622E+04  0.50400001928E-02 0.  1.
       -1    1    3    3    0  502 -0.94099354711E+03  0.13837455404E+04 -0.80771813474E+03  0.18581251738E+04  0.50400001928E-02 0. -1.
</event>
<event>
 5   0  0.1264013E-08  0.3800617E+04  0.7818609E-02  0.8046023E-01
       -2   -1    0    0    0  501  0.00000000000E+00  0.00000000000E+00  0.16142574235E+04  0.16142574235E+04  0.25500000920E-02 0. -1.
        2   -1    0    0  501    0  0.00000000000E+00  0.00000000000E+00 -0.22370485747E+04  0.22370485747E+04  0.25500000920E-02 0.  1.
    10030    2    1    2    0    0  0.00000000000E+00  0.00000000000E+00 -0.62279115118E+03  0.38513059982E+04  0.38006169333E+04 0.  0.
        4    1    3    3  502    0 -0.49570868986E+03  0.45723978724E+03 -0.21117095269E+04  0.22167801125E+04  0.12699999809E+01 0.  1.
       -4    1    3    3    0  502  0.49570868986E+03 -0.45723978724E+03  0.14889183758E+04  0.16345258856E+04  0.12699999809E+01 0. -1.
</event>
<event>
 5   0  0.1293993E-08  0.3800191E+04  0.7818609E-02  0.8046114E-01
       -2   -1    0    0    0  501  0.00000000000E+00  0.00000000000E+00  0.22876480307E+04  0.22876480307E+04  0.25500000920E-02 0.  1.
        2   -1    0    0  501    0  0.00000000000E+00  0.00000000000E+00 -0.15781985375E+04  0.15781985375E+04  0.25500000920E-02 0. -1.
    10030    2    1    2    0    0  0.00000000000E+00  0.00000000000E+00  0.70944949323E+03  0.38658465682E+04  0.38001909301E+04 0.  0.
        5    1    3    3  502    0  0.11096591058E+04  0.15123236637E+03 -0.12067625800E+04  0.16463634393E+04  0.46999998093E+01 0. -1.
       -5    1    3    3    0  502 -0.11096591058E+04 -0.15123236637E+03  0.19162120733E+04  0.22194831289E+04  0.46999998093E+01 0.  1.
</event>
<event>
 5   0  0.4071750E-09  0.3798575E+04  0.7818609E-02  0.8046461E-01
        1   -1    0    0  501    0  0.00000000000E+00  0.00000000000E+00  0.17065789783E+04  0.17065789783E+04  0.50400001928E-02 0. -1.
       -1   -1    0    0    0  501  0.00000000000E+00  0.00000000000E+00 -0.21137571265E+04  0.21137571265E+04  0.50400001928E-02 0.  1.
    10030    2    1    2    0    0  0.00000000000E+00  0.00000000000E+00 -0.40717814823E+03  0.38203361048E+04  0.37985752473E+04 0.  0.
        4    1    3    3  502    0 -0.16172787564E+04  0.97928145735E+03 -0.21696385818E+02  0.18907816094E+04  0.12699999809E+01 0. -1.
       -4    1    3    3    0  502  0.16172787564E+04 -0.97928145735E+03 -0.38548176242E+03  0.19295544954E+04  0.12699999809E+01 0.  1.
</event>
<event>
 5   0  0.1293993E-08  0.3801277E+04  0.7818609E-02  0.8045881E-01
        2   -1    0    0  501    0  0.00000000000E+00  0.00000000000E+00  0.17636829773E+04  0.17636829773E+04  0.25500000920E-02 0. -1.
       -2   -1    0    0    0  501  0.00000000000E+00  0.00000000000E+00 -0.20482289978E+04  0.20482289978E+04  0.25500000920E-02 0.  1.
    10030    2    1    2    0    0  0.00000000000E+00  0.00000000000E+00 -0.28454602053E+03  0.38119119750E+04  0.38012769522E+04 0.  0.
        5    1    3    3  502    0 -0.16608024201E+04  0.71208895771E+03  0.44850097942E+03  0.18618567562E+04  0.46999998093E+01 0. -1.
       -5    1    3    3    0  502  0.16608024201E+04 -0.71208895771E+03 -0.73304699994E+03  0.19500552188E+04  0.46999998093E+01 0.  1.
</event>
<event>
 5   0  0.4071750E-09  0.3800935E+04  0.7818609E-02  0.8045954E-01
        1   -1    0    0  501    0  0.00000000000E+00  0.00000000000E+00  0.23939606466E+04  0.23939606466E+04  0.50400001928E-02 0. -1.
       -1   -1    0    0    0  501  0.00000000000E+00  0.00000000000E+00 -0.15087033622E+04  0.15087033622E+04  0.50400001928E-02 0.  1.
    10030    2    1    2    0    0  0.00000000000E+00  0.00000000000E+00  0.88525728443E+03  0.39026640088E+04  0.38009348726E+04 0.  0.
        2    1    3    3  502    0  0.48753118893E+03 -0.14518718280E+04 -0.71272433729E+03  0.16892585492E+04  0.25500000920E-02 0.  1.
       -2    1    3    3    0  502 -0.48753118893E+03  0.14518718280E+04  0.15979816217E+04  0.22134054596E+04  0.25500000920E-02 0. -1.
</event>
<event>
 5   0  0.1261152E-08  0.3803423E+04  0.7818609E-02  0.8045421E-01
        2   -1    0    0  501    0  0.00000000000E+00  0.00000000000E+00  0.16055588532E+04  0.16055588532E+04  0.25500000920E-02 0. -1.
       -2   -1    0    0    0  501  0.00000000000E+00  0.00000000000E+00 -0.22524908134E+04  0.22524908134E+04  0.25500000920E-02 0.  1.
    10030    2    1    2    0    0  0.00000000000E+00  0.00000000000E+00 -0.64693196022E+03  0.38580496666E+04  0.38034229674E+04 0.  0.
        2    1    3    3  502    0  0.71690948779E+03  0.11868870458E+04  0.99670509854E+03  0.17076536905E+04  0.25500000920E-02 0. -1.
       -2    1    3    3    0  502 -0.71690948779E+03 -0.11868870458E+04 -0.16436370588E+04  0.21503959761E+04  0.25500000920E-02 0.  1.
</event>
<event>
 5   0  0.4071750E-09  0.3797609E+04  0.7818609E-02  0.8046668E-01
       -1   -1    0    0    0  501  0.00000000000E+00  0.00000000000E+00  0.25236072772E+04  0.25236072772E+04  0.50400001928E-02 0.  1.
        1   -1    0    0  501    0  0.00000000000E+00  0.00000000000E+00 -0.14286922957E+04  0.14286922957E+04  0.50400001928E-02 0. -1.
    10030    2    1    2    0    0  0.00000000000E+00  0.00000000000E+00  0.10949149815E+04  0.39522995729E+04  0.37976088658E+04 0.  0.
        5    1    3    3  502    0  0.13196573113E+03  0.17321630035E+04  0.13452547654E+04  0.21971654691E+04  0.46999998093E+01 0. -1.
       -5    1    3    3    0  502 -0.13196573113E+03 -0.17321630035E+04 -0.25033978397E+03  0.17551341038E+04  0.46999998093E+01 0.  1.
</event>
</LesHouchesEvents>
